Membrane in water
40347
    1TMC1    C1    1   1.086   4.596  10.953 -0.7841 -0.1239  0.3094
    1TMC1    C2    2   1.124   4.602  10.825 -0.1749 -0.2077  0.0335
    1TMC1    C3    3   1.024   4.569  10.732 -0.6438  0.1147  0.0256
    1TMC1    C4    4   0.954   4.576  10.996 -0.9141 -0.1452 -0.9051
    1TMC1    C5    5   0.863   4.556  10.905 -0.0044 -0.8582 -0.4807
    1TMC1    C6    6   0.893   4.556  10.767 -0.2058  0.3312 -0.0076
    1TMC1     C    7   1.179   4.630  11.056 -0.5099  0.0457  0.0108
    1TMC1     O    8   1.295   4.599  11.040  0.7230  0.1130  0.0997
    1TMC1     H    9   1.229   4.627  10.812  0.1951 -1.8298 -0.1323
    1TMC1    H1   10   0.922   4.579  11.099  1.2301  0.9272 -0.2661
    1TMC1    H2   11   0.824   4.526  10.688  0.8757  1.7581 -1.4930
    1TMC1    C7   12   0.738   4.502  10.952  0.3501  0.2028  0.6154
    1TMC1    C8   13   1.039   4.622  10.597 -0.1990 -0.6644 -0.2944
    1TMC1    O1   14   0.664   4.565  11.027 -0.3219 -0.1725 -0.3230
    1TMC1    O2   15   0.959   4.627  10.505  0.1849  0.5429 -0.2419
    1TMC1    O3   16   0.758   4.373  10.966 -0.6526  0.4407  0.2969
    1TMC1    H3   17   0.814   4.337  10.894 -1.1928 -3.3921  1.7359
    1TMC1    O5   18   1.175   4.622  10.576 -0.0545  0.2095 -0.1603
    1TMC1    H5   19   1.237   4.606  10.650 -0.9061  0.4299  0.6081
    2MPD2     C   20   1.316   0.019  11.534 -0.5505 -0.6686 -0.2208
    2MPD2    C1   21   1.176   0.034  11.522  0.3188 -0.6766 -0.0710
    2MPD2    C2   22   1.128   0.024  11.392 -1.3440  0.0075 -0.5709
    2MPD2    C3   23   1.202   4.717  11.285 -0.3649  0.3783  0.6837
    2MPD2    C4   24   1.339   4.691  11.312  0.4502  0.0396 -0.4510
    2MPD2    C5   25   1.394   4.716  11.437 -0.2658  0.2868  0.2132
    2MPD2     H   26   1.021   0.028  11.375 -1.8741 -2.6433  2.1504
    2MPD2    H1   27   1.408   4.667  11.232  0.5660  1.9979 -0.9428
    2MPD2    H2   28   1.364   0.050  11.626  0.2079 -0.9049 -0.5375
    2MPD2    H3   29   1.502   4.728  11.439 -0.4440  1.7548  0.6034
    2MPD2     N   30   1.126   4.689  11.164 -0.1241  0.4501 -0.0734
    2MPD2    H5   31   1.028   4.712  11.160 -0.5543 -1.6646 -1.1066
    2MPD2    N1   32   1.089   0.079  11.618  0.4391 -0.8038  0.2297
    2MPD2    H7   33   0.991   0.077  11.590  0.0188  0.6750  1.5791
    3TMC1    C1   34   0.522   0.736  10.643 -0.6161  0.0331 -0.5445
    3TMC1    C2   35   0.567   0.611  10.600  1.0192 -0.2330  0.3992
    3TMC1    C3   36   0.677   0.607  10.523  0.7973  0.5294  0.3173
    3TMC1    C4   37   0.602   0.844  10.647 -0.4904 -0.1652 -0.7511
    3TMC1    C5   38   0.722   0.831  10.569 -0.6548  0.0782  0.0374
    3TMC1    C6   39   0.755   0.718  10.506  1.2866  0.0137 -0.3113
    3TMC1     C   40   0.397   0.735  10.723  0.1812  0.2086  0.2751
    3TMC1     O   41   0.336   0.632  10.744  0.0310  0.1493 -0.2063
    3TMC1     H   42   0.500   0.526  10.587 -0.0252  0.5081  0.8915
    3TMC1    H1   43   0.589   0.933  10.707 -0.6976  0.1878 -1.3216
    3TMC1    H2   44   0.837   0.721  10.435  0.5539 -1.8523 -1.2420
    3TMC1    C7   45   0.795   0.956  10.526 -0.4919 -0.2100  0.3093
    3TMC1    C8   46   0.683   0.508  10.427  0.0872 -0.3133 -0.1797
    3TMC1    O1   47   0.890   0.942  10.449  0.1954 -0.2464  0.2055
    3TMC1    O2   48   0.584   0.451  10.381  0.4395 -0.5990  0.1403
    3TMC1    O3   49   0.708   1.060  10.530  0.2174  0.4894 -0.3381
    3TMC1    H3   50   0.634   1.058  10.594  0.3833 -1.1575 -0.1911
    3TMC1    O5   51   0.804   0.452  10.438 -0.6556 -0.0696 -0.2389
    3TMC1    H5   52   0.859   0.513  10.492  0.9227 -1.0828 -0.7076
    4MPD2     C   53   0.025   1.005  10.948 -0.2688  1.2085  0.0334
    4MPD2    C1   54   0.128   1.088  10.915  1.2700  0.6445 -0.2487
    4MPD2    C2   55   0.238   1.027  10.868 -0.0475 -0.1671 -0.6901
    4MPD2    C3   56   0.251   0.891  10.851 -0.0726  0.3482 -0.6607
    4MPD2    C4   57   0.144   0.815  10.872 -0.8189 -0.3684  0.4337
    4MPD2    C5   58   0.032   0.874  10.931  0.0578 -0.6495  0.1359
    4MPD2     H   59   0.317   1.098  10.849 -0.6981  0.4348 -1.1191
    4MPD2    H1   60   0.141   0.709  10.849  0.2718 -0.6835  1.7418
    4MPD2    H2   61   4.675   1.045  10.996  0.3313  2.4454  0.1008
    4MPD2    H3   62   4.691   0.807  10.959  0.5963 -1.1337  0.5160
    4MPD2     N   63   0.369   0.859  10.782  0.8683  0.4353 -0.3284
    4MPD2    H5   64   0.434   0.935  10.765 -0.3000  1.6513  0.5670
    4MPD2    N1   65   0.138   1.230  10.920 -0.5672  0.2006  0.8401
    4MPD2    H7   66   0.221   1.281  10.892 -0.3361 -0.0629  1.0379
    5TCq1    O1   67   1.651   3.432  11.717 -1.1139 -0.8698 -0.2434
    5TCq1    C1   68   1.549   3.391  11.643  0.1643  1.0753  0.3659
    5TCq1    O2   69   1.517   3.424  11.526  0.2766  0.2940  0.1159
    5TCq1    C2   70   1.459   3.302  11.726  0.4136  0.5528  0.7365
    5TCq1    C3   71   1.514   3.217  11.813  0.3944  0.5985  1.0754
    5TCq1    C4   72   1.449   3.101  11.837  0.3737 -0.2158 -0.0172
    5TCq1    C5   73   1.334   3.075  11.772  0.3794  0.1502 -0.9081
    5TCq1    C6   74   1.270   3.165  11.687  0.1412  0.1627 -0.8767
    5TCq1    C7   75   1.338   3.281  11.662  0.1767 -0.3357 -0.5675
    5TCq1    C8   76   1.182   3.102  11.584 -0.1905  0.2562  0.0701
    5TCq1    O4   77   1.167   2.976  11.587  0.9586  0.6252 -0.4334
    5TCq1    C9   78   1.498   3.006  11.941  0.3500 -0.2101  0.9304
    5TCq1    O5   79   1.418   2.923  11.991  0.2262  0.5612 -0.0417
    5TCq1    O6   80   1.613   3.031  11.983 -0.3872  0.4877 -0.4304
    5TCq1    H1   81   1.634   3.411  11.812  2.1373  1.1599  0.7793
    5TCq1    H2   82   1.609   3.234  11.861  1.3081 -1.4045 -0.0217
    5TCq1    H3   83   1.284   2.980  11.791  2.5207 -0.9197 -0.5996
    5TCq1    H4   84   1.298   3.364  11.604  3.6787  2.5015  1.0705
    6MPD2     C   85   1.079   3.282  11.277  0.1570  0.0822 -0.2564
    6MPD2    C1   86   1.096   3.169  11.358 -0.5755  0.4483 -0.6488
    6MPD2    C2   87   1.107   3.043  11.304 -0.0924 -0.5964  0.2133
    6MPD2    C3   88   1.095   3.020  11.174 -0.4572 -0.0589  0.1463
    6MPD2    C4   89   1.060   3.129  11.091 -0.2276  0.3386  0.0352
    6MPD2    C5   90   1.061   3.258  11.140 -1.0528  0.2910 -0.1347
    6MPD2     H   91   1.149   2.959  11.359  0.8721  0.5566  1.2702
    6MPD2    H1   92   1.031   3.115  10.988 -3.4835  0.9996  0.8345
    6MPD2    H2   93   1.075   3.386  11.307 -3.7653  0.3354 -1.7239
    6MPD2    H3   94   1.036   3.341  11.075  0.1012  0.2934 -0.5621
    6MPD2     N   95   1.109   2.885  11.134  0.0916  0.1918 -0.3707
    6MPD2    H5   96   1.110   2.824  11.216 -2.5670 -0.0782 -0.5467
    6MPD2    N1   97   1.144   3.196  11.485  0.0536  0.2764  0.1807
    6MPD2    H7   98   1.142   3.294  11.514  2.0484  0.5952 -0.7857
    7TCq1    O1   99   3.000   2.633  13.475 -0.1158 -0.5414 -0.3651
    7TCq1    C1  100   3.092   2.637  13.379  0.3338 -0.2527 -0.6006
    7TCq1    O2  101   3.072   2.683  13.265  0.4918  0.8568  0.2845
    7TCq1    C2  102   3.187   2.530  13.412  0.1211 -0.7461  0.1289
    7TCq1    C3  103   3.319   2.547  13.366  0.0535 -0.0681 -0.5582
    7TCq1    C4  104   3.392   2.435  13.360  0.5238  0.6118  0.0395
    7TCq1    C5  105   3.352   2.309  13.401  0.0265  0.7481 -0.3741
    7TCq1    C6  106   3.225   2.294  13.457 -0.5365  0.4121  0.5813
    7TCq1    C7  107   3.141   2.406  13.459  0.2873 -0.0627  0.1716
    7TCq1    C8  108   3.183   2.159  13.464 -0.0972 -0.8988  0.4245
    7TCq1    O4  109   3.262   2.065  13.473  0.4132 -0.2993  0.6046
    7TCq1    C9  110   3.531   2.443  13.315  0.1398  0.0136 -0.4887
    7TCq1    O5  111   3.598   2.540  13.342  0.4348 -0.2308  0.6116
    7TCq1    O6  112   3.564   2.344  13.242  0.5721 -0.5025  0.0729
    7TCq1    H1  113   3.042   2.600  13.557 -1.6684  1.7056  1.3612
    7TCq1    H2  114   3.354   2.642  13.329 -0.0727  1.3113  2.7918
    7TCq1    H3  115   3.413   2.222  13.383 -2.6008 -0.8973 -1.4293
    7TCq1    H4  116   3.040   2.392  13.497  0.0911  0.7631 -0.0436
    8MPD2     C  117   2.818   1.818  13.358  0.2122  0.2510 -0.7762
    8MPD2    C1  118   2.943   1.795  13.393  0.0661 -0.5678 -0.1141
    8MPD2    C2  119   3.027   1.907  13.430 -0.1610  0.1663 -0.0598
    8MPD2    C3  120   2.974   2.032  13.428 -0.1849  0.1037 -0.1461
    8MPD2    C4  121   2.843   2.051  13.393  0.1138  0.2108  0.1806
    8MPD2    C5  122   2.765   1.947  13.356 -0.4841 -0.1705 -0.0297
    8MPD2     H  123   3.131   1.887  13.457  0.3987 -0.0025 -2.3213
    8MPD2    H1  124   2.792   2.147  13.392 -0.1748  0.0488 -0.6112
    8MPD2    H2  125   2.748   1.736  13.343 -0.0509  0.2622  0.3856
    8MPD2    H3  126   2.660   1.962  13.334 -0.8953 -0.2329  1.9313
    8MPD2     N  127   3.046   2.151  13.444  0.4725 -0.0786 -0.0720
    8MPD2    H5  128   2.991   2.237  13.451 -1.2273 -1.1689 -0.0009
    8MPD2    N1  129   2.988   1.658  13.392 -0.7138 -0.2062  0.1789
    8MPD2    H7  130   2.911   1.594  13.376 -0.1073 -1.4724  2.3041
    9TMC1    C1  131   1.163   0.940  10.699  0.0413 -0.3722  0.6065
    9TMC1    C2  132   1.091   0.830  10.686 -0.0447  0.1887 -0.0420
    9TMC1    C3  133   1.147   0.726  10.606 -0.7381 -0.0296  0.7645
    9TMC1    C4  134   1.281   0.957  10.638 -0.2280 -0.2903 -0.3805
    9TMC1    C5  135   1.327   0.856  10.557 -0.1987 -0.2208  0.4188
    9TMC1    C6  136   1.267   0.736  10.548  0.0709 -0.2383  0.0444
    9TMC1     C  137   1.111   1.045  10.790  0.9232 -0.2979  0.4962
    9TMC1     O  138   1.003   1.016  10.837  0.4339  0.0417 -0.2363
    9TMC1     H  139   0.999   0.808  10.739 -0.2238  1.3959  0.1558
    9TMC1    H1  140   1.338   1.049  10.644 -0.7395 -0.1199  1.9507
    9TMC1    H2  141   1.313   0.659  10.487  3.5969  2.3417 -0.5915
    9TMC1    C7  142   1.465   0.869  10.507 -1.0249 -0.6596 -0.0021
    9TMC1    C8  143   1.087   0.595  10.645 -0.1779  0.0547  0.5960
    9TMC1    O1  144   1.487   0.810  10.401  0.2225  0.0179 -0.7554
    9TMC1    O2  145   0.982   0.550  10.604  0.2820 -0.2337  0.5120
    9TMC1    O3  146   1.542   0.848  10.615 -0.0728  0.0279 -0.1798
    9TMC1    H3  147   1.505   0.866  10.704  0.9226  0.3480  0.1685
    9TMC1    O5  148   1.138   0.574  10.770  0.4582  0.1430  0.4495
    9TMC1    H5  149   1.222   0.624  10.780  0.9713 -0.5699 -0.3341
   10MPD2     C  150   1.264   1.340  10.924 -0.2359  0.4536 -0.2027
   10MPD2    C1  151   1.171   1.241  10.913 -0.5182 -0.2583 -0.3935
   10MPD2    C2  152   1.064   1.231  11.005 -0.3003  0.1905  0.3821
   10MPD2    C3  153   1.062   1.310  11.120  0.0631  0.3063 -0.6285
   10MPD2    C4  154   1.163   1.398  11.132  0.9127 -0.0695 -0.2468
   10MPD2    C5  155   1.257   1.418  11.035  0.9461 -0.3668  0.7740
   10MPD2     H  156   0.977   1.167  10.994 -0.8184  0.6502  1.7370
   10MPD2    H1  157   1.168   1.466  11.217 -1.1027 -1.7310  1.1974
   10MPD2    H2  158   1.353   1.335  10.862  0.6004  0.2146  1.0240
   10MPD2    H3  159   1.346   1.478  11.052  2.0559 -1.7117 -0.1900
   10MPD2     N  160   0.970   1.305  11.224 -1.3248  0.0789  0.8812
   10MPD2    H5  161   1.003   1.357  11.305 -0.1440  0.2786  0.2761
   10MPD2    N1  162   1.196   1.141  10.820  0.1976 -0.1105  0.1359
   10MPD2    H7  163   1.291   1.146  10.785 -0.2486 -2.8327 -1.4553
   11TCq1    O1  164   1.316   0.532  14.547  0.1419 -0.2008 -0.0048
   11TCq1    C1  165   1.315   0.466  14.660 -0.0868 -0.6082  0.3148
   11TCq1    O2  166   1.229   0.476  14.745  0.3309  0.3165 -0.0882
   11TCq1    C2  167   1.393   0.337  14.641 -0.0988  0.1662 -0.0228
   11TCq1    C3  168   1.500   0.345  14.555 -0.0473 -0.6454 -0.3199
   11TCq1    C4  169   1.533   0.224  14.497  0.4160 -0.3265 -0.3523
   11TCq1    C5  170   1.467   0.112  14.522  0.1751 -0.6635  0.3406
   11TCq1    C6  171   1.361   0.116  14.606  0.1559 -0.5179  0.4289
   11TCq1    C7  172   1.327   0.226  14.680 -0.4998 -0.2347  0.5243
   11TCq1    C8  173   1.271   4.737  14.618 -0.5528 -0.5684 -0.3137
   11TCq1    O4  174   1.204   4.732  14.718  0.3588  0.1541 -0.8373
   11TCq1    C9  175   1.642   0.224  14.401  0.1082 -0.0858  0.9730
   11TCq1    O5  176   1.682   0.336  14.364  0.4098 -0.4463  0.4495
   11TCq1    O6  177   1.707   0.117  14.386 -0.3879  0.2460  0.3987
   11TCq1    H1  178   1.387   0.491  14.494 -0.3563 -1.5339  0.3532
   11TCq1    H2  179   1.566   0.430  14.538  0.9090 -1.0382  1.5425
   11TCq1    H3  180   1.489   0.014  14.483 -0.9147 -0.1185 -1.6193
   11TCq1    H4  181   1.250   0.231  14.756  0.3411 -0.5511  1.3995
   12MPD2     C  182   1.112   4.486  14.587 -0.1918  0.6514 -0.1059
   12MPD2    C1  183   1.174   4.554  14.485 -0.2419  0.0717  0.1678
   12MPD2    C2  184   1.169   4.508  14.358 -0.1455 -0.3224 -0.7095
   12MPD2    C3  185   1.090   4.399  14.329 -0.3641  0.1892  0.3724
   12MPD2    C4  186   1.015   4.339  14.435 -0.0876  0.1888  0.4998
   12MPD2    C5  187   1.023   4.385  14.561  0.0933  0.5859 -0.5773
   12MPD2     H  188   1.225   4.563  14.284 -1.3059  0.7130 -0.8147
   12MPD2    H1  189   0.944   4.257  14.429 -1.3313  1.2155  1.3198
   12MPD2    H2  190   1.119   4.522  14.689 -1.7182  0.5037  0.0486
   12MPD2    H3  191   0.959   4.342  14.637 -1.7214  1.9056 -1.3701
   12MPD2     N  192   1.092   4.345  14.195  0.4847  0.3647  0.4008
   12MPD2    H5  193   1.038   4.262  14.173 -0.3883 -0.0951  4.2222
   12MPD2    N1  194   1.262   4.661  14.504 -0.5162  0.1220  0.7984
   12MPD2    H7  195   1.297   4.709  14.421 -0.4394 -1.1592  0.0965
   13TCq1    O1  196   1.322   1.123  11.366  0.4112  0.0292 -0.0233
   13TCq1    C1  197   1.349   1.130  11.234 -0.3685  0.0768  0.0567
   13TCq1    O2  198   1.455   1.176  11.200 -0.5765 -0.0577  0.0047
   13TCq1    C2  199   1.283   1.021  11.163 -0.2198  0.6251  0.1749
   13TCq1    C3  200   1.357   0.961  11.069 -0.0058 -0.0422 -0.4052
   13TCq1    C4  201   1.306   0.841  11.010  0.0910  0.5365  0.1403
   13TCq1    C5  202   1.192   0.780  11.049  0.1897  1.1863 -0.5379
   13TCq1    C6  203   1.119   0.852  11.137 -0.6948  0.4519 -0.4379
   13TCq1    C7  204   1.162   0.968  11.197  1.0233 -0.8368  0.1856
   13TCq1    C8  205   0.976   0.841  11.144  0.7375  0.6085 -0.0816
   13TCq1    O4  206   0.912   0.899  11.234  0.2688 -0.1144  0.1971
   13TCq1    C9  207   1.388   0.783  10.907 -0.3346  0.4822  0.6988
   13TCq1    O5  208   1.487   0.849  10.868  0.3276 -0.0155  0.4034
   13TCq1    O6  209   1.356   0.676  10.850 -0.5187  0.5529  0.5122
   13TCq1    H1  210   1.259   1.051  11.387 -0.2568  0.1187 -1.6417
   13TCq1    H2  211   1.462   0.988  11.063  0.1113 -0.3844  0.1554
   13TCq1    H3  212   1.167   0.686  11.001 -0.2979  0.8556  0.3443
   13TCq1    H4  213   1.095   1.035  11.250  1.4924  0.6263 -1.0707
   14MPD2     C  214   0.803   0.571  10.945 -0.4939  0.1127  0.0731
   14MPD2    C1  215   0.804   0.688  11.027  0.4548 -0.7170 -0.2506
   14MPD2    C2  216   0.693   0.740  11.081 -0.2678  0.0909  0.2059
   14MPD2    C3  217   0.574   0.683  11.053  0.1406 -0.3690 -0.3635
   14MPD2    C4  218   0.573   0.571  10.980  0.2367  0.2297 -0.4468
   14MPD2    C5  219   0.684   0.518  10.922  0.3003 -0.2914  0.2766
   14MPD2     H  220   0.703   0.822  11.151  0.8380 -0.5446  0.7849
   14MPD2    H1  221   0.479   0.522  10.961 -0.1536  0.0168  2.0496
   14MPD2    H2  222   0.890   0.528  10.897  0.5730  1.4127  0.8572
   14MPD2    H3  223   0.673   0.422  10.872  0.6297  1.0067 -2.3239
   14MPD2     N  224   0.455   0.732  11.121  0.0484 -0.8621  0.1263
   14MPD2    H5  225   0.461   0.820  11.172  1.3982 -0.4124 -0.7756
   14MPD2    N1  226   0.934   0.743  11.051  0.0322 -0.2311 -0.3312
   14MPD2    H7  227   1.011   0.703  10.999  2.5268  2.3322  1.3922
   15TCq1    O1  228   2.885   4.614   1.843  0.2219 -0.0105  0.3314
   15TCq1    C1  229   2.888   4.485   1.878  0.2928  0.4061 -0.7673
   15TCq1    O2  230   2.978   4.427   1.937  0.0589 -0.3733  0.2642
   15TCq1    C2  231   2.788   4.431   1.792 -0.3333  0.5558  0.7251
   15TCq1    C3  232   2.662   4.492   1.776  0.1147  0.1312 -0.4275
   15TCq1    C4  233   2.570   4.437   1.687 -0.7712 -0.1743  0.0507
   15TCq1    C5  234   2.602   4.325   1.614  0.1268 -0.1595  0.1817
   15TCq1    C6  235   2.723   4.260   1.641  0.7103 -0.5012  0.0939
   15TCq1    C7  236   2.814   4.309   1.729  0.2098 -0.7469  0.5177
   15TCq1    C8  237   2.771   4.146   1.573  0.6407 -0.2005 -0.1649
   15TCq1    O4  238   2.872   4.094   1.617  0.6694 -0.5868  0.0358
   15TCq1    C9  239   2.431   4.485   1.681 -0.3046  0.6938 -0.5277
   15TCq1    O5  240   2.398   4.580   1.759 -0.2313  0.1954  0.7321
   15TCq1    O6  241   2.352   4.404   1.629  0.0028 -0.8917  0.0488
   15TCq1    H1  242   2.824   4.629   1.767  1.6652  1.9654 -0.4284
   15TCq1    H2  243   2.634   4.586   1.821  0.0912  1.2962 -2.8796
   15TCq1    H3  244   2.524   4.277   1.557  0.0237 -0.2092  0.3635
   15TCq1    H4  245   2.911   4.266   1.751  0.4991  0.4315  1.5709
   16MPD2     C  246   2.646   4.057   1.243 -0.0434  0.0123  0.3677
   16MPD2    C1  247   2.715   4.039   1.356 -0.2181 -0.4450  0.3842
   16MPD2    C2  248   2.796   3.926   1.375  0.1803 -0.1267 -0.0180
   16MPD2    C3  249   2.820   3.842   1.271 -0.3212  0.6651 -0.3223
   16MPD2    C4  250   2.749   3.868   1.147  0.1960 -0.0517 -0.7630
   16MPD2    C5  251   2.658   3.971   1.138  0.6439  0.2775  0.0620
   16MPD2     H  252   2.850   3.915   1.468  0.8074 -1.3131 -0.5320
   16MPD2    H1  253   2.755   3.798   1.063  3.6047  0.1743 -0.7132
   16MPD2    H2  254   2.574   4.138   1.248  0.6299  0.5774  0.8603
   16MPD2    H3  255   2.595   3.988   1.051  1.3528  1.7374 -0.1577
   16MPD2     N  256   2.894   3.733   1.302  0.9904  0.8543  0.1245
   16MPD2    H5  257   2.922   3.729   1.400 -2.5163 -2.5329  0.9926
   16MPD2    N1  258   2.695   4.131   1.459  0.0462  0.3350  0.8849
   16MPD2    H7  259   2.641   4.214   1.437  1.3140  1.0488  0.4961
   17TMC1    C1  260   0.171   3.965   9.849  0.1057 -0.1701  0.8785
   17TMC1    C2  261   0.157   3.972   9.986  0.3854 -0.0539  0.0331
   17TMC1    C3  262   0.032   3.943  10.034 -0.1071  0.3106  0.2548
   17TMC1    C4  263   0.061   3.951   9.762 -0.1498 -0.3714  0.0479
   17TMC1    C5  264   4.675   3.929   9.824  0.7099 -0.4259  0.0642
   17TMC1    C6  265   4.659   3.932   9.959  0.4907 -0.2006  0.6643
   17TMC1     C  266   0.286   4.012   9.769  0.8328 -0.0784  0.2941
   17TMC1     O  267   0.306   3.971   9.655 -0.0377  0.0846 -0.1213
   17TMC1     H  268   0.246   3.977  10.048  1.1450  1.0667 -1.1418
   17TMC1    H1  269   0.067   3.955   9.654 -0.8610  0.5467  0.0391
   17TMC1    H2  270   4.560   3.946  10.002  0.1115  1.4785 -0.7331
   17TMC1    C7  271   4.557   3.937   9.752  0.2575  0.5246 -0.2204
   17TMC1    C8  272   0.008   3.976  10.173  0.1262  0.5398 -0.1207
   17TMC1    O1  273   4.446   3.951   9.799  0.3014 -0.1701  0.0591
   17TMC1    O2  274   0.076   4.054  10.239  0.3666 -0.2582 -0.2390
   17TMC1    O3  275   4.585   3.869   9.636 -0.3507  0.0679 -0.0326
   17TMC1    H3  276   4.679   3.852   9.612 -1.0593 -0.5665 -2.2884
   17TMC1    O5  277   4.668   3.883  10.229 -0.0692  0.1764 -0.2660
   17TMC1    H5  278   4.645   3.805  10.174  0.2234 -1.1966  1.5244
   18MPD2     C  279   0.497   4.202   9.667 -0.7650 -0.1537  0.0719
   18MPD2    C1  280   0.441   4.203   9.796  0.8595 -0.9802 -0.3191
   18MPD2    C2  281   0.477   4.302   9.883  0.4956 -0.7940  0.9288
   18MPD2    C3  282   0.552   4.409   9.839 -0.1761 -0.1077  0.2344
   18MPD2    C4  283   0.611   4.397   9.716 -0.7252  0.4989 -0.5510
   18MPD2    C5  284   0.581   4.298   9.627  0.2022 -0.1339  0.3401
   18MPD2     H  285   0.430   4.293   9.981  2.2498 -0.4818  1.8028
   18MPD2    H1  286   0.680   4.471   9.677 -1.0851  1.0420 -0.1590
   18MPD2    H2  287   0.489   4.114   9.604 -0.3955  0.3752 -0.7086
   18MPD2    H3  288   0.613   4.287   9.524  0.6556  0.2937  0.4341
   18MPD2     N  289   0.578   4.529   9.908 -0.0266 -0.4901 -0.4052
   18MPD2    H5  290   0.655   4.592   9.889  1.9354 -2.2228  1.9124
   18MPD2    N1  291   0.347   4.110   9.845  0.3829 -0.1602  0.2273
   18MPD2    H7  292   0.310   4.127   9.938 -3.7935 -0.4614 -1.3451
   19TMC2    C1  293   2.401   4.701  14.211 -0.6266 -0.0125 -0.5733
   19TMC2    C2  294   2.348   0.076  14.152  0.1297 -0.0331  0.0765
   19TMC2    C3  295   2.212   0.091  14.132 -0.1830 -0.6824 -0.1096
   19TMC2    C4  296   2.315   4.597  14.251  0.9328 -0.3080  0.3092
   19TMC2    C5  297   2.180   4.610  14.223 -0.4725 -0.2055 -0.2496
   19TMC2    C6  298   2.130   4.725  14.157 -0.2950 -0.5052 -0.8077
   19TMC2     C  299   2.538   4.658  14.183 -0.1975  0.4518  0.0688
   19TMC2     O  300   2.563   4.545  14.219 -0.0222  0.2832 -0.3545
   19TMC2     H  301   2.411   0.162  14.131 -2.6766  1.6231 -1.5838
   19TMC2    H1  302   2.354   4.513  14.308  0.5753 -0.2278  0.6645
   19TMC2    H2  303   2.028   0.007  14.126 -0.2056  0.2165 -0.6145
   19TMC2    C7  304   2.096   4.487  14.224 -0.3434 -0.2668 -0.4300
   19TMC2    C8  305   2.171   0.181  14.029  0.1375 -0.5928  0.4718
   19TMC2    O1  306   2.160   4.391  14.257 -0.2554  0.3573  0.0828
   19TMC2    O2  307   2.229   0.198  13.922  0.0071  0.4955 -0.2019
   19TMC2    O5  308   2.045   0.222  14.049  0.4463  0.1001  0.2988
   19TMC2    H5  309   2.017   0.198  14.140 -0.7262  0.6771  0.0923
   20MPD2     C  310   2.784   0.104  13.998 -0.4430 -1.6103  0.3878
   20MPD2    C1  311   2.739   4.736  14.072 -1.1786  0.2449  0.5826
   20MPD2    C2  312   2.829   4.644  14.120  0.4891 -1.1080  0.0413
   20MPD2    C3  313   2.964   4.651  14.082  0.9452  0.0445 -0.0682
   20MPD2    C4  314   3.004   0.012  13.994 -0.1423  0.2208 -0.0731
   20MPD2    C5  315   2.914   0.108  13.956  0.2778 -0.1494 -0.5335
   20MPD2     H  316   2.790   4.563  14.180  0.0566  0.2711  1.6155
   20MPD2    H1  317   3.108   0.027  13.969  0.2835 -0.5864  1.2392
   20MPD2    H2  318   2.709   0.176  13.967 -0.1107 -1.7774 -0.8031
   20MPD2    H3  319   2.953   0.195  13.904  0.1365 -0.9235 -1.9141
   20MPD2     N  320   3.069   4.565  14.129  0.3733 -0.2609  0.7418
   20MPD2    H5  321   3.165   4.583  14.103  0.7117 -1.0500  1.4866
   20MPD2    N1  322   2.605   0.003  14.104 -0.0584  0.3952 -0.1001
   20MPD2    H7  323   2.556   0.081  14.061  0.7797  0.0573 -1.6531
   21TMC2    C1  324   0.100   0.674  14.257 -0.4924  0.4054 -0.2490
   21TMC2    C2  325   0.229   0.614  14.263 -0.6569 -0.2857 -0.1312
   21TMC2    C3  326   0.244   0.506  14.345  0.5728 -0.9593 -0.1787
   21TMC2    C4  327   4.738   0.620  14.321  1.0071 -0.2597  0.7339
   21TMC2    C5  328   0.019   0.516  14.408 -0.4370  0.2620 -0.1456
   21TMC2    C6  329   0.141   0.447  14.415  0.1556 -0.3625  0.2212
   21TMC2     C  330   0.100   0.810  14.211  0.2075  0.6497 -0.4125
   21TMC2     O  331   0.132   0.825  14.092  0.5463  0.3162 -0.4101
   21TMC2     H  332   0.310   0.655  14.205  0.7736 -0.7809  1.5230
   21TMC2    H1  333   4.643   0.674  14.321  1.0076 -0.2505  1.9374
   21TMC2    H2  334   0.159   0.371  14.490  0.3090  1.7320  2.3178
   21TMC2    C7  335   4.677   0.497  14.529  0.0282  0.0489  0.2877
   21TMC2    C8  336   0.346   0.531  14.448  0.6215 -0.3224  0.4607
   21TMC2    O1  337   4.720   0.423  14.619  0.2998 -0.1251  0.0617
   21TMC2    O2  338   0.312   0.576  14.558  0.2820  0.1037  0.2506
   21TMC2    O5  339   0.457   0.565  14.384  0.0142 -0.2023  0.3382
   21TMC2    H5  340   0.472   0.511  14.304 -0.4111  0.7672 -0.4016
   22MPD2     C  341   4.722   0.913  14.708 -0.5619 -0.1258  0.4533
   22MPD2    C1  342   0.077   0.826  14.657 -0.1987 -0.0797 -0.0757
   22MPD2    C2  343   0.098   0.833  14.519  0.0279  0.2598 -0.3436
   22MPD2    C3  344   0.036   0.912  14.430  0.9441 -0.1733 -0.7853
   22MPD2    C4  345   4.694   1.006  14.480 -0.5426 -0.1494  0.1539
   22MPD2    C5  346   4.663   1.000  14.619 -0.2122  0.1405 -0.5392
   22MPD2     H  347   0.168   0.760  14.481 -0.1700 -0.0404 -0.1315
   22MPD2    H1  348   4.631   1.068  14.417 -0.4187  0.7293  0.9123
   22MPD2    H2  349   4.698   0.916  14.814 -1.7558  1.5975  0.1311
   22MPD2    H3  350   4.613   1.085  14.664  2.7540  1.1663  0.8682
   22MPD2     N  351   0.044   0.904  14.288 -0.3260 -0.3951  0.7807
   22MPD2    H5  352   0.003   0.987  14.246  0.9550 -1.0536 -1.7402
   22MPD2    N1  353   0.142   0.724  14.730  0.1351  0.4706  0.4199
   22MPD2    H7  354   0.187   0.645  14.685 -2.6174 -0.8469  0.0111
   23TMC2    C1  355   1.369   1.236  14.200 -0.3048 -0.7040  0.5759
   23TMC2    C2  356   1.335   1.249  14.071 -0.1249  0.1269 -0.1799
   23TMC2    C3  357   1.214   1.267  14.026 -0.8994 -0.5298  0.3801
   23TMC2    C4  358   1.267   1.225  14.288 -0.2145  0.3041  0.3448
   23TMC2    C5  359   1.137   1.230  14.245  0.0118 -0.1469  0.4086
   23TMC2    C6  360   1.107   1.256  14.119 -0.3880  0.5148  0.1249
   23TMC2     C  361   1.507   1.225  14.250 -0.1092  0.4765  0.3363
   23TMC2     O  362   1.595   1.228  14.165  0.2575  0.5305 -0.4049
   23TMC2     H  363   1.414   1.260  13.997 -0.1627  0.6188 -0.1494
   23TMC2    H1  364   1.279   1.193  14.391  1.1726 -0.6387 -0.1170
   23TMC2    H2  365   1.005   1.259  14.082 -0.2750 -1.1829 -0.3029
   23TMC2    C7  366   1.035   1.195  14.340 -0.0752 -0.0526 -0.6519
   23TMC2    C8  367   1.185   1.242  13.886 -0.3097  0.0598  0.2955
   23TMC2    O1  368   1.067   1.118  14.427  0.1912  0.2638  0.1928
   23TMC2    O2  369   1.257   1.268  13.791 -0.1026  0.1052 -0.1412
   23TMC2    O5  370   1.086   1.154  13.869  0.3480  0.2192  0.1853
   23TMC2    H5  371   1.032   1.130  13.947  2.7948 -0.1204  1.7729
   24MPD2     C  372   1.841   1.158  14.628 -0.1614 -0.6881  0.0641
   24MPD2    C1  373   1.719   1.160  14.687 -0.1648  0.6975 -0.3280
   24MPD2    C2  374   1.608   1.181  14.606 -0.3723  0.2972 -0.0799
   24MPD2    C3  375   1.618   1.191  14.466  0.4644 -0.3729 -0.5839
   24MPD2    C4  376   1.747   1.167  14.411 -0.0356 -0.1582 -0.5251
   24MPD2    C5  377   1.853   1.163  14.491  0.4253  0.1629 -0.1450
   24MPD2     H  378   1.511   1.193  14.653 -0.3852  1.3323 -0.3836
   24MPD2    H1  379   1.773   1.167  14.306  0.9911  0.5215 -0.2634
   24MPD2    H2  380   1.937   1.160  14.679 -0.7811 -1.1917  1.2463
   24MPD2    H3  381   1.949   1.164  14.441 -0.3397  0.1941 -1.6130
   24MPD2     N  382   1.506   1.221  14.389  0.6070  0.0816 -0.1000
   24MPD2    H5  383   1.423   1.250  14.439  1.6908  2.5350  0.2834
   24MPD2    N1  384   1.721   1.150  14.828  0.5145  0.7466  0.0671
   24MPD2    H7  385   1.816   1.145  14.864 -0.0776  0.2404  1.5828
   25TMC2    C1  386   4.402   4.316  11.603 -0.0458 -0.5336  0.4402
   25TMC2    C2  387   4.454   4.443  11.610  0.3455  0.8182  0.1356
   25TMC2    C3  388   4.417   4.514  11.718 -0.9418 -0.6315 -0.3092
   25TMC2    C4  389   4.300   4.271  11.677 -0.1170  0.0831 -0.4514
   25TMC2    C5  390   4.273   4.352  11.786 -0.7225 -0.4776  0.1878
   25TMC2    C6  391   4.329   4.470  11.812 -0.1730 -0.4244 -0.0131
   25TMC2     C  392   4.463   4.243  11.491 -0.3836 -0.8925  0.3056
   25TMC2     O  393   4.524   4.309  11.411  0.7815  0.0760  0.1032
   25TMC2     H  394   4.532   4.480  11.545  0.6606  1.2710  0.7670
   25TMC2    H1  395   4.255   4.174  11.658 -1.1651  0.2522  1.2051
   25TMC2    H2  396   4.300   4.522  11.903 -2.3483 -2.3202  0.3725
   25TMC2    C7  397   4.208   4.301  11.900 -0.4905  0.3650 -0.2310
   25TMC2    C8  398   4.473   4.647  11.727  0.3073  0.2050 -0.0430
   25TMC2    O1  399   4.252   4.327  12.016  0.2292 -0.6094 -0.0113
   25TMC2    O2  400   4.498   4.711  11.626  0.3403  0.1090 -0.3295
   25TMC2    O5  401   4.453   4.702  11.847  0.5464 -0.2938  0.1884
   25TMC2    H5  402   4.433   4.644  11.923  0.6623  2.9294  2.6404
   26MPD2     C  403   4.576   3.873  11.179  0.7383 -0.7070 -0.1312
   26MPD2    C1  404   4.572   3.827  11.305 -0.8705  0.1883 -0.1011
   26MPD2    C2  405   4.518   3.894  11.409 -0.3110  0.1211  0.4935
   26MPD2    C3  406   4.467   4.021  11.386 -0.5386  0.8689  0.8730
   26MPD2    C4  407   4.468   4.073  11.258  0.2894  0.0752  0.9017
   26MPD2    C5  408   4.530   4.000  11.154  1.0308 -0.5217  0.1760
   26MPD2     H  409   4.507   3.843  11.504 -0.4175 -1.3466 -0.2966
   26MPD2    H1  410   4.438   4.177  11.250  0.6080  0.1077  0.0160
   26MPD2    H2  411   4.609   3.815  11.093 -2.2494 -1.6148 -0.6877
   26MPD2    H3  412   4.525   4.029  11.050  0.6672  0.8580  0.5794
   26MPD2     N  413   4.431   4.108  11.496  0.7117  0.8010  0.0071
   26MPD2    H5  414   4.407   4.055  11.579 -1.2668  0.1081 -1.0108
   26MPD2    N1  415   4.626   3.699  11.321  0.2147 -1.0320  0.8431
   26MPD2    H7  416   4.657   3.655  11.235 -0.8325  0.0245 -0.0701
   27TMC2    C1  417   3.902   1.396  12.215  0.2529 -0.4768 -0.4316
   27TMC2    C2  418   3.928   1.521  12.168  0.1452 -0.1047  0.1506
   27TMC2    C3  419   4.018   1.590  12.251  0.3492 -0.0342  1.1574
   27TMC2    C4  420   3.964   1.335  12.320 -0.3778 -0.1031  0.1223
   27TMC2    C5  421   4.058   1.406  12.392 -0.3285 -0.0128  0.2640
   27TMC2    C6  422   4.080   1.538  12.363  0.1472 -0.4357 -0.0931
   27TMC2     C  423   3.784   1.328  12.175 -0.0360 -0.1070 -0.2134
   27TMC2     O  424   3.738   1.336  12.060  0.0905  0.4363 -0.3676
   27TMC2     H  425   3.879   1.581  12.092  0.1467  1.0878  1.0825
   27TMC2    H1  426   3.943   1.234  12.353 -1.0003  0.1275  0.4244
   27TMC2    H2  427   4.143   1.596  12.428  1.6366 -0.5724 -1.4073
   27TMC2    C7  428   4.051   1.375  12.538 -0.2439 -0.6172  0.5333
   27TMC2    C8  429   4.044   1.725  12.215  0.0091  0.1794 -0.2385
   27TMC2    O1  430   4.018   1.255  12.560 -0.0253  0.0739  0.3521
   27TMC2    O2  431   4.020   1.762  12.100  0.6674  0.1611 -0.2292
   27TMC2    O5  432   4.025   1.805  12.320  0.6596  0.4284 -0.4321
   27TMC2    H5  433   3.992   1.756  12.397 -0.5808 -1.0643 -1.9109
   28MPD2     C  434   3.382   1.023  12.296  0.1906 -0.7281 -0.0045
   28MPD2    C1  435   3.416   1.098  12.406 -0.0994  0.4247  0.4182
   28MPD2    C2  436   3.526   1.191  12.398  0.2303 -1.2665  0.6734
   28MPD2    C3  437   3.604   1.205  12.288  0.2565 -0.1460 -0.2699
   28MPD2    C4  438   3.568   1.134  12.177  0.0994 -0.2819 -0.1131
   28MPD2    C5  439   3.459   1.044  12.183 -0.0055  0.1363 -0.4085
   28MPD2     H  440   3.553   1.233  12.494 -1.4478 -0.5526  0.8411
   28MPD2    H1  441   3.621   1.132  12.082 -2.3908 -0.4452 -1.4933
   28MPD2    H2  442   3.292   0.962  12.299 -1.1988  1.2083 -2.2566
   28MPD2    H3  443   3.431   0.985  12.097  0.1364  1.2147 -1.1913
   28MPD2     N  444   3.719   1.286  12.289 -0.1166  0.1792  0.5825
   28MPD2    H5  445   3.749   1.342  12.368 -0.0516 -0.0650  0.7309
   28MPD2    N1  446   3.333   1.082  12.521  0.2089  0.2143 -0.1431
   28MPD2    H7  447   3.259   1.014  12.511  0.8408 -0.2112 -1.9433
   29TMC2    C1  448   3.552   3.491  14.508 -0.2804 -0.6242  0.0780
   29TMC2    C2  449   3.589   3.466  14.641 -0.5408  0.6196  0.0617
   29TMC2    C3  450   3.680   3.541  14.706  0.0799  0.2143  0.4767
   29TMC2    C4  451   3.624   3.591  14.439  0.0209 -0.1470 -0.2509
   29TMC2    C5  452   3.724   3.649  14.500 -0.2645  0.3620 -0.4063
   29TMC2    C6  453   3.759   3.627  14.631 -0.0908 -0.2076  0.0754
   29TMC2     C  454   3.523   3.369  14.438  0.3255  0.0923 -0.0920
   29TMC2     O  455   3.553   3.256  14.482 -0.1727 -0.5584  0.4801
   29TMC2     H  456   3.563   3.370  14.685 -1.1366 -1.2871 -4.4828
   29TMC2    H1  457   3.599   3.606  14.335  1.7524 -0.2099 -0.6758
   29TMC2    H2  458   3.839   3.685  14.677 -0.2054  1.9393 -2.4415
   29TMC2    C7  459   3.757   3.778  14.443  0.7135  0.2546 -0.0906
   29TMC2    C8  460   3.684   3.547  14.850 -0.2481  0.4595  0.8589
   29TMC2    O1  461   3.674   3.822  14.363 -0.0099 -0.3963  0.1773
   29TMC2    O2  462   3.753   3.626  14.910 -0.4355  0.2431 -0.0777
   29TMC2    O5  463   3.565   3.507  14.894 -0.1961  0.0243 -0.0224
   29TMC2    H5  464   3.501   3.472  14.828 -0.6783  0.8597 -0.0021
   30MPD2     C  465   3.332   3.146  14.025  1.6130 -0.5709  0.3492
   30MPD2    C1  466   3.440   3.117  14.099  0.2737  0.2217 -0.8540
   30MPD2    C2  467   3.478   3.207  14.195 -0.3200  0.5584  0.1988
   30MPD2    C3  468   3.401   3.315  14.232 -0.2112 -0.0323 -1.1464
   30MPD2    C4  469   3.296   3.347  14.151 -0.3398  0.4494 -0.2332
   30MPD2    C5  470   3.263   3.259  14.048 -0.3959 -0.3279 -0.0753
   30MPD2     H  471   3.573   3.190  14.245 -0.4888  0.8604  0.6205
   30MPD2    H1  472   3.230   3.430  14.173 -2.2506 -1.1551  0.0893
   30MPD2    H2  473   3.307   3.076  13.946 -2.7629  0.3417  0.9149
   30MPD2    H3  474   3.195   3.295  13.971 -0.3025  1.0271  0.4735
   30MPD2     N  475   3.435   3.399  14.339 -0.0152 -0.0593 -0.3495
   30MPD2    H5  476   3.403   3.494  14.330  0.2044  0.0719  0.2818
   30MPD2    N1  477   3.515   2.998  14.091 -0.3390  0.2150 -0.2285
   30MPD2    H7  478   3.607   3.000  14.134  0.9697  1.7992 -3.0756
   31TMC2    C1  479   1.166   2.103  15.489 -0.4471  0.2400 -0.3526
   31TMC2    C2  480   1.042   2.106  15.550  0.7524 -0.8453  0.4329
   31TMC2    C3  481   1.042   2.092  15.684  0.6626 -0.3869 -0.9974
   31TMC2    C4  482   1.286   2.084  15.563  1.2841 -0.2620 -0.9470
   31TMC2    C5  483   1.278   2.090  15.700 -0.3703  0.4107  0.3795
   31TMC2    C6  484   1.151   2.084  15.759 -0.7194  0.4217  0.1407
   31TMC2     C  485   1.188   2.157  15.357 -0.3521 -0.3509  0.9701
   31TMC2     O  486   1.115   2.245  15.319 -0.2453  0.1471 -0.1545
   31TMC2     H  487   0.947   2.111  15.498  0.4081  1.6093  1.3092
   31TMC2    H1  488   1.385   2.071  15.522  1.9860 -0.4718  0.8280
   31TMC2    H2  489   1.150   2.073  15.867  1.2999 -2.3762 -0.1118
   31TMC2    C7  490   1.389   2.053  15.783  0.1231 -0.2431 -0.1213
   31TMC2    C8  491   0.916   2.054  15.741  0.0620  0.9474  0.5242
   31TMC2    O1  492   1.456   1.954  15.758  0.1359  0.1896 -0.5500
   31TMC2    O2  493   0.911   1.954  15.811 -0.5121  0.0841  0.4915
   31TMC2    O5  494   0.817   2.123  15.694  1.1471  0.3133 -0.2037
   31TMC2    H5  495   0.855   2.206  15.658  0.1518  0.9376  0.1908
   32MPD2     C  496   1.463   2.250  14.936  0.4317  0.3087  0.5155
   32MPD2    C1  497   1.369   2.330  14.998 -0.1457 -0.0990 -0.0567
   32MPD2    C2  498   1.313   2.287  15.113 -0.1530  0.4677 -0.2634
   32MPD2    C3  499   1.363   2.171  15.179  0.2317 -0.2318 -0.8908
   32MPD2    C4  500   1.453   2.094  15.115  0.6602 -0.1645 -0.0137
   32MPD2    C5  501   1.492   2.130  14.991 -0.1345  0.5045 -0.0523
   32MPD2     H  502   1.236   2.343  15.166 -0.7059  1.2530 -1.8808
   32MPD2    H1  503   1.492   2.001  15.154 -1.2581  0.1713  2.6548
   32MPD2    H2  504   1.496   2.277  14.836 -1.0855  1.2940  0.2888
   32MPD2    H3  505   1.555   2.065  14.931  0.6374  0.2506  1.0241
   32MPD2     N  506   1.304   2.117  15.297  0.3040  0.0639 -0.0163
   32MPD2    H5  507   1.351   2.035  15.335 -1.0243 -0.7680 -0.1505
   32MPD2    N1  508   1.325   2.444  14.922  0.0811 -0.2143  0.0768
   32MPD2    H7  509   1.370   2.453  14.831 -0.5416 -0.0988 -0.2156
   33TMC2    C1  510   0.977   0.649   9.522  0.0247  0.4239  0.3418
   33TMC2    C2  511   0.878   0.680   9.429  0.3557  0.3105 -0.0677
   33TMC2    C3  512   0.905   0.766   9.326 -0.6361  0.3635  0.1812
   33TMC2    C4  513   1.106   0.694   9.507 -0.1123  0.5997 -0.1040
   33TMC2    C5  514   1.126   0.778   9.399  0.4504 -0.1095 -0.4301
   33TMC2    C6  515   1.025   0.822   9.318  0.4026 -0.8441 -0.7759
   33TMC2     C  516   0.931   0.587   9.646 -0.1473  0.0045  0.3034
   33TMC2     O  517   0.819   0.534   9.639 -0.0589  0.4737 -0.1632
   33TMC2     H  518   0.781   0.631   9.429  0.1710  0.6766  1.4977
   33TMC2    H1  519   1.187   0.660   9.571 -2.8890  0.0241  3.1027
   33TMC2    H2  520   1.045   0.900   9.245 -3.5075  1.7986  0.9873
   33TMC2    C7  521   1.261   0.829   9.378  0.0608 -0.1287 -0.2945
   33TMC2    C8  522   0.827   0.781   9.209  0.1982  0.4553 -0.1888
   33TMC2    O1  523   1.348   0.822   9.466  0.1565  0.2343  0.1917
   33TMC2    O2  524   0.870   0.773   9.091 -0.3458 -0.2442 -0.1329
   33TMC2    O5  525   0.701   0.825   9.243 -0.1087 -0.3056 -0.6066
   33TMC2    H5  526   0.695   0.852   9.337  0.0584  1.6735 -1.1686
   34MPD2     C  527   0.951   0.505  10.152 -0.3686  0.9713  0.1044
   34MPD2    C1  528   0.881   0.441  10.049 -0.0821 -0.7574 -0.1145
   34MPD2    C2  529   0.897   0.478   9.918  0.2113 -0.1128  0.4516
   34MPD2    C3  530   0.989   0.576   9.889  0.3436  0.2732  0.1120
   34MPD2    C4  531   1.058   0.641   9.994  0.0407 -0.5539  0.1465
   34MPD2    C5  532   1.049   0.591  10.122 -0.6519 -0.3114  0.8612
   34MPD2     H  533   0.835   0.426   9.845  1.1799 -0.7832  0.1050
   34MPD2    H1  534   1.122   0.724   9.970 -0.0073 -1.2454 -2.3485
   34MPD2    H2  535   0.945   0.471  10.254 -0.9388 -1.1933 -0.6493
   34MPD2    H3  536   1.114   0.631  10.199  1.8747  0.4511 -1.6989
   34MPD2     N  537   1.008   0.620   9.756 -0.3570  0.1041  0.0945
   34MPD2    H5  538   1.082   0.690   9.746  2.3646 -2.5602  1.5370
   34MPD2    N1  539   0.799   0.331  10.087  1.0472 -1.0468 -0.5124
   34MPD2    H7  540   0.810   0.312  10.186  1.2814  0.3577 -0.2661
   35TMC2    C1  541   2.345   1.572  11.505 -0.3322 -0.1037  0.2989
   35TMC2    C2  542   2.243   1.655  11.462 -0.0214 -0.5140  0.6243
   35TMC2    C3  543   2.118   1.618  11.505  0.2178 -0.2850  0.8195
   35TMC2    C4  544   2.326   1.461  11.587  0.5076 -0.3364  0.7757
   35TMC2    C5  545   2.203   1.442  11.639 -0.4733  0.2499  0.1251
   35TMC2    C6  546   2.099   1.517  11.597  0.1916  0.4252  0.1567
   35TMC2     C  547   2.479   1.622  11.484 -0.0013 -0.2571  0.4587
   35TMC2     O  548   2.499   1.720  11.416 -0.2559  0.0613 -0.1350
   35TMC2     H  549   2.263   1.746  11.406 -0.3980 -1.1211 -0.4959
   35TMC2    H1  550   2.410   1.407  11.629  0.9475  0.3462  0.7722
   35TMC2    H2  551   1.996   1.497  11.624  1.1693 -0.6399  3.1285
   35TMC2    C7  552   2.169   1.315  11.692  0.0072 -0.1725 -0.4240
   35TMC2    C8  553   1.996   1.685  11.465 -0.0617 -0.9699  0.6848
   35TMC2    O1  554   2.264   1.249  11.734  0.4138  0.1308  0.1296
   35TMC2    O2  555   1.896   1.684  11.533  0.7800  0.1150  0.2818
   35TMC2    O5  556   2.014   1.748  11.345  0.9186 -0.1853 -0.4804
   35TMC2    H5  557   2.064   1.700  11.275  2.1592 -0.3408  0.4996
   36MPD2     C  558   2.979   1.666  11.638  0.1620 -0.1801 -0.3412
   36MPD2    C1  559   2.932   1.544  11.681  0.5930  0.0873  0.0224
   36MPD2    C2  560   2.804   1.506  11.644 -0.6414  0.3737  0.1217
   36MPD2    C3  561   2.724   1.590  11.564  0.5925  0.0457 -0.2619
   36MPD2    C4  562   2.778   1.703  11.510 -0.4234  0.1487  0.1981
   36MPD2    C5  563   2.900   1.747  11.550  0.9915  0.2083 -0.0289
   36MPD2     H  564   2.756   1.417  11.684 -0.8227  0.5664  0.3296
   36MPD2    H1  565   2.725   1.773  11.445 -0.6142 -0.1549  0.0297
   36MPD2    H2  566   3.081   1.700  11.653  0.1447  0.2423 -1.1436
   36MPD2    H3  567   2.948   1.832  11.503  1.2345  1.4321  2.4394
   36MPD2     N  568   2.586   1.551  11.549  0.2161 -0.3348 -0.1139
   36MPD2    H5  569   2.561   1.461  11.588  0.7565  0.9698  3.1934
   36MPD2    N1  570   3.004   1.474  11.782  0.0477 -0.1982  0.2870
   36MPD2    H7  571   3.085   1.528  11.811  0.4070  1.2190 -3.3862
   37TMC2    C1  572   4.538   1.483  12.223 -0.3144  0.6452 -0.3386
   37TMC2    C2  573   4.480   1.573  12.137 -0.4592 -0.1826 -0.6646
   37TMC2    C3  574   4.530   1.577  12.008  1.0306  0.3336  0.3065
   37TMC2    C4  575   4.624   1.384  12.176 -0.2581  0.0293  0.0517
   37TMC2    C5  576   4.665   1.387  12.046 -0.1249 -1.0748 -0.3009
   37TMC2    C6  577   4.623   1.485  11.958 -0.0049 -0.2161 -0.5066
   37TMC2     C  578   4.507   1.486  12.362  0.0115  0.1919 -0.1489
   37TMC2     O  579   4.390   1.504  12.401  0.1220 -0.0268  0.1046
   37TMC2     H  580   4.412   1.643  12.185 -1.8619 -1.5381 -0.6720
   37TMC2    H1  581   4.665   1.315  12.249 -1.6591  0.3055  1.0887
   37TMC2    H2  582   4.660   1.501  11.858  2.0913  1.6059  0.5544
   37TMC2    C7  583   0.052   1.325  12.025 -0.2608  0.0143 -0.0023
   37TMC2    C8  584   4.427   1.611  11.902 -1.1615  0.0545  0.3713
   37TMC2    O1  585   0.116   1.304  12.127  0.5263 -0.3857 -0.2652
   37TMC2    O2  586   4.383   1.726  11.889 -0.2535  0.0983 -0.2521
   37TMC2    O5  587   4.439   1.524  11.799  0.4061  0.0983 -0.4212
   37TMC2    H5  588   4.473   1.436  11.828 -1.6869 -0.2510  0.9907
   38MPD2     C  589   4.706   1.511  12.840  0.1940 -0.5069 -0.2202
   38MPD2    C1  590   0.068   1.512  12.744  0.1574  0.9757 -0.2461
   38MPD2    C2  591   0.039   1.496  12.612  0.3187 -0.5814 -0.1581
   38MPD2    C3  592   4.645   1.481  12.570 -0.3087 -0.3340 -0.1738
   38MPD2    C4  593   4.548   1.487  12.662 -0.2053  1.2276  0.0432
   38MPD2    C5  594   4.576   1.504  12.798  0.0164  0.7176  0.1465
   38MPD2     H  595   0.119   1.485  12.539  1.9870  1.2260  1.4171
   38MPD2    H1  596   4.448   1.468  12.626 -0.8296  2.2495  1.2332
   38MPD2    H2  597   4.732   1.524  12.944  2.6971 -0.1175 -0.9105
   38MPD2    H3  598   4.493   1.500  12.867  0.0879  3.3348  0.3665
   38MPD2     N  599   4.625   1.482  12.429  0.5443  0.0241  0.3290
   38MPD2    H5  600   4.708   1.492  12.372  0.5297 -1.2488  0.0715
   38MPD2    N1  601   0.210   1.517  12.772 -0.2059  0.8588 -0.3659
   38MPD2    H7  602   0.274   1.525  12.694 -0.4126  1.0174 -0.5199
   39TMC2    C1  603   3.549   3.340   1.661 -0.2392  0.7337  0.4594
   39TMC2    C2  604   3.545   3.406   1.784  0.6681  0.1060  0.0825
   39TMC2    C3  605   3.669   3.446   1.834 -0.6453 -0.0415 -0.5259
   39TMC2    C4  606   3.653   3.325   1.582  0.4009 -0.1024  0.0054
   39TMC2    C5  607   3.768   3.382   1.632 -0.2223 -0.4206  0.0175
   39TMC2    C6  608   3.777   3.428   1.758 -0.4055 -0.2875  0.8607
   39TMC2     C  609   3.430   3.277   1.618  0.3403 -0.6609  0.5587
   39TMC2     O  610   3.323   3.324   1.656 -0.5939  0.4724 -0.0303
   39TMC2     H  611   3.455   3.430   1.841 -0.7785 -1.2683 -1.6029
   39TMC2    H1  612   3.638   3.312   1.475  0.2359 -1.7971  0.2396
   39TMC2    H2  613   3.876   3.442   1.800 -0.1356  2.1027 -0.6090
   39TMC2    C7  614   3.891   3.327   1.570 -0.2913 -0.4831 -1.0097
   39TMC2    C8  615   3.679   3.486   1.971  0.2069  0.2351  0.3418
   39TMC2    O1  616   3.875   3.216   1.524  0.0720  0.0260 -0.1927
   39TMC2    O2  617   3.622   3.583   2.010  1.0806 -0.4134  0.2663
   39TMC2    O5  618   3.662   3.368   2.033  0.1382 -0.2988  0.2708
   39TMC2    H5  619   3.729   3.304   2.000 -0.1965  0.0574 -1.1421
   40MPD2     C  620   3.408   2.993   1.394 -0.8804 -0.1135 -0.1306
   40MPD2    C1  621   3.360   3.086   1.481 -0.0916  0.4826 -0.6471
   40MPD2    C2  622   3.222   3.101   1.487  0.3942 -0.4556  0.1856
   40MPD2    C3  623   3.137   3.023   1.407 -0.3951 -0.2703  1.2091
   40MPD2    C4  624   3.188   2.922   1.329 -0.3941  0.5548  0.7191
   40MPD2    C5  625   3.327   2.911   1.322 -0.4250 -0.0748  0.2655
   40MPD2     H  626   3.174   3.176   1.548  0.1789 -1.2164  0.9368
   40MPD2    H1  627   3.116   2.867   1.269  0.5799  1.7560 -1.5251
   40MPD2    H2  628   3.516   2.982   1.391 -1.0338 -1.6314 -0.2743
   40MPD2    H3  629   3.375   2.839   1.256  1.8467  0.3795  1.4022
   40MPD2     N  630   2.999   3.042   1.395 -0.1333  0.1356 -0.2389
   40MPD2    H5  631   2.951   2.971   1.340 -2.0175  1.5723 -0.4521
   40MPD2    N1  632   3.457   3.164   1.543 -0.5770 -0.1917 -0.3366
   40MPD2    H7  633   3.554   3.132   1.540 -0.4347  0.2038 -0.0860
   41TMC2    C1  634   1.994   1.984  13.450  0.5423  0.1713  0.2007
   41TMC2    C2  635   1.898   2.073  13.495  0.5736  0.1719  0.3050
   41TMC2    C3  636   1.836   2.145  13.402 -0.5092  0.0878 -0.5113
   41TMC2    C4  637   2.014   1.963  13.315  0.2337  0.2719  0.3871
   41TMC2    C5  638   1.952   2.051  13.229  0.4225  0.3631 -0.1946
   41TMC2    C6  639   1.857   2.142  13.269 -0.0453 -0.7091 -0.8062
   41TMC2     C  640   2.027   1.878  13.545  0.5772 -0.4527 -0.9241
   41TMC2     O  641   2.037   1.906  13.663  0.6263 -0.1269 -0.0073
   41TMC2     H  642   1.870   2.095  13.597 -0.6570  1.0722 -0.2248
   41TMC2    H1  643   2.086   1.891  13.280  0.6699  0.5376  0.7372
   41TMC2    H2  644   1.820   2.228  13.214  1.3452 -0.5761 -1.5118
   41TMC2    C7  645   1.964   2.040  13.087 -0.2583 -0.6081 -0.3564
   41TMC2    C8  646   1.715   2.216  13.443 -0.3481 -0.2669  0.0567
   41TMC2    O1  647   1.913   2.129  13.022  0.3312  0.3786  0.7587
   41TMC2    O2  648   1.665   2.308  13.378 -0.6383  0.5660 -0.2353
   41TMC2    O5  649   1.647   2.142  13.527 -0.1243  0.0111  0.1476
   41TMC2    H5  650   1.692   2.091  13.598 -2.0644 -0.1850  1.2232
   42MPD2     C  651   2.115   1.526  13.470  0.0954 -0.6885  0.9620
   42MPD2    C1  652   2.096   1.637  13.550 -0.1145  0.0743  0.6516
   42MPD2    C2  653   2.099   1.626  13.687  0.4111 -0.1145  0.4031
   42MPD2    C3  654   2.114   1.498  13.738  0.1150 -0.2205  0.0374
   42MPD2    C4  655   2.136   1.386  13.654  0.3283  0.3260  0.2821
   42MPD2    C5  656   2.139   1.403  13.519  0.3958  0.0133  0.3081
   42MPD2     H  657   2.096   1.707  13.758 -0.5682 -0.1876  0.4523
   42MPD2    H1  658   2.148   1.286  13.694 -0.4393 -0.6070 -1.8261
   42MPD2    H2  659   2.123   1.536  13.362  0.4998 -1.2617  0.9370
   42MPD2    H3  660   2.156   1.326  13.445 -2.6998  0.4392 -0.8261
   42MPD2     N  661   2.108   1.474  13.878 -0.3889  0.0987  0.0425
   42MPD2    H5  662   2.131   1.378  13.904 -0.9280  0.7596  3.0069
   42MPD2    N1  663   2.069   1.758  13.483 -0.7831  0.0475 -0.3928
   42MPD2    H7  664   2.060   1.755  13.381 -0.3542  0.5927 -0.4414
   43TMC2    C1  665   3.527   4.164   0.814  0.6791  0.7900  0.0387
   43TMC2    C2  666   3.524   4.302   0.818 -0.6213  0.4094 -0.4076
   43TMC2    C3  667   3.570   4.353   0.942 -0.1231  0.1242 -0.0041
   43TMC2    C4  668   3.562   4.085   0.926  0.3538  0.8192 -0.7905
   43TMC2    C5  669   3.584   4.142   1.046  0.2522  0.5670 -0.1575
   43TMC2    C6  670   3.589   4.282   1.056  0.0419 -0.7132 -0.2731
   43TMC2     C  671   3.532   4.098   0.682 -0.1709  0.2027 -0.5018
   43TMC2     O  672   3.597   3.997   0.681 -0.0460 -0.2488 -0.0868
   43TMC2     H  673   3.524   4.363   0.729 -3.4341  0.7405 -0.1809
   43TMC2    H1  674   3.533   3.981   0.919  2.6155  0.1289  0.0486
   43TMC2    H2  675   3.627   4.333   1.143 -2.2339 -1.1541  0.9851
   43TMC2    C7  676   3.669   4.073   1.132 -0.8813  0.1543  0.3678
   43TMC2    C8  677   3.606   4.488   0.930 -0.3047  0.9455 -0.0570
   43TMC2    O1  678   3.726   3.978   1.086  0.4532  0.9679  0.0966
   43TMC2    O2  679   3.550   4.572   0.857  0.5208  0.2834 -0.1290
   43TMC2    O5  680   3.696   4.522   1.026  0.1323 -0.7281 -0.0383
   43TMC2    H5  681   3.759   4.451   1.049  0.4010 -0.5045 -0.0891
   44MPD2     C  682   3.475   4.083   0.182  0.6444 -0.5401 -0.1823
   44MPD2    C1  683   3.551   4.008   0.268  0.2893  0.3351  0.2218
   44MPD2    C2  684   3.547   4.032   0.402  0.2310 -0.1847  0.0906
   44MPD2    C3  685   3.471   4.129   0.452  0.1562 -0.2067  0.0888
   44MPD2    C4  686   3.400   4.214   0.362  0.0780  0.7121 -0.0325
   44MPD2    C5  687   3.402   4.189   0.224  0.2011  0.0449 -0.8133
   44MPD2     H  688   3.577   3.950   0.466 -0.5942 -0.7119 -0.1914
   44MPD2    H1  689   3.321   4.280   0.395 -1.3363 -0.7283 -0.5314
   44MPD2    H2  690   3.465   4.060   0.077  1.0539  2.1434 -0.8061
   44MPD2    H3  691   3.330   4.230   0.155 -1.1011  2.2455  1.8743
   44MPD2     N  692   3.460   4.161   0.585 -0.0605  0.4987 -0.4993
   44MPD2    H5  693   3.411   4.248   0.597 -0.3829  0.4009 -1.1348
   44MPD2    N1  694   3.625   3.897   0.236  0.3519 -0.1012  0.6164
   44MPD2    H7  695   3.672   3.852   0.315 -1.3764  0.8369  2.1644
   45TMC2    C1  696   4.229   1.904   9.842 -0.3604 -0.9396  0.2854
   45TMC2    C2  697   4.273   1.843   9.730  0.1167 -0.1009  0.2574
   45TMC2    C3  698   4.336   1.923   9.639 -0.0484 -0.8766  0.1993
   45TMC2    C4  699   4.274   2.032   9.869 -0.3144  0.0040  0.5801
   45TMC2    C5  700   4.347   2.107   9.772 -0.1698  0.1925 -0.0654
   45TMC2    C6  701   4.373   2.053   9.652 -0.9010 -1.0243  0.0240
   45TMC2     C  702   4.164   1.833   9.945 -0.3333  0.1596  0.1723
   45TMC2     O  703   4.162   1.891  10.058 -0.2295 -0.1579 -0.3414
   45TMC2     H  704   4.274   1.736   9.712  0.8506 -0.2803  1.2988
   45TMC2    H1  705   4.239   2.078   9.960 -1.2780  0.2260  0.0888
   45TMC2    H2  706   4.419   2.114   9.575  1.7763  0.8226  3.0655
   45TMC2    C7  707   4.393   2.243   9.814  0.0535 -0.2107  0.1418
   45TMC2    C8  708   4.346   1.869   9.508 -0.3769 -0.2628  0.9352
   45TMC2    O1  709   4.346   2.290   9.913 -0.4681  0.3956 -0.4831
   45TMC2    O2  710   4.395   1.928   9.413 -0.1680  0.2988 -0.1725
   45TMC2    O5  711   4.269   1.761   9.492  0.1052  0.0297  0.5904
   45TMC2    H5  712   4.190   1.735   9.544  0.0250 -0.3290  0.2952
   46MPD2     C  713   4.094   1.621  10.138  0.0190 -0.4131 -0.2328
   46MPD2    C1  714   4.071   1.611  10.000  0.2847 -0.2733  0.0905
   46MPD2    C2  715   3.989   1.515   9.955  0.4178 -0.5393 -0.6174
   46MPD2    C3  716   3.924   1.427  10.037  0.2391  0.3683  0.4236
   46MPD2    C4  717   3.966   1.433  10.172  0.2001 -0.2604  0.6429
   46MPD2    C5  718   4.044   1.528  10.222 -0.1739  0.1230  0.8115
   46MPD2     H  719   3.966   1.505   9.849 -0.5249  2.2679 -0.6822
   46MPD2    H1  720   3.929   1.368  10.251  0.5292 -1.4461 -0.1812
   46MPD2    H2  721   4.164   1.691  10.183 -1.7858  0.5929  0.9829
   46MPD2    H3  722   4.086   1.522  10.321  2.9698  0.3787 -0.5032
   46MPD2     N  723   3.827   1.337   9.986 -0.2184 -0.3864  0.3420
   46MPD2    H5  724   3.778   1.359   9.899  0.9994 -1.9155 -0.7403
   46MPD2    N1  725   4.114   1.714   9.908  0.1970 -0.4192 -0.2788
   46MPD2    H7  726   4.091   1.689   9.812  0.4788  0.9442 -0.7039
   47TMC2    C1  727   1.988   3.111   9.262 -0.2367  0.5025  0.4986
   47TMC2    C2  728   1.999   3.020   9.161  0.0175  0.0188  0.3152
   47TMC2    C3  729   1.895   3.031   9.066 -0.5304 -0.9631 -0.3152
   47TMC2    C4  730   1.882   3.200   9.279 -0.0110 -0.1978 -0.1074
   47TMC2    C5  731   1.794   3.208   9.178 -0.4596  0.0443  0.3928
   47TMC2    C6  732   1.799   3.131   9.068 -0.0540  0.5832  0.0768
   47TMC2     C  733   2.091   3.113   9.365  0.6400 -0.0420 -0.8334
   47TMC2     O  734   2.106   3.217   9.428 -0.0549  0.0577 -0.4341
   47TMC2     H  735   2.096   2.977   9.144  1.1972  2.5249  0.6087
   47TMC2    H1  736   1.881   3.271   9.361 -2.0082  0.3385 -0.6015
   47TMC2    H2  737   1.721   3.125   8.994  0.2977 -1.1570 -0.1366
   47TMC2    C7  738   1.705   3.317   9.174  0.5784  0.3393 -0.1285
   47TMC2    C8  739   1.910   2.958   8.940 -0.2927  0.7108  0.1547
   47TMC2    O1  740   1.681   3.374   9.280  0.0913  0.1054 -0.0293
   47TMC2    O2  741   1.887   3.012   8.832  0.6054  0.1981 -0.6507
   47TMC2    O5  742   1.945   2.829   8.953 -0.2653  0.5231  0.2361
   47TMC2    H5  743   1.947   2.796   9.045  1.1240  2.8449  1.0408
   48MPD2     C  744   2.291   3.036   9.581  0.2591 -0.8747 -0.2198
   48MPD2    C1  745   2.226   2.952   9.496  0.0289 -0.0736 -0.4156
   48MPD2    C2  746   2.228   2.817   9.528  0.5492 -0.5548  0.3423
   48MPD2    C3  747   2.307   2.760   9.628  0.1310  0.1641 -0.3838
   48MPD2    C4  748   2.368   2.853   9.711 -0.0025  0.1657 -0.7693
   48MPD2    C5  749   2.356   2.989   9.688  0.5003 -0.1561  0.3409
   48MPD2     H  750   2.171   2.750   9.465 -0.0150  0.0310  0.2311
   48MPD2    H1  751   2.432   2.829   9.795  0.1481 -1.0369 -1.2263
   48MPD2    H2  752   2.308   3.140   9.555 -0.1812 -0.4258  1.3251
   48MPD2    H3  753   2.411   3.061   9.747  0.4776 -0.3123  0.5551
   48MPD2     N  754   2.316   2.618   9.643  0.7517 -0.0798  0.2662
   48MPD2    H5  755   2.264   2.566   9.573  0.6090  0.3220  0.0758
   48MPD2    N1  756   2.136   2.983   9.392 -0.3322 -0.6101 -0.9960
   48MPD2    H7  757   2.100   2.903   9.342  0.2940 -2.0687  0.8806
   49TMC2    C1  758   0.166   4.714   9.995 -0.0307  0.2560  0.7571
   49TMC2    C2  759   0.225   4.706   9.873  0.6718  0.3082  0.8827
   49TMC2    C3  760   0.182   4.602   9.791  0.3087 -0.0750 -0.1585
   49TMC2    C4  761   0.074   4.625  10.041 -0.3228  0.8836 -0.2289
   49TMC2    C5  762   0.054   4.516   9.965 -0.5745 -0.4386 -0.3555
   49TMC2    C6  763   0.089   4.512   9.832  0.0014  0.1269 -0.1733
   49TMC2     C  764   0.203   0.092  10.077  0.2697 -0.0722  0.6852
   49TMC2     O  765   0.248   0.186  10.011 -0.2985  0.1626 -0.2007
   49TMC2     H  766   0.310   0.027   9.842  0.5441  0.3012  0.5115
   49TMC2    H1  767   0.032   4.623  10.141 -0.2404  0.0525 -0.2079
   49TMC2    H2  768   0.057   4.433   9.765 -1.2326  0.2569  0.2504
   49TMC2    C7  769   4.685   4.429  10.008 -0.0111  0.3820  0.6531
   49TMC2    C8  770   0.269   4.589   9.676 -0.2639  0.7264 -0.1642
   49TMC2    O1  771   4.605   4.396   9.920  0.2496  0.5545 -0.0595
   49TMC2    O2  772   0.388   4.630   9.670  0.4508 -0.4874  0.8359
   49TMC2    O5  773   0.198   4.530   9.578  0.0645  0.1124 -0.8131
   49TMC2    H5  774   0.105   4.527   9.610  0.2992 -0.7075 -0.1948
   50MPD2     C  775   0.250   0.307  10.270  0.0076  0.0697 -0.5344
   50MPD2    C1  776   0.190   0.181  10.307  0.1856  0.3398  0.8924
   50MPD2    C2  777   0.158   0.163  10.442 -0.3324 -0.0600 -0.2913
   50MPD2    C3  778   0.176   0.270  10.543  0.0237  0.4722  0.3854
   50MPD2    C4  779   0.233   0.385  10.500  0.4013  0.2856 -0.7362
   50MPD2    C5  780   0.278   0.395  10.372  0.3402 -0.7431  0.0254
   50MPD2     H  781   0.098   0.077  10.470 -0.2543  0.0204  0.1276
   50MPD2    H1  782   0.247   0.472  10.563 -2.0109 -0.8309  1.3763
   50MPD2    H2  783   0.285   0.335  10.172  0.5755 -1.3924 -0.7519
   50MPD2    H3  784   0.336   0.484  10.353 -0.4721 -0.1584  0.2648
   50MPD2     N  785   0.125   0.263  10.678  1.1431  0.3447 -0.2597
   50MPD2    H5  786   0.136   0.343  10.738 -1.9521  1.1363 -0.7219
   50MPD2    N1  787   0.168   0.083  10.211 -0.2630 -0.0551  0.6137
   50MPD2    H7  788   0.138   4.730  10.243 -1.8259  0.1750 -0.1496
   51TMC2    C1  789   0.742   2.640   0.814 -0.2396 -0.9885  0.3578
   51TMC2    C2  790   0.617   2.660   0.860  0.0900 -0.8002 -0.1794
   51TMC2    C3  791   0.583   2.788   0.871 -0.4254  0.1888 -1.0160
   51TMC2    C4  792   0.832   2.742   0.788  0.3992 -0.1110 -0.0007
   51TMC2    C5  793   0.784   2.871   0.809 -0.1100  0.3678 -0.1559
   51TMC2    C6  794   0.661   2.897   0.842  0.4275  0.2988 -0.2989
   51TMC2     C  795   0.783   2.503   0.795 -0.0749  0.2718 -0.5671
   51TMC2     O  796   0.879   2.486   0.719  0.6835  0.3096  0.2987
   51TMC2     H  797   0.540   2.585   0.873  0.0133 -0.9297 -1.3542
   51TMC2    H1  798   0.931   2.726   0.748 -0.0278  0.5086 -1.3214
   51TMC2    H2  799   0.628   2.994   0.877 -0.2552 -0.4386  1.1391
   51TMC2    C7  800   0.879   2.972   0.822  0.5160 -0.3578  0.2392
   51TMC2    C8  801   0.454   2.809   0.925  0.7305 -0.3691 -0.2466
   51TMC2    O1  802   0.992   2.932   0.834  0.3360  0.5280  0.3908
   51TMC2    O2  803   0.360   2.735   0.899 -0.2331  0.2552 -0.2682
   51TMC2    O5  804   0.480   2.867   1.038  0.4136  0.5125 -0.1619
   51TMC2    H5  805   0.570   2.902   1.057  0.2202  0.9974 -0.1274
   52MPD2     C  806   0.739   2.000   0.883  0.8805  0.7054  0.1028
   52MPD2    C1  807   0.829   2.071   0.807 -0.2447 -0.4973  0.1673
   52MPD2    C2  808   0.824   2.210   0.807  0.3145 -0.7723 -0.2970
   52MPD2    C3  809   0.725   2.278   0.873  0.2337 -0.3319  0.1041
   52MPD2    C4  810   0.634   2.202   0.945  0.2302  0.0759 -0.9555
   52MPD2    C5  811   0.644   2.072   0.948 -0.2933 -0.4391 -0.1905
   52MPD2     H  812   0.897   2.255   0.741 -1.1701  2.4479  0.2465
   52MPD2    H1  813   0.543   2.248   0.983  1.1157 -0.9340  2.3503
   52MPD2    H2  814   0.713   1.895   0.871  0.8267  0.3396  3.6358
   52MPD2    H3  815   0.556   2.018   0.982 -0.1776 -0.8246 -0.4974
   52MPD2     N  816   0.709   2.420   0.866 -0.2265  0.0314 -0.1795
   52MPD2    H5  817   0.643   2.469   0.926  1.1490  1.2730  0.3087
   52MPD2    N1  818   0.920   2.008   0.716  0.3326  0.3926 -0.7402
   52MPD2    H7  819   0.995   2.062   0.674  1.5534 -1.5758 -1.1011
   53TMC2    C1  820   0.774   1.367  12.091  0.1614  0.3205  0.7385
   53TMC2    C2  821   0.905   1.394  12.069 -0.2764 -0.8479 -0.2469
   53TMC2    C3  822   0.969   1.465  12.153  0.0629  0.0053  0.0324
   53TMC2    C4  823   0.706   1.413  12.196 -0.0255 -0.1429 -0.3030
   53TMC2    C5  824   0.782   1.491  12.284 -0.1510 -0.1621 -0.5548
   53TMC2    C6  825   0.913   1.507  12.271  0.1622  0.1102  0.4184
   53TMC2     C  826   0.705   1.326  11.966 -0.0150 -0.3339  0.4941
   53TMC2     O  827   0.776   1.305  11.869 -0.3400  0.8435  0.4149
   53TMC2     H  828   0.962   1.357  11.985 -0.6964 -2.1671  0.0409
   53TMC2    H1  829   0.599   1.399  12.208 -0.2609  0.2017 -1.9345
   53TMC2    H2  830   0.965   1.551  12.355  0.9106  2.0800 -1.0781
   53TMC2    C7  831   0.696   1.568  12.372 -0.1320  0.4906 -0.0903
   53TMC2    C8  832   1.108   1.495  12.122 -0.1848  0.1131  0.0334
   53TMC2    O1  833   0.583   1.580  12.340  0.1769 -0.1343 -0.0714
   53TMC2    O2  834   1.159   1.464  12.014 -0.0865  0.3204  0.0988
   53TMC2    O5  835   1.171   1.462  12.241 -0.1415 -0.2570  0.9912
   53TMC2    H5  836   1.120   1.441  12.322  0.6073  1.4938  1.9175
   54MPD2     C  837   0.494   1.257  11.756 -0.4244  0.2690  0.0468
   54MPD2    C1  838   0.476   1.295  11.887  0.2327 -0.0542 -0.0256
   54MPD2    C2  839   0.342   1.311  11.936  0.2497 -0.0757 -0.0893
   54MPD2    C3  840   0.230   1.300  11.849 -0.1778  0.0791 -0.1256
   54MPD2    C4  841   0.257   1.276  11.715 -0.0031  0.4063 -0.0875
   54MPD2    C5  842   0.388   1.250  11.674 -0.3270  0.3783 -0.3033
   54MPD2     H  843   0.333   1.337  12.041 -2.8314 -2.8523  0.3242
   54MPD2    H1  844   0.174   1.266  11.646 -1.7212  0.1780  2.0283
   54MPD2    H2  845   0.596   1.250  11.719 -0.0823 -0.7824  1.1843
   54MPD2    H3  846   0.392   1.242  11.566 -0.7551  1.0767 -0.3625
   54MPD2     N  847   0.094   1.315  11.890 -0.3798  0.8745  0.2530
   54MPD2    H5  848   0.030   1.307  11.812 -0.4570 -0.4652  0.4518
   54MPD2    N1  849   0.573   1.326  11.985  0.4833 -0.5002  0.1105
   54MPD2    H7  850   0.537   1.358  12.074 -0.1834  0.7877 -0.6291
   55TMC2    C1  851   1.769   4.170  17.265  0.0325  0.2885  0.4358
   55TMC2    C2  852   1.796   4.214  17.135  0.5639  0.8937  1.0479
   55TMC2    C3  853   1.830   4.119  17.050  0.4621 -0.2828  0.0468
   55TMC2    C4  854   1.773   4.043  17.302 -0.5084  0.1760  0.1463
   55TMC2    C5  855   1.811   3.952  17.206  0.7832 -0.2092  0.4146
   55TMC2    C6  856   1.847   3.988  17.081  0.0729  0.2632  0.1828
   55TMC2     C  857   1.708   4.267  17.351 -0.4271  0.0667 -0.4381
   55TMC2     O  858   1.633   4.217  17.437 -0.3531  0.0634  0.5749
   55TMC2     H  859   1.767   4.314  17.105  0.5495  0.2120 -1.2026
   55TMC2    H1  860   1.745   4.027  17.405 -1.3618  1.9577  0.2059
   55TMC2    H2  861   1.886   3.910  17.017 -0.0795  0.2562  0.0983
   55TMC2    C7  862   1.836   3.815  17.247  0.4396 -0.3274  0.5690
   55TMC2    C8  863   1.827   4.149  16.908 -0.6425  0.1804  0.3176
   55TMC2    O1  864   1.879   3.730  17.168  0.3066 -0.0966  0.3669
   55TMC2    O2  865   1.783   4.067  16.830 -0.3638 -0.0340 -0.1552
   55TMC2    O5  866   1.846   4.285  16.889 -0.2822  0.4000  0.6644
   55TMC2    H5  867   1.901   4.335  16.952  0.0544  0.2436  0.4961
   56MPD2     C  868   1.783   4.631  17.365  0.0955  0.0462  0.1509
   56MPD2    C1  869   1.723   4.511  17.405 -0.9976  0.5666  0.9878
   56MPD2    C2  870   1.658   4.504  17.526 -0.3083 -0.1513 -0.5585
   56MPD2    C3  871   1.646   4.617  17.610 -0.0871  0.1840 -0.9846
   56MPD2    C4  872   1.705   4.737  17.568 -0.8655 -0.2811 -0.1842
   56MPD2    C5  873   1.774   0.001  17.447  0.2228 -0.0878  0.1683
   56MPD2     H  874   1.607   4.412  17.552  0.1133 -0.3277 -0.3598
   56MPD2    H1  875   1.689   0.086  17.631 -1.9877 -1.6034  1.3791
   56MPD2    H2  876   1.823   4.637  17.264 -0.7287  0.3116 -0.1577
   56MPD2    H3  877   1.818   0.094  17.415 -1.9482  1.0206  0.4024
   56MPD2     N  878   1.572   4.606  17.730  0.1104  0.4079 -0.4624
   56MPD2    H5  879   1.508   4.528  17.741  0.9629 -0.1608  0.4223
   56MPD2    N1  880   1.754   4.395  17.329 -0.0177  0.6546  0.2846
   56MPD2    H7  881   1.819   4.405  17.251 -1.7453 -0.1775 -1.2807
   57TMC2    C1  882   1.049   0.281  13.388 -0.2328  0.0194  0.5265
   57TMC2    C2  883   1.139   0.194  13.442  0.3226 -0.3063 -0.4139
   57TMC2    C3  884   1.249   0.155  13.366 -1.0093 -0.1945 -0.6338
   57TMC2    C4  885   1.086   0.348  13.274 -0.0156 -0.3449 -0.2615
   57TMC2    C5  886   1.198   0.314  13.202  0.2952 -0.6880  0.3799
   57TMC2    C6  887   1.274   0.205  13.242 -0.5275 -0.5148 -0.5011
   57TMC2     C  888   0.933   0.313  13.469  0.3308  0.1978 -0.1213
   57TMC2     O  889   0.887   0.430  13.455 -0.5244 -0.5804  0.4539
   57TMC2     H  890   1.130   0.152  13.542 -0.7462 -0.7126 -0.6793
   57TMC2    H1  891   1.021   0.433  13.257 -0.3801 -0.5997 -0.1428
   57TMC2    H2  892   1.346   0.149  13.183  0.0093  1.2946 -1.6007
   57TMC2    C7  893   1.217   0.387  13.078  0.2231  0.1483  0.0780
   57TMC2    C8  894   1.337   0.054  13.417 -0.1570  0.6692  0.2382
   57TMC2    O1  895   1.121   0.455  13.042 -0.4518 -0.1062  0.3311
   57TMC2    O2  896   1.454   0.036  13.383 -0.3326 -0.4006  0.1284
   57TMC2    O5  897   1.262   4.701  13.486 -0.5611  0.3943 -0.1728
   57TMC2    H5  898   1.169   4.734  13.488 -0.7552 -0.2730  1.5579
   58MPD2     C  899   0.657   0.226  13.890 -0.7711 -0.1056 -0.0471
   58MPD2    C1  900   0.635   0.320  13.790 -0.1812 -0.4982 -0.8005
   58MPD2    C2  901   0.713   0.315  13.675 -0.1381 -0.1307 -0.1931
   58MPD2    C3  902   0.809   0.216  13.658  0.0720  0.1713  0.1973
   58MPD2    C4  903   0.820   0.119  13.756 -0.2848  0.4870  0.7517
   58MPD2    C5  904   0.763   0.144  13.877 -0.2958 -0.7583  0.2788
   58MPD2     H  905   0.700   0.392  13.600 -1.4210 -0.1490  0.0128
   58MPD2    H1  906   0.889   0.038  13.736  1.2625  2.0777 -0.3294
   58MPD2    H2  907   0.616   0.233  13.990 -1.4459  1.8623 -0.4690
   58MPD2    H3  908   0.791   0.083  13.962  1.8594 -1.4832 -0.9388
   58MPD2     N  909   0.898   0.206  13.550  0.2376  0.1221 -0.6739
   58MPD2    H5  910   0.939   0.114  13.540 -0.8800 -0.5198  0.6645
   58MPD2    N1  911   0.536   0.418  13.790  0.7292  0.3035  0.4551
   58MPD2    H7  912   0.511   0.465  13.704  3.9444  0.8546 -0.1724
   59TMC2    C1  913   3.202   0.516  12.858 -0.1246  0.3641  0.2230
   59TMC2    C2  914   3.195   0.386  12.906  0.2127  0.7929  0.4473
   59TMC2    C3  915   3.098   0.305  12.856 -0.0660 -0.1710 -0.5631
   59TMC2    C4  916   3.121   0.562  12.758  0.0670 -0.9038  0.0761
   59TMC2    C5  917   3.021   0.477  12.709  0.2089 -0.3823  0.1710
   59TMC2    C6  918   3.014   0.356  12.762 -0.1609 -0.5428 -0.6735
   59TMC2     C  919   3.253   0.620  12.944  0.2185  0.4171 -0.4251
   59TMC2     O  920   3.220   0.735  12.912  0.3529 -0.2971  0.5323
   59TMC2     H  921   3.279   0.341  12.956  0.0001 -1.2041 -0.9960
   59TMC2    H1  922   3.147   0.657  12.714 -0.9496 -0.9496 -0.6339
   59TMC2    H2  923   2.923   0.301  12.741  0.5148 -1.7286 -0.4978
   59TMC2    C7  924   2.965   0.502  12.574 -1.0533 -0.3340 -1.1158
   59TMC2    C8  925   3.049   0.197  12.938 -0.2700  0.1540 -0.0004
   59TMC2    O1  926   2.926   0.402  12.513 -0.1843  0.1241 -0.8336
   59TMC2    O2  927   3.116   0.128  13.015 -0.3944 -0.1216 -0.2729
   59TMC2    O5  928   2.934   0.247  12.979 -0.5692  0.3543 -0.3014
   59TMC2    H5  929   2.899   0.322  12.927 -0.7256  0.4749 -0.0203
   60MPD2     C  930   3.314   0.780  13.177 -0.0208  0.5394  0.1101
   60MPD2    C1  931   3.366   0.651  13.157  0.0817 -0.5349 -0.1127
   60MPD2    C2  932   3.450   0.607  13.260  0.5761  0.3642 -0.3550
   60MPD2    C3  933   3.480   0.683  13.368  0.0103  0.5546 -0.4204
   60MPD2    C4  934   3.427   0.806  13.382  0.4415 -0.3488  0.2029
   60MPD2    C5  935   3.337   0.848  13.296 -0.4603 -0.2114  0.1378
   60MPD2     H  936   3.491   0.509  13.240  1.5512  0.6361  0.3329
   60MPD2    H1  937   3.448   0.864  13.471  3.5943 -2.0254  0.5435
   60MPD2    H2  938   3.243   0.825  13.108  1.0788 -0.7581 -1.8931
   60MPD2    H3  939   3.276   0.933  13.326 -1.5944 -0.5285 -1.2721
   60MPD2     N  940   3.572   0.649  13.468  0.3806 -0.6342 -0.4340
   60MPD2    H5  941   3.617   0.724  13.520  0.8013  0.5534 -2.5422
   60MPD2    N1  942   3.337   0.576  13.042  0.8481  0.6386  0.2633
   60MPD2    H7  943   3.363   0.478  13.035  0.3323  0.4563  0.8647
   61TMC2    C1  944   2.626   2.167  15.856  0.2490  0.0524 -0.2678
   61TMC2    C2  945   2.580   2.154  15.983  0.3085  0.0960 -0.1642
   61TMC2    C3  946   2.562   2.271  16.055 -0.4027 -0.4236 -0.4475
   61TMC2    C4  947   2.655   2.291  15.804 -0.0057  0.0375 -0.3826
   61TMC2    C5  948   2.639   2.405  15.884 -1.1471 -0.2085  0.4383
   61TMC2    C6  949   2.600   2.398  16.012  0.1466 -0.2774  0.0571
   61TMC2     C  950   2.624   2.045  15.763 -0.5628  0.3138  0.1938
   61TMC2     O  951   2.600   1.945  15.828 -0.1961 -0.0734 -0.1988
   61TMC2     H  952   2.569   2.055  16.024  0.7369  0.4169  0.7121
   61TMC2    H1  953   2.708   2.300  15.710 -0.4330  0.5543 -0.5725
   61TMC2    H2  954   2.596   2.492  16.066  1.4517  0.4567 -1.1183
   61TMC2    C7  955   2.670   2.532  15.832 -0.5818  0.7282 -0.1478
   61TMC2    C8  956   2.482   2.253  16.178 -0.3529 -0.1257  0.0159
   61TMC2    O1  957   2.734   2.539  15.728 -0.1019  0.3671 -0.0883
   61TMC2    O2  958   2.446   2.142  16.207 -0.1374  0.4936 -0.4101
   61TMC2    O5  959   2.423   2.364  16.224 -0.6024 -0.3369  0.0913
   61TMC2    H5  960   2.438   2.443  16.169 -4.3916  0.0277 -0.3864
   62MPD2     C  961   2.572   1.856  15.561 -0.2341 -0.9500  0.7132
   62MPD2    C1  962   2.641   1.965  15.532 -0.5272  0.5040  0.5628
   62MPD2    C2  963   2.701   1.990  15.414 -0.4630 -0.1073 -0.4729
   62MPD2    C3  964   2.679   1.902  15.312  0.3744 -0.4650 -0.6889
   62MPD2    C4  965   2.600   1.790  15.340  0.0802 -0.1804 -0.3917
   62MPD2    C5  966   2.542   1.770  15.460  0.5306  0.0824  0.2630
   62MPD2     H  967   2.761   2.078  15.394 -1.0143  0.0856 -1.2953
   62MPD2    H1  968   2.594   1.712  15.265  1.8109 -0.5780 -0.1170
   62MPD2    H2  969   2.516   1.836  15.652 -1.3923  0.5596  0.3384
   62MPD2    H3  970   2.482   1.684  15.487  1.2945 -0.5852 -0.1542
   62MPD2     N  971   2.753   1.917  15.195  0.1985 -0.8282 -0.0948
   62MPD2    H5  972   2.820   1.993  15.182 -0.9995  0.7888  3.1136
   62MPD2    N1  973   2.661   2.066  15.633  0.5948 -0.6036 -0.2740
   62MPD2    H7  974   2.701   2.152  15.596 -1.0020  0.4618  0.4814
   63TMC2    C1  975   1.637   2.877  10.513 -0.0629  0.6892  0.0258
   63TMC2    C2  976   1.614   3.014  10.527 -0.8479  0.4443 -0.1525
   63TMC2    C3  977   1.681   3.092  10.434  0.2242  0.0623 -0.2239
   63TMC2    C4  978   1.679   2.833  10.391  0.3202 -0.2761 -0.0956
   63TMC2    C5  979   1.733   2.915  10.294 -0.0753  0.2515 -0.6810
   63TMC2    C6  980   1.733   3.048  10.315  0.8727  0.5183  0.8805
   63TMC2     C  981   1.558   2.789  10.591  0.6370 -0.3620  0.1800
   63TMC2     O  982   1.471   2.847  10.654  0.0129 -0.0892  0.7000
   63TMC2     H  983   1.559   3.065  10.605  0.0285  2.8837 -1.1209
   63TMC2    H1  984   1.692   2.726  10.380  3.1587 -0.1316  2.0390
   63TMC2    H2  985   1.753   3.118  10.235 -2.5404  0.3605 -0.0952
   63TMC2    C7  986   1.762   2.864  10.169 -0.2633  0.6409 -0.8647
   63TMC2    C8  987   1.611   3.219  10.426 -0.1881 -0.0221 -0.1105
   63TMC2    O1  988   1.736   2.744  10.150  0.0459 -0.3171 -0.3571
   63TMC2    O2  989   1.603   3.280  10.320 -0.2285  0.2964 -0.7382
   63TMC2    O5  990   1.627   3.281  10.546  0.1215 -0.3104 -0.2126
   63TMC2    H5  991   1.671   3.232  10.619 -0.7161  2.0455  1.8777
   64MPD2     C  992   1.457   2.334  10.800  0.0737 -0.0927 -0.0533
   64MPD2    C1  993   1.582   2.322  10.738 -0.2463  0.3777 -0.1877
   64MPD2    C2  994   1.640   2.437  10.684 -0.0548 -0.4880  0.2931
   64MPD2    C3  995   1.564   2.554  10.677  0.3966 -0.4811  0.6609
   64MPD2    C4  996   1.440   2.557  10.728 -0.2096  0.1939 -0.8178
   64MPD2    C5  997   1.383   2.451  10.782 -0.6932  0.3733  0.2462
   64MPD2     H  998   1.738   2.434  10.637  0.0211  0.7448  0.3806
   64MPD2    H1  999   1.383   2.648  10.739 -1.2707 -0.3018 -2.2279
   64MPD2    H2 1000   1.406   2.248  10.841  1.3659 -1.0625 -0.4567
   64MPD2    H3 1001   1.283   2.466  10.823 -1.0272  0.5140 -0.6285
   64MPD2     N 1002   1.619   2.668  10.606  0.1917 -0.5573  0.8766
   64MPD2    H5 1003   1.715   2.659  10.574 -0.0878 -0.7650  0.0987
   64MPD2    N1 1004   1.654   2.204  10.747 -0.1174 -0.0732  0.1412
   64MPD2    H7 1005   1.751   2.218  10.723 -0.4461  2.4160  0.2826
   65TMC2    C1 1006   2.974   1.444  15.362 -0.1437 -0.3296  0.7507
   65TMC2    C2 1007   2.869   1.427  15.442 -0.3522  1.2249  0.1103
   65TMC2    C3 1008   2.828   1.538  15.508  0.2950  0.3169  0.4626
   65TMC2    C4 1009   3.030   1.566  15.343  0.2855 -0.0207 -0.0612
   65TMC2    C5 1010   2.985   1.674  15.410 -0.9178  0.0467 -0.2956
   65TMC2    C6 1011   2.875   1.666  15.490  0.4769  0.6921 -0.9512
   65TMC2     C 1012   3.029   1.341  15.271 -0.3130  0.1743  0.1223
   65TMC2     O 1013   3.109   1.371  15.179 -0.2192 -0.0467 -0.3184
   65TMC2     H 1014   2.814   1.333  15.443 -0.0137  1.0279  0.4055
   65TMC2    H1 1015   3.120   1.575  15.283 -0.9744 -2.1500 -2.2561
   65TMC2    H2 1016   2.833   1.754  15.537 -0.7653 -0.1693 -0.4268
   65TMC2    C7 1017   3.040   1.811  15.388  0.4103 -0.8511  0.0747
   65TMC2    C8 1018   2.719   1.519  15.592 -0.9380 -0.1108  0.0520
   65TMC2    O1 1019   3.111   1.833  15.292  0.0662  0.4437  0.4169
   65TMC2    O2 1020   2.637   1.429  15.567 -0.2121 -0.6668 -0.3702
   65TMC2    O5 1021   2.716   1.604  15.696 -0.1594 -0.0680 -0.3193
   65TMC2    H5 1022   2.793   1.665  15.696  0.7780 -1.2418  1.3094
   66MPD2     C 1023   3.024   1.089  15.091 -0.9701 -0.5652 -0.7620
   66MPD2    C1 1024   2.983   1.098  15.221  0.1452  0.1442  0.0806
   66MPD2    C2 1025   2.927   0.989  15.280 -0.1744  0.3623  0.6359
   66MPD2    C3 1026   2.909   0.866  15.221 -0.3317 -0.0686  0.1837
   66MPD2    C4 1027   2.964   0.852  15.095  0.5947 -0.0806  0.0840
   66MPD2    C5 1028   3.013   0.962  15.034 -0.9686 -0.4457  0.3202
   66MPD2     H 1029   2.886   1.006  15.379  1.4927 -0.1311  1.4153
   66MPD2    H1 1030   2.955   0.757  15.043 -1.2068 -0.1640  0.5360
   66MPD2    H2 1031   3.059   1.172  15.030  0.2935 -0.3815  0.2071
   66MPD2    H3 1032   3.047   0.947  14.932 -2.9004 -0.2059 -0.3513
   66MPD2     N 1033   2.846   0.756  15.287  0.7443 -0.1911  0.1231
   66MPD2    H5 1034   2.838   0.672  15.230 -1.8124 -0.3607  0.7055
   66MPD2    N1 1035   2.971   1.218  15.296 -0.4428 -0.3284 -0.1539
   66MPD2    H7 1036   2.920   1.205  15.383 -2.4696  1.5232 -1.0653
   67TMC2    C1 1037   3.611   0.841  14.276 -0.0505 -0.3813  0.1135
   67TMC2    C2 1038   3.534   0.950  14.256 -0.6511 -0.5116  0.4402
   67TMC2    C3 1039   3.560   1.044  14.354  0.1504 -0.3588  0.3904
   67TMC2    C4 1040   3.701   0.822  14.371 -0.7137 -0.8880  0.5866
   67TMC2    C5 1041   3.716   0.912  14.466 -0.0220 -0.4595  0.5308
   67TMC2    C6 1042   3.644   1.026  14.460  0.0596  0.1074  0.9267
   67TMC2     C 1043   3.612   0.742  14.162  0.1979  0.1667  0.5659
   67TMC2     O 1044   3.695   0.654  14.178 -0.5301  0.4753 -0.4497
   67TMC2     H 1045   3.466   0.969  14.173 -0.5062  1.1423  0.6977
   67TMC2    H1 1046   3.750   0.726  14.381 -0.7354 -0.9274  0.2979
   67TMC2    H2 1047   3.671   1.111  14.522  0.9062 -0.5000  1.3988
   67TMC2    C7 1048   3.797   0.880  14.580 -0.0200 -0.6603  0.4241
   67TMC2    C8 1049   3.471   1.158  14.366 -0.4003 -0.4666 -0.2938
   67TMC2    O1 1050   3.903   0.827  14.555 -0.6594 -0.2294 -0.0897
   67TMC2    O2 1051   3.504   1.252  14.440 -0.0288  0.1257 -0.3921
   67TMC2    O5 1052   3.354   1.099  14.377 -0.9708  0.6319 -0.0992
   67TMC2    H5 1053   3.372   1.011  14.337 -1.1030  0.4370  0.2608
   68MPD2     C 1054   3.533   0.543  13.976  0.0408 -0.9358 -0.3403
   68MPD2    C1 1055   3.485   0.675  13.967 -0.7257  0.5633  0.8038
   68MPD2    C2 1056   3.403   0.710  13.865 -0.0779 -0.1820  0.9297
   68MPD2    C3 1057   3.356   0.614  13.778  0.1899  0.4530  0.0625
   68MPD2    C4 1058   3.402   0.484  13.786 -0.2240 -0.4183  0.0111
   68MPD2    C5 1059   3.480   0.446  13.893  0.2234  0.2187  0.0838
   68MPD2     H 1060   3.351   0.804  13.857 -3.1241 -1.8776  0.8289
   68MPD2    H1 1061   3.373   0.401  13.722 -0.2749  1.8855 -2.9209
   68MPD2    H2 1062   3.593   0.508  14.059  0.5197 -0.4814 -0.4987
   68MPD2    H3 1063   3.513   0.343  13.906 -0.7229  0.0238  1.0423
   68MPD2     N 1064   3.267   0.641  13.673 -0.3527  0.0936 -0.0677
   68MPD2    H5 1065   3.260   0.567  13.605 -0.1655 -0.3928  0.4424
   68MPD2    N1 1066   3.517   0.766  14.065 -0.0853 -0.0664  0.7996
   68MPD2    H7 1067   3.468   0.854  14.063  0.9496  0.5026  0.6915
   69TMC2    C1 1068   0.620   2.105  12.586  0.2286  1.1376 -0.2785
   69TMC2    C2 1069   0.489   2.121  12.545  0.2659 -0.2913  0.0606
   69TMC2    C3 1070   0.474   2.119  12.411  0.4402 -0.1085 -0.6907
   69TMC2    C4 1071   0.723   2.069  12.506  0.2205  0.2811  0.1283
   69TMC2    C5 1072   0.693   2.050  12.377 -0.3434 -0.1427  0.3916
   69TMC2    C6 1073   0.573   2.083  12.325 -0.1815  0.0017 -0.4991
   69TMC2     C 1074   0.634   2.116  12.733  0.2751 -0.2011 -0.8187
   69TMC2     O 1075   0.528   2.107  12.797 -0.5202 -0.9485 -0.4377
   69TMC2     H 1076   0.407   2.144  12.612  0.5214  0.5051  0.1060
   69TMC2    H1 1077   0.823   2.051  12.544  0.9702 -1.9454 -2.9296
   69TMC2    H2 1078   0.556   2.094  12.218  0.0627  2.6930 -0.2469
   69TMC2    C7 1079   0.788   1.997  12.282 -0.5745 -0.1070  0.4709
   69TMC2    C8 1080   0.346   2.123  12.349 -0.1248  0.0983  0.4793
   69TMC2    O1 1081   0.904   1.989  12.323 -0.6844  0.7616 -0.7640
   69TMC2    O2 1082   0.298   2.019  12.299 -0.1325 -0.2190 -0.2899
   69TMC2    O5 1083   0.357   2.235  12.280 -0.5664  0.7330 -0.0003
   69TMC2    H5 1084   0.402   2.306  12.329  1.1493  0.3123 -0.9761
   70MPD2     C 1085   0.931   2.215  12.942  0.1518 -0.0857  0.5730
   70MPD2    C1 1086   0.813   2.146  12.907 -0.1488  0.5519 -0.1299
   70MPD2    C2 1087   0.748   2.087  13.015 -0.0281 -0.1773  1.1157
   70MPD2    C3 1088   0.801   2.095  13.146 -0.1336  0.6266  0.8524
   70MPD2    C4 1089   0.899   2.178  13.179 -0.4684  0.5459  0.1134
   70MPD2    C5 1090   0.959   2.234  13.075 -0.5558  0.2834 -0.4843
   70MPD2     H 1091   0.667   2.019  12.991 -1.4723  1.5711  1.0165
   70MPD2    H1 1092   0.941   2.192  13.278 -1.0643  1.7400  0.1975
   70MPD2    H2 1093   0.988   2.264  12.864 -1.4289 -1.0505 -1.1536
   70MPD2    H3 1094   1.036   2.305  13.102 -0.4609 -0.5377  1.3684
   70MPD2     N 1095   0.763   2.011  13.252 -0.0437  0.0660  0.9827
   70MPD2    H5 1096   0.814   2.008  13.340  1.4189  0.9610  0.1559
   70MPD2    N1 1097   0.763   2.148  12.775 -0.0893 -0.3577  0.3735
   70MPD2    H7 1098   0.826   2.196  12.711 -1.6274  2.0824  0.6972
   71TMC2    C1 1099   2.513   2.453   1.823  0.6029 -0.0487 -0.6251
   71TMC2    C2 1100   2.552   2.396   1.946  0.2516 -0.1323 -0.1445
   71TMC2    C3 1101   2.466   2.404   2.050  0.4852 -0.2143 -0.3475
   71TMC2    C4 1102   2.407   2.545   1.830  0.3154  0.6270  0.3207
   71TMC2    C5 1103   2.325   2.546   1.941 -0.2221  0.1401 -0.6153
   71TMC2    C6 1104   2.348   2.470   2.049  0.3913 -0.1397 -0.3163
   71TMC2     C 1105   2.586   2.447   1.702  0.6172 -0.1309  0.3933
   71TMC2     O 1106   2.563   2.538   1.620 -0.3621  0.5712  0.1085
   71TMC2     H 1107   2.647   2.344   1.958  1.5997  1.8861 -1.9798
   71TMC2    H1 1108   2.393   2.613   1.747 -1.3926  0.7330  0.7149
   71TMC2    H2 1109   2.298   2.488   2.144  0.8393 -3.5819  0.5730
   71TMC2    C7 1110   2.208   2.629   1.946 -0.2077 -0.1411 -0.3989
   71TMC2    C8 1111   2.503   2.327   2.162  0.0762  0.7525 -0.3133
   71TMC2    O1 1112   2.165   2.652   2.058 -0.0736 -0.8145 -0.0472
   71TMC2    O2 1113   2.586   2.243   2.145 -0.5044  0.5417 -0.7295
   71TMC2    O5 1114   2.478   2.403   2.273  0.6428 -0.2774 -0.4392
   71TMC2    H5 1115   2.424   2.484   2.259  2.5343  1.4404  2.3157
   72MPD2     C 1116   2.905   2.199   1.375 -0.1994 -0.1524 -0.3958
   72MPD2    C1 1117   2.819   2.317   1.353  0.0795  0.3395 -0.2495
   72MPD2    C2 1118   2.739   2.370   1.462 -0.1593  0.4767 -0.4309
   72MPD2    C3 1119   2.744   2.297   1.581  0.4680 -0.4087 -0.0514
   72MPD2    C4 1120   2.818   2.184   1.596 -0.5401  0.4565 -0.0496
   72MPD2    C5 1121   2.887   2.131   1.494 -0.0299  0.4556  0.1356
   72MPD2     H 1122   2.680   2.458   1.446  1.8773  1.6487 -1.4956
   72MPD2    H1 1123   2.807   2.127   1.688  0.4182  1.7857  0.8801
   72MPD2    H2 1124   2.975   2.160   1.302 -1.2680 -1.1738 -0.8706
   72MPD2    H3 1125   2.951   2.046   1.515 -0.9955 -0.8933 -2.3376
   72MPD2     N 1126   2.664   2.338   1.694  0.5654 -0.3226 -0.6220
   72MPD2    H5 1127   2.653   2.279   1.776  1.0540 -1.2577 -1.2237
   72MPD2    N1 1128   2.826   2.381   1.234 -0.1171  0.0527  0.4218
   72MPD2    H7 1129   2.782   2.472   1.228  1.5282  0.8900  1.0333
   73TMC2    C1 1130   2.649   3.968  14.051  0.3471  0.0244 -0.0538
   73TMC2    C2 1131   2.597   4.003  14.178 -0.3771  0.4083  0.6108
   73TMC2    C3 1132   2.683   3.967  14.281  0.3382  0.1919 -0.0513
   73TMC2    C4 1133   2.764   3.894  14.028  0.2744  0.0043 -0.2355
   73TMC2    C5 1134   2.845   3.872  14.137  0.1020 -0.7286 -0.2221
   73TMC2    C6 1135   2.797   3.898  14.264 -0.9068 -0.3949 -0.6255
   73TMC2     C 1136   2.629   4.062  13.943 -0.2777  0.3827  0.3147
   73TMC2     O 1137   2.724   4.079  13.871 -0.5409  0.2549 -0.3503
   73TMC2     H 1138   2.503   4.054  14.192 -0.9666  0.0251 -1.9574
   73TMC2    H1 1139   2.798   3.869  13.929  5.0199  0.9004  1.1382
   73TMC2    H2 1140   2.873   3.892  14.341  1.8771 -0.0641 -3.3668
   73TMC2    C7 1141   2.975   3.940  14.119  0.0421  0.3285  0.1153
   73TMC2    C8 1142   2.626   3.969  14.416  0.1193 -0.7919  0.2871
   73TMC2    O1 1143   3.058   3.907  14.202  0.4245 -0.0387 -0.0097
   73TMC2    O2 1144   2.655   3.887  14.503 -0.3673  0.5884 -0.1955
   73TMC2    O5 1145   2.588   4.097  14.427 -0.0484 -0.0969  0.1678
   73TMC2    H5 1146   2.611   4.154  14.350 -1.1644  0.7368  0.4541
   74MPD2     C 1147   2.477   4.549  13.838 -0.6647  1.0859 -0.1312
   74MPD2    C1 1148   2.580   4.478  13.782  0.3726  0.8446 -0.2876
   74MPD2    C2 1149   2.594   4.343  13.818  0.9325  0.0012  0.1996
   74MPD2    C3 1150   2.506   4.276  13.903 -0.2692  0.1157 -0.0059
   74MPD2    C4 1151   2.408   4.353  13.963  1.0188 -0.4554 -0.3065
   74MPD2    C5 1152   2.396   4.488  13.928  0.0336  0.5555  0.3197
   74MPD2     H 1153   2.673   4.289  13.768  0.1941 -1.0794  0.1775
   74MPD2    H1 1154   2.340   4.312  14.036  0.2409 -0.6888 -1.1630
   74MPD2    H2 1155   2.455   4.649  13.804 -2.4184  0.2048 -1.6000
   74MPD2    H3 1156   2.322   4.553  13.975  0.7080  0.9539  0.8243
   74MPD2     N 1157   2.522   4.146  13.965  0.1692  0.2523 -0.1164
   74MPD2    H5 1158   2.460   4.113  14.038 -0.6235  0.6426 -0.6153
   74MPD2    N1 1159   2.665   4.539  13.688 -0.0241  0.0155 -0.2860
   74MPD2    H7 1160   2.668   4.640  13.677 -0.6386  0.1794  1.1317
   75TMC2    C1 1161   3.091   0.730  13.550 -0.2087 -0.0880  0.1998
   75TMC2    C2 1162   3.130   0.652  13.444 -0.1232  0.4858  0.3538
   75TMC2    C3 1163   3.041   0.603  13.359 -0.7488 -0.5051 -0.1970
   75TMC2    C4 1164   2.960   0.780  13.554 -0.8716 -0.2366  0.3335
   75TMC2    C5 1165   2.875   0.723  13.461 -0.7408 -0.5128 -0.3531
   75TMC2    C6 1166   2.907   0.633  13.367  0.1369 -0.0821  0.0155
   75TMC2     C 1167   3.177   0.746  13.661  0.0875  0.2845 -0.2432
   75TMC2     O 1168   3.140   0.819  13.752  0.0426  0.1638  0.1328
   75TMC2     H 1169   3.232   0.615  13.441  0.0246  0.9157  0.1063
   75TMC2    H1 1170   2.928   0.817  13.651  0.1176  1.7917 -0.1191
   75TMC2    H2 1171   2.846   0.592  13.287 -1.4894  0.0691  1.1823
   75TMC2    C7 1172   2.734   0.738  13.463 -0.5988  0.0715 -0.0432
   75TMC2    C8 1173   3.085   0.488  13.277  0.3355 -0.9096 -0.2018
   75TMC2    O1 1174   2.664   0.668  13.395  0.3516  0.4814 -0.4501
   75TMC2    O2 1175   3.181   0.412  13.304  0.1556 -0.0742  0.1492
   75TMC2    O5 1176   3.010   0.477  13.167  0.1284 -0.1713  0.2889
   75TMC2    H5 1177   2.986   0.565  13.131 -1.9951 -0.2333  1.5687
   76TMC2    C1 1178   1.864   1.128  12.120  0.0779 -0.7869  0.2355
   76TMC2    C2 1179   1.768   1.033  12.098 -0.2053 -0.2387  0.4944
   76TMC2    C3 1180   1.811   0.903  12.085 -0.9341  1.2691  0.4229
   76TMC2    C4 1181   1.995   1.094  12.147  0.3824 -0.3910 -0.0616
   76TMC2    C5 1182   2.028   0.961  12.136 -0.9184  0.0725 -0.3174
   76TMC2    C6 1183   1.942   0.864  12.102 -0.3844 -0.5028 -0.4968
   76TMC2     C 1184   1.838   1.252  12.062 -1.0533  0.0943 -0.3128
   76TMC2     O 1185   1.724   1.282  12.049 -0.1661 -0.1025  0.5757
   76TMC2     H 1186   1.663   1.059  12.100 -0.1384  0.1181 -0.4567
   76TMC2    H1 1187   2.078   1.161  12.163 -0.6483  1.1712 -1.2425
   76TMC2    H2 1188   1.971   0.761  12.090 -1.0924 -0.7920  0.2266
   76TMC2    C7 1189   2.153   0.913  12.192  0.0619 -0.2037 -0.6729
   76TMC2    C8 1190   1.718   0.802  12.054  0.4390  0.4553 -0.1329
   76TMC2    O1 1191   2.190   0.801  12.174 -0.4764 -0.7017 -0.5623
   76TMC2    O2 1192   1.629   0.813  11.970  0.2581 -0.2748 -0.2478
   76TMC2    O5 1193   1.739   0.695  12.134  0.5207  0.4365 -0.6212
   76TMC2    H5 1194   1.803   0.702  12.208 -0.0677  3.2559 -0.3988
   77MPD2     C 1195   1.973   1.729  11.929 -0.2238 -0.1110 -0.5504
   77MPD2    C1 1196   1.852   1.673  11.955  0.1091 -0.5682 -0.3575
   77MPD2    C2 1197   1.842   1.541  11.990 -0.6356 -0.5569  0.2674
   77MPD2    C3 1198   1.956   1.466  12.015  0.7933  0.1871 -0.0826
   77MPD2    C4 1199   2.083   1.524  12.000 -0.3663 -0.7601 -0.0357
   77MPD2    C5 1200   2.087   1.652  11.951 -0.1492 -0.3233 -0.1552
   77MPD2     H 1201   1.742   1.503  12.011 -1.1637  0.8474  0.3347
   77MPD2    H1 1202   2.180   1.477  12.015  1.0262  1.9085 -0.6182
   77MPD2    H2 1203   2.002   1.830  11.903 -0.0675 -0.5165 -1.9642
   77MPD2    H3 1204   2.185   1.693  11.930 -0.8172  2.5667  2.3907
   77MPD2     N 1205   1.953   1.329  12.054 -0.4381  0.5173  0.3399
   77MPD2    H5 1206   2.044   1.283  12.060  0.2820  1.6911 -1.4257
   77MPD2    N1 1207   1.732   1.747  11.932 -0.0680  0.3509  0.3931
   77MPD2    H7 1208   1.645   1.703  11.960  0.1802  0.1451  0.8419
   78TMC2    C1 1209   3.576   2.576   0.689  0.4293 -0.0421  0.0815
   78TMC2    C2 1210   3.537   2.498   0.587 -0.1562  0.0148 -0.3899
   78TMC2    C3 1211   3.632   2.456   0.498 -0.4136  0.1599 -0.3021
   78TMC2    C4 1212   3.707   2.619   0.698  0.2179  0.3145  0.0523
   78TMC2    C5 1213   3.793   2.586   0.601  0.0130 -0.3670 -0.6988
   78TMC2    C6 1214   3.762   2.506   0.500  0.6015  0.4426  0.0461
   78TMC2     C 1215   3.494   2.565   0.815 -0.0870 -0.1308  0.0758
   78TMC2     O 1216   3.536   2.633   0.906 -0.2489 -0.1375 -0.3499
   78TMC2     H 1217   3.432   2.478   0.571 -0.4042 -0.5944  1.9540
   78TMC2    H1 1218   3.739   2.677   0.784 -1.4446 -0.3069  1.0931
   78TMC2    H2 1219   3.817   2.494   0.407  0.1433  0.2548 -0.1987
   78TMC2    C7 1220   3.930   2.618   0.627  1.0585 -0.1531 -0.3604
   78TMC2    C8 1221   3.592   2.390   0.376 -0.4920 -0.0712 -0.5930
   78TMC2    O1 1222   3.961   2.698   0.712 -0.0696  0.7935  0.1846
   78TMC2    O2 1223   3.482   2.404   0.325 -0.1386  0.4472 -0.0953
   78TMC2    O5 1224   3.677   2.292   0.334  0.0490 -0.1462  0.2444
   78TMC2    H5 1225   3.741   2.294   0.408 -0.1544 -0.2059  0.4235
   79MPD1     C 1226   3.197   2.337   1.146 -0.3737 -1.2042 -0.3977
   79MPD1    C1 1227   3.243   2.464   1.148 -0.4228 -0.1055 -0.0478
   79MPD1    C2 1228   3.312   2.508   1.040  0.1881 -0.7243  0.2382
   79MPD1    C3 1229   3.323   2.428   0.925 -0.2580 -0.6042  0.7213
   79MPD1    C4 1230   3.273   2.298   0.923  0.4165  0.0567 -0.3690
   79MPD1    C5 1231   3.204   2.254   1.034  0.5506  0.4180  0.7354
   79MPD1     H 1232   3.346   2.610   1.049  0.7773 -1.0272  1.4679
   79MPD1    H1 1233   3.299   2.240   0.835 -0.9539 -1.5715  0.3043
   79MPD1    H2 1234   3.141   2.301   1.231  0.3905 -1.7177 -0.1187
   79MPD1    H3 1235   3.141   2.166   1.024 -0.6456  1.1612  1.7442
   79MPD1     N 1236   3.401   2.466   0.813 -0.0206 -0.1727 -0.0026
   79MPD1    H5 1237   3.407   2.416   0.725  0.6458 -0.3321  0.1321
   79MPD1    N1 1238   3.245   2.527   1.276  1.1471  0.0248  0.0590
   79MPD1    H6 1239   3.251   2.629   1.274 -1.0305  0.1851  1.9919
   79MPD1    H7 1240   3.162   2.497   1.327  1.8664  2.0079  2.4408
   80TMC2    C1 1241   0.349   0.977  12.032 -0.1840 -0.1224 -0.1788
   80TMC2    C2 1242   0.328   0.960  11.900  0.0244  0.2555 -0.0450
   80TMC2    C3 1243   0.196   0.943  11.866 -0.2215  0.1748 -0.2273
   80TMC2    C4 1244   0.250   0.973  12.123  0.3044  0.3454  0.3957
   80TMC2    C5 1245   0.121   0.970  12.078  0.7079 -0.3782 -0.5498
   80TMC2    C6 1246   0.086   0.948  11.947 -0.6659  0.3747 -0.6727
   80TMC2     C 1247   0.484   0.979  12.084  0.1570  0.0546  0.0483
   80TMC2     O 1248   0.570   0.937  12.013 -0.1181  0.1505 -0.2578
   80TMC2     H 1249   0.413   0.963  11.833 -0.2437 -1.3159 -0.4556
   80TMC2    H1 1250   0.265   0.979  12.230 -0.5950  0.8766  0.4921
   80TMC2    H2 1251   4.721   0.932  11.918 -0.6649 -1.3282  0.2907
   80TMC2    C7 1252   0.016   0.956  12.180  0.0354  0.2158  0.4817
   80TMC2    C8 1253   0.166   0.929  11.727  0.2584 -0.4207  0.6380
   80TMC2    O1 1254   4.639   0.977  12.142 -0.1030  0.9041 -0.2040
   80TMC2    O2 1255   0.051   0.935  11.691 -0.5798  0.3574  0.3335
   80TMC2    O5 1256   0.260   0.859  11.661  0.3980  0.0677  0.6466
   80TMC2    H5 1257   0.335   0.821  11.712 -0.4174 -1.1320  0.9372
   81MPD2     C 1258   0.732   1.040  12.230  0.0047  0.1357 -0.2344
   81MPD2    C1 1259   0.607   1.080  12.279  0.0989 -0.1905 -0.1025
   81MPD2    C2 1260   0.587   1.153  12.386 -0.3480 -0.1343 -0.3908
   81MPD2    C3 1261   0.695   1.184  12.469 -0.4073  0.5912  0.8352
   81MPD2    C4 1262   0.824   1.146  12.428  0.1330  0.7152  0.0697
   81MPD2    C5 1263   0.842   1.073  12.307  0.8502  0.4540 -0.5603
   81MPD2     H 1264   0.487   1.185  12.414  0.3157  0.0811  1.7238
   81MPD2    H1 1265   0.910   1.175  12.487  0.6930 -0.2495 -0.2657
   81MPD2    H2 1266   0.751   1.004  12.130 -2.2392 -0.4349 -0.4559
   81MPD2    H3 1267   0.940   1.040  12.275  0.6517 -0.7419  0.0280
   81MPD2     N 1268   0.680   1.261  12.588 -0.0584 -0.3638 -0.3453
   81MPD2    H5 1269   0.763   1.287  12.640 -1.9033  1.6047  1.6356
   81MPD2    N1 1270   0.490   1.061  12.199  0.8261 -0.5995 -0.5154
   81MPD2    H7 1271   0.405   1.102  12.237  1.2894 -0.7276  0.6613
   82TMC2    C1 1272   3.742   0.702  11.311  0.1383 -0.4927  0.0372
   82TMC2    C2 1273   3.829   0.781  11.381  0.0731 -0.0479 -0.0269
   82TMC2    C3 1274   3.923   0.703  11.441 -0.0213 -0.1240 -0.0887
   82TMC2    C4 1275   3.761   0.566  11.295 -0.1152  0.0519 -0.5373
   82TMC2    C5 1276   3.856   0.497  11.354  0.1019  0.0739 -0.1821
   82TMC2    C6 1277   3.936   0.562  11.443  0.1281  0.3679 -0.0236
   82TMC2     C 1278   3.607   0.751  11.306  0.7220  0.0202 -0.3123
   82TMC2     O 1279   3.540   0.704  11.215  0.0864 -0.3473 -0.3074
   82TMC2     H 1280   3.825   0.888  11.395 -1.9820 -0.0315 -0.7277
   82TMC2    H1 1281   3.683   0.528  11.230  0.8532 -1.2560 -0.9368
   82TMC2    H2 1282   4.013   0.514  11.501 -0.8944 -1.3596 -0.1126
   82TMC2    C7 1283   3.833   0.355  11.377 -0.2874  0.0469 -0.6990
   82TMC2    C8 1284   4.030   0.775  11.508 -0.1548 -0.2953 -0.5506
   82TMC2    O1 1285   3.896   0.297  11.465  0.6769 -0.4504  0.3962
   82TMC2    O2 1286   4.093   0.725  11.599 -0.1589  0.4526 -0.3401
   82TMC2    O5 1287   4.078   0.867  11.429  0.2294  0.3572  0.5036
   82TMC2    H5 1288   4.025   0.886  11.348  0.9243 -3.4654 -0.8500
   83MPD2     C 1289   3.188   0.846  11.587  0.1739 -0.6279  0.2808
   83MPD2    C1 1290   3.192   0.826  11.452 -0.1861  0.4169 -0.5041
   83MPD2    C2 1291   3.320   0.805  11.399 -0.1770 -0.2209 -0.8143
   83MPD2    C3 1292   3.436   0.813  11.478 -0.5516 -0.7591 -0.2038
   83MPD2    C4 1293   3.428   0.852  11.612 -0.1057  0.2015  0.3795
   83MPD2    C5 1294   3.304   0.861  11.668  0.5428  0.7294 -0.4184
   83MPD2     H 1295   3.333   0.760  11.301 -1.0100  0.5661 -1.2912
   83MPD2    H1 1296   3.510   0.856  11.682  1.2583 -0.4519 -1.1841
   83MPD2    H2 1297   3.097   0.862  11.643 -1.1511  0.9907 -2.3472
   83MPD2    H3 1298   3.297   0.894  11.771  0.5090  1.3255 -0.6082
   83MPD2     N 1299   3.563   0.799  11.430  0.6386 -0.3237 -0.4918
   83MPD2    H5 1300   3.634   0.808  11.503 -0.9924 -1.8147  1.2704
   83MPD2    N1 1301   3.073   0.815  11.378 -0.6906  0.3977 -0.1276
   83MPD2    H7 1302   2.985   0.841  11.421 -0.5033  0.2770  0.3280
   84TMC2    C1 1303   4.622   0.239  11.023 -0.7693  0.3579 -0.2477
   84TMC2    C2 1304   4.646   0.136  11.111 -0.0860 -0.1488 -0.5580
   84TMC2    C3 1305   4.728   0.040  11.068 -0.3001  0.2335 -0.5048
   84TMC2    C4 1306   4.690   0.258  10.904  0.0272 -0.0169  0.1643
   84TMC2    C5 1307   0.032   0.153  10.868 -0.3978 -0.2110 -0.0977
   84TMC2    C6 1308   0.051   0.042  10.944 -0.2329  0.6547 -0.0039
   84TMC2     C 1309   4.579   0.366  11.084 -0.0389  0.0847 -0.0464
   84TMC2     O 1310   4.573   0.368  11.205  0.2883 -0.4173  0.0802
   84TMC2     H 1311   4.588   0.122  11.201 -0.7600 -0.5627 -1.0598
   84TMC2    H1 1312   4.680   0.337  10.830  0.7053  0.2469  0.3557
   84TMC2    H2 1313   0.108   4.694  10.911 -0.4680  0.9535 -1.1946
   84TMC2    C7 1314   0.079   0.142  10.734 -0.4680 -0.0197 -0.1332
   84TMC2    C8 1315   0.005   4.678  11.172  0.1580 -0.3024 -0.7601
   84TMC2    O1 1316   0.111   0.029  10.695  0.7633 -0.3404 -0.0229
   84TMC2    O2 1317   4.655   4.641  11.244 -0.0438  0.2998 -0.1029
   84TMC2    O5 1318   0.105   4.594  11.128  0.1583 -0.4762 -0.5600
   84TMC2    H5 1319   0.187   4.647  11.117  1.3401 -2.1195  0.2356
   85TMC2    C1 1320   1.256   2.720  15.853 -0.5123 -0.5009  0.1556
   85TMC2    C2 1321   1.161   2.822  15.849  0.0656  0.3166  0.5144
   85TMC2    C3 1322   1.193   2.946  15.798  0.4189  0.8755  0.6887
   85TMC2    C4 1323   1.384   2.748  15.809 -0.1888 -0.5893 -0.1115
   85TMC2    C5 1324   1.410   2.872  15.757 -0.2478 -0.9331  0.0150
   85TMC2    C6 1325   1.318   2.971  15.754  0.4060  0.0020  0.3224
   85TMC2     C 1326   1.242   2.594  15.921  0.6577 -0.4775 -0.4611
   85TMC2     O 1327   1.342   2.538  15.964 -0.0018 -0.3765 -0.4361
   85TMC2     H 1328   1.065   2.814  15.899  0.6147 -0.6606  1.3964
   85TMC2    H1 1329   1.460   2.670  15.811 -1.8493 -2.1895  0.0919
   85TMC2    H2 1330   1.335   3.075  15.730  1.0358  0.4147  2.5493
   85TMC2    C7 1331   1.509   2.881  15.656 -0.0134  0.2694  0.1760
   85TMC2    C8 1332   1.097   3.059  15.828  0.2449  0.6499  0.2359
   85TMC2    O1 1333   1.582   2.781  15.648  0.7134 -0.6066 -0.0081
   85TMC2    O2 1334   1.068   3.144  15.743  0.1350  0.4031 -0.1137
   85TMC2    O5 1335   1.047   3.044  15.952 -0.4291 -0.4353  0.2102
   85TMC2    H5 1336   1.100   2.978  16.002  1.7923  1.3935  0.2541
   86MPD2     C 1337   0.977   2.191  16.096  0.1289 -0.1093  0.2912
   86MPD2    C1 1338   0.901   2.258  16.012  0.1626 -0.7796  0.4605
   86MPD2    C2 1339   0.945   2.367  15.942 -0.1804 -0.7558  0.5149
   86MPD2    C3 1340   1.073   2.418  15.968 -0.3422 -0.1174  0.3729
   86MPD2    C4 1341   1.153   2.349  16.060  0.2009 -1.6485 -0.7786
   86MPD2    C5 1342   1.105   2.231  16.118 -0.1481  0.1372  0.2594
   86MPD2     H 1343   0.881   2.418  15.871 -0.1931  0.3255  1.3042
   86MPD2    H1 1344   1.247   2.386  16.098 -0.1742 -0.3650 -1.1135
   86MPD2    H2 1345   0.938   2.109  16.156 -1.9875 -0.3318 -1.3669
   86MPD2    H3 1346   1.161   2.186  16.199  1.8294  0.3168 -1.0107
   86MPD2     N 1347   1.115   2.540  15.909  0.0064 -0.2363 -0.7500
   86MPD2    H5 1348   1.048   2.597  15.860  0.4088 -0.6000 -1.7257
   86MPD2    N1 1349   0.770   2.204  15.999  0.1880  0.2418 -0.7607
   86MPD2    H7 1350   0.723   2.245  15.919 -0.9912 -0.8437 -0.6226
   87TMC2    C1 1351   3.971   0.613   1.393  0.2077  0.0491  1.2642
   87TMC2    C2 1352   3.965   0.551   1.518  0.0849 -0.9939 -0.2104
   87TMC2    C3 1353   3.936   0.630   1.627 -0.3995 -0.0666 -0.3318
   87TMC2    C4 1354   3.945   0.749   1.378  0.1264  0.1361 -0.3047
   87TMC2    C5 1355   3.911   0.813   1.492  0.0670 -1.0145  0.4437
   87TMC2    C6 1356   3.910   0.759   1.614 -0.8061  0.1015  0.1852
   87TMC2     C 1357   3.985   0.537   1.271  0.2376  0.3883 -0.0553
   87TMC2     O 1358   3.991   0.603   1.169 -0.7066 -0.0920 -0.5948
   87TMC2     H 1359   3.990   0.446   1.525  2.6215 -0.3190  0.6628
   87TMC2    H1 1360   3.954   0.806   1.287 -0.1240 -0.5092 -0.7354
   87TMC2    H2 1361   3.870   0.812   1.700  2.4493 -1.8496  2.9280
   87TMC2    C7 1362   3.875   0.949   1.476 -0.3373  0.4327  0.2962
   87TMC2    C8 1363   3.956   0.575   1.758 -0.7054  0.0781 -1.5303
   87TMC2    O1 1364   3.834   0.983   1.364 -0.2713 -0.5934 -0.0192
   87TMC2    O2 1365   3.964   0.452   1.765 -0.1014  0.6980 -0.6527
   87TMC2    O5 1366   4.035   0.659   1.828 -0.0433 -0.6617 -0.2958
   87TMC2    H5 1367   4.008   0.754   1.835  1.9616 -0.1463  0.4347
   88MPD2     C 1368   3.806   1.200   1.731 -0.2922 -0.3106 -0.4974
   88MPD2    C1 1369   3.795   1.140   1.606 -0.0311  0.2126  0.3062
   88MPD2    C2 1370   3.707   1.191   1.509 -0.1098 -0.1232  0.3960
   88MPD2    C3 1371   3.631   1.302   1.536 -0.0195  0.6703  0.3054
   88MPD2    C4 1372   3.658   1.375   1.656 -0.1353 -0.1828 -0.5059
   88MPD2    C5 1373   3.743   1.316   1.748 -0.0250  0.4475  0.2324
   88MPD2     H 1374   3.685   1.138   1.417 -1.9430  1.9489 -0.3558
   88MPD2    H1 1375   3.613   1.469   1.685  2.1874  1.1953 -1.3723
   88MPD2    H2 1376   3.873   1.166   1.810 -0.5697  1.1825  0.3851
   88MPD2    H3 1377   3.748   1.374   1.840 -0.2024  1.7873 -0.5987
   88MPD2     N 1378   3.527   1.353   1.453 -0.3169  0.5412 -0.4243
   88MPD2    H5 1379   3.495   1.447   1.475 -0.3096  0.0395  1.6848
   88MPD2    N1 1380   3.864   1.019   1.589 -0.2864 -0.8898 -0.2885
   88MPD2    H7 1381   3.916   0.982   1.668 -0.7728  1.2079  1.0020
   89TMC2    C1 1382   4.644   3.669   1.389  0.5083  0.8856  0.3032
   89TMC2    C2 1383   4.733   3.656   1.281 -1.1239 -0.4200  0.1942
   89TMC2    C3 1384   0.069   3.772   1.245  0.6211  0.1732 -0.3515
   89TMC2    C4 1385   4.626   3.790   1.457 -0.3821 -0.2057  0.3007
   89TMC2    C5 1386   4.712   3.897   1.425 -0.2524  0.2625  0.2970
   89TMC2    C6 1387   0.064   3.894   1.319 -0.0434  0.1136 -0.1763
   89TMC2     C 1388   4.567   3.548   1.409  0.9445  0.1541 -1.0009
   89TMC2     O 1389   4.623   3.449   1.356  0.1703  0.4517 -0.3801
   89TMC2     H 1390   0.024   3.558   1.247  1.1051  0.4535 -0.3575
   89TMC2    H1 1391   4.580   3.789   1.555  0.2634  1.0626  0.6209
   89TMC2    H2 1392   0.133   3.973   1.293 -0.1027 -0.5866 -2.4219
   89TMC2    C7 1393   4.693   4.023   1.495  0.5365  0.3856  0.4457
   89TMC2    C8 1394   0.134   3.781   1.115 -0.2031 -0.1929 -0.0143
   89TMC2    O1 1395   4.609   4.031   1.580 -0.0391  0.5205 -0.3337
   89TMC2    O2 1396   0.156   3.889   1.054  0.2389 -0.1099 -1.0414
   89TMC2    O5 1397   0.194   3.658   1.080 -0.2787 -0.0323 -0.6646
   89TMC2    H5 1398   0.204   3.598   1.156 -0.0855 -1.1935 -1.6103
   90MPD2     C 1399   4.163   3.253   1.502  0.2194 -0.4141 -0.4644
   90MPD2    C1 1400   4.130   3.385   1.524  0.9409 -0.1317  0.2341
   90MPD2    C2 1401   4.222   3.486   1.503  0.6324 -0.0808 -0.1330
   90MPD2    C3 1402   4.350   3.459   1.465 -0.7066 -0.1833  0.0019
   90MPD2    C4 1403   4.391   3.325   1.462 -0.3006  0.7833  0.1828
   90MPD2    C5 1404   4.298   3.230   1.476  0.1350 -0.4589 -1.0725
   90MPD2     H 1405   4.186   3.587   1.519 -0.1372 -0.4190  0.2134
   90MPD2    H1 1406   4.494   3.298   1.444 -0.5625  0.8162 -1.4327
   90MPD2    H2 1407   4.092   3.172   1.511 -0.3043 -0.1262 -2.0064
   90MPD2    H3 1408   4.324   3.126   1.459 -0.4724 -0.4488 -2.1124
   90MPD2     N 1409   4.431   3.563   1.443 -0.0962  0.4427 -0.4317
   90MPD2    H5 1410   4.402   3.659   1.461 -0.2701  0.4474 -0.7395
   90MPD2    N1 1411   4.000   3.414   1.569  0.2236 -0.1574 -0.4984
   90MPD2    H7 1412   3.981   3.506   1.607 -2.7795 -0.2898 -1.6538
   91TMC2    C1 1413   0.715   3.281  16.529  0.1314  0.4809 -0.8041
   91TMC2    C2 1414   0.746   3.171  16.451  0.5327 -0.6728 -0.2006
   91TMC2    C3 1415   0.649   3.124  16.365 -0.0122  0.3620 -0.1737
   91TMC2    C4 1416   0.591   3.333  16.535 -0.1093 -0.2099 -0.1310
   91TMC2    C5 1417   0.503   3.285  16.442  0.5675  0.3251 -0.6779
   91TMC2    C6 1418   0.533   3.192  16.350 -0.2473  0.0274 -0.2506
   91TMC2     C 1419   0.824   3.345  16.599  0.0221 -0.2005  0.4748
   91TMC2     O 1420   0.804   3.422  16.690 -1.0395  0.3542  0.1366
   91TMC2     H 1421   0.830   3.105  16.467 -0.3293 -1.6606  0.2857
   91TMC2    H1 1422   0.571   3.428  16.583 -4.2363 -1.5272  0.8175
   91TMC2    H2 1423   0.456   3.153  16.284  1.0770 -1.4951 -0.8817
   91TMC2    C7 1424   0.386   3.368  16.423  0.6659  0.1165  0.0942
   91TMC2    C8 1425   0.669   2.998  16.296  0.4042  0.8714  0.2551
   91TMC2    O1 1426   0.342   3.408  16.528 -0.2866  0.1364  0.5232
   91TMC2    O2 1427   0.578   2.936  16.241  0.0159  0.1856  0.1899
   91TMC2    O5 1428   0.793   2.980  16.261  0.4009 -0.2268 -0.0662
   91TMC2    H5 1429   0.854   3.055  16.278  3.5267 -2.4556 -1.4973
   92MPD2     C 1430   1.068   3.519  16.647  0.0569 -0.9888 -0.7257
   92MPD2    C1 1431   1.058   3.431  16.536 -0.1874 -0.5546 -0.0085
   92MPD2    C2 1432   1.141   3.439  16.430  0.4208 -0.2926  0.9783
   92MPD2    C3 1433   1.236   3.539  16.434 -0.1225 -1.2397  0.3991
   92MPD2    C4 1434   1.248   3.619  16.543 -0.4215 -0.8562 -0.1511
   92MPD2    C5 1435   1.168   3.608  16.654 -0.2269  0.3112 -0.0744
   92MPD2     H 1436   1.119   3.379  16.343  0.0034  0.8111  0.3205
   92MPD2    H1 1437   1.318   3.702  16.542 -1.1405 -0.2286  1.8519
   92MPD2    H2 1438   1.006   3.513  16.737  0.0092  1.2648 -0.6073
   92MPD2    H3 1439   1.176   3.683  16.733 -1.4695 -0.6875  1.0010
   92MPD2     N 1440   1.326   3.562  16.331  0.1718 -0.5708 -0.0526
   92MPD2    H5 1441   1.394   3.638  16.339  0.3956 -0.6450 -1.1532
   92MPD2    N1 1442   0.941   3.342  16.521  0.3416 -0.2711  0.2627
   92MPD2    H7 1443   0.951   3.284  16.439  1.8055  1.6470 -0.9288
   93TMC2    C1 1444   2.585   3.394  14.011  0.0447  0.4289  0.3276
   93TMC2    C2 1445   2.557   3.387  14.144 -0.2806  0.2603  0.5054
   93TMC2    C3 1446   2.646   3.431  14.232  0.0086  0.5947 -1.0903
   93TMC2    C4 1447   2.714   3.431  13.973 -0.1460  0.4847 -0.4721
   93TMC2    C5 1448   2.804   3.462  14.067 -0.1099 -0.3221 -0.4234
   93TMC2    C6 1449   2.768   3.468  14.200  0.6500  0.5892  0.6012
   93TMC2     C 1450   2.488   3.357  13.906  0.8003 -0.5360 -0.1211
   93TMC2     O 1451   2.500   3.397  13.792  0.2916 -0.0598 -0.1815
   93TMC2     H 1452   2.457   3.367  14.183 -0.9763  0.7663 -1.0029
   93TMC2    H1 1453   2.748   3.435  13.870  1.4353  1.8459  0.1167
   93TMC2    H2 1454   2.833   3.523  14.267 -2.9839  1.2419  3.5753
   93TMC2    C7 1455   2.934   3.520  14.032  0.0428  0.0974 -0.1552
   93TMC2    C8 1456   2.596   3.442  14.368 -0.0656 -0.2512 -0.1666
   93TMC2    O1 1457   3.004   3.535  14.133  0.0311  0.0917 -0.2169
   93TMC2    O2 1458   2.477   3.428  14.401  0.7686  0.2296  0.4722
   93TMC2    O5 1459   2.694   3.451  14.448  0.6130  0.2062  0.0569
   93TMC2    H5 1460   2.770   3.403  14.410  2.6550  2.7075  0.9397
   94MPD2     C 1461   2.174   3.193  13.966  0.4144  0.4760  0.3117
   94MPD2    C1 1462   2.259   3.273  13.897 -0.2480 -0.9542 -0.6063
   94MPD2    C2 1463   2.214   3.350  13.791 -0.4083  0.4729  1.2530
   94MPD2    C3 1464   2.085   3.333  13.740 -0.1505  0.5491 -0.5632
   94MPD2    C4 1465   2.000   3.250  13.810  0.2758  0.1360  0.5094
   94MPD2    C5 1466   2.044   3.191  13.923  0.1839 -0.0827  0.4906
   94MPD2     H 1467   2.268   3.439  13.760 -0.3338 -0.2436 -0.6484
   94MPD2    H1 1468   1.899   3.240  13.772  0.6350  1.7711 -0.8610
   94MPD2    H2 1469   2.211   3.146  14.056 -0.3114 -2.2093 -0.7789
   94MPD2    H3 1470   1.973   3.132  13.981  0.2560 -1.5445 -0.8985
   94MPD2     N 1471   2.033   3.396  13.624  0.1239  0.6503  0.1044
   94MPD2    H5 1472   1.938   3.372  13.594 -0.2607  0.1487  1.7563
   94MPD2    N1 1473   2.383   3.291  13.964  0.6856  0.6358  0.0658
   94MPD2    H7 1474   2.399   3.243  14.052 -1.3632  0.8986  0.5999
   95TMC2    C1 1475   2.599   0.526  16.457 -0.1863 -0.1352 -0.2776
   95TMC2    C2 1476   2.585   0.421  16.549  0.0119  0.0348 -0.0117
   95TMC2    C3 1477   2.618   0.456  16.675 -0.1861 -0.1916  0.3343
   95TMC2    C4 1478   2.636   0.650  16.489 -0.0338  0.1767  0.4597
   95TMC2    C5 1479   2.663   0.674  16.621 -0.1216  0.2260  0.5699
   95TMC2    C6 1480   2.657   0.577  16.719  0.2725  0.2880  0.3135
   95TMC2     C 1481   2.597   0.490  16.317 -0.5214  0.1966  0.1121
   95TMC2     O 1482   2.666   0.563  16.242  0.0705  0.3443 -0.0725
   95TMC2     H 1483   2.575   0.316  16.523  0.8046  0.0585 -0.3974
   95TMC2    H1 1484   2.665   0.727  16.418 -0.6627 -1.2229 -1.3040
   95TMC2    H2 1485   2.685   0.595  16.822 -4.1205  0.1934  1.5393
   95TMC2    C7 1486   2.690   0.805  16.671 -0.2551  0.0365 -0.0618
   95TMC2    C8 1487   2.581   0.356  16.781  0.0573  0.1685  0.0309
   95TMC2    O1 1488   2.755   0.809  16.775  0.4299  0.1172 -0.2162
   95TMC2    O2 1489   2.591   0.234  16.768 -0.6024 -0.3450 -0.8125
   95TMC2    O5 1490   2.475   0.410  16.832  0.0694  0.1154 -0.3257
   95TMC2    H5 1491   2.484   0.507  16.845  1.3581  0.1025 -1.1611
   96MPD2     C 1492   2.431   0.207  15.899 -0.3332 -0.0218 -0.7217
   96MPD2    C1 1493   2.518   0.316  15.916 -0.3973 -0.4149 -0.3666
   96MPD2    C2 1494   2.547   0.370  16.044  0.1694  0.5632 -0.5751
   96MPD2    C3 1495   2.480   0.335  16.156 -0.4929  0.1748 -0.0375
   96MPD2    C4 1496   2.393   0.231  16.133  0.0275 -0.7876 -0.0988
   96MPD2    C5 1497   2.374   0.157  16.018  0.1035  0.2642 -0.2874
   96MPD2     H 1498   2.621   0.449  16.052  0.7755 -0.2694  1.9530
   96MPD2    H1 1499   2.345   0.200  16.225 -0.1614 -0.0541  0.0521
   96MPD2    H2 1500   2.394   0.157  15.810 -1.2732  1.4328 -1.1527
   96MPD2    H3 1501   2.310   0.070  16.012  0.2789  0.1495 -0.5266
   96MPD2     N 1502   2.514   0.382  16.287 -0.1096  0.1239  0.3883
   96MPD2    H5 1503   2.461   0.347  16.366 -2.0715  1.9861 -0.0827
   96MPD2    N1 1504   2.568   0.365  15.795 -0.8284  0.1036 -0.2663
   96MPD2    H7 1505   2.539   0.310  15.714 -1.0326  0.2064 -0.2619
   97TMC2    C1 1506   0.078   3.563   0.229  0.0291 -0.7971 -0.2030
   97TMC2    C2 1507   0.115   3.442   0.170  0.2026 -0.0796 -0.3064
   97TMC2    C3 1508   0.068   3.413   0.040 -0.1590 -0.0870 -0.3027
   97TMC2    C4 1509   0.008   3.658   0.163  0.3479 -0.0234 -0.4412
   97TMC2    C5 1510   4.696   3.620   0.041 -0.1487 -1.1075  0.0831
   97TMC2    C6 1511   4.724   3.504  17.732  0.9242  0.3637  0.0669
   97TMC2     C 1512   0.137   3.607   0.348 -0.4366  0.2982 -0.0574
   97TMC2     O 1513   0.112   3.714   0.394  0.2013  0.2116  0.1180
   97TMC2     H 1514   0.173   3.370   0.227 -0.3203 -1.1248 -1.0854
   97TMC2    H1 1515   4.728   3.754   0.209 -0.8963  0.2793 -1.5933
   97TMC2    H2 1516   4.688   3.490  17.631 -0.2786  1.8038  0.2875
   97TMC2    C7 1517   4.560   3.664   0.008 -0.3132 -0.2279  0.8407
   97TMC2    C8 1518   0.100   3.285  17.731  0.3801  0.1513  0.6771
   97TMC2    O1 1519   4.468   3.606   0.063  0.0287 -0.1683 -0.7946
   97TMC2    O2 1520   0.026   3.216  17.661  0.5347  0.6779  0.3345
   97TMC2    O5 1521   0.219   3.246   0.034 -0.4584 -0.5478  0.5444
   97TMC2    H5 1522   0.260   3.315   0.091 -2.1354  1.0102 -0.1339
   98MPD2     C 1523   0.543   3.616   0.662  0.3920 -0.2867 -0.0765
   98MPD2    C1 1524   0.431   3.699   0.658 -0.2503 -0.2816 -0.5259
   98MPD2    C2 1525   0.323   3.669   0.580 -0.7709  0.6246  0.6859
   98MPD2    C3 1526   0.333   3.560   0.489 -0.1332  0.5950  0.5157
   98MPD2    C4 1527   0.441   3.471   0.499  0.1266 -0.0542 -0.2270
   98MPD2    C5 1528   0.546   3.505   0.578  0.1118  0.4997 -0.2421
   98MPD2     H 1529   0.238   3.737   0.581 -0.1610  1.4061 -0.3038
   98MPD2    H1 1530   0.441   3.384   0.434 -1.0992  0.5696 -1.0617
   98MPD2    H2 1531   0.624   3.627   0.733  0.6403  2.6873 -0.7944
   98MPD2    H3 1532   0.639   3.448   0.575  0.6135  1.2280  1.2294
   98MPD2     N 1533   0.242   3.532   0.387 -0.1907  0.0182  0.1016
   98MPD2    H5 1534   0.260   3.444   0.340 -2.0452 -0.8631  1.0186
   98MPD2    N1 1535   0.438   3.809   0.749 -0.2339 -0.0231  0.0199
   98MPD2    H7 1536   0.517   3.808   0.813 -0.1838 -2.4899 -0.0714
   99TMC2    C1 1537   3.879   4.366   1.901  0.0192  0.1807 -0.4592
   99TMC2    C2 1538   3.967   4.387   2.000  0.3930  0.0816 -0.6102
   99TMC2    C3 1539   3.962   4.514   2.062  0.1217 -0.3696  0.3163
   99TMC2    C4 1540   3.788   4.463   1.859 -0.7368 -0.3300  0.1201
   99TMC2    C5 1541   3.783   4.578   1.931  0.5649  0.1016 -0.0320
   99TMC2    C6 1542   3.870   4.605   2.029  0.1648 -0.3644  0.5396
   99TMC2     C 1543   3.925   4.276   1.795 -0.7385  0.0879  0.5784
   99TMC2     O 1544   4.038   4.241   1.807  0.4949  0.2456 -0.0794
   99TMC2     H 1545   4.045   4.316   2.027 -0.4294 -0.6045 -0.0689
   99TMC2    H1 1546   3.748   4.465   1.759 -0.9897  0.0554  0.2276
   99TMC2    H2 1547   3.883   4.701   2.077  0.5275 -0.8015  1.3119
   99TMC2    C7 1548   3.689   4.681   1.904 -0.5531  0.0418 -0.2402
   99TMC2    C8 1549   4.071   4.563   2.148 -0.2833 -0.1397 -0.2086
   99TMC2    O1 1550   3.722   0.062   1.921  1.1203  0.1962 -0.0883
   99TMC2    O2 1551   4.183   4.513   2.144  0.0787  0.0004 -0.1513
   99TMC2    O5 1552   4.022   4.611   2.262 -0.5348 -0.0285 -0.0643
   99TMC2    H5 1553   3.924   4.618   2.271 -0.3513  0.3405  1.6912
  100MPD2     C 1554   3.986   4.125   1.540 -0.0140 -0.9262 -0.4177
  100MPD2    C1 1555   3.860   4.169   1.572  0.2166 -0.2861  0.2883
  100MPD2    C2 1556   3.757   4.158   1.485 -0.2991  0.4140  0.1697
  100MPD2    C3 1557   3.772   4.111   1.353  0.3789 -0.0851 -0.3867
  100MPD2    C4 1558   3.896   4.059   1.323 -0.2048  0.5565  0.1438
  100MPD2    C5 1559   4.001   4.068   1.419 -0.5297  0.0589  0.0964
  100MPD2     H 1560   3.660   4.188   1.521  0.2291  0.8957  1.1800
  100MPD2    H1 1561   3.918   4.018   1.225  1.2312 -0.9093  1.0789
  100MPD2    H2 1562   4.076   4.139   1.600 -0.4710  1.4002 -0.2746
  100MPD2    H3 1563   4.097   4.032   1.385  0.3527  2.6020 -0.0799
  100MPD2     N 1564   3.666   4.131   1.260 -0.1063 -0.0572 -0.0534
  100MPD2    H5 1565   3.588   4.187   1.292  0.2822 -0.3521  1.3951
  100MPD2    N1 1566   3.837   4.248   1.691 -0.8080 -0.0525  0.1346
  100MPD2    H7 1567   3.743   4.282   1.706  0.2356  2.2826  1.5033
  101TMC2    C1 1568   4.207   1.264  13.548  0.5945  0.4481  0.7847
  101TMC2    C2 1569   4.153   1.327  13.660 -0.7633  0.0077 -0.0512
  101TMC2    C3 1570   4.178   1.459  13.683 -1.0987  0.1415  0.5018
  101TMC2    C4 1571   4.285   1.327  13.451 -0.1012 -0.0844  0.6041
  101TMC2    C5 1572   4.283   1.461  13.472 -0.9324  0.0083  0.2757
  101TMC2    C6 1573   4.243   1.533  13.588 -0.7704 -0.0243 -0.4326
  101TMC2     C 1574   4.175   1.123  13.530  1.0339  0.2787  0.1431
  101TMC2     O 1575   4.092   1.075  13.603 -0.2026 -0.3650 -0.1389
  101TMC2     H 1576   4.106   1.269  13.738 -0.9157 -0.5446 -0.5555
  101TMC2    H1 1577   4.322   1.283  13.359 -1.5671  0.8297 -0.4145
  101TMC2    H2 1578   4.257   1.639  13.604  1.0456 -0.4808  1.0321
  101TMC2    C7 1579   4.337   1.541  13.360  0.1744 -0.5172 -0.0387
  101TMC2    C8 1580   4.103   1.531  13.782  0.1598  0.7218 -0.2095
  101TMC2    O1 1581   4.426   1.498  13.290  0.3306  0.4960 -0.1925
  101TMC2    O2 1582   4.053   1.643  13.758  0.1995 -0.0840 -0.0994
  101TMC2    O5 1583   4.099   1.462  13.891 -0.5971  0.4845 -0.3604
  101TMC2    H5 1584   4.171   1.395  13.893 -0.8324  0.1643 -2.2548
  102MPD2     C 1585   4.347   0.871  13.336  0.4592  0.4925  0.0621
  102MPD2    C1 1586   4.261   0.915  13.437  0.8119  0.2065  0.3981
  102MPD2    C2 1587   4.174   0.830  13.498 -0.6919 -0.0558  0.1532
  102MPD2    C3 1588   4.179   0.695  13.469  0.2520  0.2191  0.5903
  102MPD2    C4 1589   4.272   0.652  13.375  0.3658 -0.3169 -0.4494
  102MPD2    C5 1590   4.359   0.729  13.310  0.6264 -0.0581  0.6939
  102MPD2     H 1591   4.121   0.867  13.586 -1.9320  1.3222 -1.1777
  102MPD2    H1 1592   4.279   0.544  13.367 -0.4861 -0.3371 -0.9180
  102MPD2    H2 1593   4.425   0.937  13.300 -1.8553  2.9129 -0.4809
  102MPD2    H3 1594   4.445   0.687  13.261 -0.2084  0.8264 -1.5318
  102MPD2     N 1595   4.102   0.613  13.558 -0.1926 -1.1714  0.1727
  102MPD2    H5 1596   4.061   0.663  13.636  0.2222 -0.2433 -0.2070
  102MPD2    N1 1597   4.258   1.054  13.449  0.0177  0.0558  0.6748
  102MPD2    H7 1598   4.327   1.101  13.391  0.6909 -0.6903  0.8765
  103TMC2    C1 1599   2.657   1.401  12.647 -0.0956 -0.4790 -0.1578
  103TMC2    C2 1600   2.742   1.489  12.582  0.9507  0.5033  0.0826
  103TMC2    C3 1601   2.714   1.624  12.594  0.1821  0.1763  0.1600
  103TMC2    C4 1602   2.544   1.449  12.714 -0.1274 -0.1063  0.7129
  103TMC2    C5 1603   2.521   1.584  12.714  0.2027 -0.2352  0.2365
  103TMC2    C6 1604   2.603   1.674  12.656  0.1125 -0.1276  0.4730
  103TMC2     C 1605   2.655   1.264  12.600 -0.0259 -0.0411 -0.2256
  103TMC2     O 1606   2.756   1.220  12.548  0.2907 -0.5673 -0.4534
  103TMC2     H 1607   2.815   1.456  12.509  0.4416 -0.4349 -0.0008
  103TMC2    H1 1608   2.470   1.386  12.762 -0.3796 -0.2269  0.1529
  103TMC2    H2 1609   2.582   1.780  12.642  0.3123 -0.2479 -0.7885
  103TMC2    C7 1610   2.391   1.622  12.767  0.3342  0.0131  0.0447
  103TMC2    C8 1611   2.751   1.714  12.483 -0.2705  0.1473 -0.2223
  103TMC2    O1 1612   2.356   1.580  12.878 -0.2606  0.0970 -0.0897
  103TMC2    O2 1613   2.680   1.799  12.426 -0.5691 -0.3521  0.2444
  103TMC2    O5 1614   2.874   1.680  12.441 -0.1093  0.7182  0.2376
  103TMC2    H5 1615   2.916   1.630  12.514 -0.8124 -0.4872 -0.1840
  104MPD2     C 1616   2.573   1.016  12.461 -0.4554 -0.3048  0.1337
  104MPD2    C1 1617   2.481   1.105  12.502 -0.1083 -0.7537 -0.0372
  104MPD2    C2 1618   2.358   1.103  12.440  0.0426  0.4128 -0.3836
  104MPD2    C3 1619   2.323   1.001  12.345  0.2308 -0.2641  0.1725
  104MPD2    C4 1620   2.421   0.916  12.307 -0.7657 -0.2673  1.0895
  104MPD2    C5 1621   2.545   0.923  12.369  0.4789  0.1003  0.4108
  104MPD2     H 1622   2.285   1.180  12.463  1.0685  1.5188 -0.8448
  104MPD2    H1 1623   2.402   0.833  12.240  0.0220  1.5415 -1.3710
  104MPD2    H2 1624   2.675   1.007  12.496 -0.4378 -0.7734 -0.0380
  104MPD2    H3 1625   2.621   0.848  12.349  0.3394  0.4212 -1.3102
  104MPD2     N 1626   2.196   0.998  12.290 -0.6569 -0.1386  0.6295
  104MPD2    H5 1627   2.134   1.075  12.311  1.1969  1.1710  1.2769
  104MPD2    N1 1628   2.527   1.224  12.573  0.4454 -0.5157  0.0431
  104MPD2    H7 1629   2.451   1.288  12.595  1.0923  1.3135 -2.9709
  105TMC2    C1 1630   3.988   0.328   0.351 -0.1927  0.2425  0.6165
  105TMC2    C2 1631   3.888   0.424   0.346 -0.3556 -0.1488  0.2796
  105TMC2    C3 1632   3.831   0.456   0.465  0.0118 -0.1470 -0.1913
  105TMC2    C4 1633   4.013   0.266   0.468  0.7842  0.4295  0.7723
  105TMC2    C5 1634   3.954   0.304   0.582 -1.0687  0.1911  0.1083
  105TMC2    C6 1635   3.853   0.393   0.582 -0.5802 -1.1471  0.4002
  105TMC2     C 1636   4.060   0.275   0.241 -0.1295 -0.3459  0.3166
  105TMC2     O 1637   4.141   0.185   0.252  0.0036  0.2669 -0.5502
  105TMC2     H 1638   3.854   0.475   0.257  0.4600 -1.3725 -0.7368
  105TMC2    H1 1639   4.088   0.188   0.465  0.4000  0.1685 -1.9861
  105TMC2    H2 1640   3.803   0.432   0.669  1.0289 -1.0652  1.2879
  105TMC2    C7 1641   3.991   0.235   0.701  0.0305 -0.1753 -0.0132
  105TMC2    C8 1642   3.709   0.532   0.457  0.2734  0.5717 -0.6207
  105TMC2    O1 1643   4.021   0.119   0.695  0.3586 -0.4994 -0.4454
  105TMC2    O2 1644   3.679   0.591   0.563  0.2904 -0.1829 -0.1972
  105TMC2    O5 1645   3.627   0.482   0.365  0.5353 -0.5657 -0.0262
  105TMC2    H5 1646   3.670   0.410   0.314  0.2711 -1.2714  0.7636
  106MPD2     C 1647   4.107   0.242  17.488 -0.4024 -0.3811  0.6396
  106MPD2    C1 1648   4.027   0.350  17.519 -0.7429 -0.4947  0.0880
  106MPD2    C2 1649   3.998   0.379  17.655 -0.0014 -0.1651  0.8819
  106MPD2    C3 1650   4.056   0.296  17.749 -0.7551 -0.4983 -0.9381
  106MPD2    C4 1651   4.137   0.187  17.719 -0.5217 -0.0142  0.8192
  106MPD2    C5 1652   4.147   0.152  17.588 -0.3460  0.3843 -0.1378
  106MPD2     H 1653   3.935   0.463  17.681  0.9658  0.8759 -0.0936
  106MPD2    H1 1654   4.182   0.120   0.038  1.2507  0.4670  0.1763
  106MPD2    H2 1655   4.112   0.205  17.386  1.3282 -2.7572  1.5810
  106MPD2    H3 1656   4.201   0.068  17.545 -0.3877  0.1837  0.2064
  106MPD2     N 1657   4.022   0.334   0.125  0.2957  0.2644  0.7313
  106MPD2    H5 1658   3.966   0.418   0.134 -0.1649  0.0878 -0.5678
  106MPD2    N1 1659   3.973   0.435  17.422 -0.5249 -0.2452 -0.2229
  106MPD2    H7 1660   3.897   0.489  17.463 -0.1424  1.2014 -1.4343
  107TMC2    C1 1661   4.376   0.894  11.694  0.0228  0.3203 -0.2776
  107TMC2    C2 1662   4.439   1.003  11.746 -0.2390  0.6120 -0.1610
  107TMC2    C3 1663   4.512   1.086  11.665 -0.1744  1.0399  0.5468
  107TMC2    C4 1664   4.380   0.874  11.559  0.1593  0.1308  0.4666
  107TMC2    C5 1665   4.455   0.956  11.481  0.6095  0.5147  0.3789
  107TMC2    C6 1666   4.525   1.064  11.529  0.2838  0.3117  0.0050
  107TMC2     C 1667   4.342   0.794  11.795  0.1818 -0.1566  0.0307
  107TMC2     O 1668   4.331   0.830  11.909 -0.1037  1.0235  0.5164
  107TMC2     H 1669   4.448   1.018  11.853  1.4301 -1.8564  0.0516
  107TMC2    H1 1670   4.313   0.796  11.522 -1.2151  1.3798  0.3262
  107TMC2    H2 1671   4.570   1.142  11.468 -0.5345  2.1606  1.7510
  107TMC2    C7 1672   4.445   0.950  11.339 -0.9327  0.3830 -0.4493
  107TMC2    C8 1673   4.551   1.215  11.720  1.0763  0.1210 -0.3081
  107TMC2    O1 1674   4.455   1.052  11.270  0.3338 -0.1551  1.0604
  107TMC2    O2 1675   4.513   1.263  11.826 -0.0708 -0.2529  0.3101
  107TMC2    O5 1676   4.671   1.238  11.668 -0.0746 -0.1724  0.4992
  107TMC2    H5 1677   4.699   1.180  11.594 -0.6273  0.4219 -0.1875
  108MPD2     C 1678   4.381   0.432  11.773 -0.4692  0.5621  0.3536
  108MPD2    C1 1679   4.341   0.549  11.827  0.3720 -0.2091  0.1854
  108MPD2    C2 1680   4.272   0.547  11.949 -0.0303  0.4208 -0.1729
  108MPD2    C3 1681   4.267   0.427  12.023  0.0884  0.2141 -0.4458
  108MPD2    C4 1682   4.322   0.311  11.979 -0.3438  0.4871  0.6550
  108MPD2    C5 1683   4.383   0.314  11.849  0.5088  0.4587 -0.1051
  108MPD2     H 1684   4.223   0.633  11.993 -0.4113 -0.7357  1.6393
  108MPD2    H1 1685   4.318   0.216  12.031 -1.0380  1.2105  1.9194
  108MPD2    H2 1686   4.424   0.427  11.674  1.1539 -1.3342  1.1698
  108MPD2    H3 1687   4.413   0.218  11.811  0.6668 -1.0398  3.8235
  108MPD2     N 1688   4.192   0.437  12.143  0.4055 -0.7556  0.0535
  108MPD2    H5 1689   4.144   0.522  12.170  2.2783  0.7416 -1.3824
  108MPD2    N1 1690   4.370   0.669  11.750  0.2845  0.3701  0.5341
  108MPD2    H7 1691   4.409   0.658  11.657  1.2661 -1.8507  1.1924
  109TMC2    C1 1692   0.085   3.320   1.736  0.2816 -0.1456 -0.0587
  109TMC2    C2 1693   0.096   3.335   1.874  0.4239  0.2010 -0.2407
  109TMC2    C3 1694   0.154   3.446   1.920  0.2942  1.0563  0.6263
  109TMC2    C4 1695   0.140   3.419   1.653 -0.2654  0.2945 -0.1879
  109TMC2    C5 1696   0.200   3.528   1.705  0.1880 -0.7898  0.2582
  109TMC2    C6 1697   0.214   3.544   1.842 -0.3674  0.2985  0.1307
  109TMC2     C 1698   0.044   3.193   1.675 -0.5412  0.0356 -0.4863
  109TMC2     O 1699   0.037   3.096   1.753 -0.6808 -0.9235  0.0148
  109TMC2     H 1700   0.057   3.260   1.942  2.8412 -1.5187 -0.7436
  109TMC2    H1 1701   0.133   3.422   1.545  3.0726 -0.3899 -0.4345
  109TMC2    H2 1702   0.266   3.624   1.894 -3.0667  0.2132  2.8934
  109TMC2    C7 1703   0.241   3.640   1.609  0.3216  0.7035  0.3388
  109TMC2    C8 1704   0.220   3.425   2.043  0.0914  0.1851 -0.2094
  109TMC2    O1 1705   0.246   3.628   1.489  0.1645 -0.8089 -0.1085
  109TMC2    O2 1706   0.343   3.421   2.042 -0.2830  0.2847 -0.8390
  109TMC2    O5 1707   0.137   3.406   2.147 -0.1995  0.5697 -0.4118
  109TMC2    H5 1708   0.048   3.444   2.132 -0.3838  1.2140  2.2676
  110MPD2     C 1709   4.544   2.914   1.321  0.1155 -0.0596 -0.1394
  110MPD2    C1 1710   4.590   3.027   1.254 -0.2058  0.2699  0.5749
  110MPD2    C2 1711   4.644   3.133   1.334 -0.3827  0.7952  0.4349
  110MPD2    C3 1712   4.660   3.118   1.471 -0.3365  0.4419  0.3781
  110MPD2    C4 1713   4.628   2.997   1.522 -1.0647 -0.5230 -0.0462
  110MPD2    C5 1714   4.566   2.900   1.455  0.5212 -0.3248  0.6814
  110MPD2     H 1715   4.666   3.231   1.295  0.7984  0.4522  0.2426
  110MPD2    H1 1716   4.635   2.978   1.628  1.7291  0.4608 -0.0777
  110MPD2    H2 1717   4.495   2.838   1.262 -0.9779  0.0502  0.6344
  110MPD2    H3 1718   4.527   2.811   1.503 -0.0904 -0.4770 -0.0913
  110MPD2     N 1719   4.726   3.214   1.552 -0.0068  0.0402  0.5622
  110MPD2    H5 1720   0.001   3.305   1.509  0.2282  0.5178  1.6470
  110MPD2    N1 1721   4.568   3.034   1.113 -0.4553 -0.1998 -0.7832
  110MPD2    H7 1722   4.530   2.951   1.069 -2.0025  0.0480  0.1022
  111TMC2    C1 1723   4.123   2.151  11.848  0.2766  0.5101  0.6649
  111TMC2    C2 1724   3.993   2.128  11.894 -0.7992  0.1106 -0.0266
  111TMC2    C3 1725   3.974   2.079  12.021 -0.5833  0.2117 -0.1133
  111TMC2    C4 1726   4.231   2.134  11.926 -0.5407  0.6245  0.1212
  111TMC2    C5 1727   4.214   2.086  12.047 -0.6397  0.3302  0.1892
  111TMC2    C6 1728   4.087   2.060  12.097 -0.1593  0.9662  0.1933
  111TMC2     C 1729   4.129   2.263  11.760 -0.3690  0.0246 -0.0830
  111TMC2     O 1730   4.033   2.273  11.679 -0.1955  0.0133 -0.1809
  111TMC2     H 1731   3.913   2.148  11.824 -0.6388 -0.1730 -0.2877
  111TMC2    H1 1732   4.331   2.145  11.884 -0.8522  2.1852 -0.2250
  111TMC2    H2 1733   4.072   2.009  12.192  0.2237 -1.2100 -0.9243
  111TMC2    C7 1734   4.321   2.027  12.124 -0.2376  0.3073  0.2017
  111TMC2    C8 1735   3.851   2.103  12.086 -0.3146 -0.5068  0.1333
  111TMC2    O1 1736   4.306   1.999  12.244  0.6563  0.7067 -0.0976
  111TMC2    O2 1737   3.766   2.177  12.042  0.6372  0.4389 -0.1785
  111TMC2    O5 1738   3.820   1.980  12.133  0.4653 -0.2392  0.5549
  111TMC2    H5 1739   3.905   1.930  12.130  0.8579  0.4140  0.7936
  112MPD2     C 1740   4.340   2.654  11.503  0.1125 -0.0139  0.4229
  112MPD2    C1 1741   4.232   2.575  11.466 -0.2947 -0.3581  1.0061
  112MPD2    C2 1742   4.191   2.477  11.556  0.3741  0.1716  0.0493
  112MPD2    C3 1743   4.259   2.451  11.679  0.3750 -0.1022 -0.2177
  112MPD2    C4 1744   4.369   2.527  11.706  0.1632  0.0381  0.1894
  112MPD2    C5 1745   4.418   2.616  11.611 -0.1525  0.4029  0.7430
  112MPD2     H 1746   4.104   2.416  11.533  1.6034 -0.7641 -2.0528
  112MPD2    H1 1747   4.415   2.517  11.804 -0.8402 -1.2657  0.5387
  112MPD2    H2 1748   4.374   2.741  11.447 -2.2016 -0.4837 -1.7115
  112MPD2    H3 1749   4.501   2.681  11.636 -0.3799  0.3797  1.5552
  112MPD2     N 1750   4.232   2.353  11.775  0.0725  0.5652  0.4158
  112MPD2    H5 1751   4.299   2.346  11.850  0.4620 -2.0184 -0.1719
  112MPD2    N1 1752   4.162   2.588  11.341 -0.0907 -0.9049 -0.4264
  112MPD2    H7 1753   4.105   2.508  11.314 -0.8173 -0.9018  1.0660
  113TMC2    C1 1754   2.979   0.022   0.735  0.4070 -0.6204  0.6487
  113TMC2    C2 1755   3.012   0.149   0.693 -0.3914  0.2331  0.3840
  113TMC2    C3 1756   2.932   0.218   0.609 -0.3599 -0.0670 -0.2844
  113TMC2    C4 1757   2.859   4.697   0.703  0.3871  0.2992  0.4298
  113TMC2    C5 1758   2.777   0.032   0.615 -0.6544  0.4618  0.2040
  113TMC2    C6 1759   2.813   0.159   0.570  0.3041 -0.5601 -0.1417
  113TMC2     C 1760   3.065   4.708   0.837  0.7626 -0.3642 -0.1422
  113TMC2     O 1761   3.143   0.047   0.886 -0.2937 -0.3317  0.2364
  113TMC2     H 1762   3.115   0.182   0.707 -0.7316  1.1756  0.6555
  113TMC2    H1 1763   2.842   4.591   0.718 -1.7872  0.2659 -2.3155
  113TMC2    H2 1764   2.751   0.211   0.498  0.5020  0.3589  0.3453
  113TMC2    C7 1765   2.651   4.711   0.566 -0.6940  0.6367  0.0841
  113TMC2    C8 1766   2.954   0.364   0.615  0.4549  0.0971 -0.3827
  113TMC2    O1 1767   2.600   0.023   0.465  0.4168 -0.8528 -0.4747
  113TMC2    O2 1768   3.022   0.420   0.702  0.4514  0.0988  0.7244
  113TMC2    O5 1769   2.861   0.424   0.534 -0.1050  0.9978 -0.1471
  113TMC2    H5 1770   2.842   0.368   0.457  2.4401  0.8838 -0.6827
  114MPD2     C 1771   3.281   4.344   1.130 -0.8543  0.1463  0.1034
  114MPD2    C1 1772   3.285   4.483   1.143 -0.1641  0.2785  0.2575
  114MPD2    C2 1773   3.208   4.558   1.054  0.9062  0.3053 -0.0672
  114MPD2    C3 1774   3.136   4.502   0.954  0.0949 -0.0250 -0.3883
  114MPD2    C4 1775   3.137   4.366   0.942  0.6798 -0.0676  0.3380
  114MPD2    C5 1776   3.201   4.291   1.037  0.4407  0.3711 -0.4473
  114MPD2     H 1777   3.224   4.665   1.048 -0.9709  0.7616  3.0922
  114MPD2    H1 1778   3.086   4.311   0.864  2.1813 -1.0816  0.0786
  114MPD2    H2 1779   3.341   4.276   1.190  0.4047  0.1869 -1.1247
  114MPD2    H3 1780   3.191   4.184   1.024  0.3672  0.2365  0.7249
  114MPD2     N 1781   3.057   4.572   0.858 -0.4849 -0.0948 -0.0529
  114MPD2    H5 1782   3.011   4.512   0.790  1.1113 -0.0086 -1.2138
  114MPD2    N1 1783   3.370   4.549   1.228  0.2847 -0.2695  0.0424
  114MPD2    H7 1784   3.371   4.650   1.221 -0.0306 -0.2915 -0.3465
  115TMC2    C1 1785   3.491   2.601   0.045  0.1767 -0.3390  0.0294
  115TMC2    C2 1786   3.623   2.550   0.038  0.3148 -0.6931 -0.0083
  115TMC2    C3 1787   3.725   2.643   0.032 -0.2180  0.5615  0.1961
  115TMC2    C4 1788   3.468   2.735   0.033 -0.2229 -0.3387  0.3168
  115TMC2    C5 1789   3.578   2.820   0.028  0.2581  0.4945 -0.3601
  115TMC2    C6 1790   3.711   2.773   0.038  0.3369 -1.1881 -0.6373
  115TMC2     C 1791   3.399   2.511  17.728  0.1986  0.9226  0.5128
  115TMC2     O 1792   3.442   2.413  17.669  0.3965  0.2161 -0.6012
  115TMC2     H 1793   3.647   2.446   0.055  0.7366 -0.4330  0.9846
  115TMC2    H1 1794   3.366   2.771   0.021  0.0231 -0.2251 -1.4480
  115TMC2    H2 1795   3.799   2.834   0.055 -0.9624  0.2182  1.0163
  115TMC2    C7 1796   3.553   2.960   0.015 -0.1486 -0.2080 -0.3244
  115TMC2    C8 1797   3.859   2.592   0.054  0.4992 -0.2217  0.3954
  115TMC2    O1 1798   3.442   3.006   0.024 -0.3070 -0.4296  0.0993
  115TMC2    O2 1799   3.956   2.662   0.088  0.2534  0.0384  0.3031
  115TMC2    O5 1800   3.868   2.474  17.746  0.2652 -0.0122  0.1272
  115TMC2    H5 1801   3.802   2.456  17.676  1.9274 -0.9577 -1.1618
  116MPD2     C 1802   2.922   2.363  17.569  0.6884  0.4091  0.6799
  116MPD2    C1 1803   3.049   2.302  17.556 -0.3080  0.0924  0.4902
  116MPD2    C2 1804   3.162   2.367  17.599  0.3625  0.3396 -0.2810
  116MPD2    C3 1805   3.152   2.484  17.672 -0.4921  0.0149  0.1240
  116MPD2    C4 1806   3.031   2.542  17.686  0.3297  0.2788  0.6332
  116MPD2    C5 1807   2.919   2.484  17.633 -0.3581 -0.2599 -0.1424
  116MPD2     H 1808   3.257   2.317  17.581  0.6667  0.1952  1.6611
  116MPD2    H1 1809   3.011   2.640  17.728  0.5502  0.9692 -0.8664
  116MPD2    H2 1810   2.831   2.308  17.551  0.9054  0.0763  0.5920
  116MPD2    H3 1811   2.818   2.518  17.655 -0.2187 -0.6434  1.0575
  116MPD2     N 1812   3.268   2.551  17.728  0.5246 -0.8894 -0.2269
  116MPD2    H5 1813   3.242   2.624   0.040 -1.1744 -2.3716  0.7398
  116MPD2    N1 1814   3.037   2.178  17.477 -0.6446  0.0215 -0.2778
  116MPD2    H7 1815   2.947   2.154  17.435 -1.1609  0.5098  0.5318
  117TMC2    C1 1816   1.986   3.711  13.938  0.4422 -0.1221  0.5444
  117TMC2    C2 1817   2.120   3.684  13.935 -0.1061  0.7523  0.3663
  117TMC2    C3 1818   2.183   3.711  14.058 -0.8880 -0.6665  0.4840
  117TMC2    C4 1819   1.923   3.770  14.046 -0.5409 -0.3347 -0.4603
  117TMC2    C5 1820   2.001   3.818  14.150  0.3821  0.2489  0.2164
  117TMC2    C6 1821   2.130   3.788  14.158  0.7266 -0.6985 -0.3066
  117TMC2     C 1822   1.928   3.749  13.807  0.0127 -0.5689 -0.3000
  117TMC2     O 1823   2.000   3.735  13.706 -0.0790 -1.0944  0.3343
  117TMC2     H 1824   2.159   3.618  13.858  2.0303  1.1707  1.0788
  117TMC2    H1 1825   1.814   3.769  14.050 -0.5320 -0.1295 -0.1658
  117TMC2    H2 1826   2.186   3.818  14.246 -0.7967 -1.0008  0.7579
  117TMC2    C7 1827   1.973   3.960  14.184  0.1640 -0.1985  0.1843
  117TMC2    C8 1828   2.325   3.684  14.063 -0.0146  0.0105 -0.3132
  117TMC2    O1 1829   2.063   4.008  14.252  1.1503 -0.0293  0.5548
  117TMC2    O2 1830   2.383   3.660  14.165  0.0051  0.5554  0.6360
  117TMC2    O5 1831   2.367   3.668  13.938  0.3034  0.3131 -0.2618
  117TMC2    H5 1832   2.323   3.707  13.860 -0.9649 -2.5060 -0.9455
  118MPD2     C 1833   1.707   4.191  14.079 -0.1427 -0.2404 -0.5122
  118MPD2    C1 1834   1.821   4.154  14.144  0.0932  0.4211  0.8354
  118MPD2    C2 1835   1.913   4.260  14.180 -0.5563 -0.1717 -0.1089
  118MPD2    C3 1836   1.883   4.393  14.154 -0.1559  0.8174  0.2512
  118MPD2    C4 1837   1.760   4.424  14.094  0.2725  0.2397  0.1297
  118MPD2    C5 1838   1.677   4.316  14.048 -0.6807  0.4977  0.4408
  118MPD2     H 1839   2.007   4.229  14.224  0.5975  0.7285 -1.9919
  118MPD2    H1 1840   1.740   4.528  14.071 -0.8474  0.0569  0.2676
  118MPD2    H2 1841   1.638   4.118  14.038 -1.2368 -0.4022  1.6016
  118MPD2    H3 1842   1.596   4.330  13.977  0.9511 -0.2143 -1.5513
  118MPD2     N 1843   1.970   4.504  14.167 -0.4619 -0.0575 -0.2376
  118MPD2    H5 1844   1.933   4.596  14.144  1.7082  0.5452 -1.2598
  118MPD2    N1 1845   1.862   4.021  14.135  0.1473  0.2268 -0.8922
  118MPD2    H7 1846   1.794   3.960  14.090 -1.5238  1.9789 -0.7417
  119TMC2    C1 1847   0.300   0.207  13.438  0.6826  0.1755  0.0495
  119TMC2    C2 1848   0.320   0.178  13.303 -0.0967  0.0198 -0.3065
  119TMC2    C3 1849   0.220   0.153  13.220 -0.2054  0.3847 -0.2293
  119TMC2    C4 1850   0.178   0.185  13.498  0.5493 -0.5432  0.0320
  119TMC2    C5 1851   0.081   0.150  13.413 -0.3984  0.1751 -0.4127
  119TMC2    C6 1852   0.098   0.136  13.276 -0.1015 -0.4580  0.3018
  119TMC2     C 1853   0.343   0.341  13.476  0.2858 -0.1647 -0.6637
  119TMC2     O 1854   0.261   0.398  13.552  0.2205  0.0987 -0.3944
  119TMC2     H 1855   0.419   0.158  13.265 -0.2287  1.6530 -1.4880
  119TMC2    H1 1856   0.166   0.200  13.605  0.7681 -1.5136  0.1969
  119TMC2    H2 1857   0.014   0.104  13.214 -0.5774  0.8902  0.2463
  119TMC2    C7 1858   4.682   0.172  13.446 -0.1237 -0.5105 -0.5115
  119TMC2    C8 1859   0.250   0.092  13.095  0.3358 -0.5016 -0.0430
  119TMC2    O1 1860   4.601   0.166  13.356 -0.1535 -0.1803  0.2183
  119TMC2    O2 1861   0.358   0.042  13.068 -0.1095 -0.1636 -0.3192
  119TMC2    O5 1862   0.191   0.169  13.009  0.0187  0.3083  0.1396
  119TMC2    H5 1863   0.128   0.231  13.051 -0.9695 -0.9655  0.5299
  120MPD2     C 1864   0.618   0.782  13.430  0.2696 -0.2955  0.5909
  120MPD2    C1 1865   0.503   0.753  13.502 -0.2677 -0.1888  0.6817
  120MPD2    C2 1866   0.446   0.625  13.482 -0.0963  0.4867  0.7055
  120MPD2    C3 1867   0.503   0.525  13.412  0.1659  0.4507 -0.2946
  120MPD2    C4 1868   0.613   0.553  13.344 -0.0609  0.0343 -0.7995
  120MPD2    C5 1869   0.669   0.688  13.345 -0.1453  0.2785  0.5370
  120MPD2     H 1870   0.351   0.614  13.534  0.1395  0.5517  1.1516
  120MPD2    H1 1871   0.674   0.471  13.306 -2.0246 -1.5568 -0.5258
  120MPD2    H2 1872   0.670   0.877  13.423  0.8788 -0.8045 -1.8969
  120MPD2    H3 1873   0.751   0.716  13.281 -0.7199 -0.1841 -0.3987
  120MPD2     N 1874   0.454   0.389  13.408 -0.0209 -0.5779  0.2558
  120MPD2    H5 1875   0.506   0.327  13.347  1.7549 -0.5414  1.7283
  120MPD2    N1 1876   0.451   0.854  13.582 -0.1595  0.7772  0.0580
  120MPD2    H7 1877   0.481   0.948  13.558 -0.4865  0.3144 -2.0891
  121TMC2    C1 1878   1.677   2.488  14.245  0.5012 -0.3703  0.2138
  121TMC2    C2 1879   1.776   2.557  14.305  0.4004  0.0466 -0.5987
  121TMC2    C3 1880   1.783   2.576  14.436  0.9192 -0.3234 -0.4412
  121TMC2    C4 1881   1.577   2.427  14.321  0.0976  1.1614 -0.4990
  121TMC2    C5 1882   1.575   2.447  14.455  0.7410 -0.4197  1.0603
  121TMC2    C6 1883   1.677   2.523  14.511 -0.7604 -0.6711  0.0421
  121TMC2     C 1884   1.704   2.430  14.116 -0.5524 -0.0323 -0.3028
  121TMC2     O 1885   1.661   2.318  14.094 -0.4777  0.7477  0.7434
  121TMC2     H 1886   1.851   2.602  14.241  0.1168 -1.2926 -1.8692
  121TMC2    H1 1887   1.507   2.357  14.278  0.4768 -0.0912  0.9537
  121TMC2    H2 1888   1.687   2.530  14.619 -1.5820 -2.5157  0.2387
  121TMC2    C7 1889   1.452   2.412  14.528 -0.0955 -0.1177 -0.0641
  121TMC2    C8 1890   1.879   2.655  14.504 -0.3582  0.4302 -0.5323
  121TMC2    O1 1891   1.460   2.400  14.649  0.2197  0.2539 -0.2571
  121TMC2    O2 1892   1.999   2.667  14.474  0.0322 -0.5299  0.4416
  121TMC2    O5 1893   1.825   2.700  14.615 -0.5089 -0.0394 -0.4642
  121TMC2    H5 1894   1.727   2.695  14.612 -0.4334 -1.0834 -1.0926
  122MPD2     C 1895   1.869   2.337  13.879 -0.0940  0.2865 -0.1984
  122MPD2    C1 1896   1.837   2.470  13.911  0.3221 -0.8036  0.0794
  122MPD2    C2 1897   1.888   2.558  13.817 -0.5021  0.7330  0.0879
  122MPD2    C3 1898   1.946   2.515  13.703 -0.3780 -0.0823  0.4920
  122MPD2    C4 1899   1.985   2.387  13.683  0.5152 -0.5147 -0.4966
  122MPD2    C5 1900   1.946   2.294  13.773 -0.5218  0.0716 -0.0385
  122MPD2     H 1901   1.880   2.663  13.845  0.3410  0.2601  2.1279
  122MPD2    H1 1902   2.038   2.347  13.597  0.9440 -0.8129 -0.0928
  122MPD2    H2 1903   1.842   2.261  13.951 -0.5268  1.4995  0.9156
  122MPD2    H3 1904   1.979   2.191  13.762 -2.1797 -0.1309 -3.1093
  122MPD2     N 1905   1.976   2.607  13.592 -0.3533 -0.4220 -0.1425
  122MPD2    H5 1906   2.013   2.558  13.512 -1.2006 -1.1654 -0.0833
  122MPD2    N1 1907   1.775   2.515  14.032 -0.4572 -0.0719  0.4080
  122MPD2    H7 1908   1.784   2.609  14.068  0.6383 -0.4219  1.0603
  123TMC2    C1 1909   0.561   0.754  10.146 -0.1260  0.0812 -0.6580
  123TMC2    C2 1910   0.655   0.835  10.086  0.2022 -0.3552  0.0181
  123TMC2    C3 1911   0.711   0.799   9.968 -0.2383 -0.0671  0.1068
  123TMC2    C4 1912   0.514   0.633  10.088  0.5286  0.3123  0.2146
  123TMC2    C5 1913   0.580   0.595   9.967 -0.3339 -0.3547 -0.2515
  123TMC2    C6 1914   0.658   0.687   9.905 -0.0735  0.1939 -0.1704
  123TMC2     C 1915   0.480   0.823  10.250 -0.2293 -0.4783 -1.0599
  123TMC2     O 1916   0.528   0.919  10.308 -0.1586 -0.3280  0.3557
  123TMC2     H 1917   0.662   0.939  10.115 -0.3976  0.4059 -2.5052
  123TMC2    H1 1918   0.456   0.557  10.140 -0.2415  1.7082  1.3819
  123TMC2    H2 1919   0.718   0.648   9.823  1.2076 -2.5394  2.0672
  123TMC2    C7 1920   0.502   0.503   9.890  0.2251 -0.8597 -0.2315
  123TMC2    C8 1921   0.755   0.906   9.893 -0.1878  0.0736  0.3049
  123TMC2    O1 1922   0.414   0.453   9.956  0.1945 -0.1990  0.1855
  123TMC2    O2 1923   0.738   0.907   9.773 -0.0873  0.0434 -0.1326
  123TMC2    O5 1924   0.877   0.932   9.946  0.1133 -0.3227 -0.0814
  123TMC2    H5 1925   0.902   0.901  10.036 -1.6564  1.3179  0.9974
  124MPD2     C 1926   0.051   0.839  10.536 -0.8143  0.2462 -0.2426
  124MPD2    C1 1927   0.044   0.736  10.444 -0.4373  0.3548  0.1675
  124MPD2    C2 1928   0.152   0.705  10.371 -0.2984 -0.0611 -0.2720
  124MPD2    C3 1929   0.261   0.786  10.375 -0.0787  0.0752 -0.6830
  124MPD2    C4 1930   0.266   0.894  10.454  0.4870 -0.7946 -0.0990
  124MPD2    C5 1931   0.162   0.922  10.538 -0.4830 -0.3147 -0.2806
  124MPD2     H 1932   0.154   0.617  10.308  0.5320  0.4642 -0.9608
  124MPD2    H1 1933   0.342   0.972  10.455  0.3949 -0.6959 -1.1459
  124MPD2    H2 1934   4.703   0.863  10.596 -1.7968 -1.1390 -1.1316
  124MPD2    H3 1935   0.163   1.007  10.605 -0.9842  0.8588 -1.7589
  124MPD2     N 1936   0.361   0.757  10.272 -0.0288 -0.5534  0.3173
  124MPD2    H5 1937   0.334   0.683  10.208  0.3721  1.0036 -1.6558
  124MPD2    N1 1938   4.663   0.664  10.450  0.8886  0.3141  0.7009
  124MPD2    H7 1939   4.597   0.695  10.521 -0.4552 -1.8322  0.3913
  125TMC2    C1 1940   1.284   4.110   9.437 -0.0351  0.0959 -0.0877
  125TMC2    C2 1941   1.239   4.024   9.530 -0.5453 -0.1863  0.1133
  125TMC2    C3 1942   1.234   3.892   9.504  0.1804  0.1090 -0.4745
  125TMC2    C4 1943   1.350   4.069   9.323  0.1794 -0.2245 -0.4101
  125TMC2    C5 1944   1.339   3.929   9.302  0.3525 -0.0314 -0.4143
  125TMC2    C6 1945   1.275   3.839   9.384 -0.6319 -0.5866 -0.0021
  125TMC2     C 1946   1.274   4.257   9.446  0.0251 -0.5782  0.0015
  125TMC2     O 1947   1.306   4.322   9.348 -0.2619 -0.1605 -0.0349
  125TMC2     H 1948   1.201   4.057   9.626 -1.2894  1.7088 -0.8491
  125TMC2    H1 1949   1.402   4.136   9.255  1.6092 -1.7020 -0.7654
  125TMC2    H2 1950   1.235   3.745   9.349  0.4774 -1.7768  1.9503
  125TMC2    C7 1951   1.396   3.887   9.175 -0.2976  0.2512  0.0619
  125TMC2    C8 1952   1.185   3.819   9.617  0.4401 -0.1619  0.0742
  125TMC2    O1 1953   1.436   3.969   9.091 -0.3207 -0.2887  0.3346
  125TMC2    O2 1954   1.114   3.861   9.704  0.0521 -0.2169 -0.1288
  125TMC2    O5 1955   1.206   3.688   9.585  0.1505  0.3088 -0.0650
  125TMC2    H5 1956   1.264   3.680   9.507 -0.2547  0.8090 -0.4180
  126MPD1     C 1957   1.312   4.690   9.723  0.5719  0.0606  0.0220
  126MPD1    C1 1958   1.284   4.588   9.809 -0.5615  0.4251 -0.1692
  126MPD1    C2 1959   1.266   4.458   9.752 -0.0157  0.1163 -0.7825
  126MPD1    C3 1960   1.274   4.433   9.618  0.0894 -0.0792 -0.1462
  126MPD1    C4 1961   1.295   4.541   9.529 -0.1786 -0.6219  0.3266
  126MPD1    C5 1962   1.316   4.664   9.586 -0.4137 -0.2243 -0.0282
  126MPD1     H 1963   1.263   4.370   9.816 -2.0616 -0.4306 -1.6284
  126MPD1    H1 1964   1.298   4.530   9.421  2.3261 -1.3854  0.4695
  126MPD1    H2 1965   1.325   0.049   9.769  0.8363  0.4353 -0.8432
  126MPD1    H3 1966   1.343   0.006   9.519  1.3457 -1.2147 -0.5097
  126MPD1     N 1967   1.257   4.303   9.577 -0.2123  0.6276  0.1310
  126MPD1    H5 1968   1.261   4.234   9.652  1.5160  0.6181  0.0382
  126MPD1    N1 1969   1.303   4.605   9.953  0.7844 -0.0430  0.0223
  126MPD1    H6 1970   1.250   4.537  10.008  0.6221  0.9157  1.0626
  126MPD1    H7 1971   1.286   4.700   9.985  2.0404 -0.0314  0.6423
  127TMC2    C1 1972   2.057   1.354   9.540  0.4804  1.0040  0.2629
  127TMC2    C2 1973   2.064   1.276   9.655 -0.0564  0.7304 -0.4992
  127TMC2    C3 1974   2.010   1.149   9.658  0.2980  0.0396 -0.1008
  127TMC2    C4 1975   1.972   1.312   9.442 -0.9230 -0.5437  0.2093
  127TMC2    C5 1976   1.920   1.179   9.438 -0.4270  0.1517  1.0123
  127TMC2    C6 1977   1.941   1.097   9.548 -0.5307 -0.3527 -0.1071
  127TMC2     C 1978   2.094   1.495   9.548  0.7258 -0.2852 -0.7248
  127TMC2     O 1979   2.191   1.519   9.622  0.5723 -0.6873 -0.3000
  127TMC2     H 1980   2.111   1.316   9.744 -0.4370 -1.2208  0.5657
  127TMC2    H1 1981   1.950   1.376   9.358  0.5500  1.4950  1.4045
  127TMC2    H2 1982   1.884   1.006   9.565  3.2075 -2.7548 -0.5562
  127TMC2    C7 1983   1.840   1.157   9.319 -0.2993  0.4828 -0.6320
  127TMC2    C8 1984   2.028   1.061   9.764 -1.3418  0.1151  0.8062
  127TMC2    O1 1985   1.883   1.217   9.223 -0.2234  0.5054  0.1984
  127TMC2    O2 1986   1.966   0.956   9.776 -0.2973 -0.3841  0.3034
  127TMC2    O5 1987   2.141   1.098   9.828  0.1275 -0.2789  0.6482
  127TMC2    H5 1988   2.178   1.183   9.795 -0.0326 -0.3446  0.3011
  128MPD2     C 1989   1.920   1.755   9.356 -0.2296  0.4719 -0.1554
  128MPD2    C1 1990   2.020   1.708   9.438  0.0853 -0.0260 -0.9383
  128MPD2    C2 1991   2.111   1.787   9.508 -0.2216 -0.4478 -0.4490
  128MPD2    C3 1992   2.106   1.925   9.482  0.0226 -0.9494 -0.2135
  128MPD2    C4 1993   2.016   1.973   9.387  0.6730  0.1912 -0.2271
  128MPD2    C5 1994   1.922   1.887   9.326  0.1307 -0.0908 -0.2081
  128MPD2     H 1995   2.181   1.752   9.584 -0.9115 -0.9494 -0.0394
  128MPD2    H1 1996   2.013   2.079   9.363 -0.7961  0.1951 -0.0151
  128MPD2    H2 1997   1.839   1.695   9.316  0.1706 -0.2948  0.1744
  128MPD2    H3 1998   1.854   1.929   9.253 -0.0307 -0.5291 -0.3090
  128MPD2     N 1999   2.201   2.012   9.544  0.1724 -0.1114  0.2956
  128MPD2    H5 2000   2.266   1.964   9.605  1.9807 -0.4851 -1.8919
  128MPD2    N1 2001   2.008   1.571   9.474  0.2998 -0.2144  0.3154
  128MPD2    H7 2002   1.933   1.525   9.423 -0.2291 -0.1416  1.0247
  129TMC2    C1 2003   0.404   0.964   0.520 -0.3534 -0.3107 -0.2020
  129TMC2    C2 2004   0.385   0.831   0.552 -0.4214 -0.0048 -0.3100
  129TMC2    C3 2005   0.287   0.799   0.639 -0.6209 -0.6838 -0.6157
  129TMC2    C4 2006   0.316   1.063   0.555 -0.3507  0.2789  0.3083
  129TMC2    C5 2007   0.206   1.017   0.621  0.2066 -0.0617 -0.3389
  129TMC2    C6 2008   0.191   0.889   0.674  0.1291  0.3484  0.2680
  129TMC2     C 2009   0.529   0.985   0.448  0.2342 -0.2313 -0.2194
  129TMC2     O 2010   0.570   0.883   0.393 -0.1154  0.4374 -0.1114
  129TMC2     H 2011   0.444   0.752   0.508  0.9470 -0.1879  1.8282
  129TMC2    H1 2012   0.334   1.158   0.506  2.5379 -1.2614 -1.6426
  129TMC2    H2 2013   0.107   0.855   0.732 -0.5273  0.7064 -0.4705
  129TMC2    C7 2014   0.117   1.119   0.676  0.3784  0.5478 -0.4513
  129TMC2    C8 2015   0.301   0.672   0.704 -0.5422  0.1590  0.2185
  129TMC2    O1 2016   0.037   1.080   0.759 -0.1291  0.0655  0.4598
  129TMC2    O2 2017   0.342   0.574   0.646 -0.1246  0.0709 -0.3966
  129TMC2    O5 2018   0.304   0.703   0.830  0.6239 -0.5147 -0.2960
  129TMC2    H5 2019   0.249   0.777   0.863 -0.1002 -0.9494 -0.5330
  130MPD2     C 2020   0.812   1.049   0.389  0.6024 -0.1204 -0.4244
  130MPD2    C1 2021   0.720   1.143   0.438 -0.1140 -0.0866  0.4918
  130MPD2    C2 2022   0.763   1.272   0.461  0.1327  0.1321 -0.2993
  130MPD2    C3 2023   0.894   1.311   0.426 -0.5243 -0.1864  0.2179
  130MPD2    C4 2024   0.978   1.221   0.361  0.6846 -0.4440  0.5636
  130MPD2    C5 2025   0.937   1.088   0.343 -0.0653  0.1878  0.9525
  130MPD2     H 2026   0.706   1.355   0.502 -0.7495  0.6797 -2.5784
  130MPD2    H1 2027   1.078   1.250   0.330 -0.3210  1.7705 -0.5816
  130MPD2    H2 2028   0.786   0.944   0.379  0.3799 -0.2559  1.4718
  130MPD2    H3 2029   1.016   1.024   0.305 -0.4637 -0.1579  0.7031
  130MPD2     N 2030   0.946   1.436   0.463  0.8589  0.1750 -0.8270
  130MPD2    H5 2031   0.891   1.490   0.529  0.5249 -0.9213 -0.2162
  130MPD2    N1 2032   0.591   1.109   0.471 -1.2980  0.1284 -0.4574
  130MPD2    H7 2033   0.549   1.173   0.538  0.5258  0.3343  0.4657
  131TMC2    C1 2034   4.218   1.193   9.955 -0.4462 -0.1824  0.1507
  131TMC2    C2 2035   4.218   1.248  10.083 -0.7188  0.1805  0.1493
  131TMC2    C3 2036   4.286   1.366  10.101  1.2684  0.4386 -0.4007
  131TMC2    C4 2037   4.282   1.254   9.853  0.4644 -0.1205 -0.1148
  131TMC2    C5 2038   4.334   1.379   9.864  0.0405 -0.6731  0.0954
  131TMC2    C6 2039   4.347   1.425   9.990 -0.1210 -0.5982 -0.1116
  131TMC2     C 2040   4.222   1.047   9.963 -0.1168  1.0941 -0.3083
  131TMC2     O 2041   4.319   0.986   9.917 -0.1639 -0.4305  0.4668
  131TMC2     H 2042   4.168   1.194  10.162 -0.4281  1.2031  1.0379
  131TMC2    H1 2043   4.302   1.194   9.765 -0.4393 -0.7070  0.0852
  131TMC2    H2 2044   4.375   1.528  10.006  2.1771 -1.1783 -0.3247
  131TMC2    C7 2045   4.417   1.434   9.765  0.1363 -0.0059 -0.3870
  131TMC2    C8 2046   4.339   1.374  10.239 -0.3482  0.0799  0.3383
  131TMC2    O1 2047   4.411   1.379   9.656  0.6030 -0.2339 -0.5087
  131TMC2    O2 2048   4.274   1.328  10.334  0.0317  0.1618  0.0539
  131TMC2    O5 2049   4.433   1.474  10.245 -0.2463 -0.2033 -0.0362
  131TMC2    H5 2050   4.466   1.496  10.155 -0.9584  1.7157  0.1645
  132MPD2     C 2051   3.936   0.843  10.054  0.8601  0.5827  0.2640
  132MPD2    C1 2052   4.068   0.869  10.040 -0.3712  0.6224 -0.5106
  132MPD2    C2 2053   4.156   0.766  10.071  0.1880 -0.3767  0.0281
  132MPD2    C3 2054   4.113   0.647  10.104  0.1360 -0.3817 -0.7192
  132MPD2    C4 2055   3.980   0.613  10.107  0.2034 -0.5157  0.1585
  132MPD2    C5 2056   3.896   0.721  10.090 -0.5216  0.6143  0.6088
  132MPD2     H 2057   4.263   0.778  10.056  0.2366 -2.0187 -0.8908
  132MPD2    H1 2058   3.940   0.515  10.129  2.5682 -1.0976  1.9650
  132MPD2    H2 2059   3.862   0.915  10.021 -1.3448 -1.1066  1.5167
  132MPD2    H3 2060   3.790   0.701  10.104 -0.3819 -0.2181  0.4838
  132MPD2     N 2061   4.212   0.550  10.134  0.0106  0.3552 -0.1720
  132MPD2    H5 2062   4.309   0.578  10.137  0.1961 -0.2261 -0.6563
  132MPD2    N1 2063   4.102   0.999  10.002 -0.1209  0.0103 -0.1478
  132MPD2    H7 2064   4.026   1.066  10.001  0.4102  0.6109  0.1575
  133TMC2    C1 2065   2.703   0.833  10.430 -0.4317  0.3887 -0.5068
  133TMC2    C2 2066   2.621   0.767  10.356 -0.2756 -0.1518 -0.2578
  133TMC2    C3 2067   2.489   0.766  10.388  0.6137  0.4595  0.4651
  133TMC2    C4 2068   2.663   0.925  10.528 -1.0864 -0.1284  0.6369
  133TMC2    C5 2069   2.532   0.919  10.549 -0.2315  0.1738 -0.6685
  133TMC2    C6 2070   2.435   0.850  10.475  0.1608  0.7481  0.2588
  133TMC2     C 2071   2.848   0.833  10.392 -0.9002 -0.6176 -0.3446
  133TMC2     O 2072   2.915   0.923  10.443  0.1866 -0.8067 -0.3155
  133TMC2     H 2073   2.653   0.737  10.256  1.6476  1.0112  0.0001
  133TMC2    H1 2074   2.726   0.969  10.605 -2.1237  0.9165  0.8872
  133TMC2    H2 2075   2.331   0.855  10.506  0.0425  2.4251 -0.3801
  133TMC2    C7 2076   2.496   1.005  10.669 -0.3402 -0.7775 -0.7263
  133TMC2    C8 2077   2.398   0.703  10.302 -0.0800 -0.3433  0.6725
  133TMC2    O1 2078   2.557   0.996  10.778  0.0100  0.0707  0.0236
  133TMC2    O2 2079   2.280   0.739  10.296 -0.3075 -0.4336  0.3811
  133TMC2    O5 2080   2.455   0.594  10.244  1.1814 -0.0207 -0.3987
  133TMC2    H5 2081   2.551   0.578  10.250  1.1529  0.3577  1.2387
  134MPD2     C 2082   3.080   0.575  10.262  0.1288 -0.4763  0.1816
  134MPD2    C1 2083   3.024   0.701  10.277 -0.5506 -0.2587  0.2600
  134MPD2    C2 2084   3.105   0.812  10.240 -1.0245  0.3647  0.3808
  134MPD2    C3 2085   3.227   0.795  10.179 -0.3213 -0.1969  0.0045
  134MPD2    C4 2086   3.280   0.663  10.180 -0.0058  0.0818 -0.3414
  134MPD2    C5 2087   3.207   0.557  10.231 -0.5735  0.5568 -0.4182
  134MPD2     H 2088   3.060   0.911  10.241  0.3761  1.0024  0.1822
  134MPD2    H1 2089   3.373   0.644  10.128 -1.2774 -2.0152 -1.8478
  134MPD2    H2 2090   3.032   0.480  10.285 -0.2337 -0.5502 -0.9007
  134MPD2    H3 2091   3.244   0.456  10.218 -1.1885  0.2088  0.5231
  134MPD2     N 2092   3.299   0.904  10.142 -0.5807 -0.1737  0.3066
  134MPD2    H5 2093   3.250   0.993  10.152 -1.8387 -0.7397 -0.8983
  134MPD2    N1 2094   2.893   0.713  10.336  0.3310  0.2762 -0.2991
  134MPD2    H7 2095   2.835   0.630  10.341  0.7843  0.0432  1.1673
  135TMC2    C1 2096   1.421   3.556   9.874  0.9692 -0.4756 -0.1426
  135TMC2    C2 2097   1.373   3.564  10.002 -0.1343 -0.2063 -0.3480
  135TMC2    C3 2098   1.262   3.491  10.030 -0.0877  0.1498  1.2222
  135TMC2    C4 2099   1.372   3.461   9.785  0.4422 -0.3775  0.4665
  135TMC2    C5 2100   1.270   3.377   9.821 -0.3934 -0.5296  0.0120
  135TMC2    C6 2101   1.217   3.387   9.950 -0.4912  0.0177  0.0611
  135TMC2     C 2102   1.491   3.664   9.814 -0.4815 -0.3757 -0.1164
  135TMC2     O 2103   1.482   3.771   9.875  0.2958 -0.6553  0.2302
  135TMC2     H 2104   1.406   3.636  10.077 -0.7255 -0.3051  0.0113
  135TMC2    H1 2105   1.404   3.459   9.681 -1.8543 -0.5114 -0.2335
  135TMC2    H2 2106   1.137   3.325   9.990  1.4152 -1.5098  1.5276
  135TMC2    C7 2107   1.235   3.259   9.735 -0.0782  0.0655 -0.2251
  135TMC2    C8 2108   1.240   3.472  10.175 -0.5276  0.0531 -0.0685
  135TMC2    O1 2109   1.246   3.276   9.615 -0.3120  0.3316 -0.0559
  135TMC2    O2 2110   1.322   3.505  10.259  0.0558 -1.2419  0.1618
  135TMC2    O5 2111   1.108   3.470  10.192  0.1218  0.5266 -0.7042
  135TMC2    H5 2112   1.054   3.464  10.111  1.8608 -1.5653 -1.7108
  136MPD2     C 2113   1.551   3.872   9.612  0.0792  0.5687  0.2062
  136MPD2    C1 2114   1.598   3.741   9.605 -0.2507  0.4786  0.3798
  136MPD2    C2 2115   1.695   3.706   9.510  0.0465 -0.8839 -0.0038
  136MPD2    C3 2116   1.732   3.795   9.417  0.5685 -0.6714 -0.2797
  136MPD2    C4 2117   1.681   3.924   9.422  0.4122  0.0665 -1.3419
  136MPD2    C5 2118   1.597   3.960   9.525  0.7629  0.3345 -0.0626
  136MPD2     H 2119   1.746   3.610   9.513 -0.7041 -1.3131 -1.1154
  136MPD2    H1 2120   1.712   4.008   9.362 -0.0875  0.2427 -1.3593
  136MPD2    H2 2121   1.474   3.908   9.679 -1.3123 -2.2546  0.1283
  136MPD2    H3 2122   1.553   4.057   9.547 -0.3442 -0.7310  2.4697
  136MPD2     N 2123   1.830   3.767   9.318  0.5227 -0.6753 -0.5199
  136MPD2    H5 2124   1.850   3.845   9.257 -0.9830  1.2155  1.3913
  136MPD2    N1 2125   1.556   3.639   9.698 -0.1666 -0.4311  0.0853
  136MPD2    H7 2126   1.567   3.543   9.668 -0.2456 -0.4925  0.2529
  137TMC2    C1 2127   1.106   1.993   9.538 -0.5051  0.0654 -0.1734
  137TMC2    C2 2128   1.103   1.896   9.444  0.3842  0.3650  0.8375
  137TMC2    C3 2129   0.990   1.894   9.365 -0.2427 -0.1346 -0.7530
  137TMC2    C4 2130   1.013   2.095   9.557 -0.1302 -0.0281 -0.4777
  137TMC2    C5 2131   0.912   2.096   9.468  0.0419  0.3542 -0.3494
  137TMC2    C6 2132   0.891   1.990   9.380  0.1795 -0.5296  0.3536
  137TMC2     C 2133   1.229   1.996   9.607  0.0926  0.1835  0.2009
  137TMC2     O 2134   1.285   1.885   9.613 -0.9045  0.0606  0.3266
  137TMC2     H 2135   1.178   1.820   9.428 -2.4013 -1.8657 -1.5850
  137TMC2    H1 2136   1.017   2.173   9.632  3.1193 -0.5666 -0.0847
  137TMC2    H2 2137   0.794   1.978   9.335  0.5844  1.4551 -1.0240
  137TMC2    C7 2138   0.802   2.189   9.489  0.7029  0.0912  0.0451
  137TMC2    C8 2139   0.975   1.793   9.266  0.3337 -0.2636 -0.1081
  137TMC2    O1 2140   0.691   2.160   9.450  0.1969 -0.5026 -0.4938
  137TMC2    O2 2141   1.030   1.687   9.292 -0.5846  0.3815  0.1453
  137TMC2    O5 2142   0.882   1.819   9.177 -0.4356 -0.0610 -0.0929
  137TMC2    H5 2143   0.853   1.912   9.167  0.4504  0.3674  1.3250
  138MPD2     C 2144   1.430   2.275   9.713  0.1210  0.8740  0.8213
  138MPD2    C1 2145   1.380   2.149   9.725 -0.1658 -0.4250 -0.5599
  138MPD2    C2 2146   1.447   2.061   9.808  0.0150 -0.3542 -0.0013
  138MPD2    C3 2147   1.555   2.094   9.882  0.5577  0.3452 -0.3383
  138MPD2    C4 2148   1.590   2.225   9.882 -0.0735  0.8524 -0.1553
  138MPD2    C5 2149   1.538   2.314   9.789  0.2798 -0.3085 -0.0540
  138MPD2     H 2150   1.414   1.959   9.823  0.9566 -1.0657 -2.7010
  138MPD2    H1 2151   1.667   2.262   9.950  0.7129 -1.0327 -0.0182
  138MPD2    H2 2152   1.386   2.351   9.648 -0.3656  0.1336  0.2853
  138MPD2    H3 2153   1.582   2.412   9.775 -0.9144  0.4213  1.4563
  138MPD2     N 2154   1.615   1.989   9.966 -0.8004  0.4521 -0.0386
  138MPD2    H5 2155   1.557   1.908   9.985 -0.3340 -0.0589 -0.8029
  138MPD2    N1 2156   1.273   2.121   9.647 -0.0577 -0.0400  0.4163
  138MPD2    H7 2157   1.210   2.194   9.615  1.1015  0.6861 -0.1982
  139TMC2    C1 2158   1.858   0.317  13.468 -0.1272 -0.1886 -0.0878
  139TMC2    C2 2159   1.888   0.431  13.400  0.1146  0.4026  0.7648
  139TMC2    C3 2160   1.794   0.515  13.358  0.3552  0.4227 -0.1562
  139TMC2    C4 2161   1.728   0.295  13.502  0.0808  0.2952  0.2601
  139TMC2    C5 2162   1.635   0.381  13.456 -0.6439  0.6721  0.2503
  139TMC2    C6 2163   1.662   0.494  13.383  0.2201  0.5163  0.3612
  139TMC2     C 2164   1.961   0.217  13.502  0.9004 -0.1830  0.1934
  139TMC2     O 2165   2.070   0.229  13.446  0.0403 -0.3741  0.2001
  139TMC2     H 2166   1.989   0.443  13.363 -0.1696 -2.7218 -0.9942
  139TMC2    H1 2167   1.697   0.205  13.553  1.3513  0.4898  1.3712
  139TMC2    H2 2168   1.595   0.572  13.348 -1.8548 -1.9245 -1.1028
  139TMC2    C7 2169   1.501   0.385  13.515  0.5926  0.0701 -0.0054
  139TMC2    C8 2170   1.821   0.625  13.269 -0.2006  0.3248 -0.6600
  139TMC2    O1 2171   1.426   0.470  13.471 -1.0787 -0.0712 -0.1830
  139TMC2    O2 2172   1.753   0.644  13.164  0.2247 -0.0526  0.0821
  139TMC2    O5 2173   1.951   0.652  13.282  0.8746  0.3376 -0.0841
  139TMC2    H5 2174   1.984   0.645  13.374 -2.3732  0.9175  1.1159
  140MPD2     C 2175   1.980   4.688  13.749 -0.0271  0.6026 -0.2263
  140MPD2    C1 2176   2.011   0.022  13.637 -0.1512 -0.9072 -0.4025
  140MPD2    C2 2177   2.104   4.708  13.551 -0.1192 -0.0011  0.3835
  140MPD2    C3 2178   2.165   4.585  13.579  0.1251  0.9274  0.3277
  140MPD2    C4 2179   2.140   4.524  13.701  0.1332 -0.1930  0.4239
  140MPD2    C5 2180   2.045   4.574  13.786 -0.1735 -0.0790 -0.4061
  140MPD2     H 2181   2.134   0.016  13.458  0.3756 -0.6398  0.2255
  140MPD2    H1 2182   2.191   4.434  13.734  0.8355 -0.2182 -0.7264
  140MPD2    H2 2183   1.895   4.720  13.809 -0.5014 -1.5053  0.2554
  140MPD2    H3 2184   2.020   4.510  13.869  0.5449 -0.4361 -0.4632
  140MPD2     N 2185   2.268   4.538  13.486  0.3278  0.3576  0.1515
  140MPD2    H5 2186   2.297   4.599  13.410  1.8682  1.8236  1.9442
  140MPD2    N1 2187   1.933   0.135  13.609  0.2141  0.0588  0.2809
  140MPD2    H7 2188   1.861   0.165  13.674  1.9910  1.1231  1.7356
  141TMC2    C1 2189   2.095   1.514  14.110  0.3134  0.5079 -0.4771
  141TMC2    C2 2190   2.021   1.571  14.212 -0.1125 -0.9503 -0.6559
  141TMC2    C3 2191   2.057   1.537  14.339 -0.0258 -0.3352 -0.1376
  141TMC2    C4 2192   2.199   1.426  14.132 -0.2352  0.0598 -0.0724
  141TMC2    C5 2193   2.238   1.416  14.267 -0.2141  0.4060 -0.0557
  141TMC2    C6 2194   2.166   1.464  14.373  0.1545 -0.6126 -0.4540
  141TMC2     C 2195   2.066   1.564  13.975  0.0662  0.2609 -0.1025
  141TMC2     O 2196   2.010   1.672  13.967  0.2702  0.4298 -0.1942
  141TMC2     H 2197   1.952   1.653  14.196 -0.2372 -0.8858  0.1864
  141TMC2    H1 2198   2.257   1.387  14.050 -2.7811 -0.2074 -1.7428
  141TMC2    H2 2199   2.198   1.442  14.474  0.0634  0.3819 -0.2050
  141TMC2    C7 2200   2.383   1.408  14.267 -0.2067  0.2050 -0.2108
  141TMC2    C8 2201   1.956   1.566  14.443 -0.2376 -0.3270 -0.1568
  141TMC2    O1 2202   2.446   1.364  14.172 -0.1968  0.1339  0.2848
  141TMC2    O2 2203   1.987   1.587  14.560 -0.0601  0.3367  0.1328
  141TMC2    O5 2204   1.833   1.543  14.393 -0.5494 -0.1740  1.0574
  141TMC2    H5 2205   1.833   1.496  14.307 -0.2100 -2.0402  2.0892
  142TMC2    C1 2206   4.504   0.089   9.790  0.5544 -0.3272 -0.5550
  142TMC2    C2 2207   4.445   0.060   9.674 -0.1919 -0.3121 -0.0293
  142TMC2    C3 2208   4.515   0.081   9.563  0.9619 -0.2334 -0.3833
  142TMC2    C4 2209   4.639   0.121   9.796 -0.2511 -0.7502 -0.1335
  142TMC2    C5 2210   4.695   0.150   9.676  0.5250 -0.3578  1.0164
  142TMC2    C6 2211   4.642   0.127   9.558  0.5251  0.2272 -0.6586
  142TMC2     C 2212   4.449   0.015   9.907  0.1936  0.2638  0.4975
  142TMC2     O 2213   4.353   4.678   9.888  0.3516  0.4402 -0.2958
  142TMC2     H 2214   4.345   0.020   9.664 -0.7962  1.0837  0.4288
  142TMC2    H1 2215   4.707   0.136   9.879 -0.1433  0.4902 -0.4386
  142TMC2    H2 2216   4.676   0.167   9.463  3.6862 -0.4159  0.1851
  142TMC2    C7 2217   0.073   0.232   9.686  0.0909  0.0497 -0.1754
  142TMC2    C8 2218   4.440   0.095   9.437 -0.4814 -0.1115  0.2336
  142TMC2    O1 2219   0.072   0.316   9.775  0.4038  0.0843  0.2650
  142TMC2    O2 2220   4.383   4.736   9.387 -0.0527  0.1229  0.2834
  142TMC2    O5 2221   4.403   0.225   9.423 -0.2995 -0.4818  0.2768
  142TMC2    H5 2222   4.435   0.286   9.494 -0.5865 -0.1646  0.1364
  143MPD2     C 2223   4.436   4.660  10.397 -0.6536  0.3703  0.4384
  143MPD2    C1 2224   4.374   4.589  10.297  0.1475  0.4184 -0.4627
  143MPD2    C2 2225   4.387   4.639  10.168 -0.4253  0.1003  0.4409
  143MPD2    C3 2226   4.461   0.016  10.151  0.6203  0.1414  0.0939
  143MPD2    C4 2227   4.528   0.077  10.256 -0.7862 -0.2576  0.7326
  143MPD2    C5 2228   4.503   0.031  10.379 -0.0292 -0.2901  0.2754
  143MPD2     H 2229   4.344   4.581  10.087  0.1126  0.4246 -0.0731
  143MPD2    H1 2230   4.602   0.156  10.245  0.8062 -2.1683 -2.5555
  143MPD2    H2 2231   4.424   4.622  10.498 -0.0193  0.1221  0.4228
  143MPD2    H3 2232   4.540   0.089  10.463  1.5373  0.3562 -0.8664
  143MPD2     N 2233   4.483   0.069  10.027 -0.0797 -0.4420  0.3321
  143MPD2    H5 2234   4.543   0.151  10.022  0.8859 -1.2605 -1.6708
  143MPD2    N1 2235   4.298   4.472  10.325  0.5403  0.3514 -0.8326
  143MPD2    H7 2236   4.302   4.432  10.418 -1.2079  1.8196 -0.1297
  144TMC2    C1 2237   2.982   3.560   0.726 -0.3453  0.2932  0.6442
  144TMC2    C2 2238   3.025   3.458   0.648  0.1419  0.2667  0.7127
  144TMC2    C3 2239   3.147   3.407   0.679  1.1820 -0.1839  0.3143
  144TMC2    C4 2240   3.046   3.612   0.831  0.3303  0.4162 -0.3484
  144TMC2    C5 2241   3.162   3.553   0.863  0.0578 -0.0521  0.3333
  144TMC2    C6 2242   3.219   3.449   0.787 -0.2571  0.7052 -0.5201
  144TMC2     C 2243   2.848   3.619   0.694  0.5166 -0.4560 -0.4969
  144TMC2     O 2244   2.778   3.552   0.619 -0.0460 -0.0625  0.3221
  144TMC2     H 2245   2.975   3.422   0.558 -0.5233  0.6314  0.9300
  144TMC2    H1 2246   2.995   3.681   0.898  1.1657 -1.1658  1.9077
  144TMC2    H2 2247   3.325   3.430   0.793 -0.1505  0.7691 -2.2076
  144TMC2    C7 2248   3.248   3.603   0.970  0.9002  0.1748 -0.5058
  144TMC2    C8 2249   3.196   3.288   0.623 -0.3998  0.5012  0.4842
  144TMC2    O1 2250   3.346   3.546   1.007  0.2168  0.3398 -0.1246
  144TMC2    O2 2251   3.313   3.260   0.599  0.6579 -0.0559 -0.4997
  144TMC2    O5 2252   3.096   3.228   0.557 -0.2436 -0.1352 -0.0520
  144TMC2    H5 2253   3.009   3.245   0.599 -0.1276  0.3675 -0.0122
  145MPD2     C 2254   2.508   4.017   0.696  0.7663 -0.6688 -0.0673
  145MPD2    C1 2255   2.510   3.897   0.637 -0.1252 -0.5765  0.4735
  145MPD2    C2 2256   2.609   3.799   0.644 -0.1999  0.7633  0.0052
  145MPD2    C3 2257   2.717   3.833   0.719 -0.2440 -0.2923  0.0271
  145MPD2    C4 2258   2.710   3.952   0.783  0.0768  0.5392  0.3148
  145MPD2    C5 2259   2.615   4.044   0.773  0.4509 -0.1207 -0.8394
  145MPD2     H 2260   2.605   3.706   0.587  1.9597 -0.6661  2.1705
  145MPD2    H1 2261   2.798   3.981   0.840  1.2847 -2.4094 -0.0741
  145MPD2    H2 2262   2.424   4.085   0.702 -1.5335 -3.5695  0.7988
  145MPD2    H3 2263   2.624   4.139   0.824 -1.6739  0.6527 -1.8991
  145MPD2     N 2264   2.832   3.752   0.747 -0.2122 -0.4605 -0.0152
  145MPD2    H5 2265   2.906   3.799   0.797 -3.5462  1.0389  3.5575
  145MPD2    N1 2266   2.404   3.861   0.555  0.1123  0.1287 -0.2435
  145MPD2    H7 2267   2.417   3.774   0.504  1.4921  0.4406 -0.4416
  146TMC2    C1 2268   4.103   2.512  12.541  0.4491 -0.2842  0.5944
  146TMC2    C2 2269   4.022   2.478  12.438 -0.3424  0.1146  0.6395
  146TMC2    C3 2270   4.072   2.419  12.330 -0.3894 -0.8228  0.1423
  146TMC2    C4 2271   4.241   2.487  12.539  0.3925  0.3180  0.1493
  146TMC2    C5 2272   4.280   2.417  12.434 -0.5468 -0.1769  0.4554
  146TMC2    C6 2273   4.202   2.375  12.328  0.0522 -0.3199 -0.3409
  146TMC2     C 2274   4.052   2.607  12.632  0.1312 -0.0112  0.1323
  146TMC2     O 2275   3.964   2.682  12.594 -0.3510 -0.2247 -0.1013
  146TMC2     H 2276   3.914   2.490  12.447 -0.3789  0.8812 -0.8889
  146TMC2    H1 2277   4.309   2.562  12.578 -2.8690  1.4335  3.6639
  146TMC2    H2 2278   4.244   2.319  12.245  0.2374  0.9322 -1.0947
  146TMC2    C7 2279   4.417   2.394  12.426 -1.5661  0.2263 -0.0988
  146TMC2    C8 2280   4.002   2.417  12.204  0.2227 -0.7845  0.2671
  146TMC2    O1 2281   4.469   2.389  12.317 -0.1363  0.7722  0.7321
  146TMC2    O2 2282   3.882   2.428  12.189 -0.1726  0.4724  0.1937
  146TMC2    O5 2283   4.090   2.384  12.103  0.4456 -0.3076 -0.0415
  146TMC2    H5 2284   4.186   2.403  12.112  0.6351 -0.9237 -0.7471
  147MPD2     C 2285   0.082   2.214  12.673 -0.5470 -0.1537  1.1793
  147MPD2    C1 2286   4.718   2.214  12.762 -0.7514 -0.3703 -0.3522
  147MPD2    C2 2287   4.597   2.247  12.712  0.4266 -0.4554 -0.3500
  147MPD2    C3 2288   4.581   2.288  12.579  0.9450 -0.2627  1.2220
  147MPD2    C4 2289   4.690   2.300  12.496 -0.1830 -0.3862  0.3016
  147MPD2    C5 2290   0.070   2.253  12.540  0.5890 -0.1468  0.3067
  147MPD2     H 2291   4.511   2.253  12.778  0.6572 -3.8732  0.2398
  147MPD2    H1 2292   4.691   2.324  12.390  1.1009 -1.2529  0.1306
  147MPD2    H2 2293   0.180   2.194  12.715  0.3663  1.4310 -0.1985
  147MPD2    H3 2294   0.164   2.255  12.485 -0.0250 -1.8928 -0.8081
  147MPD2     N 2295   4.455   2.334  12.543 -0.3534  0.4232  0.6549
  147MPD2    H5 2296   4.384   2.321  12.614  1.2392 -0.2501  2.1131
  147MPD2    N1 2297   0.008   2.197  12.900 -0.0132 -0.2011  0.5882
  147MPD2    H7 2298   0.107   2.184  12.922 -0.0183  1.4825  1.5896
  148TMC2    C1 2299   4.462   1.491  10.669  0.3713  0.6297  0.6934
  148TMC2    C2 2300   4.405   1.378  10.716 -0.2091  0.1185 -0.1451
  148TMC2    C3 2301   4.482   1.261  10.714 -0.0546  0.1082  0.3110
  148TMC2    C4 2302   4.566   1.486  10.583 -0.2487  0.3138 -0.2548
  148TMC2    C5 2303   4.618   1.361  10.554 -0.0373 -0.1473  1.0322
  148TMC2    C6 2304   4.594   1.253  10.635  0.1911 -0.7786  0.2822
  148TMC2     C 2305   4.389   1.619  10.650  0.1945  1.4060  0.3989
  148TMC2     O 2306   4.457   1.715  10.621  0.1691  0.0682 -0.3485
  148TMC2     H 2307   4.312   1.391  10.770 -0.0637 -3.4215  1.0110
  148TMC2    H1 2308   4.602   1.566  10.519 -0.6531  0.6082 -0.1177
  148TMC2    H2 2309   4.640   1.156  10.624  1.1114  0.0311 -3.1502
  148TMC2    C7 2310   4.732   1.368  10.470 -0.2559  0.7900 -0.2006
  148TMC2    C8 2311   4.424   1.136  10.762 -0.1202  1.4834  0.0178
  148TMC2    O1 2312   0.076   1.450  10.509  0.2325  0.2687  0.6001
  148TMC2    O2 2313   4.439   1.029  10.703 -0.5789  0.1264 -0.6900
  148TMC2    O5 2314   4.307   1.168  10.832 -0.7710 -0.5254 -0.0138
  148TMC2    H5 2315   4.309   1.254  10.878 -3.5836 -0.7476  0.5313
  149MPD2     C 2316   4.193   1.842  10.652 -0.3935 -0.0922  0.1691
  149MPD2    C1 2317   4.157   1.709  10.648  0.5229 -0.1134  0.2790
  149MPD2    C2 2318   4.024   1.681  10.626  0.1369  0.1861  0.0957
  149MPD2    C3 2319   3.929   1.784  10.602 -0.3674 -1.1961 -0.2852
  149MPD2    C4 2320   3.970   1.912  10.607 -0.5642 -0.6552 -0.3749
  149MPD2    C5 2321   4.100   1.943  10.640 -0.0043  0.6282 -0.7688
  149MPD2     H 2322   3.988   1.579  10.627  0.4120  0.1117  2.1577
  149MPD2    H1 2323   3.898   1.990  10.586  0.4984  0.4591  0.1688
  149MPD2    H2 2324   4.298   1.870  10.656 -0.4934  0.3803 -0.5508
  149MPD2    H3 2325   4.130   2.046  10.652 -2.2118  0.7885  3.4494
  149MPD2     N 2326   3.793   1.771  10.590 -0.1424  0.6207  0.1880
  149MPD2    H5 2327   3.735   1.852  10.577 -1.2840 -0.2259  0.0256
  149MPD2    N1 2328   4.249   1.602  10.651 -0.0217  0.5929 -0.0530
  149MPD2    H7 2329   4.214   1.506  10.657  1.5310  0.0875  1.0088
  150TMC2    C1 2330   1.446   1.208  12.233  0.5409 -0.3110 -0.5999
  150TMC2    C2 2331   1.429   1.331  12.184  0.6004  0.0122  0.1651
  150TMC2    C3 2332   1.490   1.439  12.247 -0.5158 -0.1722  0.0719
  150TMC2    C4 2333   1.527   1.191  12.341 -0.3623 -0.4244 -0.4901
  150TMC2    C5 2334   1.600   1.293  12.386 -0.2401  0.0433 -0.4139
  150TMC2    C6 2335   1.591   1.417  12.344  0.0914  0.4711  0.2443
  150TMC2     C 2336   1.350   1.098  12.205 -0.2461  0.7254  0.0526
  150TMC2     O 2337   1.387   0.997  12.265  0.5674  0.0707  0.3093
  150TMC2     H 2338   1.352   1.362  12.113  1.2871 -0.7109 -0.9001
  150TMC2    H1 2339   1.511   1.103  12.402 -2.3112  0.4501  0.2654
  150TMC2    H2 2340   1.643   1.491  12.405  0.7527 -0.4078  0.7413
  150TMC2    C7 2341   1.705   1.265  12.479 -0.3577 -0.2716  0.3056
  150TMC2    C8 2342   1.485   1.573  12.180 -0.0705  0.6535 -0.4991
  150TMC2    O1 2343   1.754   1.356  12.540 -0.5473 -0.0268 -0.7175
  150TMC2    O2 2344   1.510   1.678  12.234  0.4520  0.4027  0.6244
  150TMC2    O5 2345   1.470   1.551  12.050 -0.2929 -0.0450 -0.6131
  150TMC2    H5 2346   1.434   1.465  12.019 -1.0616  0.3000 -0.6834
  151MPD2     C 2347   1.011   0.846  11.915  0.0608  0.1767 -0.4430
  151MPD2    C1 2348   1.016   0.973  11.863  0.7095  0.6331  0.2205
  151MPD2    C2 2349   1.098   1.068  11.931  0.2217  0.5775  0.8629
  151MPD2    C3 2350   1.170   1.034  12.042  0.2481  0.4185 -0.3895
  151MPD2    C4 2351   1.178   0.901  12.080  0.9428  0.6442 -0.2677
  151MPD2    C5 2352   1.086   0.812  12.021  0.4219  0.5566  0.5495
  151MPD2     H 2353   1.109   1.170  11.895  0.3348  1.1679  2.5897
  151MPD2    H1 2354   1.240   0.863  12.161  1.4264  2.4882  0.2224
  151MPD2    H2 2355   0.955   0.764  11.870  0.8109 -0.4133 -0.3049
  151MPD2    H3 2356   1.088   0.713  12.066  0.4802  0.6386  0.7277
  151MPD2     N 2357   1.255   1.129  12.103  0.1469 -0.0688 -0.1268
  151MPD2    H5 2358   1.242   1.228  12.084 -0.0942 -0.0035  0.4039
  151MPD2    N1 2359   0.937   1.006  11.755  0.0124  0.1933 -0.5794
  151MPD2    H7 2360   0.861   0.939  11.746  0.9040 -0.9762  0.6408
  152TMC2    C1 2361   0.995   0.865  12.624  0.0649 -0.8450 -0.0222
  152TMC2    C2 2362   1.054   0.773  12.540  0.5274 -0.1650  1.0954
  152TMC2    C3 2363   1.183   0.794  12.505  0.7491 -0.5341 -1.0145
  152TMC2    C4 2364   1.057   0.986  12.646  0.4777 -0.0229 -0.4929
  152TMC2    C5 2365   1.182   1.005  12.605 -0.0518 -0.9094  0.1323
  152TMC2    C6 2366   1.250   0.904  12.544 -0.2157  0.5482 -0.5573
  152TMC2     C 2367   0.877   0.826  12.699  0.4081 -0.4732  0.0284
  152TMC2     O 2368   0.808   0.909  12.758  0.1859  0.5162 -0.5977
  152TMC2     H 2369   0.996   0.685  12.512  1.5471 -0.4428 -0.1260
  152TMC2    H1 2370   0.997   1.058  12.701 -1.1310  0.3403 -2.7186
  152TMC2    H2 2371   1.352   0.919  12.508  0.0447 -0.5102 -0.2538
  152TMC2    C7 2372   1.249   1.116  12.663 -1.0244 -0.0098  0.4448
  152TMC2    C8 2373   1.247   0.717  12.401  0.2358 -0.6302  0.4371
  152TMC2    O1 2374   1.183   1.219  12.685  0.2588 -0.0317 -0.3332
  152TMC2    O2 2375   1.369   0.697  12.388  0.5271  0.5623  0.0283
  152TMC2    O5 2376   1.152   0.682  12.308  0.4459  0.4489 -0.4191
  152TMC2    H5 2377   1.061   0.718  12.307  0.3872  0.4231  2.8191
  153MPD2     C 2378   0.892   0.519  12.889 -0.3710  0.2692  0.2895
  153MPD2    C1 2379   0.823   0.622  12.832  0.1879 -0.3407  0.2612
  153MPD2    C2 2380   0.693   0.653  12.865 -0.2172  0.1382 -0.8949
  153MPD2    C3 2381   0.627   0.566  12.950 -1.0125  0.3182  0.0746
  153MPD2    C4 2382   0.700   0.463  13.009  1.1020 -0.3329 -0.2699
  153MPD2    C5 2383   0.830   0.441  12.976  0.3315  0.0461  0.3321
  153MPD2     H 2384   0.634   0.728  12.813 -1.3537 -1.0939 -1.3961
  153MPD2    H1 2385   0.661   0.393  13.082 -1.3077  0.5671 -0.7172
  153MPD2    H2 2386   0.998   0.509  12.867 -1.4254 -1.1363 -4.0504
  153MPD2    H3 2387   0.896   0.368  13.023  0.9760  0.7641  0.5613
  153MPD2     N 2388   0.480   0.568  12.958  0.0768 -0.3417 -0.1496
  153MPD2    H5 2389   0.428   0.650  12.929  1.1957 -0.1241 -1.5571
  153MPD2    N1 2390   0.904   0.703  12.750 -0.3432 -0.3757  0.2943
  153MPD2    H7 2391   0.989   0.650  12.732  0.3743  1.3441 -1.4024
  154TMC2    C1 2392   3.682   4.433   0.429  0.7518 -0.1465  0.3518
  154TMC2    C2 2393   3.720   4.405   0.556 -0.8595  0.2633  0.0897
  154TMC2    C3 2394   3.807   4.300   0.573  0.5116 -0.3002  0.0371
  154TMC2    C4 2395   3.734   4.357   0.323  0.1388 -0.3370  0.2157
  154TMC2    C5 2396   3.811   4.245   0.351 -0.1671 -0.1847  0.2125
  154TMC2    C6 2397   3.847   4.217   0.476 -0.7751 -0.2109  0.5999
  154TMC2     C 2398   3.575   4.527   0.411  0.0479 -0.3224  0.2780
  154TMC2     O 2399   3.573   4.618   0.496  0.1488 -0.3139 -1.1132
  154TMC2     H 2400   3.684   4.474   0.631  0.3097  0.3902  0.5328
  154TMC2    H1 2401   3.708   4.376   0.219  0.1728 -0.3309  0.2082
  154TMC2    H2 2402   3.926   4.147   0.502 -0.3862 -0.0119 -0.0219
  154TMC2    C7 2403   3.881   4.187   0.236  0.3682 -0.2388  0.1715
  154TMC2    C8 2404   3.862   4.274   0.705 -0.2991 -1.0060  0.2515
  154TMC2    O1 2405   3.909   4.258   0.138  0.1767  0.6251 -0.2440
  154TMC2    O2 2406   3.863   4.155   0.739  0.3814 -0.2077  0.0404
  154TMC2    O5 2407   3.842   4.380   0.781  0.2956  0.3929 -0.0448
  154TMC2    H5 2408   3.849   4.466   0.734 -1.1002  1.4143  1.6137
  155MPD2     C 2409   3.372   4.633   0.125  0.1868  0.3366 -0.0387
  155MPD2    C1 2410   3.435   4.632   0.251  0.0722  0.9356 -0.2208
  155MPD2    C2 2411   3.407   0.005   0.328 -0.1864  0.0032 -0.5850
  155MPD2    C3 2412   3.323   0.105   0.283  0.1846  0.1554 -0.1589
  155MPD2    C4 2413   3.263   0.109   0.157  0.2165 -0.4554 -0.6095
  155MPD2    C5 2414   3.291   4.736   0.080 -0.2836  0.1692  0.5336
  155MPD2     H 2415   3.432   0.013   0.433 -1.4181 -2.3780 -0.1033
  155MPD2    H1 2416   3.193   0.183   0.121  1.4393 -0.0096 -2.1137
  155MPD2    H2 2417   3.387   4.552   0.055  2.6950  0.6498  0.1631
  155MPD2    H3 2418   3.252   4.726  17.733 -0.4741 -0.7828  0.6980
  155MPD2     N 2419   3.311   0.215   0.370 -0.6382 -0.2924 -0.1747
  155MPD2    H5 2420   3.367   0.197   0.453 -1.7256  1.1152  0.8721
  155MPD2    N1 2421   3.518   4.528   0.284  0.0077  0.5259 -0.4454
  155MPD2    H7 2422   3.525   4.447   0.224 -0.2097 -0.3742  0.7506
  156TMC2    C1 2423   0.670   3.366  11.335 -0.2120  0.6483 -0.0223
  156TMC2    C2 2424   0.702   3.282  11.241 -0.1511 -0.4208  0.7139
  156TMC2    C3 2425   0.692   3.310  11.111 -0.1856  0.3600  0.3891
  156TMC2    C4 2426   0.615   3.487  11.298  0.2279 -0.2501  0.7321
  156TMC2    C5 2427   0.615   3.522  11.166 -0.3980  0.3578  0.7030
  156TMC2    C6 2428   0.657   3.436  11.071 -0.0656  0.9565 -0.0914
  156TMC2     C 2429   0.711   3.350  11.475 -0.2732  0.3424 -0.1821
  156TMC2     O 2430   0.733   3.448  11.545 -0.1627 -0.1253  0.2936
  156TMC2     H 2431   0.751   3.190  11.271 -0.7902 -0.1999  2.4109
  156TMC2    H1 2432   0.600   3.561  11.376  3.0615  0.5133  0.5300
  156TMC2    H2 2433   0.669   3.474  10.971  0.2618  0.4785 -0.2290
  156TMC2    C7 2434   0.669   3.654  11.145  0.1381 -0.0575  0.4408
  156TMC2    C8 2435   0.701   3.208  11.010 -0.0168 -0.4583  0.6300
  156TMC2    O1 2436   0.789   3.656  11.121  0.0377 -0.0805 -0.0908
  156TMC2    O2 2437   0.678   3.091  11.032  0.0120  0.3608  0.1272
  156TMC2    O5 2438   0.800   3.245  10.918  0.5910  0.6659 -0.2537
  156TMC2    H5 2439   0.822   3.340  10.917  2.4827  0.2376  0.5977
  157MPD2     C 2440   0.773   3.050  11.678 -0.6859  0.9493 -0.4047
  157MPD2    C1 2441   0.770   3.183  11.647 -1.4141 -0.2749  0.6501
  157MPD2    C2 2442   0.860   3.266  11.721  0.0773 -0.0420  0.0827
  157MPD2    C3 2443   0.942   3.219  11.813 -0.6359  0.2615  0.0983
  157MPD2    C4 2444   0.924   3.089  11.851  0.2399 -0.4310 -0.4613
  157MPD2    C5 2445   0.847   3.002  11.781 -0.0745 -0.2792 -0.1754
  157MPD2     H 2446   0.865   3.373  11.711 -1.6401  0.1914  1.7566
  157MPD2    H1 2447   0.993   3.041  11.920  1.0033 -0.4925 -1.2743
  157MPD2    H2 2448   0.699   2.987  11.630  0.4144  0.9041 -2.0395
  157MPD2    H3 2449   0.834   2.899  11.810 -0.9332  0.2929  1.4432
  157MPD2     N 2450   1.041   3.309  11.872  0.0993  0.0603 -0.3085
  157MPD2    H5 2451   1.025   3.408  11.856  0.8531  0.1511 -0.4954
  157MPD2    N1 2452   0.707   3.218  11.524  0.1941  0.7597 -0.5325
  157MPD2    H7 2453   0.665   3.142  11.471 -3.9239  0.7675  2.6683
  158TMC2    C1 2454   1.420   1.457  13.343  0.8819  0.7029  0.4669
  158TMC2    C2 2455   1.432   1.504  13.216  0.0233  0.1564  0.1269
  158TMC2    C3 2456   1.317   1.548  13.157  0.0209 -0.0955 -0.6508
  158TMC2    C4 2457   1.297   1.443  13.406  0.2060  0.1271  0.7461
  158TMC2    C5 2458   1.184   1.491  13.344 -0.1832 -0.7565 -0.0097
  158TMC2    C6 2459   1.197   1.550  13.219 -1.1821  0.2361 -0.3188
  158TMC2     C 2460   1.539   1.434  13.424 -0.2861 -0.2362 -0.1701
  158TMC2     O 2461   1.624   1.520  13.402 -0.3857  0.5039  0.1284
  158TMC2     H 2462   1.529   1.503  13.169 -0.1249  1.4440 -0.1965
  158TMC2    H1 2463   1.284   1.415  13.510 -0.0244  0.4345  0.7998
  158TMC2    H2 2464   1.116   1.604  13.172 -0.9408 -0.9000 -2.0598
  158TMC2    C7 2465   1.055   1.449  13.376  0.4738  0.8349  0.0632
  158TMC2    C8 2466   1.319   1.622  13.031 -0.7611  0.1634  0.5054
  158TMC2    O1 2467   0.964   1.512  13.323 -0.5621  0.4026  0.7210
  158TMC2    O2 2468   1.420   1.676  12.990  0.2274  0.4948  0.1428
  158TMC2    O5 2469   1.236   1.560  12.950  0.0524 -0.7482 -0.3044
  158TMC2    H5 2470   1.177   1.496  12.996 -0.5105  0.2260  0.3422
  159MPD2     C 2471   1.765   1.222  13.838  0.0711  0.0967 -0.2012
  159MPD2    C1 2472   1.658   1.143  13.806 -0.0931  0.1610 -0.3189
  159MPD2    C2 2473   1.580   1.186  13.693  0.6539  0.1275  0.2883
  159MPD2    C3 2474   1.615   1.302  13.623  0.9717 -0.3326  0.7223
  159MPD2    C4 2475   1.722   1.379  13.668 -0.2871 -0.2755  0.0304
  159MPD2    C5 2476   1.801   1.335  13.777 -0.7292 -0.0713 -0.2202
  159MPD2     H 2477   1.503   1.122  13.652  1.0996  0.5862 -1.2961
  159MPD2    H1 2478   1.746   1.471  13.617  1.9982 -1.3899 -0.8980
  159MPD2    H2 2479   1.841   1.186  13.907  0.6517  0.4851 -0.6431
  159MPD2    H3 2480   1.886   1.401  13.790 -1.1310  0.8805 -2.5012
  159MPD2     N 2481   1.528   1.336  13.516 -0.1943 -0.3570  0.7152
  159MPD2    H5 2482   1.444   1.278  13.512  0.7060 -1.6882  1.1380
  159MPD2    N1 2483   1.627   1.034  13.888 -0.1619  0.0909 -0.1847
  159MPD2    H7 2484   1.689   1.024  13.968 -1.0305  0.5916  0.5569
  160TMC2    C1 2485   1.062   4.516   0.763  0.5601  0.2283 -0.6280
  160TMC2    C2 2486   0.958   4.571   0.840  0.0586 -0.4529 -0.4883
  160TMC2    C3 2487   0.978   4.587   0.974  0.1780  0.5761 -0.2698
  160TMC2    C4 2488   1.175   4.472   0.829  0.2180 -0.6379  0.0668
  160TMC2    C5 2489   1.194   4.493   0.960  0.6593 -0.5945 -0.5806
  160TMC2    C6 2490   1.089   4.540   1.036  0.2746 -0.2425  0.0384
  160TMC2     C 2491   1.040   4.462   0.632 -0.5989  0.6352 -0.6485
  160TMC2     O 2492   1.089   4.355   0.600  0.1660 -0.5408 -0.0282
  160TMC2     H 2493   0.854   4.561   0.810  0.1766 -3.5896  0.1069
  160TMC2    H1 2494   1.251   4.420   0.773  0.3773  2.3423 -2.5277
  160TMC2    H2 2495   1.096   4.562   1.141 -1.4955 -1.1935  0.3566
  160TMC2    C7 2496   1.314   4.452   1.027  0.9697 -0.7779  0.3392
  160TMC2    C8 2497   0.905   4.690   1.034  0.2514  0.2937 -0.0804
  160TMC2    O1 2498   1.299   4.432   1.147 -0.5145  0.0307  0.1675
  160TMC2    O2 2499   0.907   4.717   1.151 -0.5183  0.4012 -0.0740
  160TMC2    O5 2500   0.833   0.018   0.939  0.0535  0.2909 -0.2845
  160TMC2    H5 2501   0.840   4.727   0.846  1.9281 -0.8045  0.2132
  161MPD2     C 2502   0.880   4.373   0.406  0.1316 -0.0490  0.3792
  161MPD2    C1 2503   0.888   4.498   0.437 -0.1920 -0.0548  0.1615
  161MPD2    C2 2504   0.822   4.597   0.368  0.2667 -0.1242  0.0352
  161MPD2    C3 2505   0.747   4.569   0.264  0.0069 -1.0370  0.2804
  161MPD2    C4 2506   0.739   4.440   0.219  0.4704 -0.2589  0.6380
  161MPD2    C5 2507   0.809   4.344   0.291 -0.1362 -0.1975 -0.4053
  161MPD2     H 2508   0.822   4.698   0.406 -2.5419 -0.3327  0.6056
  161MPD2    H1 2509   0.674   4.404   0.141 -0.8589 -2.1498  2.6163
  161MPD2    H2 2510   0.923   4.292   0.464  0.3386 -1.6494 -2.0463
  161MPD2    H3 2511   0.806   4.237   0.272 -0.9939 -0.2267 -0.1261
  161MPD2     N 2512   0.668   4.660   0.194 -0.1528  0.3642 -0.1148
  161MPD2    H5 2513   0.596   4.625   0.132  1.0289 -1.5346 -0.4180
  161MPD2    N1 2514   0.950   4.546   0.560  0.3460 -0.3625 -0.5027
  161MPD2    H7 2515   0.934   4.643   0.586  2.6792 -0.1660  0.2129
  162TMC2    C1 2516   3.744   2.388   1.029 -0.5316  0.4177  0.0470
  162TMC2    C2 2517   3.719   2.511   1.085 -0.4603 -0.2482  0.2911
  162TMC2    C3 2518   3.631   2.510   1.185  0.0027  0.1291 -0.5371
  162TMC2    C4 2519   3.671   2.277   1.058 -1.0058 -0.4513 -0.6514
  162TMC2    C5 2520   3.589   2.282   1.165 -0.7088  0.2615 -0.2339
  162TMC2    C6 2521   3.570   2.397   1.234  0.3818  0.0629  0.4457
  162TMC2     C 2522   3.843   2.369   0.926 -0.1964  0.1193  0.2748
  162TMC2     O 2523   3.820   2.291   0.836  0.3907 -0.3946 -0.4279
  162TMC2     H 2524   3.774   2.597   1.050 -2.1586 -0.3222 -2.6151
  162TMC2    H1 2525   3.674   2.195   0.987 -0.9752 -2.5513  1.7476
  162TMC2    H2 2526   3.492   2.401   1.309 -1.0430  1.0870 -1.0909
  162TMC2    C7 2527   3.549   2.154   1.230  0.5118 -0.0536  0.2729
  162TMC2    C8 2528   3.573   2.632   1.227  0.0709 -0.2193  0.3976
  162TMC2    O1 2529   3.464   2.158   1.318 -0.0059 -0.3734 -0.2388
  162TMC2    O2 2530   3.524   2.649   1.338  0.2323  0.2883  0.9233
  162TMC2    O5 2531   3.591   2.726   1.131 -0.4619  0.6287 -0.0435
  162TMC2    H5 2532   3.591   2.686   1.042  1.2871 -2.2714  1.2709
  163MPD2     C 2533   4.331   2.351   0.777  0.2729  0.1591  1.2323
  163MPD2    C1 2534   4.232   2.268   0.753  0.1365 -0.0180  1.1097
  163MPD2    C2 2535   4.105   2.297   0.803 -0.1394  0.7176  1.0790
  163MPD2    C3 2536   4.087   2.404   0.888  0.1689  0.2477 -0.1239
  163MPD2    C4 2537   4.197   2.484   0.921  0.0767  0.1378 -0.1521
  163MPD2    C5 2538   4.318   2.450   0.868  0.4570  0.6871 -0.1752
  163MPD2     H 2539   4.023   2.231   0.777  1.4100 -0.1953 -1.5552
  163MPD2    H1 2540   4.198   2.557   1.001  1.6756 -0.1592  0.1044
  163MPD2    H2 2541   4.426   2.322   0.733  0.8728  3.4563  0.3216
  163MPD2    H3 2542   4.407   2.507   0.889  0.6568  0.3559 -0.1249
  163MPD2     N 2543   3.963   2.429   0.961  0.5442  0.0968 -0.4421
  163MPD2    H5 2544   3.966   2.503   1.030  0.3508  2.1000 -2.5754
  163MPD2    N1 2545   4.255   2.159   0.669  0.0303  0.4172  0.4898
  163MPD2    H7 2546   4.333   2.162   0.604  0.0649 -0.3573  0.4928
  164TMC2    C1 2547   0.065   1.450  10.943 -0.8323 -0.6924  0.0878
  164TMC2    C2 2548   0.176   1.490  10.881 -0.1058 -0.0051 -0.4502
  164TMC2    C3 2549   0.180   1.621  10.838  0.2458 -0.1467  0.3771
  164TMC2    C4 2550   4.699   1.539  10.975  0.0482  0.1546  0.3050
  164TMC2    C5 2551   4.704   1.669  10.924  0.3063 -0.1639 -0.2297
  164TMC2    C6 2552   0.080   1.708  10.848  0.3036 -0.7963 -0.4262
  164TMC2     C 2553   0.033   1.308  10.962 -0.2132 -0.6376  0.2375
  164TMC2     O 2554   4.657   1.278  10.997 -0.5728  0.5872 -0.0418
  164TMC2     H 2555   0.263   1.428  10.859  0.6489  1.6325 -2.0932
  164TMC2    H1 2556   4.602   1.500  11.006 -0.1131 -0.7035 -1.2648
  164TMC2    H2 2557   0.097   1.808  10.812  1.1438 -1.6805 -2.4762
  164TMC2    C7 2558   4.584   1.753  10.928  0.0269 -0.2122  0.3015
  164TMC2    C8 2559   0.297   1.680  10.776 -0.4974 -0.7179  0.3746
  164TMC2    O1 2560   4.479   1.703  10.973  0.3974 -0.2362  0.5598
  164TMC2    O2 2561   0.372   1.600  10.723 -0.5713  0.5819  0.7432
  164TMC2    O5 2562   0.341   1.770  10.869  0.2801 -0.3735 -0.3328
  164TMC2    H5 2563   0.285   1.794  10.945  1.8062 -0.0122  0.6934
  165TMC2    C1 2564   1.378   3.283   1.182  0.2298  0.0666  0.0950
  165TMC2    C2 2565   1.426   3.189   1.271  0.5279  0.0660  0.1630
  165TMC2    C3 2566   1.539   3.217   1.344 -0.2594  0.0780  0.3824
  165TMC2    C4 2567   1.433   3.405   1.168 -0.0687  0.3257  0.0415
  165TMC2    C5 2568   1.544   3.429   1.235  0.2527 -0.7276 -0.7226
  165TMC2    C6 2569   1.603   3.331   1.315  0.2874 -0.3302 -0.1936
  165TMC2     C 2570   1.265   3.235   1.095 -0.5311 -0.6636 -0.5367
  165TMC2     O 2571   1.268   3.114   1.070  0.3535  0.2074 -0.1403
  165TMC2     H 2572   1.376   3.094   1.285  0.5695  0.1848  1.0711
  165TMC2    H1 2573   1.392   3.466   1.088 -0.1607 -1.1464 -1.0303
  165TMC2    H2 2574   1.683   3.362   1.382  0.5320  1.9729 -1.5304
  165TMC2    C7 2575   1.620   3.552   1.213  0.0392 -0.2555  0.0900
  165TMC2    C8 2576   1.625   3.119   1.417 -0.0307 -0.4859 -0.1531
  165TMC2    O1 2577   1.744   3.549   1.223  0.1663  0.2513  0.1501
  165TMC2    O2 2578   1.743   3.135   1.425  0.6902  0.0944 -0.0392
  165TMC2    O5 2579   1.540   3.061   1.497  0.4357  0.2160  0.4966
  165TMC2    H5 2580   1.456   3.111   1.484  1.0698  1.5500  1.5594
  166MPD2     C 2581   0.829   3.328   0.841  0.2888 -0.8558 -0.4099
  166MPD2    C1 2582   0.903   3.212   0.848 -0.1415 -0.2176  0.4915
  166MPD2    C2 2583   1.024   3.213   0.917  0.4652 -0.4107 -0.4511
  166MPD2    C3 2584   1.072   3.331   0.964 -0.7039 -0.0807  0.4664
  166MPD2    C4 2585   0.998   3.446   0.953 -0.7224  1.0697  0.0520
  166MPD2    C5 2586   0.877   3.448   0.895 -0.2475 -0.2844 -0.5710
  166MPD2     H 2587   1.079   3.120   0.920 -1.9033 -1.7899  0.2998
  166MPD2    H1 2588   1.031   3.538   1.000 -1.7719  2.0448 -1.0829
  166MPD2    H2 2589   0.732   3.336   0.792 -0.1429 -1.0625  0.4081
  166MPD2    H3 2590   0.820   3.540   0.897 -0.1930 -0.2294 -1.6426
  166MPD2     N 2591   1.190   3.338   1.049  0.4276 -0.3646 -0.7162
  166MPD2    H5 2592   1.206   3.430   1.089 -0.5965 -2.1808  3.8791
  166MPD2    N1 2593   0.831   3.096   0.806  0.0856  0.2403  0.3636
  166MPD2    H7 2594   0.739   3.104   0.765  0.9444  0.7383 -1.4763
  167TMC2    C1 2595   3.961   1.111  13.229  0.0775  1.0783  0.1346
  167TMC2    C2 2596   3.867   1.108  13.321 -0.0122 -0.2237 -0.5005
  167TMC2    C3 2597   3.809   0.987  13.358  0.0338 -0.1458  0.0598
  167TMC2    C4 2598   4.000   0.997  13.168 -0.6382  0.1465 -0.1410
  167TMC2    C5 2599   3.945   0.878  13.214 -0.1456  0.4032 -0.4876
  167TMC2    C6 2600   3.856   0.867  13.318 -0.8104 -0.0048  0.3469
  167TMC2     C 2601   4.015   1.239  13.187  0.2415 -0.2460  0.3757
  167TMC2     O 2602   4.013   1.334  13.266 -0.1065  0.1456 -0.5918
  167TMC2     H 2603   3.830   1.200  13.365  1.7628  0.4521 -0.4157
  167TMC2    H1 2604   4.087   0.998  13.104 -0.8270 -2.2000 -0.4278
  167TMC2    H2 2605   3.812   0.771  13.339  0.6189 -0.6942  0.2013
  167TMC2    C7 2606   3.997   0.760  13.158  0.2435  0.2009  0.3438
  167TMC2    C8 2607   3.743   0.971  13.480 -0.1997  0.0418  0.0663
  167TMC2    O1 2608   3.992   0.659  13.224  0.4663  0.1199 -0.0326
  167TMC2    O2 2609   3.739   0.866  13.546 -0.0490  0.2068  0.1595
  167TMC2    O5 2610   3.663   1.072  13.486 -0.1994 -0.7486  0.4612
  167TMC2    H5 2611   3.659   1.130  13.407  0.6308 -1.1251  0.1315
  168MPD2     C 2612   4.158   1.454  13.037 -0.8755 -0.0834 -0.2273
  168MPD2    C1 2613   4.094   1.350  12.975  0.5729 -0.4565 -0.7843
  168MPD2    C2 2614   4.082   1.346  12.833  0.3954 -0.2371 -0.2716
  168MPD2    C3 2615   4.131   1.451  12.751  0.3527 -0.4902  0.0488
  168MPD2    C4 2616   4.185   1.565  12.817  1.0232 -0.0923  0.5560
  168MPD2    C5 2617   4.191   1.563  12.959 -0.5292 -0.4211  0.0474
  168MPD2     H 2618   4.042   1.256  12.787 -0.9507  0.7232 -0.9371
  168MPD2    H1 2619   4.233   1.646  12.764 -1.4837  1.2362  0.3205
  168MPD2    H2 2620   4.184   1.468  13.142  1.9929 -2.6122 -0.5992
  168MPD2    H3 2621   4.238   1.649  13.005  0.0119 -0.9369  0.4553
  168MPD2     N 2622   4.120   1.462  12.617 -1.1264  0.2483  0.1314
  168MPD2    H5 2623   4.145   1.549  12.572  0.3403 -0.8759 -1.2189
  168MPD2    N1 2624   4.046   1.236  13.055 -0.0884  0.1486 -0.5495
  168MPD2    H7 2625   4.017   1.150  13.009  2.0250 -1.4221  0.9994
  169MPD1     C 2626   2.398   1.074   9.502  0.2883  0.2094 -0.0070
  169MPD1    C1 2627   2.371   0.959   9.575 -0.1771  0.2009 -0.2150
  169MPD1    C2 2628   2.261   0.885   9.532  0.0771 -0.6461  0.0185
  169MPD1    C3 2629   2.188   0.914   9.425 -0.4291  0.2827 -0.1257
  169MPD1    C4 2630   2.219   1.021   9.354  0.2522  0.1947 -0.1648
  169MPD1    C5 2631   2.319   1.104   9.394  0.1492  0.1650  0.4947
  169MPD1     H 2632   2.235   0.798   9.591  1.7862 -1.5968 -0.6294
  169MPD1    H1 2633   2.167   1.045   9.262  3.8372  3.5383 -1.3036
  169MPD1    H2 2634   2.476   1.143   9.530 -1.3313  1.3942  1.5701
  169MPD1    H3 2635   2.355   1.193   9.342  0.2791 -0.0726  0.1761
  169MPD1     N 2636   2.086   0.827   9.389 -0.2479  0.1878  0.2359
  169MPD1    H5 2637   2.056   0.758   9.458 -1.0599 -0.5332 -0.8380
  169MPD1    N1 2638   2.450   0.907   9.678  0.4276 -0.2150  0.2268
  169MPD1    H6 2639   2.395   0.877   9.758 -0.7558 -1.2222 -0.9716
  169MPD1    H7 2640   2.514   0.980   9.707  0.1573  0.4835 -0.9479
  170MPD1     C 2641   0.279   3.285  12.610 -0.1668 -0.5465 -0.3083
  170MPD1    C1 2642   0.282   3.179  12.704 -0.4458  0.6160  0.0045
  170MPD1    C2 2643   0.300   3.219  12.839  0.9766  0.1895  0.5094
  170MPD1    C3 2644   0.298   3.350  12.880  0.5637  0.1263  0.2989
  170MPD1    C4 2645   0.278   3.445  12.787  0.0256 -0.1503 -0.1318
  170MPD1    C5 2646   0.278   3.417  12.648  0.4105  0.4789  1.1320
  170MPD1     H 2647   0.317   3.143  12.915  0.3954 -0.6272 -0.1726
  170MPD1    H1 2648   0.286   3.551  12.810  1.1175 -0.0328 -1.0226
  170MPD1    H2 2649   0.285   3.268  12.503  1.3387 -0.8274 -0.1888
  170MPD1    H3 2650   0.277   3.493  12.571 -1.6160 -3.0538 -2.3451
  170MPD1     N 2651   0.302   3.373  13.020  0.2592  0.6978 -0.2587
  170MPD1    H5 2652   0.312   3.285  13.071  0.7795  0.5938 -0.5442
  170MPD1    N1 2653   0.293   3.048  12.671 -0.0356 -0.3290  0.9117
  170MPD1    H6 2654   0.249   3.032  12.580  2.1437  0.3022 -0.2515
  170MPD1    H7 2655   0.249   2.983  12.736 -0.0909 -1.3945 -0.1791
  171MPD1     C 2656   3.138   3.794  15.449  0.2296 -0.2216 -0.3567
  171MPD1    C1 2657   3.260   3.763  15.386  0.2310  0.0542 -0.1934
  171MPD1    C2 2658   3.373   3.750  15.460 -0.1363  0.2136  0.3998
  171MPD1    C3 2659   3.379   3.779  15.593  0.6127 -1.1493  0.7978
  171MPD1    C4 2660   3.264   3.821  15.652  0.5119  0.4466 -0.0151
  171MPD1    C5 2661   3.152   3.839  15.576 -0.1822 -0.0480 -0.0379
  171MPD1     H 2662   3.460   3.734  15.397  0.6142  3.9579  0.4738
  171MPD1    H1 2663   3.266   3.840  15.759 -3.2473  1.8182 -0.2044
  171MPD1    H2 2664   3.044   3.813  15.398 -0.1443  2.4373  1.3454
  171MPD1    H3 2665   3.062   3.882  15.620 -0.3619  0.4453 -0.8844
  171MPD1     N 2666   3.494   3.764  15.674 -0.0836 -0.4590  0.7367
  171MPD1    H5 2667   3.487   3.766  15.776  1.2802 -0.2761  0.8283
  171MPD1    N1 2668   3.265   3.750  15.244  0.4125 -0.2144  0.1344
  171MPD1    H6 2669   3.170   3.724  15.217  0.2349  1.4370 -0.7916
  171MPD1    H7 2670   3.324   3.677  15.205  0.3660 -0.5352  0.6544
  172MPD1     C 2671   2.848   3.455   0.100 -0.7359  0.4570 -0.0975
  172MPD1    C1 2672   2.762   3.554   0.103  0.4117  0.1410  0.4344
  172MPD1    C2 2673   2.783   3.651   0.202 -0.2971 -0.6901 -0.1225
  172MPD1    C3 2674   2.901   3.648   0.278  0.3055 -0.1392 -0.1813
  172MPD1    C4 2675   3.006   3.556   0.246  0.3530  0.4942  0.5770
  172MPD1    C5 2676   2.975   3.464   0.150 -0.0066  0.0718  0.3840
  172MPD1     H 2677   2.709   3.727   0.223 -0.3991 -0.7700 -0.1934
  172MPD1    H1 2678   3.107   3.555   0.285  0.4149 -0.0685  0.4031
  172MPD1    H2 2679   2.836   3.359   0.051  0.0958 -0.6368  1.8601
  172MPD1    H3 2680   3.042   3.389   0.109 -0.0051  0.1086  0.3198
  172MPD1     N 2681   2.937   3.746   0.375 -0.2804  0.1035  0.7518
  172MPD1    H5 2682   3.031   3.736   0.411  0.4726  1.8610 -0.6995
  172MPD1    N1 2683   2.632   3.530   0.044 -0.0698 -1.0175 -0.0038
  172MPD1    H6 2684   2.640   3.475  17.713  0.7485  0.8782 -1.1623
  172MPD1    H7 2685   2.578   3.615   0.031  0.3991 -0.5414  1.0901
  173MPD1     C 2686   3.722   2.955  13.629 -0.7546  0.5636 -0.0245
  173MPD1    C1 2687   3.848   2.919  13.641 -0.3191  0.0721  0.2649
  173MPD1    C2 2688   3.911   2.952  13.762 -0.1737  0.4898  0.4010
  173MPD1    C3 2689   3.842   3.023  13.856 -0.3678 -0.8257 -0.0330
  173MPD1    C4 2690   3.713   3.052  13.838  1.0512 -0.3356  0.4149
  173MPD1    C5 2691   3.651   3.018  13.726 -0.3754  0.1921  1.5469
  173MPD1     H 2692   4.017   2.932  13.771 -0.1450  0.8470  0.8445
  173MPD1    H1 2693   3.650   3.113  13.901 -2.3669 -0.1496 -3.2159
  173MPD1    H2 2694   3.669   2.922  13.540  0.1324 -4.3014  1.2739
  173MPD1    H3 2695   3.548   3.049  13.710 -0.2520 -0.1908  0.0018
  173MPD1     N 2696   3.919   3.070  13.963  0.5867  0.1258 -0.1317
  173MPD1    H5 2697   4.017   3.044  13.949  0.7305  2.2533 -3.0594
  173MPD1    N1 2698   3.911   2.834  13.541 -0.9014  0.2841 -0.8192
  173MPD1    H6 2699   3.867   2.844  13.450  0.1708 -2.1564 -1.5972
  173MPD1    H7 2700   4.006   2.866  13.523 -0.1250 -0.7589  1.4467
  174MPD1     C 2701   4.411   3.739  13.807  0.5291 -0.4686  1.1019
  174MPD1    C1 2702   4.480   3.685  13.914 -0.4654 -0.8632 -0.5481
  174MPD1    C2 2703   4.429   3.578  13.986 -0.3641  1.0586 -0.6555
  174MPD1    C3 2704   4.301   3.532  13.958 -0.3436 -0.3710 -0.0536
  174MPD1    C4 2705   4.225   3.601  13.862 -0.1658  0.1287 -0.8109
  174MPD1    C5 2706   4.284   3.701  13.787  0.3433  0.1732  0.0890
  174MPD1     H 2707   4.494   3.529  14.058 -0.5912  0.8158 -0.6190
  174MPD1    H1 2708   4.119   3.584  13.849 -0.1277 -1.5023  1.0570
  174MPD1    H2 2709   4.462   3.816  13.749 -2.3282  0.3154 -0.3558
  174MPD1    H3 2710   4.223   3.761  13.721 -0.9553 -0.3064  0.8550
  174MPD1     N 2711   4.239   3.430  14.032  0.4751  0.0367  0.9087
  174MPD1    H5 2712   4.144   3.421  13.999 -0.1385  1.2033  2.3481
  174MPD1    N1 2713   4.617   3.719  13.929  0.2735 -0.0783  0.2273
  174MPD1    H6 2714   4.651   3.728  14.025 -1.3631  1.8349  0.6273
  174MPD1    H7 2715   4.635   3.811  13.891  0.7852 -1.2459 -2.3237
  175MPD1     C 2716   2.023   0.331  15.558  0.2159 -0.4616  0.3825
  175MPD1    C1 2717   2.079   0.199  15.550 -0.2854  0.1887  0.0934
  175MPD1    C2 2718   2.063   0.119  15.663 -0.2446 -0.0482  0.1681
  175MPD1    C3 2719   1.990   0.168  15.773  0.2160 -0.5362  0.3514
  175MPD1    C4 2720   1.919   0.295  15.772  0.0717 -0.0249  0.0781
  175MPD1    C5 2721   1.945   0.374  15.662 -0.9743 -0.5400 -0.8593
  175MPD1     H 2722   2.108   0.020  15.666 -2.3702 -1.0771 -1.7858
  175MPD1    H1 2723   1.863   0.329  15.858  1.4821 -1.2822  1.5030
  175MPD1    H2 2724   2.043   0.399  15.475 -1.5576  0.9638  1.1268
  175MPD1    H3 2725   1.898   0.472  15.656 -0.4162 -0.2520 -0.5085
  175MPD1     N 2726   1.976   0.095  15.895 -0.2969 -0.3704 -0.2108
  175MPD1    H5 2727   1.922   0.138  15.969 -0.4911 -0.3775 -0.3487
  175MPD1    N1 2728   2.183   0.169  15.455 -0.2867 -0.6044 -0.2454
  175MPD1    H6 2729   2.195   0.068  15.460 -1.4563 -0.7339 -0.0364
  175MPD1    H7 2730   2.163   0.201  15.361 -0.3035 -0.5806 -0.2338
  176MPD1     C 2731   4.228   1.467  17.707  0.8554  0.7968 -0.0316
  176MPD1    C1 2732   4.291   1.493  17.583 -0.3689  0.6639 -0.4905
  176MPD1    C2 2733   4.274   1.614  17.527  0.3414  0.2524  0.1196
  176MPD1    C3 2734   4.222   1.722  17.604 -0.6234  0.1218  0.4400
  176MPD1    C4 2735   4.171   1.697  17.726 -0.4230  0.2715 -0.3705
  176MPD1    C5 2736   4.178   1.574   0.027  0.0231 -0.6482  0.1833
  176MPD1     H 2737   4.317   1.624  17.428  0.9547  1.1132  0.4774
  176MPD1    H1 2738   4.155   1.776   0.046  1.0402  1.7023 -1.5875
  176MPD1    H2 2739   4.236   1.372   0.005 -0.2092  1.0019  0.4915
  176MPD1    H3 2740   4.141   1.567   0.129  1.0434 -1.4533  0.5076
  176MPD1     N 2741   4.244   1.854  17.561  0.1908 -0.2801  0.2241
  176MPD1    H5 2742   4.305   1.869  17.481  1.5483  0.1065  1.3135
  176MPD1    N1 2743   4.329   1.395  17.496  0.1339 -0.4631 -0.2481
  176MPD1    H6 2744   4.377   1.318  17.542 -2.5957 -1.4871  0.9280
  176MPD1    H7 2745   4.393   1.414  17.419 -2.4427 -0.4575 -2.3990
  177MPD1     C 2746   2.639   1.756  10.247 -0.3226 -0.0357 -0.0263
  177MPD1    C1 2747   2.626   1.723  10.112  0.4802  0.0520 -0.0907
  177MPD1    C2 2748   2.558   1.806  10.022  0.3731  0.1344  0.6857
  177MPD1    C3 2749   2.505   1.928  10.064  0.2904  0.9693 -0.3072
  177MPD1    C4 2750   2.523   1.962  10.203  0.3499  0.3483 -1.0413
  177MPD1    C5 2751   2.593   1.879  10.290 -0.3860 -0.5582 -1.2537
  177MPD1     H 2752   2.544   1.768   9.921 -0.8137  1.7272  0.2595
  177MPD1    H1 2753   2.484   2.056  10.242 -1.7270 -0.1755 -1.8499
  177MPD1    H2 2754   2.685   1.700  10.328  1.8192  2.6677  0.6307
  177MPD1    H3 2755   2.611   1.917  10.390  0.2420  1.0210 -1.9623
  177MPD1     N 2756   2.450   2.015   9.964  0.0072 -0.0624  0.5072
  177MPD1    H5 2757   2.418   1.971   9.878  1.0920 -0.7849  0.4780
  177MPD1    N1 2758   2.660   1.595  10.061  0.3904 -0.1275  0.3790
  177MPD1    H6 2759   2.698   1.605   9.966  1.3014 -1.6891  0.5714
  177MPD1    H7 2760   2.722   1.540  10.120  1.3852  0.3369 -0.2240
  178MPD1     C 2761   0.802   3.186   0.341 -0.0424 -0.5231  0.2581
  178MPD1    C1 2762   0.922   3.126   0.301  0.5603 -0.7353  0.0845
  178MPD1    C2 2763   0.912   3.026   0.209 -0.3763  0.3098 -0.3300
  178MPD1    C3 2764   0.786   2.986   0.151 -0.4369 -0.0441 -0.1777
  178MPD1    C4 2765   0.674   3.060   0.186  0.1885  0.1619  0.2310
  178MPD1    C5 2766   0.684   3.161   0.279 -0.6582  0.3018 -0.0379
  178MPD1     H 2767   1.002   2.972   0.180  0.0993  0.5034  0.7939
  178MPD1    H1 2768   0.574   3.040   0.149  0.4833 -1.4631  0.3087
  178MPD1    H2 2769   0.803   3.264   0.416  0.1500 -1.3867  1.1736
  178MPD1    H3 2770   0.599   3.222   0.307 -1.2624 -0.1626 -0.8942
  178MPD1     N 2771   0.772   2.886   0.056  0.0602 -0.3801  0.2788
  178MPD1    H5 2772   0.682   2.871   0.012 -0.2309  0.4187  0.5951
  178MPD1    N1 2773   1.043   3.140   0.382 -0.8317 -0.1692  0.2157
  178MPD1    H6 2774   1.129   3.130   0.329  0.0587 -0.8425  1.7728
  178MPD1    H7 2775   1.048   3.223   0.441  1.4107 -0.2825  0.1877
  179MPD1     C 2776   4.062   1.041  15.769 -0.2467 -0.4506  0.6017
  179MPD1    C1 2777   4.019   0.944  15.686 -0.0956 -0.1070 -0.2938
  179MPD1    C2 2778   4.078   0.818  15.695  0.2219 -0.1859  0.1466
  179MPD1    C3 2779   4.153   0.788  15.808 -0.1936  0.5150  0.2017
  179MPD1    C4 2780   4.202   0.885  15.895 -0.5831  0.7188 -0.0167
  179MPD1    C5 2781   4.149   1.011  15.873  0.8767 -0.1808  0.2747
  179MPD1     H 2782   4.054   0.745  15.618 -1.4501 -0.2467  0.7196
  179MPD1    H1 2783   4.270   0.860  15.975 -2.0790  0.1426  1.0865
  179MPD1    H2 2784   4.039   1.146  15.750 -0.4689 -0.5126  0.5340
  179MPD1    H3 2785   4.187   1.096  15.930  1.6501  0.2463 -0.8576
  179MPD1     N 2786   4.204   0.657  15.848 -0.2969  0.0697  0.3712
  179MPD1    H5 2787   4.248   0.654  15.940  1.7285 -0.8235 -0.6382
  179MPD1    N1 2788   3.940   0.984  15.577  0.2121  0.8426  0.6281
  179MPD1    H6 2789   3.870   1.056  15.593 -0.7253  0.2575 -0.8116
  179MPD1    H7 2790   3.891   0.905  15.535  0.5439  1.1448 -0.3085
  180MPD1     C 2791   0.424   1.834  14.517  0.3025 -0.3514 -0.1072
  180MPD1    C1 2792   0.439   1.969  14.496 -0.6376 -0.3664 -0.3518
  180MPD1    C2 2793   0.337   2.052  14.541 -0.0230 -0.1081  0.1819
  180MPD1    C3 2794   0.228   1.995  14.611 -0.0889  0.1053 -0.4561
  180MPD1    C4 2795   0.212   1.860  14.625  0.6720 -0.7044  0.4943
  180MPD1    C5 2796   0.311   1.779  14.576  0.4297  0.0598  0.1004
  180MPD1     H 2797   0.333   2.159  14.524  3.8633  0.0661  0.5027
  180MPD1    H1 2798   0.129   1.816  14.678 -0.3524 -0.4263 -0.8506
  180MPD1    H2 2799   0.500   1.766  14.479 -1.0990 -1.9275 -0.1045
  180MPD1    H3 2800   0.304   1.671  14.582  1.8783  0.0127  1.0977
  180MPD1     N 2801   0.132   2.082  14.659 -0.3420  0.1362 -0.1311
  180MPD1    H5 2802   0.155   2.180  14.645 -1.9500  0.5651  0.1363
  180MPD1    N1 2803   0.543   2.017  14.405 -0.0290 -0.2866  0.3176
  180MPD1    H6 2804   0.623   1.956  14.422 -0.2717 -0.7575 -0.2281
  180MPD1    H7 2805   0.566   2.108  14.444  1.7827 -0.7459  0.3247
  181MPD1     C 2806   1.001   4.401  10.215 -0.3795 -0.1968 -0.0463
  181MPD1    C1 2807   1.059   4.280  10.189  0.3754 -0.3834 -0.5311
  181MPD1    C2 2808   1.199   4.276  10.165  0.2810  0.0896 -0.5374
  181MPD1    C3 2809   1.275   4.388  10.191 -0.3729 -0.4326  0.2730
  181MPD1    C4 2810   1.210   4.509  10.228 -0.1344  0.1171  0.4189
  181MPD1    C5 2811   1.072   4.509  10.234 -0.3591  0.2125  0.4147
  181MPD1     H 2812   1.247   4.182  10.141  0.6549 -0.2741  1.5695
  181MPD1    H1 2813   1.263   4.602  10.244  0.7701 -0.3429  0.0995
  181MPD1    H2 2814   0.893   4.416  10.209 -0.1431  2.3141  2.0387
  181MPD1    H3 2815   1.023   4.604  10.253  1.1391  1.6966 -3.1620
  181MPD1     N 2816   1.417   4.387  10.180  0.0943  0.0033  0.7163
  181MPD1    H5 2817   1.463   4.477  10.192  1.0783 -0.0859 -2.3287
  181MPD1    N1 2818   0.988   4.159  10.161 -0.4911 -0.2911  0.0180
  181MPD1    H6 2819   0.899   4.152  10.210 -1.1914  0.2881 -1.1627
  181MPD1    H7 2820   1.035   4.069  10.161 -1.4213 -0.7788 -1.5651
  182MPD1     C 2821   2.419   2.859   1.454  0.6393 -1.3120 -0.6222
  182MPD1    C1 2822   2.386   2.756   1.377 -0.3635 -0.3853 -0.0357
  182MPD1    C2 2823   2.327   2.787   1.258 -0.2660 -0.5444  0.7462
  182MPD1    C3 2824   2.278   2.913   1.230 -0.5842 -0.6391  0.6526
  182MPD1    C4 2825   2.296   3.013   1.325  0.3429 -0.5447  0.3357
  182MPD1    C5 2826   2.380   2.984   1.429 -0.0735  0.1261 -0.6032
  182MPD1     H 2827   2.312   2.704   1.190  0.4989  0.3001 -0.4498
  182MPD1    H1 2828   2.261   3.115   1.312  0.9067 -0.5669 -1.4097
  182MPD1    H2 2829   2.473   2.832   1.544 -0.7036  0.4604  0.7218
  182MPD1    H3 2830   2.418   3.064   1.490  0.5957 -0.3472 -0.4079
  182MPD1     N 2831   2.229   2.955   1.102 -0.1409  0.0634  0.5078
  182MPD1    H5 2832   2.204   3.051   1.083  1.9082  0.5953  0.4618
  182MPD1    N1 2833   2.437   2.628   1.401  0.4657  0.2619  0.3038
  182MPD1    H6 2834   2.393   2.544   1.364  0.9421 -0.3113  1.0330
  182MPD1    H7 2835   2.459   2.605   1.498 -1.3357 -0.1855  0.6135
  183MPD1     C 2836   3.463   4.316   9.176 -0.0284  0.3968 -0.1345
  183MPD1    C1 2837   3.429   4.430   9.251  0.1304 -0.2078  0.3969
  183MPD1    C2 2838   3.359   4.412   9.370  0.4504  0.5568  0.1453
  183MPD1    C3 2839   3.342   4.284   9.421 -0.1333  0.5516 -0.0563
  183MPD1    C4 2840   3.392   4.175   9.350  1.1553 -0.8141  0.3664
  183MPD1    C5 2841   3.447   4.187   9.225  0.5239 -0.2349  0.1448
  183MPD1     H 2842   3.319   4.497   9.423 -0.4493 -0.3004  0.8366
  183MPD1    H1 2843   3.374   4.076   9.388 -1.2516  0.0422  1.4657
  183MPD1    H2 2844   3.524   4.328   9.087  1.9666  0.1084  1.2018
  183MPD1    H3 2845   3.483   4.102   9.168 -2.5137 -1.7742  0.5111
  183MPD1     N 2846   3.268   4.270   9.536  0.0067  0.4363 -0.7612
  183MPD1    H5 2847   3.242   4.353   9.588 -0.3495  0.2127 -0.5733
  183MPD1    N1 2848   3.447   4.554   9.192  0.1366  0.2595 -0.5721
  183MPD1    H6 2849   3.529   4.550   9.132 -0.9324  0.2434 -2.0287
  183MPD1    H7 2850   3.465   4.622   9.266  0.8400  1.2308 -1.6391
  184MPD1     C 2851   1.730   1.333   9.878  0.5181  0.0953  0.0127
  184MPD1    C1 2852   1.834   1.417   9.901 -0.4551  0.4125 -0.3852
  184MPD1    C2 2853   1.831   1.541   9.842 -0.3293  0.3261 -1.5423
  184MPD1    C3 2854   1.726   1.577   9.763  0.1023 -0.0845 -0.4748
  184MPD1    C4 2855   1.616   1.494   9.747 -0.0352 -0.0558 -0.2322
  184MPD1    C5 2856   1.620   1.371   9.802 -0.3481 -0.4696 -0.4239
  184MPD1     H 2857   1.918   1.605   9.850 -1.5745  2.2073 -2.7893
  184MPD1    H1 2858   1.524   1.528   9.702 -0.5904 -0.9850  0.2024
  184MPD1    H2 2859   1.723   1.245   9.940 -1.9671 -0.4392 -1.0545
  184MPD1    H3 2860   1.537   1.302   9.800  1.6112 -2.8418 -0.5590
  184MPD1     N 2861   1.724   1.699   9.694 -0.0711  0.1563 -0.0291
  184MPD1    H5 2862   1.649   1.701   9.626 -1.2381 -0.0198  1.2633
  184MPD1    N1 2863   1.955   1.381   9.973 -0.7712 -0.0591 -0.3237
  184MPD1    H6 2864   1.936   1.311  10.045  0.0946 -0.1839 -0.2223
  184MPD1    H7 2865   2.007   1.458  10.015 -1.0196  0.2875 -0.6556
  185MPD1     C 2866   1.133   2.128   9.127 -0.2884  0.0554  0.7479
  185MPD1    C1 2867   1.221   2.026   9.110  0.1142 -0.2075  0.4150
  185MPD1    C2 2868   1.341   2.028   9.179 -0.2175 -0.2387 -0.4039
  185MPD1    C3 2869   1.368   2.128   9.277 -0.5959 -0.3560 -0.6292
  185MPD1    C4 2870   1.276   2.232   9.287 -0.0369  0.6025 -0.2472
  185MPD1    C5 2871   1.166   2.229   9.211 -1.0454 -0.2821 -0.2792
  185MPD1     H 2872   1.410   1.947   9.156 -3.7848 -2.8737 -1.7797
  185MPD1    H1 2873   1.284   2.318   9.353  0.7127 -0.1988  0.6928
  185MPD1    H2 2874   1.035   2.142   9.083  0.8769 -1.3358 -2.2961
  185MPD1    H3 2875   1.087   2.299   9.236 -0.3631 -0.4606  2.3953
  185MPD1     N 2876   1.481   2.126   9.362 -0.2554 -0.7520  0.3232
  185MPD1    H5 2877   1.477   2.189   9.442 -0.8487 -2.1910  1.4471
  185MPD1    N1 2878   1.200   1.931   9.006  1.1513  0.1854  0.6631
  185MPD1    H6 2879   1.238   1.838   9.023 -1.3599 -0.6443  1.8158
  185MPD1    H7 2880   1.103   1.922   8.975  1.2463  1.3821  0.0327
  186MPD1     C 2881   4.420   1.697  15.659 -0.5237  0.0402 -0.1402
  186MPD1    C1 2882   4.414   1.755  15.782 -0.2217 -0.0615 -0.3275
  186MPD1    C2 2883   4.518   1.731  15.867  0.4789  0.2315  0.7093
  186MPD1    C3 2884   4.635   1.661  15.834  0.1296  0.5721 -0.0349
  186MPD1    C4 2885   4.646   1.618  15.699 -0.1243 -0.4352  0.2903
  186MPD1    C5 2886   4.533   1.632  15.621 -0.0202 -0.5117  0.2707
  186MPD1     H 2887   4.516   1.779  15.964  0.8292 -1.5458  1.5988
  186MPD1    H1 2888   4.733   1.561  15.668 -0.5372 -1.2364  0.6078
  186MPD1    H2 2889   4.335   1.694  15.592 -0.0278  0.8923 -0.8134
  186MPD1    H3 2890   4.540   1.589  15.522  0.9612  0.5823 -0.1328
  186MPD1     N 2891   4.736   1.629  15.921  0.2421  0.0445 -0.6101
  186MPD1    H5 2892   0.076   1.574  15.887 -1.2426 -2.2890 -0.2933
  186MPD1    N1 2893   4.293   1.800  15.838 -0.1402 -0.0599  0.4567
  186MPD1    H6 2894   4.302   1.880  15.901  0.4270 -2.0536  2.8887
  186MPD1    H7 2895   4.231   1.837  15.766  1.9205  1.9366 -0.2817
  187MPD1     C 2896   0.194   2.762  17.566 -0.5117  0.3707 -0.3159
  187MPD1    C1 2897   0.076   2.690  17.582 -0.7594 -0.5273 -0.1636
  187MPD1    C2 2898   4.722   2.697  17.477  0.0593 -0.5273  0.2345
  187MPD1    C3 2899   4.733   2.791  17.371  1.2839 -0.1096  0.1095
  187MPD1    C4 2900   0.094   2.883  17.383  0.5704  0.7419  0.8793
  187MPD1    C5 2901   0.197   2.863  17.468 -0.7522  0.2345 -1.1076
  187MPD1     H 2902   4.646   2.620  17.479 -1.1464  0.6914  1.4591
  187MPD1    H1 2903   0.107   2.963  17.311  3.0776 -1.7520 -1.3978
  187MPD1    H2 2904   0.271   2.742  17.640 -0.9172  0.0180  0.0129
  187MPD1    H3 2905   0.286   2.923  17.451 -1.2368  1.2091 -0.1923
  187MPD1     N 2906   4.647   2.810  17.263 -0.4407 -0.0677  0.0506
  187MPD1    H5 2907   4.671   2.879  17.192 -2.5077 -1.7215 -2.2300
  187MPD1    N1 2908   0.059   2.601  17.689  0.4149 -0.5753  0.1750
  187MPD1    H6 2909   4.704   2.563  17.692  0.2507 -0.2396 -0.6461
  187MPD1    H7 2910   0.086   2.633   0.028 -1.4805  0.4287  0.3831
  188MPD1     C 2911   0.098   3.107   9.859 -0.3777  0.0752  0.1267
  188MPD1    C1 2912   0.098   3.004   9.767 -0.5590 -0.5949  0.1832
  188MPD1    C2 2913   4.718   2.937   9.752 -0.3303  0.4976  0.1072
  188MPD1    C3 2914   4.617   2.953   9.843 -0.2170  0.4274 -0.1628
  188MPD1    C4 2915   4.641   3.023   9.957  0.4385 -0.0542  1.0999
  188MPD1    C5 2916   0.008   3.111   9.965  0.0800  0.7318  0.7138
  188MPD1     H 2917   4.705   2.873   9.665 -0.6526  0.1305  0.4255
  188MPD1    H1 2918   4.570   3.040  10.037  0.3197 -1.4441  1.2938
  188MPD1    H2 2919   0.177   3.180   9.868  1.0881 -1.4676 -0.2515
  188MPD1    H3 2920   0.020   3.191  10.037 -1.2344  1.8604 -0.3276
  188MPD1     N 2921   4.497   2.888   9.844  0.2291  0.2869 -0.8092
  188MPD1    H5 2922   4.434   2.905   9.921 -0.3402 -0.5726 -1.0938
  188MPD1    N1 2923   0.211   3.006   9.681  0.0994  0.5117  0.1943
  188MPD1    H6 2924   0.288   3.041   9.737  0.0014 -0.3166  0.8545
  188MPD1    H7 2925   0.227   2.909   9.654  2.1382  1.2041 -1.0452
  189MPD1     C 2926   1.094   3.457  17.486  0.3670 -0.0180 -0.1801
  189MPD1    C1 2927   1.115   3.547  17.589  0.3729 -0.5164 -0.0703
  189MPD1    C2 2928   1.015   3.632  17.625 -0.3187  0.0557  0.3438
  189MPD1    C3 2929   0.894   3.618  17.567 -0.2214 -0.6445  0.0980
  189MPD1    C4 2930   0.869   3.535  17.462 -0.1348 -0.7183  0.0139
  189MPD1    C5 2931   0.970   3.449  17.426  0.4870  0.8906 -0.2923
  189MPD1     H 2932   1.022   3.719  17.690  1.2880  0.4770 -0.3896
  189MPD1    H1 2933   0.771   3.524  17.416  0.4899 -0.5962 -1.3362
  189MPD1    H2 2934   1.173   3.393  17.448  1.4489 -0.5273  2.9109
  189MPD1    H3 2935   0.950   3.389  17.338  1.2412 -0.8616  0.7566
  189MPD1     N 2936   0.784   3.706  17.593 -0.5099 -0.1663  0.1366
  189MPD1    H5 2937   0.698   3.684  17.544 -0.0833 -2.4509  0.4195
  189MPD1    N1 2938   1.237   3.554  17.653 -0.0136 -0.1694 -0.4559
  189MPD1    H6 2939   1.267   3.458  17.671 -0.1878 -0.3102 -0.9087
  189MPD1    H7 2940   1.224   3.599  17.743  1.4669 -2.6298  0.9683
  190MPD1     C 2941   4.471   1.697  15.114  0.3405 -0.8099 -0.3205
  190MPD1    C1 2942   4.560   1.749  15.026  0.5845  0.3969 -0.2615
  190MPD1    C2 2943   4.671   1.814  15.079 -0.5047  0.3172  0.1640
  190MPD1    C3 2944   4.686   1.836  15.214 -0.1462 -0.3644  0.6630
  190MPD1    C4 2945   4.595   1.780  15.300 -0.5185  0.0947 -0.1955
  190MPD1    C5 2946   4.488   1.709  15.246  0.2780 -0.2446 -0.5254
  190MPD1     H 2947   0.003   1.856  15.008  1.9765 -0.0667  2.4154
  190MPD1    H1 2948   4.605   1.782  15.408 -0.5490 -0.6228 -0.1808
  190MPD1    H2 2949   4.391   1.631  15.082 -0.8480  0.1930  0.5833
  190MPD1    H3 2950   4.409   1.669  15.310 -0.7814  0.0488 -1.6465
  190MPD1     N 2951   0.054   1.912  15.264  0.5082 -0.7318 -0.1006
  190MPD1    H5 2952   0.106   1.961  15.192  1.0036 -1.5680 -0.3014
  190MPD1    N1 2953   4.546   1.727  14.890  0.6617 -0.2023 -0.2162
  190MPD1    H6 2954   4.450   1.718  14.858  0.5174  0.4914  0.0180
  190MPD1    H7 2955   4.593   1.794  14.830 -2.4157  1.5403 -0.6571
  191MPD1     C 2956   4.118   3.667  13.484  0.9453 -0.1555  0.1594
  191MPD1    C1 2957   4.153   3.790  13.433 -0.3787  0.1667  0.5325
  191MPD1    C2 2958   4.058   3.853  13.351 -0.0301  0.3580 -0.4590
  191MPD1    C3 2959   3.929   3.809  13.348  0.5063 -0.9618 -0.6047
  191MPD1    C4 2960   3.897   3.692  13.413 -0.1369  0.0326 -0.6042
  191MPD1    C5 2961   3.991   3.616  13.479 -0.1980  0.6137 -0.5470
  191MPD1     H 2962   4.089   3.949  13.310  2.5118 -0.2486  0.0716
  191MPD1    H1 2963   3.801   3.643  13.406  0.9860 -2.1668 -0.6737
  191MPD1    H2 2964   4.188   3.599  13.531  0.0266 -0.2287  1.4474
  191MPD1    H3 2965   3.970   3.521  13.528 -0.4512  0.4265 -1.0174
  191MPD1     N 2966   3.835   3.876  13.273  0.1027 -0.0017  0.1608
  191MPD1    H5 2967   3.876   3.945  13.211 -1.4846 -0.0260 -0.9121
  191MPD1    N1 2968   4.288   3.838  13.449  0.5549  0.7675  0.7134
  191MPD1    H6 2969   4.325   3.792  13.532 -0.8932  0.9721  1.4625
  191MPD1    H7 2970   4.294   3.938  13.463 -1.8660  0.6750  2.3509
  192MPD1     C 2971   2.962   4.086  13.576 -0.9201 -0.8310  0.7976
  192MPD1    C1 2972   2.938   4.076  13.441 -0.0532 -0.8179  0.2230
  192MPD1    C2 2973   3.041   4.089  13.356  0.2264 -0.2895 -0.2892
  192MPD1    C3 2974   3.171   4.116  13.397  0.5348 -0.4527 -0.5127
  192MPD1    C4 2975   3.193   4.142  13.525  0.6250  0.9892 -0.0143
  192MPD1    C5 2976   3.090   4.120  13.622  0.2487  0.3150 -0.1459
  192MPD1     H 2977   3.027   4.076  13.249 -1.0217  2.4136 -0.4538
  192MPD1    H1 2978   3.294   4.165  13.558  0.4251  0.7037  0.7898
  192MPD1    H2 2979   2.888   4.066  13.653 -1.6880 -0.1405  0.2436
  192MPD1    H3 2980   3.118   4.124  13.726 -1.0083  0.7299  0.1799
  192MPD1     N 2981   3.281   4.108  13.312  0.1489 -0.5770  0.9257
  192MPD1    H5 2982   3.369   4.136  13.353 -0.0576  1.7657 -0.2765
  192MPD1    N1 2983   2.819   4.028  13.390 -0.6923  0.3181 -0.0037
  192MPD1    H6 2984   2.799   4.068  13.299  0.2992  0.1738 -0.2857
  192MPD1    H7 2985   2.736   4.032  13.449 -0.4043  1.0279  0.3485
  193MPD1     C 2986   3.442   4.150  16.469  0.2793 -0.3230 -0.3775
  193MPD1    C1 2987   3.401   4.254  16.543  0.2311  0.4673 -0.1050
  193MPD1    C2 2988   3.506   4.338  16.593 -0.8337  0.3966 -0.7627
  193MPD1    C3 2989   3.633   4.316  16.570  0.5703 -0.5524  0.2725
  193MPD1    C4 2990   3.670   4.217  16.487 -0.4326 -0.1645 -0.2077
  193MPD1    C5 2991   3.574   4.133  16.434  0.4765 -0.3217  0.9458
  193MPD1     H 2992   3.473   4.408  16.670  0.8486 -0.4157  0.7015
  193MPD1    H1 2993   3.774   4.194  16.466 -0.3285  0.0643  0.0687
  193MPD1    H2 2994   3.370   4.089  16.415 -1.4635  2.6369 -1.3503
  193MPD1    H3 2995   3.588   4.058  16.358 -0.2180  0.8682 -0.3514
  193MPD1     N 2996   3.742   4.392  16.625  0.1325 -0.1786 -0.3603
  193MPD1    H5 2997   3.835   4.368  16.592 -0.3912 -1.3753 -0.9355
  193MPD1    N1 2998   3.272   4.266  16.586 -0.0618  0.5200  0.3726
  193MPD1    H6 2999   3.235   4.356  16.614 -1.6333 -0.0312  0.1043
  193MPD1    H7 3000   3.210   4.217  16.522 -0.7894  0.3358  1.2105
  194MPD1     C 3001   2.462   2.436  17.008 -0.4707 -0.7623  0.3348
  194MPD1    C1 3002   2.393   2.426  17.122  0.0338 -0.6100 -0.0226
  194MPD1    C2 3003   2.366   2.301  17.167  0.1617  0.4628 -0.3983
  194MPD1    C3 3004   2.408   2.184  17.104  0.1498 -0.9149 -0.5322
  194MPD1    C4 3005   2.484   2.203  16.996  0.4258  0.6341  0.0569
  194MPD1    C5 3006   2.513   2.323  16.948 -0.0824  0.1542 -0.7908
  194MPD1     H 3007   2.314   2.292  17.262  2.1835  1.2897  0.7960
  194MPD1    H1 3008   2.521   2.118  16.941  0.0591 -1.5256  3.1170
  194MPD1    H2 3009   2.490   2.526  16.956 -0.1618 -0.8131  0.4144
  194MPD1    H3 3010   2.568   2.333  16.855 -0.7816  1.8549 -1.0203
  194MPD1     N 3011   2.385   2.048  17.151 -0.5300 -0.1414  0.8409
  194MPD1    H5 3012   2.406   1.968  17.092 -0.5030  0.0407  0.6036
  194MPD1    N1 3013   2.350   2.539  17.194  0.3219  0.3463  0.8181
  194MPD1    H6 3014   2.260   2.514  17.235 -1.2449  0.9047 -2.2517
  194MPD1    H7 3015   2.340   2.615  17.127 -0.1411  0.1288  0.6404
  195MPD1     C 3016   4.146   3.261   1.139 -0.5981 -0.4014 -0.7453
  195MPD1    C1 3017   4.010   3.250   1.124 -0.2855  0.3265  0.9614
  195MPD1    C2 3018   3.960   3.222   0.995 -0.5003  0.2278 -0.3154
  195MPD1    C3 3019   4.049   3.186   0.898 -0.5496 -0.2665  0.0597
  195MPD1    C4 3020   4.188   3.196   0.920  0.1401 -0.3120 -0.3981
  195MPD1    C5 3021   4.228   3.222   1.045  0.2308 -0.2929 -0.0263
  195MPD1     H 3022   3.853   3.242   0.991 -0.0444  2.3202 -2.1515
  195MPD1    H1 3023   4.259   3.175   0.840  2.6586  1.7461  1.3047
  195MPD1    H2 3024   4.189   3.300   1.231 -1.2868  0.7523 -0.9092
  195MPD1    H3 3025   4.334   3.241   1.052  0.3564 -0.9438 -0.1543
  195MPD1     N 3026   4.028   3.156   0.763 -0.5547  0.1504  0.1095
  195MPD1    H5 3027   4.111   3.133   0.710 -0.1378 -0.6718  1.1178
  195MPD1    N1 3028   3.933   3.325   1.213  0.5626 -0.1696 -0.4868
  195MPD1    H6 3029   3.967   3.326   1.309 -2.0895 -1.8209  0.5042
  195MPD1    H7 3030   3.842   3.279   1.224  1.6547 -1.8362  1.5985
  196MPD1     C 3031   2.715   2.103   0.271  0.5854 -0.3615 -0.3357
  196MPD1    C1 3032   2.766   2.238   0.265 -0.3163  0.3181 -0.4550
  196MPD1    C2 3033   2.808   2.303   0.378  0.5209  0.1317  0.5629
  196MPD1    C3 3034   2.801   2.238   0.502  0.3791  0.4625  0.1464
  196MPD1    C4 3035   2.744   2.113   0.508 -0.2637  0.8867  0.1488
  196MPD1    C5 3036   2.702   2.046   0.389  0.5431  0.6125 -0.0698
  196MPD1     H 3037   2.855   2.400   0.374 -0.5487  0.5568 -1.5036
  196MPD1    H1 3038   2.729   2.059   0.600 -0.0592  2.7681  1.2875
  196MPD1    H2 3039   2.684   2.045   0.185 -0.8284 -0.2443  0.0812
  196MPD1    H3 3040   2.644   1.956   0.398 -0.0850  1.0857  0.6290
  196MPD1     N 3041   2.840   2.293   0.626  0.9737 -0.5224  0.5235
  196MPD1    H5 3042   2.816   2.236   0.707 -1.3329 -0.7201 -0.3131
  196MPD1    N1 3043   2.780   2.302   0.136  0.0599  0.0836 -0.1846
  196MPD1    H6 3044   2.704   2.290   0.070 -0.3162  0.9165  0.0896
  196MPD1    H7 3045   2.799   2.402   0.143 -1.0046  0.0706  2.6919
  197MPD1     C 3046   2.144   3.906  17.367  0.2516 -0.3313  0.7172
  197MPD1    C1 3047   2.196   3.996  17.462 -0.8482  1.0977  1.3378
  197MPD1    C2 3048   2.256   4.115  17.414 -0.5173 -0.0105  0.9155
  197MPD1    C3 3049   2.249   4.152  17.281 -0.2374 -0.7248  0.9224
  197MPD1    C4 3050   2.194   4.057  17.191 -0.1393 -0.1702  0.3942
  197MPD1    C5 3051   2.155   3.934  17.236 -0.0863 -1.3417  0.1609
  197MPD1     H 3052   2.292   4.182  17.491  1.0490  2.1188 -1.6802
  197MPD1    H1 3053   2.187   4.069  17.084 -2.3752  0.2268  0.5974
  197MPD1    H2 3054   2.113   3.805  17.394 -1.7934  0.1778  0.2668
  197MPD1    H3 3055   2.133   3.863  17.158 -0.2290  0.4469 -1.4369
  197MPD1     N 3056   2.313   4.267  17.231  0.6246  0.2953  0.7788
  197MPD1    H5 3057   2.294   4.282  17.133  0.7610 -1.0410  0.5573
  197MPD1    N1 3058   2.203   3.972  17.600  0.2484  0.5822 -0.4292
  197MPD1    H6 3059   2.207   4.061  17.648 -2.7109  0.3663  0.2465
  197MPD1    H7 3060   2.117   3.922  17.625  1.4223  0.1066  2.6467
  198MPD1     C 3061   4.368   4.335  15.491 -0.3202  0.2830  0.0001
  198MPD1    C1 3062   4.460   4.331  15.592  0.4492  0.0900 -0.1393
  198MPD1    C2 3063   4.536   4.214  15.595  0.0759 -0.9526 -0.1748
  198MPD1    C3 3064   4.508   4.097  15.525  0.4499 -0.1396 -0.1370
  198MPD1    C4 3065   4.400   4.102  15.437  0.0476 -0.0807  0.1609
  198MPD1    C5 3066   4.340   4.222  15.414 -0.0516 -0.1625  0.1580
  198MPD1     H 3067   4.615   4.206  15.668  0.0860  0.2460 -0.0499
  198MPD1    H1 3068   4.379   4.017  15.373  0.1199  0.4107 -0.5139
  198MPD1    H2 3069   4.312   4.423  15.459 -1.7510  0.1507  2.1610
  198MPD1    H3 3070   4.254   4.231  15.348  0.2190 -1.4576 -0.3624
  198MPD1     N 3071   4.587   3.987  15.555 -1.2690  0.4708  0.3458
  198MPD1    H5 3072   4.649   3.991  15.635  0.0259  1.9112 -0.7396
  198MPD1    N1 3073   4.493   4.450  15.659  0.5009  0.4467 -0.0591
  198MPD1    H6 3074   4.403   4.496  15.670  0.6429  0.5977  0.4395
  198MPD1    H7 3075   4.543   4.431  15.746  1.4185 -2.7537 -1.2874
  199MPD1     C 3076   1.173   0.293  10.293  0.1335 -0.4042  0.8162
  199MPD1    C1 3077   1.079   0.191  10.280 -0.0494 -0.0410 -0.8405
  199MPD1    C2 3078   1.062   0.151  10.152  0.3318 -0.0202  0.0775
  199MPD1    C3 3079   1.135   0.196  10.047  0.2283  0.2472  0.0873
  199MPD1    C4 3080   1.235   0.283  10.074  0.1236 -0.1390  0.6179
  199MPD1    C5 3081   1.254   0.336  10.195 -0.4479  0.2849 -0.0951
  199MPD1     H 3082   0.974   0.089  10.132  1.1193 -0.5033 -1.9411
  199MPD1    H1 3083   1.304   0.313   9.997 -1.0787  3.1527  0.8236
  199MPD1    H2 3084   1.181   0.338  10.392  1.7481  2.0122 -0.3967
  199MPD1    H3 3085   1.328   0.412  10.213  1.9481 -1.4649 -2.4369
  199MPD1     N 3086   1.095   0.173   9.915  0.2722 -0.1086 -0.0254
  199MPD1    H5 3087   1.142   0.235   9.849 -0.9050  0.9107  0.0925
  199MPD1    N1 3088   0.993   0.159  10.384 -0.5035  0.0864 -0.2315
  199MPD1    H6 3089   0.983   0.061  10.412 -0.2158  0.1452  0.0786
  199MPD1    H7 3090   1.028   0.195  10.473  1.7509 -1.3716 -0.5224
  200MPD1     C 3091   0.734   4.080  15.649  0.5686  0.7744  0.3357
  200MPD1    C1 3092   0.668   4.048  15.532 -0.3133 -0.4292 -0.2984
  200MPD1    C2 3093   0.675   4.127  15.414 -0.2392  0.3820  0.1158
  200MPD1    C3 3094   0.758   4.245  15.432 -0.0337 -0.0341  0.5832
  200MPD1    C4 3095   0.830   4.265  15.543 -0.0023  0.4157  0.0557
  200MPD1    C5 3096   0.826   4.182  15.649  0.3498 -0.4381 -0.3664
  200MPD1     H 3097   0.629   4.092  15.322 -2.9508  1.8780  0.8885
  200MPD1    H1 3098   0.912   4.335  15.554  0.8438 -0.4389 -0.7410
  200MPD1    H2 3099   0.716   4.021  15.738  0.1107 -1.8279 -1.4793
  200MPD1    H3 3100   0.884   4.209  15.737 -1.0324 -2.7491  1.2452
  200MPD1     N 3101   0.779   4.322  15.318 -0.0750 -0.4091  0.0128
  200MPD1    H5 3102   0.724   4.288  15.240 -0.2814 -0.4316  0.1674
  200MPD1    N1 3103   0.583   3.934  15.534  0.2659  0.6654  0.3761
  200MPD1    H6 3104   0.618   3.866  15.601 -1.1142 -0.6353 -0.2219
  200MPD1    H7 3105   0.592   3.887  15.444 -1.6445  2.9538 -1.0069
  201MPD1     C 3106   2.892   3.374  12.972  0.0473 -0.1929 -0.0558
  201MPD1    C1 3107   2.956   3.338  12.856 -0.0042  0.2434  0.0416
  201MPD1    C2 3108   3.093   3.322  12.861  0.2719 -0.5051 -0.3767
  201MPD1    C3 3109   3.165   3.322  12.980  1.0192  0.2140 -0.0187
  201MPD1    C4 3110   3.095   3.365  13.097 -0.4338 -0.2642  0.7557
  201MPD1    C5 3111   2.959   3.392  13.086  0.2260  0.0452  0.1495
  201MPD1     H 3112   3.157   3.315  12.774  0.8174  1.6627 -0.1480
  201MPD1    H1 3113   3.138   3.383  13.194 -0.9700  1.4034  0.6764
  201MPD1    H2 3114   2.783   3.379  12.969  0.1123  1.1961  0.1295
  201MPD1    H3 3115   2.905   3.415  13.177 -0.9998 -1.6257 -0.1372
  201MPD1     N 3116   3.299   3.276  12.972 -1.3073  0.2391 -0.1833
  201MPD1    H5 3117   3.336   3.259  12.879 -1.8610  4.4749 -1.1309
  201MPD1    N1 3118   2.879   3.360  12.737  0.4606  0.1912  0.1126
  201MPD1    H6 3119   2.782   3.332  12.745  0.1026  0.8158 -2.1334
  201MPD1    H7 3120   2.923   3.307  12.662  0.0770  0.1349 -0.0703
  202MPD1     C 3121   3.808   3.338   9.240 -0.4440 -0.2863  0.6424
  202MPD1    C1 3122   3.704   3.287   9.166  0.0171 -0.6929 -0.3836
  202MPD1    C2 3123   3.600   3.228   9.247 -0.1129  0.5117  0.0619
  202MPD1    C3 3124   3.586   3.254   9.384 -0.0111 -0.2959 -0.2865
  202MPD1    C4 3125   3.693   3.315   9.446  0.2091 -0.4622  0.7263
  202MPD1    C5 3126   3.803   3.348   9.376 -0.4938  0.2814 -0.2309
  202MPD1     H 3127   3.515   3.189   9.191  0.1019 -0.2264  0.2512
  202MPD1    H1 3128   3.697   3.346   9.549  2.1379  0.5617  0.3293
  202MPD1    H2 3129   3.902   3.354   9.189 -1.0927 -1.1735 -0.8152
  202MPD1    H3 3130   3.886   3.400   9.423  0.4071 -1.3118 -0.0811
  202MPD1     N 3131   3.475   3.209   9.466  0.2478  0.7857 -0.2981
  202MPD1    H5 3132   3.473   3.246   9.560 -0.0946  0.3584 -0.1367
  202MPD1    N1 3133   3.733   3.239   9.041 -0.7037 -0.0575  0.0336
  202MPD1    H6 3134   3.796   3.300   8.989  2.3069 -1.7877  1.6964
  202MPD1    H7 3135   3.646   3.227   8.989 -0.9988  1.3500  0.1964
  203MPD1     C 3136   2.187   4.314  12.925 -0.9512 -0.0208 -0.5576
  203MPD1    C1 3137   2.161   4.232  13.031 -0.4725  0.1378  0.0740
  203MPD1    C2 3138   2.120   4.105  12.991 -0.0894  0.1046  0.6175
  203MPD1    C3 3139   2.092   4.070  12.861  0.3524 -0.2858  0.6232
  203MPD1    C4 3140   2.107   4.163  12.761 -0.7236 -0.2985 -0.0805
  203MPD1    C5 3141   2.143   4.282  12.801  0.0476  0.3829  0.6908
  203MPD1     H 3142   2.109   4.023  13.061  2.4626 -0.5427  0.2555
  203MPD1    H1 3143   2.078   4.152  12.657  0.8809 -0.5420 -0.4974
  203MPD1    H2 3144   2.214   4.417  12.945 -2.7905  0.0469  1.5306
  203MPD1    H3 3145   2.148   4.360  12.726 -0.2053 -0.4975 -0.2465
  203MPD1     N 3146   2.047   3.935  12.837 -0.2121 -0.0654 -0.0181
  203MPD1    H5 3147   2.059   3.868  12.913 -0.0852  0.1591  0.1602
  203MPD1    N1 3148   2.186   4.271  13.161  0.0348  1.0178  0.6384
  203MPD1    H6 3149   2.173   4.370  13.182  1.4337  1.2913  0.2471
  203MPD1    H7 3150   2.151   4.214  13.237  2.7909 -0.6411  0.6552
  204MPD1     C 3151   1.482   0.593  17.576  0.6209 -0.1303  0.3477
  204MPD1    C1 3152   1.524   0.571  17.444 -0.2109  0.6786 -0.1795
  204MPD1    C2 3153   1.490   0.450  17.388  0.9691  0.1857  0.5067
  204MPD1    C3 3154   1.432   0.341  17.451 -0.5389 -0.2578  0.1772
  204MPD1    C4 3155   1.395   0.369  17.584 -0.4949 -0.3170 -0.2175
  204MPD1    C5 3156   1.415   0.492  17.642  0.2237  0.5585 -0.3071
  204MPD1     H 3157   1.528   0.440  17.287 -0.8846  0.1259 -0.1894
  204MPD1    H1 3158   1.343   0.301  17.651 -0.5484 -1.6457 -1.6062
  204MPD1    H2 3159   1.486   0.680  17.639 -1.7841  0.4917 -0.3837
  204MPD1    H3 3160   1.373   0.511  17.740 -1.6018  2.0061 -1.3508
  204MPD1     N 3161   1.435   0.213  17.389  0.1134  0.3000  1.6377
  204MPD1    H5 3162   1.489   0.201  17.304 -1.1340 -0.4059  0.9386
  204MPD1    N1 3163   1.588   0.669  17.366 -0.1934 -0.4339 -0.1691
  204MPD1    H6 3164   1.630   0.631  17.282 -2.4483 -0.8511 -1.1195
  204MPD1    H7 3165   1.650   0.722  17.428 -0.2297 -2.1439  1.3437
  205MPD1     C 3166   1.695   3.466  16.492  0.8660  0.1322 -0.1930
  205MPD1    C1 3167   1.730   3.358  16.581  0.6870  0.3057  0.6202
  205MPD1    C2 3168   1.690   3.364  16.709  0.1815  0.1603 -0.1839
  205MPD1    C3 3169   1.615   3.471  16.756  0.0522  0.2158 -0.6234
  205MPD1    C4 3170   1.561   3.557  16.659  0.7249 -0.0179 -0.0661
  205MPD1    C5 3171   1.596   3.553  16.525  0.2561  0.0928 -0.4418
  205MPD1     H 3172   1.751   3.307  16.778  0.3694 -0.1428 -0.6018
  205MPD1    H1 3173   1.500   3.641  16.689  0.9978  1.0164 -2.4022
  205MPD1    H2 3174   1.730   3.468  16.389 -0.6923 -0.8586 -0.7490
  205MPD1    H3 3175   1.564   3.627  16.452  2.8742  0.7558 -0.9373
  205MPD1     N 3176   1.579   3.487  16.892  0.0938  0.0227  0.7993
  205MPD1    H5 3177   1.521   3.567  16.916 -0.8632 -0.4171 -0.0662
  205MPD1    N1 3178   1.833   3.268  16.549  0.1362 -0.0155  0.2309
  205MPD1    H6 3179   1.857   3.265  16.451 -0.3453 -0.2386  0.1197
  205MPD1    H7 3180   1.825   3.177  16.594 -0.7143 -0.7906 -1.4869
  206MPD1     C 3181   1.327   1.444  16.984  0.0050  0.9100 -0.8116
  206MPD1    C1 3182   1.367   1.355  16.888 -0.0811 -0.1605  0.2678
  206MPD1    C2 3183   1.460   1.389  16.797 -0.3469 -0.7428  0.1144
  206MPD1    C3 3184   1.507   1.521  16.790 -1.0842 -0.2787  0.2162
  206MPD1    C4 3185   1.464   1.618  16.886  0.2470 -0.3990 -0.4183
  206MPD1    C5 3186   1.375   1.571  16.979  0.3414 -0.3191  0.0248
  206MPD1     H 3187   1.495   1.306  16.736 -0.3514 -0.2397 -0.5783
  206MPD1    H1 3188   1.498   1.721  16.886  0.0346 -0.3283 -0.8084
  206MPD1    H2 3189   1.265   1.413  17.067  1.1383 -0.9378 -0.6497
  206MPD1    H3 3190   1.341   1.638  17.056 -0.9945 -0.8123 -0.1340
  206MPD1     N 3191   1.600   1.559  16.689 -0.0715  0.3297 -0.2868
  206MPD1    H5 3192   1.606   1.659  16.674 -0.1273  0.3594 -0.1132
  206MPD1    N1 3193   1.332   1.218  16.903 -0.5079 -0.4638 -0.3484
  206MPD1    H6 3194   1.337   1.160  16.820 -1.2971  1.4120 -1.7119
  206MPD1    H7 3195   1.243   1.208  16.950 -0.8234  2.4130 -0.3273
  207MPD1     C 3196   3.436   3.825  10.067 -0.2152  0.6128  0.3422
  207MPD1    C1 3197   3.531   3.865   9.972  1.0125 -0.1547 -0.6371
  207MPD1    C2 3198   3.638   3.931  10.016 -0.4688 -0.4936  0.2615
  207MPD1    C3 3199   3.637   3.979  10.151  0.0943 -0.0759 -0.4303
  207MPD1    C4 3200   3.534   3.948  10.235 -0.3935  0.0706 -0.4009
  207MPD1    C5 3201   3.433   3.867  10.196  0.1517 -0.1513 -0.2391
  207MPD1     H 3202   3.712   3.976   9.951  0.8406 -3.5830 -0.4047
  207MPD1    H1 3203   3.523   3.982  10.338 -3.3388 -1.8919 -0.0641
  207MPD1    H2 3204   3.353   3.760  10.044 -1.1770  1.6773  0.8269
  207MPD1    H3 3205   3.362   3.835  10.272 -0.9857  1.1889 -0.7238
  207MPD1     N 3206   3.733   4.060  10.214  0.3422 -0.3754 -0.2442
  207MPD1    H5 3207   3.717   4.087  10.310  0.0154 -0.2973 -0.3192
  207MPD1    N1 3208   3.525   3.806   9.843  0.2658  0.0859 -0.0165
  207MPD1    H6 3209   3.439   3.759   9.816 -0.1657  0.4991  0.6302
  207MPD1    H7 3210   3.575   3.854   9.769  0.4184  0.1367  0.1187
  208MPD1     C 3211   2.413   3.224  17.200 -0.4660  0.5225 -0.2311
  208MPD1    C1 3212   2.306   3.158  17.135  0.6644  0.1433 -0.0599
  208MPD1    C2 3213   2.251   3.043  17.197  0.0449  0.1818  0.1167
  208MPD1    C3 3214   2.315   2.980  17.298 -0.0727 -0.0256  0.0507
  208MPD1    C4 3215   2.432   3.040  17.344  0.1639 -0.3729 -0.0333
  208MPD1    C5 3216   2.470   3.167  17.306  0.4821 -0.2909 -0.7410
  208MPD1     H 3217   2.157   3.000  17.163 -1.7137  2.2833  2.2866
  208MPD1    H1 3218   2.487   2.997  17.427  2.4073  1.7988 -0.3973
  208MPD1    H2 3219   2.443   3.326  17.175 -2.3933  1.0372 -0.3898
  208MPD1    H3 3220   2.557   3.224  17.336  0.9444 -1.4901  0.1988
  208MPD1     N 3221   2.257   2.868  17.351 -0.3079  0.4151 -0.5016
  208MPD1    H5 3222   2.159   2.853  17.327 -0.3778 -1.4451  0.9095
  208MPD1    N1 3223   2.228   3.221  17.040 -0.3123  0.0320 -0.3437
  208MPD1    H6 3224   2.270   3.289  16.977 -1.4740  2.2098  1.2322
  208MPD1    H7 3225   2.179   3.149  16.987 -0.3422 -0.5651  0.4971
  209MPD1     C 3226   4.197   3.204  10.521 -0.2168 -0.0664 -0.6308
  209MPD1    C1 3227   4.148   3.334  10.523 -0.0943  0.2725 -0.2916
  209MPD1    C2 3228   4.177   3.417  10.631 -0.6666  0.6031 -0.5975
  209MPD1    C3 3229   4.261   3.371  10.730  0.5141  0.2797  0.3082
  209MPD1    C4 3230   4.315   3.243  10.725  0.5530  0.5240 -0.8556
  209MPD1    C5 3231   4.282   3.162  10.622  0.4815 -0.0216  0.4744
  209MPD1     H 3232   4.120   3.506  10.652  0.8561  1.2002  1.0638
  209MPD1    H1 3233   4.372   3.202  10.808  0.1204  0.9438 -0.3531
  209MPD1    H2 3234   4.172   3.125  10.450 -1.5462  0.6981 -1.0293
  209MPD1    H3 3235   4.319   3.060  10.622  0.9565  0.1481  0.5799
  209MPD1     N 3236   4.280   3.459  10.839 -0.7786 -0.5904  0.6974
  209MPD1    H5 3237   4.255   3.557  10.829  2.3239  0.0505 -0.9986
  209MPD1    N1 3238   4.059   3.383  10.431  0.6051 -0.1746  0.3373
  209MPD1    H6 3239   4.078   3.481  10.410  1.9521 -0.6573 -0.6705
  209MPD1    H7 3240   4.064   3.337  10.340  1.3264  3.4394 -1.4430
  210MPD1     C 3241   4.093   3.694  11.888  0.0150  0.2681 -0.2112
  210MPD1    C1 3242   4.177   3.597  11.841  0.1815  0.8183  0.5209
  210MPD1    C2 3243   4.206   3.574  11.710 -0.1301  0.5758  0.5474
  210MPD1    C3 3244   4.162   3.667  11.621 -0.5317  0.1290 -0.3245
  210MPD1    C4 3245   4.086   3.770  11.665  0.0069  0.1277 -0.3160
  210MPD1    C5 3246   4.057   3.794  11.798  0.3479 -0.8384 -0.2959
  210MPD1     H 3247   4.269   3.490  11.681  1.2934  1.5243  0.9310
  210MPD1    H1 3248   4.057   3.854  11.602  0.2302  0.5446  0.1338
  210MPD1    H2 3249   4.053   3.699  11.989  1.0984 -0.2997  0.2433
  210MPD1    H3 3250   3.991   3.874  11.828  0.3446 -0.1543 -2.1430
  210MPD1     N 3251   4.191   3.668  11.481 -0.2488 -0.4224 -0.4824
  210MPD1    H5 3252   4.158   3.751  11.433 -1.8585 -0.8873 -0.1741
  210MPD1    N1 3253   4.205   3.493  11.936  0.3064 -0.1999 -0.2459
  210MPD1    H6 3254   4.213   3.535  12.028 -0.0656 -0.5198 -0.0695
  210MPD1    H7 3255   4.302   3.467  11.918  0.8932  1.3065  0.6813
  211MPD1     C 3256   2.154   3.297  15.686 -0.2564 -0.2932 -0.5032
  211MPD1    C1 3257   2.115   3.416  15.642 -0.0559 -0.0643 -0.3886
  211MPD1    C2 3258   2.002   3.470  15.711  0.2527  0.2038  0.4135
  211MPD1    C3 3259   1.948   3.416  15.822  0.4558 -0.7564  0.0219
  211MPD1    C4 3260   2.004   3.301  15.877 -0.5118  0.3952 -0.5448
  211MPD1    C5 3261   2.097   3.239  15.798  0.4546 -0.0884  0.8055
  211MPD1     H 3262   1.954   3.555  15.663 -0.7338 -0.0926  0.8681
  211MPD1    H1 3263   1.967   3.247  15.964  1.3056  2.8152  1.7450
  211MPD1    H2 3264   2.232   3.247  15.629  0.1713  0.2638 -0.4136
  211MPD1    H3 3265   2.135   3.142  15.827 -2.2603 -2.0155 -2.0934
  211MPD1     N 3266   1.823   3.464  15.865 -0.6047  0.0108 -0.2819
  211MPD1    H5 3267   1.773   3.528  15.804 -0.8161  0.2352  0.1259
  211MPD1    N1 3268   2.158   3.459  15.522 -0.0839 -0.0746 -0.2678
  211MPD1    H6 3269   2.255   3.437  15.504  0.3405  1.3503  0.2628
  211MPD1    H7 3270   2.151   3.561  15.515  1.6832  0.0847  0.5226
  212MPD1     C 3271   1.362   1.747  16.229  0.3163 -0.0846  0.6951
  212MPD1    C1 3272   1.267   1.819  16.289 -1.1077 -0.3158  0.3136
  212MPD1    C2 3273   1.216   1.778  16.416 -0.0019 -0.0321 -0.9133
  212MPD1    C3 3274   1.260   1.660  16.477  0.0918  0.1324  0.0912
  212MPD1    C4 3275   1.362   1.589  16.411  0.7467 -0.1208  0.5051
  212MPD1    C5 3276   1.409   1.638  16.289 -0.4009  0.6175 -0.1202
  212MPD1     H 3277   1.122   1.825  16.441  0.8381  1.1697  0.0136
  212MPD1    H1 3278   1.391   1.489  16.441 -0.9577 -1.2755 -1.7027
  212MPD1    H2 3279   1.407   1.776  16.134 -1.5287 -2.4430 -0.8947
  212MPD1    H3 3280   1.489   1.594  16.231 -0.7077 -2.2742  1.6678
  212MPD1     N 3281   1.216   1.607  16.597  0.1373  0.6000  0.0633
  212MPD1    H5 3282   1.255   1.516  16.620 -0.5030  0.0019 -1.2278
  212MPD1    N1 3283   1.197   1.916  16.218  0.4264  0.1066 -0.0446
  212MPD1    H6 3284   1.256   1.956  16.144  1.5994 -1.9002 -0.1953
  212MPD1    H7 3285   1.152   1.987  16.275 -0.1233  0.8629 -1.4132
  213MPD1     C 3286   3.893   2.362  15.870 -0.2908  0.0914 -0.3247
  213MPD1    C1 3287   3.868   2.234  15.823  0.2089 -0.2263 -0.1167
  213MPD1    C2 3288   3.800   2.226  15.698  0.0461 -0.0039 -0.6699
  213MPD1    C3 3289   3.801   2.331  15.606 -0.7096 -0.7568  0.5232
  213MPD1    C4 3290   3.857   2.450  15.647 -0.5969  0.5564  0.4428
  213MPD1    C5 3291   3.909   2.457  15.776  0.1754  0.2406 -0.0814
  213MPD1     H 3292   3.768   2.128  15.665  0.2489  0.3079 -1.8034
  213MPD1    H1 3293   3.852   2.537  15.582  0.6971  0.6177  0.4219
  213MPD1    H2 3294   3.924   2.374  15.974 -0.1398  0.6796 -0.4395
  213MPD1    H3 3295   3.957   2.549  15.808 -0.0776  0.4707 -0.3706
  213MPD1     N 3296   3.765   2.315  15.472 -0.6881  0.5907 -0.9001
  213MPD1    H5 3297   3.732   2.222  15.450  2.5064 -0.7201 -0.0791
  213MPD1    N1 3298   3.859   2.137  15.925  0.7772 -0.2459 -0.4352
  213MPD1    H6 3299   3.945   2.148  15.978 -1.1642  0.1679  2.6772
  213MPD1    H7 3300   3.864   2.045  15.881  0.0070  1.3756 -3.8476
  214MPD1     C 3301   3.420   1.594  15.108 -0.4953 -0.0761 -0.1064
  214MPD1    C1 3302   3.564   1.612  15.097 -0.9827 -0.3816 -0.2369
  214MPD1    C2 3303   3.606   1.744  15.108 -0.2326 -0.2591  0.2566
  214MPD1    C3 3304   3.515   1.850  15.139  0.5502  0.3536  0.4213
  214MPD1    C4 3305   3.384   1.825  15.157  0.2305 -0.3772 -0.5139
  214MPD1    C5 3306   3.338   1.698  15.136  0.2250  0.5969 -0.3065
  214MPD1     H 3307   3.713   1.761  15.098 -0.3034 -0.0595 -0.1440
  214MPD1    H1 3308   3.308   1.900  15.178  1.2274  0.1613  1.1165
  214MPD1    H2 3309   3.380   1.494  15.097 -0.2712 -0.1202 -0.5121
  214MPD1    H3 3310   3.230   1.696  15.127  0.1196 -0.0962  1.0114
  214MPD1     N 3311   3.566   1.986  15.149 -0.2029 -0.5775 -0.0454
  214MPD1    H5 3312   3.499   2.057  15.175  0.3419 -0.3968  0.8423
  214MPD1    N1 3313   3.638   1.512  15.033 -0.1071 -0.2911  0.1857
  214MPD1    H6 3314   3.599   1.419  15.049  1.5431 -0.6954  1.9176
  214MPD1    H7 3315   3.739   1.507  15.044 -0.2137 -3.4129 -0.1791
  215MPD1     C 3316   4.095   3.755  10.285  0.1056 -0.4087  0.2940
  215MPD1    C1 3317   3.959   3.781  10.288 -0.4480  0.0659 -0.4669
  215MPD1    C2 3318   3.893   3.774  10.407 -0.2784 -0.4131  0.6695
  215MPD1    C3 3319   3.965   3.762  10.529  0.3746 -0.2728 -0.4025
  215MPD1    C4 3320   4.105   3.764  10.522 -0.8520  0.8649  0.0135
  215MPD1    C5 3321   4.168   3.754  10.397 -0.6708  0.1360  0.2814
  215MPD1     H 3322   3.786   3.786  10.411 -0.5676 -3.6112  2.8547
  215MPD1    H1 3323   4.173   3.768  10.606 -1.5829 -2.7479  0.8146
  215MPD1    H2 3324   4.148   3.739  10.192  0.0197  3.2220 -0.3697
  215MPD1    H3 3325   4.276   3.753  10.396 -0.6915 -1.8086  0.2739
  215MPD1     N 3326   3.900   3.772  10.658  0.3782 -0.6272  0.0984
  215MPD1    H5 3327   3.799   3.786  10.652  0.4464  0.4201  1.2592
  215MPD1    N1 3328   3.885   3.771  10.172 -0.0050  1.0769 -0.0421
  215MPD1    H6 3329   3.940   3.797  10.090  0.4886  1.8834  0.5391
  215MPD1    H7 3330   3.803   3.830  10.181  0.4755  1.3733  2.3306
  216MPD1     C 3331   1.415   0.917  16.223  0.0574  0.0735  0.1671
  216MPD1    C1 3332   1.486   0.969  16.329  0.4378  0.4636 -0.4565
  216MPD1    C2 3333   1.477   0.902  16.450  0.6203 -0.3567  0.1815
  216MPD1    C3 3334   1.408   0.785  16.461 -0.1199 -0.1609  0.5994
  216MPD1    C4 3335   1.355   0.726  16.344  0.2327  0.2338 -0.3511
  216MPD1    C5 3336   1.353   0.797  16.229  0.2718  0.1367  0.3191
  216MPD1     H 3337   1.520   0.944  16.541 -0.6032  1.5976 -0.1494
  216MPD1    H1 3338   1.313   0.627  16.350  1.6636 -0.3417  0.2434
  216MPD1    H2 3339   1.401   0.974  16.132 -1.0164 -1.4308 -0.6164
  216MPD1    H3 3340   1.322   0.759  16.132 -1.4000  2.1047  0.0649
  216MPD1     N 3341   1.417   0.711  16.589 -0.8641 -0.3471 -0.2323
  216MPD1    H5 3342   1.471   0.756  16.663 -1.2750  2.4512 -1.6413
  216MPD1    N1 3343   1.550   1.097  16.316 -0.1266 -0.0677  0.0514
  216MPD1    H6 3344   1.632   1.095  16.377  0.7430  1.7374 -1.0428
  216MPD1    H7 3345   1.577   1.113  16.219 -1.0923  0.3665 -0.1375
  217MPD1     C 3346   1.790   4.091   8.498 -0.7907 -0.1344 -0.1241
  217MPD1    C1 3347   1.794   3.955   8.478  0.7595  0.2616 -0.4107
  217MPD1    C2 3348   1.828   3.869   8.588 -0.3982  0.4067 -0.3818
  217MPD1    C3 3349   1.851   3.910   8.716 -0.0182  1.0438 -0.2426
  217MPD1    C4 3350   1.860   4.050   8.726  0.5156 -0.5025 -0.3134
  217MPD1    C5 3351   1.828   4.136   8.622  0.3090 -0.3724  0.0494
  217MPD1     H 3352   1.836   3.762   8.572 -0.6173  0.4211 -0.5821
  217MPD1    H1 3353   1.882   4.099   8.820  0.3092 -0.5455 -0.2418
  217MPD1    H2 3354   1.763   4.169   8.428 -0.2262  0.8113  0.7269
  217MPD1    H3 3355   1.833   4.244   8.635 -1.7656 -0.3477  0.6858
  217MPD1     N 3356   1.882   3.830   8.831 -0.1591  0.0108  0.4076
  217MPD1    H5 3357   1.906   3.882   8.915  1.0904  1.7191 -1.0016
  217MPD1    N1 3358   1.732   3.911   8.362  0.0787 -0.4331  0.1692
  217MPD1    H6 3359   1.758   3.976   8.289 -0.6600 -2.2768 -1.7377
  217MPD1    H7 3360   1.779   3.824   8.336 -0.0999 -0.2798 -0.6537
  218MPD1     C 3361   2.911   3.352  13.696 -0.3163  0.5882 -0.3269
  218MPD1    C1 3362   2.848   3.430  13.598  0.2722 -0.6475  0.8113
  218MPD1    C2 3363   2.929   3.473  13.491  0.0130 -0.4627  0.2581
  218MPD1    C3 3364   3.065   3.494  13.501 -0.1881 -0.2808 -0.3510
  218MPD1    C4 3365   3.124   3.428  13.611  0.8366 -0.5053  0.0166
  218MPD1    C5 3366   3.046   3.355  13.700  0.0897 -0.5168  0.0870
  218MPD1     H 3367   2.893   3.519  13.400  0.1280 -0.7421  0.0750
  218MPD1    H1 3368   3.231   3.422  13.623  1.1458 -1.5183 -3.3262
  218MPD1    H2 3369   2.864   3.306  13.782  0.3325 -0.1953 -0.3920
  218MPD1    H3 3370   3.094   3.297  13.778  1.2045 -0.7022 -0.7379
  218MPD1     N 3371   3.141   3.564  13.406 -0.2708  0.0442 -0.3183
  218MPD1    H5 3372   3.095   3.624  13.339 -1.2165  0.3548  0.6120
  218MPD1    N1 3373   2.707   3.432  13.595 -0.1458 -0.3393 -0.7105
  218MPD1    H6 3374   2.672   3.518  13.552 -0.6265  0.4253  1.2019
  218MPD1    H7 3375   2.653   3.424  13.681  1.2264 -2.1758 -0.0252
  219MPD1     C 3376   2.730   3.814  12.783 -0.6579 -0.1387  0.0164
  219MPD1    C1 3377   2.813   3.700  12.761  0.6612 -0.2040  0.1466
  219MPD1    C2 3378   2.936   3.704  12.819 -0.5889  0.0696 -0.2735
  219MPD1    C3 3379   2.975   3.803  12.912 -0.4311  0.0938  0.2740
  219MPD1    C4 3380   2.896   3.910  12.927  0.2602  0.4628  0.4731
  219MPD1    C5 3381   2.764   3.908  12.875 -0.1717 -0.7161 -0.1834
  219MPD1     H 3382   2.989   3.613  12.791 -0.3235  0.0092  0.4015
  219MPD1    H1 3383   2.932   3.998  12.979 -0.5089  0.3739  1.1611
  219MPD1    H2 3384   2.626   3.809  12.751 -0.1899 -0.1560 -1.4645
  219MPD1    H3 3385   2.696   3.991  12.890  1.5921  0.7536 -0.4000
  219MPD1     N 3386   3.092   3.798  12.993 -0.0577 -0.3507  0.4528
  219MPD1    H5 3387   3.106   3.863  13.070  0.2229 -3.3126  2.8958
  219MPD1    N1 3388   2.781   3.611  12.661  0.6246  0.2602  0.2305
  219MPD1    H6 3389   2.682   3.607  12.637  0.7973 -1.0111 -0.2609
  219MPD1    H7 3390   2.810   3.514  12.670 -1.6894 -0.6710 -2.1867
  220MPD1     C 3391   3.461   4.371   9.805  0.3957 -1.0027  0.0205
  220MPD1    C1 3392   3.350   4.450   9.812 -0.0986  0.0886 -0.1339
  220MPD1    C2 3393   3.258   4.430   9.907 -0.6453  0.6590  0.4401
  220MPD1    C3 3394   3.279   4.339  10.012 -0.1621 -0.2258 -0.4388
  220MPD1    C4 3395   3.399   4.265  10.004 -0.1545 -0.8294 -0.0260
  220MPD1    C5 3396   3.483   4.273   9.896 -0.4901 -0.8131 -0.4050
  220MPD1     H 3397   3.164   4.483   9.918 -0.7887  0.3192  0.8570
  220MPD1    H1 3398   3.417   4.185  10.074 -1.3047 -1.4905 -0.4897
  220MPD1    H2 3399   3.528   4.386   9.721 -3.2937  1.9117 -2.4285
  220MPD1    H3 3400   3.572   4.213   9.885  1.0735  1.4306  0.0464
  220MPD1     N 3401   3.184   4.335  10.112  0.2682  0.4062 -0.4354
  220MPD1    H5 3402   3.116   4.411  10.113 -0.3473 -0.1576  0.5439
  220MPD1    N1 3403   3.320   4.526   9.693  0.6931  0.3401  0.4082
  220MPD1    H6 3404   3.256   4.600   9.720  0.2321 -1.1317  3.3482
  220MPD1    H7 3405   3.401   4.557   9.640  0.5007  1.8612  1.0038
  221MPD1     C 3406   1.257   3.039  16.503 -0.3411 -0.0340 -0.5004
  221MPD1    C1 3407   1.255   2.910  16.454  0.3029 -0.0448 -0.0603
  221MPD1    C2 3408   1.373   2.851  16.408 -0.2698  0.2068 -0.3827
  221MPD1    C3 3409   1.488   2.920  16.432  0.0923 -0.1847  0.8099
  221MPD1    C4 3410   1.491   3.048  16.488 -0.3623 -0.2356  0.3131
  221MPD1    C5 3411   1.375   3.109  16.524  0.2743  0.4356 -0.7848
  221MPD1     H 3412   1.362   2.754  16.361  0.4355 -0.7772  1.4764
  221MPD1    H1 3413   1.584   3.098  16.514 -0.3201 -0.8823  1.3860
  221MPD1    H2 3414   1.170   3.088  16.545 -0.5551  0.8813 -2.0012
  221MPD1    H3 3415   1.372   3.202  16.579 -2.5986 -0.2298  0.1535
  221MPD1     N 3416   1.614   2.854  16.410 -0.3318 -0.1590 -0.5242
  221MPD1    H5 3417   1.697   2.907  16.435 -0.0158 -1.7029  1.6215
  221MPD1    N1 3418   1.126   2.848  16.445  0.2320 -0.3971 -0.2086
  221MPD1    H6 3419   1.129   2.747  16.447 -0.0506 -0.4227 -0.9099
  221MPD1    H7 3420   1.057   2.887  16.508  1.2170  0.9513  0.0379
  222MPD1     C 3421   0.616   1.485  17.518 -0.1006 -0.4927  1.1851
  222MPD1    C1 3422   0.720   1.567  17.479  0.0627  0.0406  0.2836
  222MPD1    C2 3423   0.726   1.690  17.540 -0.5672 -0.0097  0.2043
  222MPD1    C3 3424   0.624   1.742  17.628 -0.0924 -0.3964  0.0911
  222MPD1    C4 3425   0.520   1.656  17.653 -1.1764 -0.2837 -0.0945
  222MPD1    C5 3426   0.517   1.530  17.600  0.2862 -0.6360 -0.4231
  222MPD1     H 3427   0.807   1.758  17.514 -0.8333  0.2053 -0.0553
  222MPD1    H1 3428   0.451   1.693  17.728  0.4625 -0.7137  1.6225
  222MPD1    H2 3429   0.613   1.382  17.485 -1.0420  0.8134 -2.7526
  222MPD1    H3 3430   0.446   1.456  17.635  0.6084 -0.9211 -0.3819
  222MPD1     N 3431   0.624   1.873  17.691 -0.3402  1.1191  0.7770
  222MPD1    H5 3432   0.545   1.894  17.752 -0.7756 -0.3910  0.7508
  222MPD1    N1 3433   0.830   1.516  17.410  0.3921 -0.2163 -0.0122
  222MPD1    H6 3434   0.885   1.587  17.362 -0.2049 -0.7317 -1.4616
  222MPD1    H7 3435   0.803   1.439  17.349  3.3618 -0.6130 -0.8056
  223MPD1     C 3436   0.081   2.565   0.391 -0.6109 -0.4318  0.0075
  223MPD1    C1 3437   0.167   2.632   0.304  0.2669  0.1460 -0.0256
  223MPD1    C2 3438   0.261   2.562   0.245 -0.0676 -0.1462 -0.1924
  223MPD1    C3 3439   0.286   2.432   0.277  0.0928  0.1470 -0.5664
  223MPD1    C4 3440   0.204   2.373   0.374 -0.2023  0.8281  0.4643
  223MPD1    C5 3441   0.100   2.437   0.431  0.1725  0.2902  0.9741
  223MPD1     H 3442   0.319   2.600   0.161  1.0979 -1.0125  0.2228
  223MPD1    H1 3443   0.212   2.268   0.402 -1.9266  1.0309  1.7570
  223MPD1    H2 3444   4.732   2.608   0.437  0.1038  1.6686 -0.6222
  223MPD1    H3 3445   0.022   2.389   0.489  0.7713 -2.8694 -0.8852
  223MPD1     N 3446   0.394   2.367   0.208 -0.1719 -0.0829 -0.4184
  223MPD1    H5 3447   0.439   2.427   0.139 -1.5394  1.0274 -0.3343
  223MPD1    N1 3448   0.130   2.757   0.249  0.6207 -0.5962 -0.3928
  223MPD1    H6 3449   0.072   2.815   0.310 -1.5126 -0.7155 -2.2871
  223MPD1    H7 3450   0.212   2.816   0.232 -1.6797  2.8250  0.3647
  224MPD1     C 3451   2.859   4.489   9.299  0.1172 -0.4435  0.4382
  224MPD1    C1 3452   2.940   4.378   9.313 -0.3866  0.2247  0.2145
  224MPD1    C2 3453   2.914   4.278   9.411  0.4805 -0.2798 -0.0767
  224MPD1    C3 3454   2.796   4.283   9.474 -0.0504 -0.1954  0.0002
  224MPD1    C4 3455   2.711   4.396   9.468 -0.3078 -0.0241  0.4424
  224MPD1    C5 3456   2.750   4.496   9.377 -1.2610 -0.1237 -0.3778
  224MPD1     H 3457   2.984   4.196   9.421 -1.7335 -1.9079  1.8624
  224MPD1    H1 3458   2.626   4.407   9.533 -1.9013  1.9193 -1.9695
  224MPD1    H2 3459   2.877   4.570   9.229  1.2511 -0.7827  0.3397
  224MPD1    H3 3460   2.691   4.587   9.379  0.9575  1.3136  0.1100
  224MPD1     N 3461   2.753   4.180   9.561  0.1428  0.1530 -0.6812
  224MPD1    H5 3462   2.675   4.200   9.623  1.6551 -2.9546  2.2391
  224MPD1    N1 3463   3.037   4.349   9.219 -0.2807 -0.1676  0.2033
  224MPD1    H6 3464   3.085   4.429   9.177  1.2696 -1.3476 -0.3092
  224MPD1    H7 3465   3.111   4.286   9.250 -0.3364 -0.9394 -1.1925
  225MPD1     C 3466   3.820   4.720  12.532  0.4424 -0.7713  0.5838
  225MPD1    C1 3467   3.733   0.016  12.636  0.2150  0.0553  0.5497
  225MPD1    C2 3468   3.604   4.713  12.622  0.6328  0.9210  0.4521
  225MPD1    C3 3469   3.556   4.654  12.508 -0.1477 -0.0545 -0.2271
  225MPD1    C4 3470   3.643   4.636  12.402  0.2996 -0.0127  0.4774
  225MPD1    C5 3471   3.770   4.673  12.417  0.5269 -0.1071  0.3115
  225MPD1     H 3472   3.541   4.735  12.707  0.5929  3.1727 -0.1411
  225MPD1    H1 3473   3.612   4.595  12.307  0.6562  0.7812  0.0214
  225MPD1    H2 3474   3.927   4.729  12.543  0.2575  0.0880  1.7337
  225MPD1    H3 3475   3.834   4.661  12.330 -0.2993 -0.5546 -0.2275
  225MPD1     N 3476   3.416   4.626  12.486 -0.1884 -0.3989  0.4105
  225MPD1    H5 3477   3.400   4.574  12.400  2.2160 -0.7804  0.1819
  225MPD1    N1 3478   3.787   0.056  12.760 -1.0350  0.3140  0.8345
  225MPD1    H6 3479   3.713   0.113  12.801  0.6854  1.9046  1.7221
  225MPD1    H7 3480   3.866   0.117  12.744  0.4290 -1.5051  1.1562
  226MPD1     C 3481   2.791   0.890  10.041  0.1996  0.0786  0.5373
  226MPD1    C1 3482   2.650   0.912  10.048 -0.3826 -0.3599 -0.0754
  226MPD1    C2 3483   2.564   0.820  10.002  0.3404  0.0245 -0.1238
  226MPD1    C3 3484   2.616   0.698   9.962 -0.6314 -0.4001 -0.2333
  226MPD1    C4 3485   2.747   0.668   9.978  0.8367 -0.1016 -0.4638
  226MPD1    C5 3486   2.836   0.764  10.004  0.0797 -0.2116 -0.5152
  226MPD1     H 3487   2.456   0.830   9.991  0.2751  1.2860  1.5512
  226MPD1    H1 3488   2.784   0.574   9.940  2.2259 -0.1585  1.0022
  226MPD1    H2 3489   2.863   0.969  10.053  0.3522 -0.2723  1.9539
  226MPD1    H3 3490   2.941   0.738   9.994  0.3098  0.7239 -0.5344
  226MPD1     N 3491   2.523   0.599   9.919  0.5747 -0.1019 -0.3243
  226MPD1    H5 3492   2.426   0.623   9.902 -0.3358 -2.8156  1.0231
  226MPD1    N1 3493   2.601   1.036  10.088  0.3219 -0.1296  0.3198
  226MPD1    H6 3494   2.507   1.033  10.127  0.9416 -0.9086  1.7537
  226MPD1    H7 3495   2.661   1.091  10.148  0.8379  0.3891 -0.6837
  227MPD1     C 3496   2.125   0.345   9.045 -0.0095 -1.1724 -0.2504
  227MPD1    C1 3497   2.148   0.220   9.090 -0.9602  0.4386  0.4034
  227MPD1    C2 3498   2.172   0.217   9.227  0.1607 -0.1538 -0.0377
  227MPD1    C3 3499   2.197   0.335   9.304  0.2089  0.4527 -0.0329
  227MPD1    C4 3500   2.183   0.454   9.251 -0.1740 -0.3640  0.4894
  227MPD1    C5 3501   2.149   0.456   9.122  0.2495  0.0450 -0.5561
  227MPD1     H 3502   2.177   0.121   9.278 -0.9776 -0.0879  0.2072
  227MPD1    H1 3503   2.191   0.546   9.308  0.6741 -1.9165  2.8900
  227MPD1    H2 3504   2.100   0.369   8.943 -2.9078  0.3826  0.8299
  227MPD1    H3 3505   2.125   0.554   9.084  2.2622  0.9507  0.5080
  227MPD1     N 3506   2.227   0.314   9.441 -0.4957  0.8547  0.2777
  227MPD1    H5 3507   2.235   0.218   9.473 -0.4836  0.4874 -0.8160
  227MPD1    N1 3508   2.113   0.102   9.015 -0.0517  0.4968 -0.9203
  227MPD1    H6 3509   2.114   0.119   8.915 -0.2238  3.0542 -0.4700
  227MPD1    H7 3510   2.142   0.009   9.046  2.3980  1.2497 -0.9294
  228MPD1     C 3511   0.204   2.949  13.535  0.4139 -0.4947  0.0248
  228MPD1    C1 3512   0.083   2.899  13.576 -0.3134 -0.0361 -0.1298
  228MPD1    C2 3513   0.042   2.777  13.529  0.3487 -0.4145 -0.4365
  228MPD1    C3 3514   0.124   2.682  13.462  0.9949  0.0290  0.0163
  228MPD1    C4 3515   0.243   2.737  13.421  0.9052 -0.8145  0.0953
  228MPD1    C5 3516   0.279   2.864  13.455  0.7759 -0.6612 -0.1599
  228MPD1     H 3517   4.680   2.739  13.543  0.1992 -0.4351 -1.5103
  228MPD1    H1 3518   0.315   2.691  13.355  2.1970  0.2573  0.7388
  228MPD1    H2 3519   0.240   3.049  13.554  1.7890 -0.9655 -0.1319
  228MPD1    H3 3520   0.376   2.903  13.428  0.1536  0.8558 -0.1850
  228MPD1     N 3521   0.079   2.560  13.411 -0.8519  0.4439  0.2811
  228MPD1    H5 3522   4.727   2.528  13.441 -0.6596 -1.6080 -1.2571
  228MPD1    N1 3523   4.729   2.987  13.629  0.0563  0.2195 -0.1632
  228MPD1    H6 3524   4.656   2.947  13.687 -1.0143  1.5886 -0.5832
  228MPD1    H7 3525   0.028   3.059  13.690 -0.5472  0.2945  0.1206
  229MPD1     C 3526   4.696   1.368  14.863  0.7241 -0.0394  0.5839
  229MPD1    C1 3527   4.597   1.345  14.962  0.5121  0.7212 -0.1589
  229MPD1    C2 3528   4.598   1.227  15.032 -0.1005 -0.0901 -0.0435
  229MPD1    C3 3529   4.710   1.147  15.024  0.1124  0.1426 -0.1409
  229MPD1    C4 3530   0.067   1.169  14.932 -0.2642 -0.4914  0.1201
  229MPD1    C5 3531   0.069   1.282  14.852 -0.6428 -0.1376 -0.2041
  229MPD1     H 3532   4.522   1.199  15.104 -0.7822 -1.6820 -1.3703
  229MPD1    H1 3533   0.155   1.105  14.933 -0.4028 -0.6480  2.1081
  229MPD1    H2 3534   4.697   1.458  14.802 -0.3270 -0.3235  0.1493
  229MPD1    H3 3535   0.151   1.304  14.784 -2.1577  0.7230 -1.7540
  229MPD1     N 3536   4.726   1.027  15.100 -0.1354  0.2982  0.0951
  229MPD1    H5 3537   0.061   0.965  15.070 -0.9296 -1.1677  1.1426
  229MPD1    N1 3538   4.487   1.430  14.960 -0.2491  0.5109 -0.4027
  229MPD1    H6 3539   4.430   1.443  15.043  0.6632 -0.4755  0.3680
  229MPD1    H7 3540   4.527   1.519  14.932  1.5301  0.0646  0.7233
  230MPD1     C 3541   4.692   0.922  16.119  0.0863 -0.1868 -0.4899
  230MPD1    C1 3542   4.593   0.984  16.047  0.5092 -0.9135  0.1505
  230MPD1    C2 3543   4.579   0.955  15.914 -0.2082 -0.8071  0.1481
  230MPD1    C3 3544   4.671   0.879  15.843 -0.0022  0.4509  0.2296
  230MPD1    C4 3545   0.035   0.827  15.917  0.0273 -0.0882 -0.6147
  230MPD1    C5 3546   0.040   0.842  16.053  0.6245 -0.3594 -0.3278
  230MPD1     H 3547   4.495   0.997  15.860 -0.3469 -1.9190 -0.5103
  230MPD1    H1 3548   0.119   0.764  15.888 -0.2059 -0.0676 -1.3370
  230MPD1    H2 3549   4.697   0.927  16.228 -0.2903  0.5091 -0.5058
  230MPD1    H3 3550   0.118   0.789  16.106  1.4165  2.7007  1.5016
  230MPD1     N 3551   4.661   0.862  15.705 -0.0804 -0.1476  0.0829
  230MPD1    H5 3552   4.590   0.920  15.661 -0.3683 -1.7481 -1.5753
  230MPD1    N1 3553   4.486   1.037  16.111  0.8240  0.8924  0.1929
  230MPD1    H6 3554   4.437   1.106  16.055 -0.4372  0.4736  0.7859
  230MPD1    H7 3555   4.511   1.090  16.195 -0.5055 -1.1481  1.8736
  231MPD1     C 3556   2.877   2.715  15.471  0.2500 -0.1078  0.0308
  231MPD1    C1 3557   2.866   2.731  15.330 -0.4176 -0.1621  0.1383
  231MPD1    C2 3558   2.989   2.715  15.259 -0.3739  0.2812  0.1202
  231MPD1    C3 3559   3.116   2.716  15.317 -0.2887 -0.6253 -0.6247
  231MPD1    C4 3560   3.122   2.715  15.457  0.2131 -0.6882 -0.8779
  231MPD1    C5 3561   3.003   2.704  15.530 -0.0067  0.5670 -0.2806
  231MPD1     H 3562   2.984   2.704  15.152 -2.4594  0.9655  0.1338
  231MPD1    H1 3563   3.215   2.718  15.514  0.0653 -0.6978 -0.6383
  231MPD1    H2 3564   2.783   2.706  15.524 -0.5437  2.4921 -0.9113
  231MPD1    H3 3565   3.006   2.689  15.638  0.3779 -0.5124 -0.4398
  231MPD1     N 3566   3.223   2.735  15.236 -0.2328  0.6117 -0.1168
  231MPD1    H5 3567   3.211   2.737  15.135  2.0259  0.8377 -0.3931
  231MPD1    N1 3568   2.747   2.718  15.257  0.7497  0.0097  0.4771
  231MPD1    H6 3569   2.659   2.749  15.299  1.2706  0.4197  1.2595
  231MPD1    H7 3570   2.750   2.741  15.158  0.0385 -0.7400  0.2772
  232MPD1     C 3571   0.367   0.216  17.498 -0.3479  0.1195 -0.0454
  232MPD1    C1 3572   0.238   0.264  17.495  1.1933 -0.3062 -0.0087
  232MPD1    C2 3573   0.147   0.180  17.557 -0.2459 -0.7239  0.3965
  232MPD1    C3 3574   0.176   0.063  17.625  0.5308 -0.0410 -0.1682
  232MPD1    C4 3575   0.310   0.027  17.630 -0.0802  0.2834  0.4311
  232MPD1    C5 3576   0.401   0.104  17.563 -0.4867 -0.2164 -0.1661
  232MPD1     H 3577   0.049   0.226  17.563  0.0487 -0.1029  0.5239
  232MPD1    H1 3578   0.341   4.677  17.684  1.3256 -0.6728 -1.9724
  232MPD1    H2 3579   0.448   0.263  17.444 -1.4520 -0.8788 -2.5702
  232MPD1    H3 3580   0.506   0.079  17.562 -1.1717 -3.1134  0.5370
  232MPD1     N 3581   0.072   4.727  17.684 -0.5693 -0.3804 -0.0505
  232MPD1    H5 3582   4.713   0.005  17.665 -0.0459  2.7207  0.0785
  232MPD1    N1 3583   0.205   0.366  17.402 -0.5284  0.4396 -0.3608
  232MPD1    H6 3584   0.127   0.428  17.423 -1.6207 -1.5193  1.3926
  232MPD1    H7 3585   0.288   0.424  17.392  0.4799 -1.4120 -2.8798
  233MPD1     C 3586   1.749   4.274   0.206 -1.1680 -0.0435 -0.0222
  233MPD1    C1 3587   1.840   4.331   0.291 -0.1723 -0.3967  0.3740
  233MPD1    C2 3588   1.881   4.264   0.400  0.9049 -0.1668  0.6657
  233MPD1    C3 3589   1.838   4.132   0.422 -0.8903 -0.4735  0.4957
  233MPD1    C4 3590   1.760   4.075   0.323 -0.4471 -0.1370  0.2355
  233MPD1    C5 3591   1.711   4.145   0.219 -0.3411  0.0881 -0.2873
  233MPD1     H 3592   1.939   4.321   0.472 -1.8104  1.9129  1.2148
  233MPD1    H1 3593   1.729   3.972   0.329 -0.3232 -0.4064 -3.8925
  233MPD1    H2 3594   1.705   4.322   0.119  1.2178  0.4721 -0.9200
  233MPD1    H3 3595   1.640   4.103   0.149  2.3772 -2.4073 -1.5456
  233MPD1     N 3596   1.866   4.048   0.533  0.0029  0.2159 -0.5758
  233MPD1    H5 3597   1.834   3.952   0.526 -0.1413  0.1049  1.5580
  233MPD1    N1 3598   1.847   4.464   0.283  0.3980  0.2715  0.3386
  233MPD1    H6 3599   1.921   4.504   0.340 -0.5808 -0.4255  2.0709
  233MPD1    H7 3600   1.876   4.495   0.190 -0.7476 -1.3424 -0.5556
  234MPD1     C 3601   2.671   2.135   9.662 -0.6793  0.1319 -0.7425
  234MPD1    C1 3602   2.680   2.217   9.768  0.4340 -0.2615 -0.1096
  234MPD1    C2 3603   2.683   2.353   9.741 -0.1889 -0.0495  0.1334
  234MPD1    C3 3604   2.680   2.392   9.613 -0.2580 -0.2052  1.0537
  234MPD1    C4 3605   2.675   2.308   9.505  1.0089 -0.1134 -0.0337
  234MPD1    C5 3606   2.663   2.175   9.539 -0.3807 -0.3155 -0.2538
  234MPD1     H 3607   2.702   2.422   9.823 -1.9362  0.4820  0.0786
  234MPD1    H1 3608   2.676   2.342   9.402 -0.3342  2.3210  0.7652
  234MPD1    H2 3609   2.692   2.029   9.674 -3.0761 -0.5489 -2.4302
  234MPD1    H3 3610   2.674   2.095   9.466 -0.6106 -0.8543  0.3108
  234MPD1     N 3611   2.684   2.531   9.579  0.5631  0.0552 -0.7536
  234MPD1    H5 3612   2.685   2.600   9.653  1.3650 -1.1359  0.3430
  234MPD1    N1 3613   2.708   2.171   9.896 -0.0129  0.5951 -0.1976
  234MPD1    H6 3614   2.645   2.096   9.924  2.2879 -1.3871 -0.4175
  234MPD1    H7 3615   2.710   2.239   9.972  1.0635  1.1821 -0.7513
  235MPD1     C 3616   4.291   4.646  10.944  0.0107 -0.0727 -0.4559
  235MPD1    C1 3617   4.256   4.618  10.816 -0.1042 -0.0640  0.8942
  235MPD1    C2 3618   4.258   4.724  10.727 -0.0849 -0.4339  0.4235
  235MPD1    C3 3619   4.295   0.112  10.760 -0.0481  0.9174 -0.5838
  235MPD1    C4 3620   4.331   0.139  10.887 -0.1076  0.2685 -0.3125
  235MPD1    C5 3621   4.325   0.034  10.976 -0.2526  0.1124 -0.7474
  235MPD1     H 3622   4.228   4.703  10.625 -1.8552  0.9631  0.6597
  235MPD1    H1 3623   4.355   0.241  10.913  3.4303 -0.3669 -1.0896
  235MPD1    H2 3624   4.289   4.567  11.018 -2.3599 -0.8761 -1.3924
  235MPD1    H3 3625   4.363   0.060  11.074 -2.1101  0.3095 -0.0711
  235MPD1     N 3626   4.287   0.204  10.653  0.1669  0.1030 -0.2712
  235MPD1    H5 3627   4.242   0.167  10.570  1.0513 -0.9679 -0.2722
  235MPD1    N1 3628   4.229   4.483  10.777 -0.6481 -0.2636 -0.4796
  235MPD1    H6 3629   4.155   4.482  10.707 -0.0108  2.1022 -1.2070
  235MPD1    H7 3630   4.191   4.434  10.858 -1.2268 -0.2651 -0.7497
  236MPD1     C 3631   2.918   2.109  10.212  0.2312 -0.0332 -0.3292
  236MPD1    C1 3632   3.011   2.162  10.294 -0.3521  0.2740 -0.1111
  236MPD1    C2 3633   3.111   2.075  10.344  0.0187 -1.2918 -0.2069
  236MPD1    C3 3634   3.127   1.945  10.296 -0.2564  0.3996  0.0881
  236MPD1    C4 3635   3.033   1.895  10.208 -0.4239 -0.2141 -0.3787
  236MPD1    C5 3636   2.933   1.977  10.166  0.1558  0.3274  0.1896
  236MPD1     H 3637   3.184   2.114  10.415  0.9805 -1.9996 -0.7998
  236MPD1    H1 3638   3.046   1.792  10.177 -0.3722 -0.4573  0.4639
  236MPD1    H2 3639   2.835   2.169  10.174 -0.1830 -1.5846 -1.9132
  236MPD1    H3 3640   2.859   1.937  10.097  0.6240 -2.4916  1.3171
  236MPD1     N 3641   3.223   1.854  10.352 -0.4837  0.0961 -0.6072
  236MPD1    H5 3642   3.204   1.757  10.330  2.3733 -0.3288 -1.1903
  236MPD1    N1 3643   2.981   2.285  10.356  0.2750 -0.8296 -0.3437
  236MPD1    H6 3644   3.059   2.331  10.402 -1.4991  0.7432  1.0972
  236MPD1    H7 3645   2.921   2.350  10.306 -0.0925 -0.8897  0.0123
  237MPD1     C 3646   2.479   3.611  15.889 -0.2514 -0.2721 -0.2374
  237MPD1    C1 3647   2.608   3.619  15.843  0.0067  0.7536  0.2688
  237MPD1    C2 3648   2.639   3.687  15.731  0.8320  0.2373  0.6178
  237MPD1    C3 3649   2.547   3.770  15.670 -0.1703 -0.1099  0.1052
  237MPD1    C4 3650   2.428   3.760  15.714  0.5965  0.4541 -0.9734
  237MPD1    C5 3651   2.393   3.695  15.828 -0.0926  1.0503 -0.3257
  237MPD1     H 3652   2.742   3.689  15.697  1.1431  1.7177  1.6404
  237MPD1    H1 3653   2.353   3.826  15.672 -1.2475 -1.0961 -0.1583
  237MPD1    H2 3654   2.450   3.564  15.982  0.7551  0.3478  0.3828
  237MPD1    H3 3655   2.291   3.702  15.863  0.0149  1.0898 -0.0134
  237MPD1     N 3656   2.569   3.846  15.548  0.0059  0.0978  0.3329
  237MPD1    H5 3657   2.501   3.912  15.514 -1.3655  0.2697  3.4066
  237MPD1    N1 3658   2.710   3.538  15.909 -0.2037  0.8669  0.2560
  237MPD1    H6 3659   2.796   3.592  15.921 -2.2468  4.6854 -2.1577
  237MPD1    H7 3660   2.675   3.503  15.998 -0.9387  0.1481 -0.3169
  238MPD1     C 3661   0.846   2.544  15.269  0.5345 -0.3121  0.1970
  238MPD1    C1 3662   0.779   2.422  15.274 -0.2745  0.8204  0.1688
  238MPD1    C2 3663   0.648   2.411  15.241 -1.1166 -0.3523 -0.4081
  238MPD1    C3 3664   0.576   2.519  15.198 -0.0618  0.6833  0.0440
  238MPD1    C4 3665   0.651   2.640  15.183  0.0232  0.1599  0.4011
  238MPD1    C5 3666   0.781   2.654  15.223 -1.5486  0.4623 -0.0923
  238MPD1     H 3667   0.600   2.315  15.258 -1.2813 -0.2637 -0.3776
  238MPD1    H1 3668   0.616   2.737  15.148 -3.4757 -1.3045 -0.1290
  238MPD1    H2 3669   0.945   2.562  15.309  1.3138 -2.6600 -0.6455
  238MPD1    H3 3670   0.826   2.751  15.205  0.2424 -0.6757 -1.6065
  238MPD1     N 3671   0.433   2.530  15.191  0.1183  0.0694  0.3081
  238MPD1    H5 3672   0.394   2.620  15.163 -0.2016 -0.0439  0.3948
  238MPD1    N1 3673   0.832   2.309  15.339 -0.3652  0.4408 -0.9574
  238MPD1    H6 3674   0.931   2.302  15.320 -0.2122  0.0132 -0.0039
  238MPD1    H7 3675   0.793   2.224  15.299  1.8521 -1.0859  0.1232
  239MPD1     C 3676   0.349   3.257  14.893 -0.4997 -0.5877  0.6852
  239MPD1    C1 3677   0.461   3.287  14.820  0.3472 -0.4831 -0.4327
  239MPD1    C2 3678   0.453   3.349  14.694  0.5228 -0.4626 -0.5289
  239MPD1    C3 3679   0.327   3.386  14.645  0.0480 -0.1110 -0.0907
  239MPD1    C4 3680   0.220   3.341  14.718  0.2826  0.7639 -0.1040
  239MPD1    C5 3681   0.229   3.288  14.839 -0.4814 -0.1973  0.0845
  239MPD1     H 3682   0.544   3.386  14.648  0.1772  1.1780  0.0783
  239MPD1    H1 3683   0.119   3.352  14.679  0.0325  0.2584  0.3972
  239MPD1    H2 3684   0.365   3.208  14.988  0.0741  1.2548  1.5384
  239MPD1    H3 3685   0.131   3.253  14.870  0.0029 -0.0210  1.8313
  239MPD1     N 3686   0.299   3.468  14.529 -0.1325 -0.3188  0.0571
  239MPD1    H5 3687   0.200   3.489  14.523 -0.0627  0.2815  0.9942
  239MPD1    N1 3688   0.589   3.274  14.874  0.0160  0.0861 -0.2902
  239MPD1    H6 3689   0.655   3.243  14.802  0.7759 -0.0515  0.4755
  239MPD1    H7 3690   0.589   3.214  14.956  1.5735  1.4114  0.6838
  240MPD1     C 3691   0.204   3.399  13.958  0.5729  0.7216 -0.1317
  240MPD1    C1 3692   0.071   3.421  13.928  0.0527 -0.2311 -0.9511
  240MPD1    C2 3693   4.718   3.387  14.020  1.2452  0.0128 -0.1080
  240MPD1    C3 3694   0.021   3.355  14.149 -0.5727 -0.2001  0.3377
  240MPD1    C4 3695   0.153   3.344  14.179 -0.5650  0.0255 -0.4101
  240MPD1    C5 3696   0.243   3.374  14.084 -0.5124  0.1488 -0.1841
  240MPD1     H 3697   4.616   3.362  13.992  2.0516  0.3308 -3.4037
  240MPD1    H1 3698   0.197   3.318  14.275 -0.6002  0.4620 -0.2730
  240MPD1    H2 3699   0.277   3.405  13.878  1.3214  0.3326  0.5247
  240MPD1    H3 3700   0.348   3.354  14.102 -0.6769 -0.0027  0.5953
  240MPD1     N 3701   4.662   3.310  14.247  0.6233  0.6735 -0.2104
  240MPD1    H5 3702   4.568   3.293  14.213  0.7952 -1.3121  0.3269
  240MPD1    N1 3703   0.036   3.438  13.792  0.1682  0.2156  0.2868
  240MPD1    H6 3704   4.690   3.494  13.781 -1.4291 -2.6273 -1.7367
  240MPD1    H7 3705   0.110   3.487  13.743  0.5980 -2.3641 -1.6166
  241MPD1     C 3706   4.539   2.892  15.270 -0.4306 -0.8616 -0.2149
  241MPD1    C1 3707   4.597   3.005  15.223 -0.3705 -0.4464 -1.0417
  241MPD1    C2 3708   4.594   3.023  15.089 -0.7185  0.2262  0.5266
  241MPD1    C3 3709   4.538   2.938  14.994 -0.3014  0.3174 -0.4039
  241MPD1    C4 3710   4.477   2.830  15.041 -0.4072  0.5390 -0.2702
  241MPD1    C5 3711   4.480   2.808  15.177  0.1055 -0.2165 -0.2892
  241MPD1     H 3712   4.660   3.100  15.048  0.0489 -1.5829 -1.6524
  241MPD1    H1 3713   4.431   2.760  14.972  0.0338  0.0371 -0.0597
  241MPD1    H2 3714   4.539   2.869  15.376 -0.3790 -0.1464 -0.0533
  241MPD1    H3 3715   4.425   2.720  15.208  1.8453 -0.6184  1.6839
  241MPD1     N 3716   4.536   2.965  14.852  0.1942 -0.6259  0.1696
  241MPD1    H5 3717   4.504   2.885  14.799 -0.3608 -0.1045 -0.2849
  241MPD1    N1 3718   4.676   3.086  15.302  0.7742  0.1032  0.2834
  241MPD1    H6 3719   4.671   3.180  15.264  1.9454 -0.0329 -0.2191
  241MPD1    H7 3720   4.655   3.080  15.401 -0.6715  3.3800  0.1853
  242MPD1     C 3721   4.130   1.637  16.386 -0.1449  0.1169 -0.2001
  242MPD1    C1 3722   4.035   1.558  16.332 -0.0977  0.4721 -0.6100
  242MPD1    C2 3723   4.037   1.529  16.196  0.2488 -0.3786 -0.1054
  242MPD1    C3 3724   4.125   1.600  16.116 -0.6371  0.1636  0.2809
  242MPD1    C4 3725   4.212   1.690  16.172  0.4341 -0.2971  0.2302
  242MPD1    C5 3726   4.216   1.711  16.309 -0.7796 -0.0716  0.3375
  242MPD1     H 3727   3.959   1.468  16.152 -0.8462  1.3595 -0.5767
  242MPD1    H1 3728   4.271   1.752  16.105  1.6318 -2.3494 -0.6040
  242MPD1    H2 3729   4.145   1.663  16.491 -0.7623 -2.9969  0.6688
  242MPD1    H3 3730   4.293   1.777  16.347  0.0091  0.0988 -1.5590
  242MPD1     N 3731   4.126   1.585  15.977  0.0329 -0.4184  0.6037
  242MPD1    H5 3732   4.195   1.641  15.927 -0.6200  1.7463  2.0857
  242MPD1    N1 3733   3.958   1.481  16.420  0.5651 -0.6893 -0.0601
  242MPD1    H6 3734   3.863   1.469  16.383 -0.4988  1.0172  2.1502
  242MPD1    H7 3735   3.950   1.525  16.511  2.9424 -0.6999  0.1439
  243MPD1     C 3736   1.108   4.375  17.059 -0.0186  0.5057 -0.4268
  243MPD1    C1 3737   1.183   4.271  17.008 -0.1929 -0.3490 -0.2631
  243MPD1    C2 3738   1.272   4.301  16.905 -0.4464 -0.2292  0.6492
  243MPD1    C3 3739   1.276   4.420  16.843  0.9386  0.2397  0.3461
  243MPD1    C4 3740   1.202   4.524  16.901  0.6491 -0.4602  0.2141
  243MPD1    C5 3741   1.122   4.503  17.010 -0.3412  0.3529  0.3314
  243MPD1     H 3742   1.345   4.232  16.866  1.4146  1.1762  1.6043
  243MPD1    H1 3743   1.216   4.622  16.857 -0.3561 -0.0612  0.7826
  243MPD1    H2 3744   1.050   4.348  17.147  1.2696  0.0229  0.2698
  243MPD1    H3 3745   1.068   4.588  17.049  1.1828  1.2351  0.5080
  243MPD1     N 3746   1.363   4.440  16.734  0.0188  0.0217  0.2337
  243MPD1    H5 3747   1.426   4.363  16.713  1.2233  0.9738  0.4116
  243MPD1    N1 3748   1.208   4.156  17.087 -0.1977 -0.4869 -0.1021
  243MPD1    H6 3749   1.143   4.144  17.165  1.6966  0.1739  1.5566
  243MPD1    H7 3750   1.223   4.068  17.039 -2.0413  1.2869 -3.8924
  244MPD1     C 3751   1.800   3.839  16.312  0.4977 -0.5864 -0.1433
  244MPD1    C1 3752   1.767   3.867  16.441  1.6301 -0.3952  0.2677
  244MPD1    C2 3753   1.689   3.979  16.466  0.6721 -0.2121 -0.2419
  244MPD1    C3 3754   1.650   4.066  16.366 -0.6542 -0.6632 -0.2092
  244MPD1    C4 3755   1.689   4.037  16.237  0.7291  0.5560  0.0937
  244MPD1    C5 3756   1.763   3.922  16.214  0.5424 -0.4386 -0.3749
  244MPD1     H 3757   1.669   3.996  16.571 -2.0502  2.8278 -1.2723
  244MPD1    H1 3758   1.656   4.096  16.153 -0.6379 -0.7049 -0.2610
  244MPD1    H2 3759   1.873   3.762  16.288  2.1888  0.4473  1.6875
  244MPD1    H3 3760   1.811   3.906  16.118 -0.8829  0.8107 -1.3045
  244MPD1     N 3761   1.591   4.188  16.397  0.1142  0.1794  0.3372
  244MPD1    H5 3762   1.561   4.196  16.493 -2.8367  0.9161 -0.6463
  244MPD1    N1 3763   1.836   3.801  16.546 -0.3106  0.2474  0.4457
  244MPD1    H6 3764   1.775   3.799  16.627 -0.1932 -0.1611  0.5244
  244MPD1    H7 3765   1.865   3.706  16.524  0.8329  0.8274 -0.5472
  245MPD1     C 3766   2.721   0.781  13.065 -0.1410 -0.0499  0.6312
  245MPD1    C1 3767   2.857   0.779  13.055 -0.2499  0.2070  0.5284
  245MPD1    C2 3768   2.939   0.864  13.132  0.3720  0.2875 -0.5331
  245MPD1    C3 3769   2.876   0.972  13.196 -0.0873  0.6124  0.6200
  245MPD1    C4 3770   2.738   0.975  13.199  0.0146 -0.2638 -1.0550
  245MPD1    C5 3771   2.664   0.877  13.136  0.2075  0.1439 -0.7766
  245MPD1     H 3772   3.046   0.853  13.135  0.2928 -0.1113  0.6397
  245MPD1    H1 3773   2.680   1.050  13.252  1.4932 -2.1313  3.2287
  245MPD1    H2 3774   2.655   0.711  13.015 -1.6338  0.8301  1.3839
  245MPD1    H3 3775   2.557   0.882  13.152  0.5007 -0.9381  1.5439
  245MPD1     N 3776   2.958   1.066  13.266 -0.4891 -0.2889 -0.0311
  245MPD1    H5 3777   3.058   1.046  13.262 -0.3504  0.3316  0.1947
  245MPD1    N1 3778   2.919   0.669  12.988  0.4372  0.0474 -0.1402
  245MPD1    H6 3779   2.845   0.623  12.936 -0.1351 -1.4251  1.9787
  245MPD1    H7 3780   2.991   0.700  12.924  0.3580  0.9375  0.2122
  246MPD1     C 3781   2.167   1.307  10.917  0.2372  0.4406  0.1508
  246MPD1    C1 3782   2.116   1.301  10.786 -0.3251 -0.1428 -0.2364
  246MPD1    C2 3783   2.182   1.219  10.699  0.3843 -0.5481 -0.5188
  246MPD1    C3 3784   2.290   1.131  10.745  0.1364 -0.8668 -1.0310
  246MPD1    C4 3785   2.324   1.136  10.879  0.4958  0.2335 -0.0929
  246MPD1    C5 3786   2.267   1.221  10.966 -0.2220  0.6730  0.0658
  246MPD1     H 3787   2.152   1.220  10.595 -1.5407  1.1703  0.0621
  246MPD1    H1 3788   2.378   1.057  10.928 -1.5002 -0.9046  0.2965
  246MPD1    H2 3789   2.115   1.362  10.995 -0.3024  0.3698 -0.1622
  246MPD1    H3 3790   2.305   1.243  11.065  0.1037  1.5305 -0.2490
  246MPD1     N 3791   2.364   1.056  10.650  0.7676  0.4711  0.2807
  246MPD1    H5 3792   2.332   1.057  10.553  0.1217  1.4589  0.5020
  246MPD1    N1 3793   2.023   1.394  10.743  0.5431  0.0885  0.1769
  246MPD1    H6 3794   1.958   1.352  10.678  0.4852 -1.4270  1.2201
  246MPD1    H7 3795   1.970   1.411  10.828  0.3733  1.7589 -0.2512
  247MPD1     C 3796   2.702   1.320  16.602  0.1929 -0.3764  0.0036
  247MPD1    C1 3797   2.716   1.252  16.722 -0.6030 -0.7612  0.7563
  247MPD1    C2 3798   2.709   1.114  16.709 -0.1902 -0.0282 -0.8141
  247MPD1    C3 3799   2.684   1.048  16.589  0.6176 -0.2875  0.7726
  247MPD1    C4 3800   2.656   1.121  16.476 -0.1310  0.6343  0.5781
  247MPD1    C5 3801   2.681   1.258  16.480 -0.2460  0.2289 -0.0692
  247MPD1     H 3802   2.714   1.054  16.800  0.8893  1.1689 -0.0885
  247MPD1    H1 3803   2.631   1.070  16.384  0.2766  1.0103  0.2629
  247MPD1    H2 3804   2.724   1.426  16.601  0.0792 -0.3413  0.8230
  247MPD1    H3 3805   2.680   1.317  16.389 -0.2631 -1.6504 -1.3034
  247MPD1     N 3806   2.660   0.905  16.581  0.1543  0.5499  1.1962
  247MPD1    H5 3807   2.624   0.880  16.489  2.1419 -0.9689  0.8208
  247MPD1    N1 3808   2.755   1.319  16.841  0.3080  0.0369 -0.3548
  247MPD1    H6 3809   2.729   1.272  16.928 -2.8400  0.8049 -0.8679
  247MPD1    H7 3810   2.711   1.410  16.851  0.6355  0.0176  1.2433
  248MPD1     C 3811   4.230   3.860   0.054  0.2080  0.7055 -1.1935
  248MPD1    C1 3812   4.196   3.818   0.177 -0.2780 -0.5587 -0.2160
  248MPD1    C2 3813   4.090   3.884   0.243  0.1465  0.4410  0.8207
  248MPD1    C3 3814   4.037   4.001   0.191  0.8251 -0.6522  0.1576
  248MPD1    C4 3815   4.089   4.050   0.072  0.0136  0.7333  0.1308
  248MPD1    C5 3816   4.185   3.978   0.012  0.6948 -0.7954 -0.3583
  248MPD1     H 3817   4.056   3.848   0.339  1.4710 -0.6921  0.8628
  248MPD1    H1 3818   4.059   4.145   0.029 -0.2716  0.2950 -0.6455
  248MPD1    H2 3819   4.314   3.814   0.003 -0.5982 -0.5155 -1.4225
  248MPD1    H3 3820   4.219   4.018  17.671 -1.6492  4.4328  1.0462
  248MPD1     N 3821   3.939   4.067   0.271 -0.1050 -0.4764 -0.1911
  248MPD1    H5 3822   3.908   4.020   0.355 -0.1591  0.1827  0.1549
  248MPD1    N1 3823   4.248   3.700   0.215 -0.4857  0.1078  0.0569
  248MPD1    H6 3824   4.320   3.655   0.157  1.4432  0.6770  2.0022
  248MPD1    H7 3825   4.244   3.674   0.313 -2.5874  0.8547  0.1569
  249MPD1     C 3826   4.436   4.114  10.324 -0.0706  0.0290  0.4964
  249MPD1    C1 3827   4.499   4.207  10.405  0.9113 -0.5433 -0.3316
  249MPD1    C2 3828   4.595   4.293  10.345 -0.2880  0.5268 -0.3366
  249MPD1    C3 3829   4.597   4.310  10.204 -0.2326 -0.3146  0.0795
  249MPD1    C4 3830   4.510   4.230  10.127  0.0722 -0.1862  0.6334
  249MPD1    C5 3831   4.431   4.130  10.183 -0.4930 -0.0994 -0.0967
  249MPD1     H 3832   4.666   4.355  10.398  1.0438 -2.4253  1.3416
  249MPD1    H1 3833   4.511   4.227  10.019 -2.0928  0.8204  0.5888
  249MPD1    H2 3834   4.366   4.046  10.372  0.6521 -1.2633 -0.2839
  249MPD1    H3 3835   4.375   4.070  10.113  0.2058 -0.9900  0.1011
  249MPD1     N 3836   4.681   4.407  10.143  0.6713  0.4331 -0.0194
  249MPD1    H5 3837   0.014   4.457  10.194 -1.8484  2.8753  1.1610
  249MPD1    N1 3838   4.495   4.186  10.545 -0.0713 -0.5699  0.5608
  249MPD1    H6 3839   4.525   4.271  10.591 -0.5626 -1.2090  2.0848
  249MPD1    H7 3840   4.411   4.151  10.592 -3.0418  1.1368 -3.4164
  250MPD2     C 3841   1.690   4.270  12.325 -0.5855 -0.4655 -0.0806
  250MPD2    C1 3842   1.654   4.355  12.423  0.1631 -0.2452 -0.3045
  250MPD2    C2 3843   1.533   4.340  12.485 -0.6444 -0.2573  0.2647
  250MPD2    C3 3844   1.449   4.235  12.434  0.3699  0.5602  0.2996
  250MPD2    C4 3845   1.488   4.151  12.333 -0.8179  0.0531  0.3265
  250MPD2    C5 3846   1.615   4.166  12.281 -0.3777  0.4498  0.2083
  250MPD2     H 3847   1.506   4.401  12.570 -0.2541 -0.1326  0.2976
  250MPD2    H1 3848   1.431   4.063  12.306 -0.8293  0.6135 -1.4434
  250MPD2    H2 3849   1.783   4.289  12.273  0.9656 -3.8368  1.4828
  250MPD2    H3 3850   1.645   4.104  12.198 -1.5246  0.6059 -0.3293
  250MPD2     N 3851   1.315   4.206  12.478 -0.3667  0.3124 -0.3962
  250MPD2    H5 3852   1.264   4.131  12.431 -0.5354 -1.0812  1.9913
  250MPD2    N1 3853   1.746   4.456  12.461 -0.9760 -0.6735  0.1604
  250MPD2    H7 3854   1.836   4.450  12.415 -0.5074  0.2900  0.9484
  251TMC3    C1 3855   1.814   4.677  12.526 -0.2729  0.5783 -0.3835
  251TMC3    C2 3856   1.760   0.061  12.547 -0.5166 -0.0702 -0.5448
  251TMC3    C3 3857   1.836   0.150  12.624 -0.2770 -0.0850 -0.0334
  251TMC3    C4 3858   1.939   4.645  12.571  0.1426 -0.0229  0.2757
  251TMC3    C5 3859   2.008   4.729  12.639  1.1282 -0.3213  0.0819
  251TMC3    C6 3860   1.954   0.108  12.676 -0.1004 -0.7936 -0.2547
  251TMC3     C 3861   1.708   4.575  12.525 -0.5650  0.5312  0.2692
  251TMC3     O 3862   1.602   4.612  12.567  0.5139 -0.7296  1.0388
  251TMC3     H 3863   1.656   0.080  12.523 -1.1143 -0.7823  1.4261
  251TMC3    H1 3864   1.984   4.548  12.551 -0.7423 -0.6743  1.4546
  251TMC3    H2 3865   2.016   0.175  12.734  2.2871 -3.3304  0.1477
  251TMC3    C7 3866   2.116   4.684  12.723  0.0466 -0.4964 -0.4758
  251TMC3    C8 3867   1.748   0.237  12.706 -0.1378  0.0184 -0.7818
  251TMC3    O1 3868   2.137   4.736  12.833  0.0939  0.2417  0.2352
  251TMC3    O2 3869   1.780   0.245  12.826 -0.3329 -0.0454 -0.3427
  252TMC3    C1 3870   1.910   0.719   9.295  0.2628  0.6518  0.1700
  252TMC3    C2 3871   1.930   0.618   9.390 -0.3358  0.3453 -0.0157
  252TMC3    C3 3872   1.833   0.525   9.409  0.3230 -0.0677 -0.1714
  252TMC3    C4 3873   1.798   0.718   9.217  0.7487 -0.0246  0.6249
  252TMC3    C5 3874   1.704   0.620   9.252  0.3199  0.2308  1.0621
  252TMC3    C6 3875   1.721   0.518   9.342 -0.2249 -0.3786 -0.3624
  252TMC3     C 3876   2.016   0.819   9.271  0.7122 -0.2025  0.3121
  252TMC3     O 3877   2.020   0.874   9.162  0.1241  0.1549  0.0086
  252TMC3     H 3878   2.022   0.610   9.447  1.0168 -3.1044 -2.6989
  252TMC3    H1 3879   1.768   0.811   9.169  0.6363  0.1421  1.0145
  252TMC3    H2 3880   1.667   0.425   9.326 -3.2575  0.7632  3.3200
  252TMC3    C7 3881   1.578   0.627   9.176  0.7258  0.5449 -0.1526
  252TMC3    C8 3882   1.853   0.415   9.500 -0.0988  0.1097  0.0430
  252TMC3    O1 3883   1.582   0.660   9.060  0.0990 -0.1642 -0.6894
  252TMC3    O2 3884   1.798   0.312   9.469 -0.3695  0.3664 -0.7639
  253MPD2     C 3885   3.026   4.289  15.222  0.1863 -0.3495 -0.0943
  253MPD2    C1 3886   2.892   4.276  15.246 -0.3536 -0.1806 -0.0416
  253MPD2    C2 3887   2.844   4.252  15.378  0.1400  0.3336  0.1552
  253MPD2    C3 3888   2.931   4.226  15.480 -0.1297  0.1826 -0.6785
  253MPD2    C4 3889   3.065   4.242  15.455 -1.0112 -0.2276  0.3675
  253MPD2    C5 3890   3.109   4.281  15.334 -0.4941  0.4869  0.0223
  253MPD2     H 3891   2.738   4.263  15.396  0.2744 -0.4501  1.4337
  253MPD2    H1 3892   3.140   4.239  15.533 -2.5760 -2.1988  1.8026
  253MPD2    H2 3893   3.068   4.317  15.127 -0.2830 -1.1661 -0.5443
  253MPD2    H3 3894   3.216   4.294  15.322 -0.7883  2.6966 -0.0525
  253MPD2     N 3895   2.881   4.197  15.613  1.1026 -0.1823 -0.1705
  253MPD2    H5 3896   2.782   4.179  15.624  0.8991  1.4161  0.6247
  253MPD2    N1 3897   2.795   4.290  15.142 -0.1585  0.7998 -0.3083
  253MPD2    H7 3898   2.700   4.284  15.178  0.1534  0.5375  0.4801
  254TMC3    C1 3899   2.875   4.095  15.817 -0.5029  0.1369  0.3427
  254TMC3    C2 3900   2.742   4.124  15.829 -0.3164  0.0516 -0.1187
  254TMC3    C3 3901   2.654   4.033  15.895 -0.4580 -0.0871  0.3462
  254TMC3    C4 3902   2.921   3.982  15.878  0.4159 -0.0400  0.2025
  254TMC3    C5 3903   2.835   3.902  15.947 -0.1694  0.6715  0.6625
  254TMC3    C6 3904   2.699   3.916  15.947  0.5268 -0.0120  0.7941
  254TMC3     C 3905   2.956   4.154  15.717 -0.8144  0.1534  0.4869
  254TMC3     O 3906   3.076   4.137  15.736 -0.0688 -0.7098  0.1324
  254TMC3     H 3907   2.702   4.208  15.774 -1.6281 -0.4797  0.0089
  254TMC3    H1 3908   3.021   3.944  15.863  0.2267 -1.6566  3.0023
  254TMC3    H2 3909   2.630   3.846  15.993  1.1695 -2.9329 -2.6917
  254TMC3    C7 3910   2.890   3.823  16.057  0.8962  0.3536 -0.3084
  254TMC3    C8 3911   2.514   4.065  15.929  0.3165  0.1320 -0.0455
  254TMC3    O1 3912   2.818   3.739  16.111 -0.2283  0.0883 -0.2238
  254TMC3    O2 3913   2.458   4.005  16.017  0.2014  0.3758  0.0589
  255MPD2     C 3914   1.045   1.854  10.349  0.2017  0.0535 -0.1808
  255MPD2    C1 3915   1.120   1.921  10.259  0.3961 -0.2571 -1.3100
  255MPD2    C2 3916   1.232   1.855  10.208  0.8591 -0.1748 -0.7777
  255MPD2    C3 3917   1.268   1.732  10.252  0.2289  0.2678 -0.2928
  255MPD2    C4 3918   1.183   1.666  10.341  0.3045 -0.2330 -0.2234
  255MPD2    C5 3919   1.077   1.726  10.391  0.1614 -0.2997 -0.7074
  255MPD2     H 3920   1.304   1.908  10.146  1.3390 -0.1559 -0.2011
  255MPD2    H1 3921   1.206   1.569  10.384  2.1863  0.7393  0.9496
  255MPD2    H2 3922   0.968   1.910  10.402 -1.0598  0.1008 -2.0735
  255MPD2    H3 3923   1.022   1.678  10.471 -1.5396  0.8588 -1.1974
  255MPD2     N 3924   1.391   1.662  10.225 -0.2065  0.4830 -0.1091
  255MPD2    H5 3925   1.407   1.577  10.279 -1.5820  0.9664  1.0753
  255MPD2    N1 3926   1.078   2.056  10.235 -0.1251 -0.0403 -0.1494
  255MPD2    H7 3927   1.006   2.099  10.292 -1.6509 -1.1712 -1.2275
  256TMC3    C1 3928   1.087   2.261  10.128 -0.4810 -0.2478 -0.2412
  256TMC3    C2 3929   1.147   2.349  10.036 -0.5237  0.6186  0.1046
  256TMC3    C3 3930   1.100   2.480  10.030  0.7123 -0.2979 -0.1656
  256TMC3    C4 3931   0.994   2.311  10.221  0.0603  0.6283  0.2884
  256TMC3    C5 3932   0.960   2.447  10.212  0.2238 -0.1702 -0.4340
  256TMC3    C6 3933   1.016   2.531  10.124  1.1421 -0.0644 -1.1234
  256TMC3     C 3934   1.126   2.126  10.128  0.4191 -0.3599  0.3179
  256TMC3     O 3935   1.201   2.093  10.038  0.4700  0.6679 -0.2079
  256TMC3     H 3936   1.203   2.315   9.949  0.8646  0.0765  1.2032
  256TMC3    H1 3937   0.941   2.246  10.290 -3.5707  1.6031 -1.5682
  256TMC3    H2 3938   0.990   2.635  10.135 -2.4183 -0.8425 -1.9984
  256TMC3    C7 3939   0.826   2.486  10.232 -0.1047 -0.2487 -0.5442
  256TMC3    C8 3940   1.126   2.553   9.906  0.0152 -0.9598 -0.3311
  256TMC3    O1 3941   0.775   2.557  10.147  0.2058  0.2532 -0.2287
  256TMC3    O2 3942   1.154   2.489   9.805  0.6634  0.1663 -0.0057
  257MPD2     C 3943   4.592   4.118  13.515  0.6332  0.1420 -0.0168
  257MPD2    C1 3944   4.623   4.103  13.385  0.0432 -0.1399 -1.0172
  257MPD2    C2 3945   4.708   3.994  13.352 -0.3268 -1.1944  0.3058
  257MPD2    C3 3946   0.005   3.904  13.454  0.0257  0.2680  0.6879
  257MPD2    C4 3947   4.706   3.924  13.583 -0.8675  0.1973 -0.2999
  257MPD2    C5 3948   4.629   4.028  13.610 -0.1967  0.7237 -0.2356
  257MPD2     H 3949   4.739   3.963  13.253 -0.1330  0.1170 -0.0462
  257MPD2    H1 3950   4.716   3.855  13.667  1.3180 -0.2740 -0.9597
  257MPD2    H2 3951   4.534   4.207  13.538 -1.9844 -1.4025 -0.6656
  257MPD2    H3 3952   4.586   4.038  13.709  2.5577 -0.8680  1.1130
  257MPD2     N 3953   0.093   3.796  13.410 -0.0306 -0.2977  0.5199
  257MPD2    H5 3954   0.127   3.793  13.315 -1.7821  2.4584 -0.2159
  257MPD2    N1 3955   4.564   4.179  13.285 -0.0654  0.9706 -0.3263
  257MPD2    H7 3956   4.491   4.247  13.301 -1.5337 -0.0534 -2.6513
  258TMC3    C1 3957   0.205   3.592  13.415  0.2608  0.2778  0.1583
  258TMC3    C2 3958   0.216   3.595  13.279 -0.4397  0.3802 -0.7149
  258TMC3    C3 3959   0.288   3.493  13.229  0.2170 -0.8123  0.1439
  258TMC3    C4 3960   0.258   3.493  13.489  0.3615 -0.2650  1.4513
  258TMC3    C5 3961   0.341   3.406  13.433  0.3736 -0.1170  0.3411
  258TMC3    C6 3962   0.356   3.405  13.295 -0.1612 -0.3392 -0.3348
  258TMC3     C 3963   0.140   3.694  13.493 -0.5966  0.3000  0.1972
  258TMC3     O 3964   0.121   3.675  13.615  0.4676  0.5897 -0.0089
  258TMC3     H 3965   0.169   3.669  13.215  1.2196  1.4957 -0.6315
  258TMC3    H1 3966   0.236   3.485  13.595 -0.8100  0.5820  1.2818
  258TMC3    H2 3967   0.418   3.336  13.238  0.0983  1.5257 -2.2688
  258TMC3    C7 3968   0.409   3.300  13.512 -0.2325 -0.1354  0.1398
  258TMC3    C8 3969   0.286   3.494  13.081  0.6013  0.7124 -0.4719
  258TMC3    O1 3970   0.426   3.187  13.469  0.4654  0.4291 -0.0692
  258TMC3    O2 3971   0.256   3.602  13.032 -0.1460  0.3242  0.2087
  259MPD2     C 3972   4.093   0.639   0.803  0.5939  0.6054  0.3288
  259MPD2    C1 3973   4.201   0.557   0.828  1.0378 -0.4347  0.5185
  259MPD2    C2 3974   4.279   0.499   0.730 -0.4183  0.0586 -0.2889
  259MPD2    C3 3975   4.252   0.538   0.600  0.0114  0.5713  0.4761
  259MPD2    C4 3976   4.148   0.627   0.574 -0.0466 -0.2783  0.5139
  259MPD2    C5 3977   4.074   0.674   0.676  0.1112  0.4512 -0.2370
  259MPD2     H 3978   4.361   0.434   0.756 -0.2874  0.2693 -0.1707
  259MPD2    H1 3979   4.102   0.646   0.478  0.0934  2.7818  1.0514
  259MPD2    H2 3980   4.026   0.684   0.876  0.4576  1.9966 -0.6550
  259MPD2    H3 3981   3.986   0.735   0.661 -0.4779 -0.6793 -1.3687
  259MPD2     N 3982   4.333   0.476   0.498  0.0425  0.2156 -0.0625
  259MPD2    H5 3983   4.402   0.412   0.534 -1.0468 -0.9832 -0.1143
  259MPD2    N1 3984   4.225   0.546   0.963 -0.1253 -0.4751  0.3486
  259MPD2    H7 3985   4.177   0.592   1.040 -0.1269 -0.9779  0.6531
  260TMC3    C1 3986   4.436   0.416   0.292 -0.8681  0.3979 -0.3413
  260TMC3    C2 3987   4.492   0.448   0.174 -0.6115  0.0987  0.5032
  260TMC3    C3 3988   4.571   0.356   0.109  0.1319 -0.3725  0.5221
  260TMC3    C4 3989   4.453   0.292   0.346  0.4345  0.4626 -0.1163
  260TMC3    C5 3990   4.547   0.204   0.296  0.1927  0.4963 -0.0703
  260TMC3    C6 3991   4.611   0.241   0.179 -0.7846  0.5466 -0.2696
  260TMC3     C 3992   4.341   0.505   0.368  0.0549 -0.2610  0.2391
  260TMC3     O 3993   4.277   0.596   0.312 -0.4073  0.0649  0.1359
  260TMC3     H 3994   4.452   0.533   0.121 -2.6302 -1.1419  0.0344
  260TMC3    H1 3995   4.389   0.264   0.429 -1.0672 -0.0050 -1.4241
  260TMC3    H2 3996   4.675   0.167   0.131  2.0309  1.6594  1.7889
  260TMC3    C7 3997   4.507   0.063   0.277 -0.0723 -0.3134 -0.4753
  260TMC3    C8 3998   4.548   0.337  17.716  0.6264  0.1948 -0.1164
  260TMC3    O1 3999   4.528   0.019   0.166  0.2785  0.1023 -0.1268
  260TMC3    O2 4000   4.542   0.437  17.647  0.2147 -0.2709 -0.6097
  261MPD2     C 4001   0.596   4.585  12.525  0.5567 -0.0831  0.2991
  261MPD2    C1 4002   0.726   4.565  12.474 -0.1094 -0.2944  0.2683
  261MPD2    C2 4003   0.765   4.645  12.371  0.1552 -0.2067 -0.6626
  261MPD2    C3 4004   0.681   4.727  12.296  0.1788  0.2794 -0.4907
  261MPD2    C4 4005   0.559   0.012  12.355  0.2134 -0.1451  0.1182
  261MPD2    C5 4006   0.519   4.678  12.462 -0.3514  1.0152 -0.9188
  261MPD2     H 4007   0.870   4.634  12.347  0.4536  2.8497 -0.8075
  261MPD2    H1 4008   0.486   0.080  12.311 -0.2548 -1.3260 -0.9202
  261MPD2    H2 4009   0.567   4.536  12.617 -2.1929 -0.0222 -0.5325
  261MPD2    H3 4010   0.417   4.701  12.492 -1.0934 -0.7521 -2.1052
  261MPD2     N 4011   0.723   0.051  12.175 -0.2985 -0.3648  0.7200
  261MPD2    H5 4012   0.665   0.125  12.137  0.3645  1.3273  2.9879
  261MPD2    N1 4013   0.817   4.464  12.514 -0.6217 -0.0945  0.4425
  261MPD2    H7 4014   0.912   4.462  12.479 -0.1940 -0.5496  1.6569
  262TMC3    C1 4015   0.859   0.110  11.990  0.0506 -0.8018  0.2251
  262TMC3    C2 4016   0.751   0.166  11.927  0.1040 -0.1573 -0.3653
  262TMC3    C3 4017   0.778   0.214  11.803  0.0253 -0.5052 -0.1276
  262TMC3    C4 4018   0.991   0.112  11.942 -0.1545 -0.6628  0.0001
  262TMC3    C5 4019   1.003   0.152  11.818  0.1120  0.2413  0.4222
  262TMC3    C6 4020   0.896   0.201  11.740 -0.0716  0.6468  0.1315
  262TMC3     C 4021   0.845   0.036  12.115  0.1800 -0.3034 -0.0303
  262TMC3     O 4022   0.938   4.700  12.143  0.2358  0.1942  0.3030
  262TMC3     H 4023   0.651   0.172  11.967  1.1175  2.0408  1.8524
  262TMC3    H1 4024   1.080   0.084  11.998 -0.6580  0.2688  1.2800
  262TMC3    H2 4025   0.900   0.247  11.642 -0.6886  2.4365  0.9510
  262TMC3    C7 4026   1.123   0.102  11.754  0.0652 -0.1606  0.3440
  262TMC3    C8 4027   0.666   0.294  11.745 -0.6238 -1.0516 -0.3662
  262TMC3    O1 4028   1.227   0.096  11.813 -0.1062 -0.5359  0.5945
  262TMC3    O2 4029   0.549   0.272  11.780  0.2851  0.5147  0.1547
  263MPD2     C 4030   1.654   3.741  11.580 -0.2202  0.4211 -0.3877
  263MPD2    C1 4031   1.756   3.705  11.498 -0.2196  0.3926 -0.8488
  263MPD2    C2 4032   1.775   3.775  11.379 -0.0142  0.2769  0.0283
  263MPD2    C3 4033   1.700   3.891  11.356 -0.6174 -0.3534 -0.0705
  263MPD2    C4 4034   1.594   3.927  11.437 -0.8711 -0.0104  0.4044
  263MPD2    C5 4035   1.576   3.853  11.554 -0.8913 -1.0880  0.2938
  263MPD2     H 4036   1.848   3.751  11.302 -0.7314  1.5110 -1.0572
  263MPD2    H1 4037   1.526   4.005  11.406 -0.7996 -0.4055 -0.7345
  263MPD2    H2 4038   1.638   3.691  11.675  1.6640  0.7042  0.0746
  263MPD2    H3 4039   1.500   3.880  11.626  1.0110 -0.9733  2.2795
  263MPD2     N 4040   1.744   3.961  11.241 -0.5006 -1.1639 -0.0383
  263MPD2    H5 4041   1.797   3.905  11.176  1.5245  0.5847  0.0980
  263MPD2    N1 4042   1.844   3.607  11.547 -0.8365 -0.7298  0.1917
  263MPD2    H7 4043   1.839   3.577  11.644  0.4944 -1.0267  0.1753
  264TMC3    C1 4044   1.781   4.149  11.095 -0.2469 -0.5972 -0.6025
  264TMC3    C2 4045   1.842   4.267  11.104 -0.5050  1.0796  0.7319
  264TMC3    C3 4046   1.918   4.315  11.000  1.0449 -0.5529 -0.7011
  264TMC3    C4 4047   1.803   4.061  10.992  0.4865 -0.9356  0.2227
  264TMC3    C5 4048   1.892   4.103  10.894 -0.1581  0.2283  0.5086
  264TMC3    C6 4049   1.950   4.230  10.893  0.2538  0.4140 -0.6056
  264TMC3     C 4050   1.727   4.098  11.222  0.5374 -0.0192 -0.6417
  264TMC3     O 4051   1.690   4.179  11.307 -0.7869 -0.7087  0.2593
  264TMC3     H 4052   1.828   4.329  11.192 -1.0441  2.4221 -0.3054
  264TMC3    H1 4053   1.745   3.969  10.993  1.0949 -1.3061  1.4064
  264TMC3    H2 4054   2.023   4.249  10.815 -0.8246  0.0843 -1.6924
  264TMC3    C7 4055   1.925   4.017  10.784  0.4407  0.4338 -0.1834
  264TMC3    C8 4056   1.975   4.448  10.997 -0.2480  0.7391  0.2490
  264TMC3    O1 4057   1.989   4.071  10.691  0.4587  0.5128  0.3198
  264TMC3    O2 4058   2.070   4.463  10.924  0.2620 -0.0155  0.4526
  265MPD2     C 4059   4.126   3.233  15.655 -0.8579 -0.0474 -0.5142
  265MPD2    C1 4060   4.088   3.341  15.573 -0.0786  0.4153 -0.2319
  265MPD2    C2 4061   4.141   3.347  15.443  0.2835 -0.7191  0.7426
  265MPD2    C3 4062   4.201   3.236  15.387 -0.8163 -0.0959 -0.4220
  265MPD2    C4 4063   4.227   3.127  15.467 -0.3418 -0.2192  0.1598
  265MPD2    C5 4064   4.195   3.127  15.601 -0.2361 -0.5246  0.5080
  265MPD2     H 4065   4.128   3.440  15.389  0.9169 -0.3731  1.1778
  265MPD2    H1 4066   4.283   3.043  15.428 -1.0490 -0.0347 -1.2426
  265MPD2    H2 4067   4.103   3.233  15.760  1.8150 -0.1446  0.0665
  265MPD2    H3 4068   4.226   3.046  15.667 -0.4128 -0.4240  0.7151
  265MPD2     N 4069   4.239   3.241  15.248 -0.3060 -0.3995 -0.1420
  265MPD2    H5 4070   4.275   3.155  15.210  0.9869  0.4582 -0.8458
  265MPD2    N1 4071   4.014   3.450  15.624 -1.2490 -0.2518 -0.0447
  265MPD2    H7 4072   3.989   3.519  15.554 -0.9571 -1.1741 -1.0566
  266TMC3    C1 4073   3.914   3.604  15.771  0.5128 -0.1670 -0.2739
  266TMC3    C2 4074   3.934   3.682  15.882 -0.4677  1.0004  0.5332
  266TMC3    C3 4075   3.849   3.780  15.914 -0.4775  0.3863 -0.1408
  266TMC3    C4 4076   3.804   3.613  15.696  0.3728 -0.2166 -0.4726
  266TMC3    C5 4077   3.724   3.720  15.720 -0.2106 -0.8458  0.0318
  266TMC3    C6 4078   3.745   3.804  15.825 -0.1598 -0.0073  0.0374
  266TMC3     C 4079   3.995   3.488  15.753 -0.1475  0.2693  0.2263
  266TMC3     O 4080   4.040   3.431  15.852 -0.1014 -0.3324  0.2364
  266TMC3     H 4081   4.023   3.670  15.943 -1.2018  0.3634  1.4973
  266TMC3    H1 4082   3.783   3.547  15.613  0.0590  2.5389 -2.5777
  266TMC3    H2 4083   3.696   3.900  15.829 -2.0762 -0.9488 -0.5096
  266TMC3    C7 4084   3.623   3.734  15.626 -0.2435 -0.4837 -0.1167
  266TMC3    C8 4085   3.897   3.889  15.999 -0.1270  0.6298  0.4810
  266TMC3    O1 4086   3.653   3.717  15.506 -0.1148 -0.1617  0.5760
  266TMC3    O2 4087   4.014   3.872  16.041  0.7617 -0.5909 -0.5685
  267MPD2     C 4088   1.886   1.009  17.216  0.3569 -0.2143  0.0272
  267MPD2    C1 4089   1.896   0.877  17.257  0.0114 -0.3815  0.4194
  267MPD2    C2 4090   1.819   0.782  17.196 -0.3254 -0.5734 -0.2972
  267MPD2    C3 4091   1.748   0.808  17.079 -0.1227  0.3202  0.5517
  267MPD2    C4 4092   1.728   0.942  17.044  0.0942  0.3470  0.2946
  267MPD2    C5 4093   1.795   1.038  17.113  0.0725  0.6801  0.7394
  267MPD2     H 4094   1.831   0.677  17.222  0.3072  0.0605  2.0185
  267MPD2    H1 4095   1.664   0.975  16.962  0.2910 -0.0578 -0.0254
  267MPD2    H2 4096   1.932   1.090  17.272 -0.0395 -0.6288  0.9572
  267MPD2    H3 4097   1.779   1.143  17.091 -0.8903  0.2612 -0.5286
  267MPD2     N 4098   1.671   0.717  17.003  0.3062  0.0538 -0.8731
  267MPD2    H5 4099   1.612   0.752  16.928 -1.4849 -0.9609  0.0473
  267MPD2    N1 4100   1.966   0.855  17.377 -0.0614 -0.3951  0.0628
  267MPD2    H7 4101   2.012   0.932  17.424 -1.8130  0.4580  0.4055
  268TMC3    C1 4102   2.044   0.734  17.566  0.1372  0.0650 -0.3305
  268TMC3    C2 4103   2.102   0.845  17.616 -0.8774  0.5444  0.0961
  268TMC3    C3 4104   2.152   0.841  17.743  0.1518 -0.1004 -0.1677
  268TMC3    C4 4105   2.029   0.619  17.637 -0.0564 -0.4592 -0.1193
  268TMC3    C5 4106   2.071   0.623   0.012  0.4654 -0.0278 -0.2714
  268TMC3    C6 4107   2.134   0.729   0.069 -0.1647 -0.5210  0.8599
  268TMC3     C 4108   1.983   0.731  17.430  0.5416  0.3810  0.6670
  268TMC3     O 4109   1.945   0.623  17.387  0.4452  0.3352 -0.6770
  268TMC3     H 4110   2.130   0.929  17.554 -2.1688 -1.4536 -3.1917
  268TMC3    H1 4111   1.974   0.535  17.596  0.1938 -2.0073  2.6961
  268TMC3    H2 4112   2.176   0.722   0.169 -2.4869  0.7477  1.9179
  268TMC3    C7 4113   2.062   0.501   0.091  0.0465 -0.6219  0.0132
  268TMC3    C8 4114   2.238   0.943   0.041 -0.0314 -0.2642 -0.0944
  268TMC3    O1 4115   2.106   0.511   0.202 -0.5914 -0.1054 -0.4927
  268TMC3    O2 4116   2.336   0.913   0.108  0.5996  0.1572 -0.2808
  269MPD2     C 4117   1.631   4.156  15.511  0.4024  0.1816  0.1048
  269MPD2    C1 4118   1.521   4.233  15.539  0.2375  0.0449  0.0800
  269MPD2    C2 4119   1.530   4.368  15.557  0.6394  0.2513 -0.3028
  269MPD2    C3 4120   1.651   4.429  15.531  0.0438  0.0058  0.2686
  269MPD2    C4 4121   1.759   4.350  15.483 -0.0353 -0.3575 -0.1631
  269MPD2    C5 4122   1.747   4.218  15.490  0.3255 -0.0827 -0.5843
  269MPD2     H 4123   1.440   4.424  15.578  0.5905 -0.5537  1.6127
  269MPD2    H1 4124   1.860   4.385  15.468 -0.1972  0.1671 -0.0398
  269MPD2    H2 4125   1.620   4.049  15.504  1.8841 -0.0010  0.5426
  269MPD2    H3 4126   1.830   4.153  15.466 -0.3712 -1.2995  0.3609
  269MPD2     N 4127   1.651   4.572  15.538  0.5238  0.2360  0.6121
  269MPD2    H5 4128   1.570   4.622  15.573 -0.3997 -0.2165 -0.8756
  269MPD2    N1 4129   1.398   4.167  15.558 -0.0926 -0.2305  0.8420
  269MPD2    H7 4130   1.388   4.068  15.581  2.7245 -0.5875  0.6385
  270TMC3    C1 4131   1.179   4.137  15.561  0.1240  0.4297  0.3134
  270TMC3    C2 4132   1.098   4.116  15.454  0.1130 -0.2608  0.4242
  270TMC3    C3 4133   1.019   4.004  15.460 -0.7605 -0.0056 -0.5678
  270TMC3    C4 4134   1.195   4.046  15.659  0.0342  0.2865 -0.0125
  270TMC3    C5 4135   1.111   3.939  15.662  0.7353  0.1603  0.5085
  270TMC3    C6 4136   1.027   3.911  15.558  0.0504 -0.9554  0.2816
  270TMC3     C 4137   1.281   4.229  15.541 -1.0781  0.0807 -0.1690
  270TMC3     O 4138   1.253   4.326  15.474  0.1441 -0.1378  0.1420
  270TMC3     H 4139   1.093   4.184  15.370  0.5895 -0.4957  0.2042
  270TMC3    H1 4140   1.257   4.049  15.747 -0.7132 -2.4537  0.5900
  270TMC3    H2 4141   0.974   3.820  15.531 -1.6163  0.7544 -2.2291
  270TMC3    C7 4142   1.202   3.830  15.676  1.0006  0.3100  0.2621
  270TMC3    C8 4143   0.960   3.949  15.341  0.2123 -0.3257  0.0984
  270TMC3    O1 4144   1.311   3.843  15.622 -0.2534 -0.3707  0.3440
  270TMC3    O2 4145   0.858   3.880  15.351  0.1902  0.2409 -0.2897
  271MPD2     C 4146   0.923   3.909  13.690  0.1185  0.2999 -0.2305
  271MPD2    C1 4147   0.929   3.990  13.801  0.3715  0.0145 -0.4927
  271MPD2    C2 4148   0.877   4.113  13.786  0.3073  0.0625  0.1387
  271MPD2    C3 4149   0.794   4.153  13.684  0.1850 -0.1395 -0.6010
  271MPD2    C4 4150   0.780   4.071  13.573  0.0618  0.8201 -0.0012
  271MPD2    C5 4151   0.851   3.947  13.575  0.0885 -0.1929  0.3843
  271MPD2     H 4152   0.891   4.173  13.874  1.1893  0.4812 -0.2845
  271MPD2    H1 4153   0.720   4.108  13.490 -0.6959 -1.4336 -0.4516
  271MPD2    H2 4154   0.979   3.816  13.683  1.1032  0.8579  0.3590
  271MPD2    H3 4155   0.837   3.879  13.492 -0.1148  0.7229 -0.3334
  271MPD2     N 4156   0.729   4.282  13.689  1.1222  0.2829  0.1532
  271MPD2    H5 4157   0.667   4.300  13.610 -0.8428 -0.2522  1.5651
  271MPD2    N1 4158   0.988   3.954  13.925  0.1417 -0.1451  0.0861
  271MPD2    H7 4159   0.982   4.028  13.994 -2.0442 -0.5162  0.3232
  272TMC3    C1 4160   1.093   3.831  14.093  0.4361  0.7497 -0.1253
  272TMC3    C2 4161   1.186   3.735  14.137 -0.2042 -0.0207  0.0654
  272TMC3    C3 4162   1.239   3.742  14.264 -0.4608  0.1724  1.1503
  272TMC3    C4 4163   1.057   3.922  14.195  0.0075  0.4308  0.4928
  272TMC3    C5 4164   1.117   3.919  14.321  0.0774 -0.4475  0.3212
  272TMC3    C6 4165   1.212   3.835  14.360  0.2696  0.4490 -0.2173
  272TMC3     C 4166   1.047   3.833  13.949  0.1377  0.2997 -0.0303
  272TMC3     O 4167   1.087   3.740  13.879  0.0000  0.4103 -0.1900
  272TMC3     H 4168   1.232   3.675  14.060  0.8253 -1.9018  2.1548
  272TMC3    H1 4169   0.963   3.975  14.183 -0.1211 -0.4257 -2.2789
  272TMC3    H2 4170   1.259   3.837  14.457 -0.0197 -1.4526 -0.0431
  272TMC3    C7 4171   1.027   3.965  14.426  0.0764 -0.0481 -0.6836
  272TMC3    C8 4172   1.378   3.704  14.254  0.2564  0.3640  0.3688
  272TMC3    O1 4173   0.904   3.942  14.418  0.3402 -0.0833 -0.2371
  272TMC3    O2 4174   1.423   3.703  14.141 -0.4371 -0.4196 -0.2344
  273MPD2     C 4175   2.443   2.137  11.978 -0.7284  0.3387 -0.2693
  273MPD2    C1 4176   2.554   2.187  11.921  0.3093 -0.0505  0.3305
  273MPD2    C2 4177   2.545   2.271  11.807  0.0651  0.0410 -0.1640
  273MPD2    C3 4178   2.422   2.291  11.741 -0.8644 -0.8317  0.0831
  273MPD2    C4 4179   2.310   2.229  11.791 -0.4185 -0.2145  0.1379
  273MPD2    C5 4180   2.320   2.160  11.911 -0.2417  0.2848 -0.2151
  273MPD2     H 4181   2.635   2.318  11.769  0.3666 -0.4459 -0.0576
  273MPD2    H1 4182   2.213   2.243  11.744 -1.1400 -0.2418  1.6350
  273MPD2    H2 4183   2.450   2.080  12.071 -0.2657  0.5159 -0.1962
  273MPD2    H3 4184   2.230   2.118  11.956 -0.2477 -1.9514 -2.3071
  273MPD2     N 4185   2.413   2.370  11.627  0.4898 -0.7245 -0.0942
  273MPD2    H5 4186   2.323   2.385  11.582  0.2947 -0.4727  0.3874
  273MPD2    N1 4187   2.687   2.166  11.975 -0.5732  0.0646  0.6621
  273MPD2    H7 4188   2.677   2.115  12.062  0.0532 -2.4476 -0.7358
  274TMC3    C1 4189   2.449   2.540  11.462 -0.1196  0.0793 -0.2078
  274TMC3    C2 4190   2.317   2.562  11.467 -0.1056 -0.8373 -0.3373
  274TMC3    C3 4191   2.281   2.612  11.341  0.8647  0.5845 -0.7370
  274TMC3    C4 4192   2.538   2.597  11.382 -0.1380  0.7350 -0.0591
  274TMC3    C5 4193   2.494   2.686  11.289 -0.4706 -0.2649  0.2003
  274TMC3    C6 4194   2.365   2.667  11.254  0.0795  0.1367  0.1930
  274TMC3     C 4195   2.500   2.461  11.577  0.0069  0.1699  0.0678
  274TMC3     O 4196   2.610   2.497  11.622 -0.6744  0.3440 -0.1138
  274TMC3     H 4197   2.244   2.527  11.538 -1.5318 -0.1197 -1.4387
  274TMC3    H1 4198   2.642   2.584  11.409  0.2067  2.2476 -0.6727
  274TMC3    H2 4199   2.330   2.730  11.173  0.9977  0.5365  0.1098
  274TMC3    C7 4200   2.526   2.823  11.327  0.8531 -0.4588 -0.5961
  274TMC3    C8 4201   2.137   2.625  11.318  0.4446 -0.5277 -0.9501
  274TMC3    O1 4202   2.452   2.911  11.273  1.1955 -0.6515 -0.5627
  274TMC3    O2 4203   2.067   2.653  11.412  0.4849 -0.0758  0.1570
  275MPD2     C 4204   2.781   4.450  14.579 -0.8573 -0.3928  0.7969
  275MPD2    C1 4205   2.747   4.584  14.543  0.6370 -0.0029 -0.8895
  275MPD2    C2 4206   2.621   4.625  14.560 -0.2713 -0.3815  0.4108
  275MPD2    C3 4207   2.525   4.541  14.595 -0.4141 -0.7401  0.0243
  275MPD2    C4 4208   2.551   4.409  14.617  0.3500  0.2260 -0.7381
  275MPD2    C5 4209   2.675   4.363  14.612 -0.2419 -0.1469 -0.2485
  275MPD2     H 4210   2.597   4.731  14.557 -1.0576 -0.5973 -0.9243
  275MPD2    H1 4211   2.470   4.342  14.640  0.3709 -0.1483 -1.7329
  275MPD2    H2 4212   2.881   4.410  14.569 -1.5422 -1.7525 -0.6807
  275MPD2    H3 4213   2.696   4.258  14.625 -1.9774 -0.5296 -0.4296
  275MPD2     N 4214   2.386   4.568  14.616  0.1242 -0.3820 -0.4376
  275MPD2    H5 4215   2.325   4.492  14.645 -1.4644  1.4463  1.0172
  275MPD2    N1 4216   2.843   4.682  14.502  0.5968 -0.0704  0.2427
  275MPD2    H7 4217   2.806   0.028  14.460 -0.9535 -1.0746 -0.4323
  276TMC3    C1 4218   3.043   0.059  14.473 -0.0269 -0.0301 -1.2766
  276TMC3    C2 4219   2.960   0.152  14.413  0.2416  0.2048 -0.6508
  276TMC3    C3 4220   2.952   0.278  14.471  0.0498  0.5118 -0.5127
  276TMC3    C4 4221   3.132   0.096  14.576  0.1812 -0.3930  0.1144
  276TMC3    C5 4222   3.119   0.219  14.631 -0.3875 -0.0023  0.2727
  276TMC3    C6 4223   3.039   0.316  14.576 -0.1658  0.4753  0.6466
  276TMC3     C 4224   2.984   4.669  14.505  0.0914 -0.0211 -0.6264
  276TMC3     O 4225   3.057   4.587  14.565  0.5489 -0.4954 -0.4553
  276TMC3     H 4226   2.884   0.126  14.341  1.2659  1.7538 -2.3162
  276TMC3    H1 4227   3.202   0.023  14.614  1.0966  0.7126  0.5312
  276TMC3    H2 4228   3.052   0.416  14.616  0.5363  0.8167 -0.4400
  276TMC3    C7 4229   3.099   0.226  14.778  1.3882 -0.2902  0.3682
  276TMC3    C8 4230   2.810   0.311  14.499 -0.0957 -0.4199 -0.2871
  276TMC3    O1 4231   3.108   0.335  14.837  0.0459 -0.0108 -0.3241
  276TMC3    O2 4232   2.735   0.230  14.451  1.0652 -0.1805  0.2515
  277MPD2     C 4233   4.266   4.112  13.620 -0.0896  0.3323 -0.0962
  277MPD2    C1 4234   4.133   4.113  13.579  0.5900 -0.2514  0.1411
  277MPD2    C2 4235   4.039   4.057  13.659  0.4161 -0.7620  0.3221
  277MPD2    C3 4236   4.067   3.998  13.783  0.7870  0.1939 -0.2543
  277MPD2    C4 4237   4.200   4.003  13.822  0.0205 -0.7187  0.2006
  277MPD2    C5 4238   4.297   4.063  13.748  0.1565 -0.4771  0.3835
  277MPD2     H 4239   3.938   4.046  13.624  0.2343  0.3573  0.4891
  277MPD2    H1 4240   4.230   3.976  13.923 -0.9978 -0.3795  0.5865
  277MPD2    H2 4241   4.347   4.165  13.571 -1.2142  2.3057  0.1646
  277MPD2    H3 4242   4.398   4.081  13.783  0.3378 -0.5403 -0.1183
  277MPD2     N 4243   3.969   3.927  13.856 -0.3912  1.0045  0.2177
  277MPD2    H5 4244   3.881   3.915  13.807 -0.6839  2.5753  0.3558
  277MPD2    N1 4245   4.082   4.187  13.473 -0.2710  0.5004  0.6631
  277MPD2    H7 4246   3.981   4.199  13.477 -0.4238 -1.1683  1.6660
  278TMC3    C1 4247   3.864   3.773  14.000 -0.1438 -0.1477  0.1415
  278TMC3    C2 4248   3.880   3.642  14.031 -0.0205 -0.3038 -0.2833
  278TMC3    C3 4249   3.783   3.557  13.994  0.0623  0.3350 -0.4115
  278TMC3    C4 4250   3.745   3.828  13.958  0.5434 -0.3229  0.3616
  278TMC3    C5 4251   3.642   3.740  13.938 -0.0829 -0.4873  0.0408
  278TMC3    C6 4252   3.663   3.611  13.948 -0.6987  0.1781 -0.0014
  278TMC3     C 4253   3.983   3.854  13.974  0.4569 -0.0809 -0.9863
  278TMC3     O 4254   4.083   3.827  14.042 -0.5035 -0.4430 -0.0269
  278TMC3     H 4255   3.970   3.603  14.078 -2.5863 -2.9846  2.3199
  278TMC3    H1 4256   3.736   3.936  13.957  1.6372 -0.2401  0.3594
  278TMC3    H2 4257   3.586   3.540  13.920  1.0707 -0.4878 -3.1435
  278TMC3    C7 4258   3.515   3.803  13.882  0.4094 -0.8046  0.4763
  278TMC3    C8 4259   3.845   3.453  13.921 -0.3003 -0.1535 -0.2714
  278TMC3    O1 4260   3.522   3.898  13.806  0.5360 -0.5304  0.3084
  278TMC3    O2 4261   3.958   3.426  13.957  0.5927  0.1653  0.0979
  279MPD2     C 4262   3.407   3.659   0.611  0.1521 -0.3729  0.0859
  279MPD2    C1 4263   3.338   3.772   0.589 -0.6992  0.1290  0.2049
  279MPD2    C2 4264   3.301   3.811   0.456 -0.3114  0.4363 -0.0871
  279MPD2    C3 4265   3.336   3.718   0.352 -0.3112 -0.3413 -0.3941
  279MPD2    C4 4266   3.409   3.605   0.382 -0.2042  0.0112  0.4733
  279MPD2    C5 4267   3.449   3.580   0.509  0.4939 -0.0241 -0.1891
  279MPD2     H 4268   3.247   3.901   0.432 -1.4052 -0.2101 -0.0336
  279MPD2    H1 4269   3.444   3.535   0.307 -0.3813  1.4522 -0.9456
  279MPD2    H2 4270   3.428   3.628   0.712  0.1021  0.2662  0.2933
  279MPD2    H3 4271   3.508   3.491   0.524 -0.2437 -0.4778 -0.0049
  279MPD2     N 4272   3.291   3.743   0.216 -0.0511 -0.4545 -0.3379
  279MPD2    H5 4273   3.313   3.666   0.154 -0.1201 -1.2629  0.6306
  279MPD2    N1 4274   3.302   3.846   0.706 -0.1463  0.4818 -0.0228
  279MPD2    H7 4275   3.348   3.809   0.789  3.4474 -0.9382 -2.6265
  280TMC3    C1 4276   3.117   3.996   0.629  0.6472 -0.1093  0.1309
  280TMC3    C2 4277   3.033   3.907   0.571 -0.5031 -0.1174  0.4512
  280TMC3    C3 4278   2.938   3.952   0.482  0.4847  0.6787 -0.4483
  280TMC3    C4 4279   3.091   4.133   0.614 -0.3442  0.0287  0.1278
  280TMC3    C5 4280   2.985   4.174   0.537 -0.1731 -0.0726 -0.6509
  280TMC3    C6 4281   2.903   4.083   0.473 -0.1602  0.2407  0.0919
  280TMC3     C 4282   3.226   3.961   0.722 -0.3758 -0.6512  0.3073
  280TMC3     O 4283   3.226   4.039   0.815  0.2589 -0.2300 -0.1778
  280TMC3     H 4284   3.052   3.801   0.585  0.4303  0.1181  0.9823
  280TMC3    H1 4285   3.164   4.201   0.655 -0.6743 -0.8034  2.0943
  280TMC3    H2 4286   2.820   4.111   0.409 -0.9301  0.2387  1.0832
  280TMC3    C7 4287   2.976   4.313   0.500  0.0040  0.2259  0.3715
  280TMC3    C8 4288   2.867   3.859   0.405 -0.4440 -0.1286  0.3014
  280TMC3    O1 4289   3.054   4.386   0.565  0.2476  0.6539  0.1441
  280TMC3    O2 4290   2.758   3.899   0.360 -0.4876 -0.2386 -0.4313
  281TMC3    C1 4291   2.451   4.426  13.399 -0.1513 -0.2916 -0.0365
  281TMC3    C2 4292   2.489   4.542  13.331  0.3208  0.3209 -0.2576
  281TMC3    C3 4293   2.563   4.519  13.217  0.3614  0.7159  0.6005
  281TMC3    C4 4294   2.481   4.295  13.359 -0.6058  0.9531 -0.5409
  281TMC3    C5 4295   2.558   4.282  13.246 -0.5977  0.0445 -0.4666
  281TMC3    C6 4296   2.610   4.394  13.191  0.2198 -0.4350 -0.5335
  281TMC3     C 4297   2.343   4.424  13.497 -0.5883  0.3569 -0.7232
  281TMC3     O 4298   2.324   4.330  13.578  0.7704  0.2107  0.1517
  281TMC3     H 4299   2.438   4.635  13.354  1.3390  0.5524  1.0491
  281TMC3    H1 4300   2.449   4.203  13.405  1.9275 -0.7740 -2.2666
  281TMC3    H2 4301   2.665   4.376  13.099  1.5777  3.6333 -0.5444
  281TMC3    C7 4302   2.579   4.153  13.192  0.1052 -0.2107  0.1429
  281TMC3    C8 4303   2.502   4.588  13.097 -0.3753 -0.4376  0.3727
  281TMC3    O1 4304   2.688   4.146  13.144  0.0387  0.2194  0.2881
  281TMC3    O2 4305   2.390   4.632  13.117  0.1441 -0.5694 -0.2773
  282MPD2     C 4306   3.745   0.710  15.060 -0.2846  0.1526 -0.2952
  282MPD2    C1 4307   3.661   0.811  15.032 -0.2220 -0.1193  0.2348
  282MPD2    C2 4308   3.660   0.882  14.913 -0.2793 -0.6198 -0.1771
  282MPD2    C3 4309   3.750   0.848  14.818 -0.4354  0.4919 -0.1920
  282MPD2    C4 4310   3.841   0.748  14.836  0.1078 -0.5849  0.4295
  282MPD2    C5 4311   3.840   0.691  14.964  0.0065  0.3401 -0.4495
  282MPD2     H 4312   3.583   0.954  14.887 -2.6740 -2.4973  1.7735
  282MPD2    H1 4313   3.908   0.722  14.754  0.0583 -0.1208  0.2454
  282MPD2    H2 4314   3.750   0.656  15.154  0.5021  2.1691  0.8275
  282MPD2    H3 4315   3.917   0.615  14.980  0.3300  0.8871  0.5690
  282MPD2     N 4316   3.726   0.913  14.694 -0.0339 -0.4064 -0.8837
  282MPD2    H5 4317   3.638   0.962  14.679 -0.4336 -0.8476 -0.0095
  282MPD2    N1 4318   3.553   0.836  15.116  0.4466  0.1184  0.2530
  282MPD2    H7 4319   3.483   0.900  15.079  2.0048  1.7849  0.1965
  283TMC3    C1 4320   3.391   0.817  15.279  0.8990  0.3505 -0.4042
  283TMC3    C2 4321   3.385   0.952  15.304 -0.4364  0.1278  0.2625
  283TMC3    C3 4322   3.285   0.987  15.397  0.0973  0.1292  0.1529
  283TMC3    C4 4323   3.314   0.718  15.332  0.3799 -0.3540  0.1724
  283TMC3    C5 4324   3.223   0.760  15.426 -0.6646  0.6123  0.2476
  283TMC3    C6 4325   3.224   0.891  15.463 -0.1376  0.0949 -0.8036
  283TMC3     C 4326   3.516   0.764  15.218  0.5068 -0.4439 -0.3515
  283TMC3     O 4327   3.568   0.674  15.286  0.3193 -0.1026 -0.0128
  283TMC3     H 4328   3.441   1.028  15.250  0.4057 -1.2588 -0.8100
  283TMC3    H1 4329   3.343   0.614  15.319  2.0306  0.3201 -1.4939
  283TMC3    H2 4330   3.162   0.912  15.549 -0.7243 -0.4722 -1.0811
  283TMC3    C7 4331   3.166   0.667  15.519 -0.0489  0.0888  0.0968
  283TMC3    C8 4332   3.265   1.123  15.453  0.1349 -0.4913 -0.4379
  283TMC3    O1 4333   3.127   0.702  15.629 -0.2948 -0.3113 -0.9153
  283TMC3    O2 4334   3.166   1.137  15.526 -0.0431 -0.2724 -0.0878
  284MPD2     C 4335   2.306   0.098  12.014 -0.0912 -0.1369 -0.1549
  284MPD2    C1 4336   2.246   0.199  11.937  0.2608  0.0326 -0.2646
  284MPD2    C2 4337   2.150   0.168  11.843 -0.4674  0.1953 -0.3272
  284MPD2    C3 4338   2.110   0.035  11.826 -0.0427  0.3002 -0.1150
  284MPD2    C4 4339   2.166   4.677  11.906 -0.5507 -0.3149 -0.3306
  284MPD2    C5 4340   2.269   4.707  11.994  0.2003 -0.0634 -0.3553
  284MPD2     H 4341   2.113   0.251  11.784 -1.3617 -0.0613 -0.1175
  284MPD2    H1 4342   2.132   4.575  11.919 -1.1061  0.4127  3.7921
  284MPD2    H2 4343   2.382   0.117  12.089  2.4813  1.7615 -3.2175
  284MPD2    H3 4344   2.316   4.629  12.052 -2.1037 -0.0848  1.4883
  284MPD2     N 4345   2.028   0.001  11.713 -0.3313 -0.1959 -0.0252
  284MPD2    H5 4346   1.999   4.643  11.704 -1.3797 -0.0249  1.4495
  284MPD2    N1 4347   2.286   0.332  11.937  0.4592  0.4844  0.3173
  284MPD2    H7 4348   2.232   0.396  11.880 -0.7701  0.1072  1.0682
  285TMC3    C1 4349   2.447   0.506  11.930  0.5001 -0.6036 -0.2587
  285TMC3    C2 4350   2.538   0.510  11.824 -0.3889 -0.0667 -0.2321
  285TMC3    C3 4351   2.550   0.617  11.744 -0.4169  0.1274  0.5244
  285TMC3    C4 4352   2.360   0.612  11.947 -0.0055  0.1111  0.0410
  285TMC3    C5 4353   2.367   0.709  11.852  0.1757 -0.0497 -0.9074
  285TMC3    C6 4354   2.463   0.714  11.758 -0.1651  0.9108  0.9735
  285TMC3     C 4355   2.412   0.369  11.985  0.2047  0.0170  0.7702
  285TMC3     O 4356   2.502   0.287  12.006 -0.3049  0.1708  0.5496
  285TMC3     H 4357   2.600   0.422  11.814  1.0396  0.5391  3.4592
  285TMC3    H1 4358   2.283   0.604  12.023 -1.0215  1.9014 -0.7863
  285TMC3    H2 4359   2.469   0.793  11.683 -1.4796  0.0839  0.0050
  285TMC3    C7 4360   2.286   0.829  11.862 -0.1783  0.4862 -0.2425
  285TMC3    C8 4361   2.608   0.605  11.612 -0.3422 -0.7874 -0.2994
  285TMC3    O1 4362   2.347   0.934  11.867 -0.6587 -0.3585  0.3810
  285TMC3    O2 4363   2.551   0.671  11.522  0.2543 -0.3619 -0.4026
  286MPD2     C 4364   2.430   3.863   1.560  0.6855 -0.5586  0.6112
  286MPD2    C1 4365   2.401   3.830   1.427 -0.2196  0.3922  1.3898
  286MPD2    C2 4366   2.445   3.702   1.384 -0.1675  0.4227  0.8411
  286MPD2    C3 4367   2.542   3.628   1.455 -0.3009  0.7028  0.1949
  286MPD2    C4 4368   2.568   3.666   1.586  0.4185 -0.2407 -0.5170
  286MPD2    C5 4369   2.511   3.784   1.635 -0.0131 -0.2723 -0.0842
  286MPD2     H 4370   2.420   3.669   1.284  2.9250  1.4417 -0.2642
  286MPD2    H1 4371   2.636   3.602   1.641 -0.8406 -1.3822 -0.2876
  286MPD2    H2 4372   2.400   3.959   1.600  1.1183 -0.3936  0.5473
  286MPD2    H3 4373   2.526   3.824   1.734  1.9237 -2.9460  0.7126
  286MPD2     N 4374   2.601   3.508   1.420  0.6427  0.2910 -0.0985
  286MPD2    H5 4375   2.671   3.474   1.484  0.9397  2.7946  0.8945
  286MPD2    N1 4376   2.316   3.923   1.357 -0.3122 -0.1625 -0.2146
  286MPD2    H7 4377   2.292   4.011   1.402 -1.4011 -0.2523 -0.6187
  287TMC3    C1 4378   2.609   3.286   1.325  0.5124  0.2261  0.2863
  287TMC3    C2 4379   2.587   3.218   1.208 -0.0767 -0.9074 -0.2901
  287TMC3    C3 4380   2.677   3.130   1.174  0.0157 -0.0257 -1.2650
  287TMC3    C4 4381   2.719   3.258   1.408 -1.0497  0.2407  0.3747
  287TMC3    C5 4382   2.810   3.172   1.363 -0.7134 -0.5935  0.0883
  287TMC3    C6 4383   2.791   3.103   1.247 -0.9286  0.3526 -0.2402
  287TMC3     C 4384   2.545   3.418   1.331 -0.1709  0.7761  0.0970
  287TMC3     O 4385   2.448   3.438   1.256  0.1242 -0.2193 -0.0696
  287TMC3     H 4386   2.490   3.232   1.160  1.0252  2.9533 -1.4041
  287TMC3    H1 4387   2.749   3.307   1.500  0.1521  2.6852 -1.3016
  287TMC3    H2 4388   2.862   3.035   1.201 -0.3157  1.3117 -0.7077
  287TMC3    C7 4389   2.922   3.149   1.440  0.1124  0.3937  0.7365
  287TMC3    C8 4390   2.657   3.071   1.035  0.0289 -0.1834  0.0992
  287TMC3    O1 4391   2.955   3.233   1.528 -0.1039 -0.4913  0.3989
  287TMC3    O2 4392   2.542   3.068   0.993  0.3317 -0.6957 -0.1016
  288TMC3    C1 4393   4.179   3.273  14.192 -0.0942  0.5412 -0.1202
  288TMC3    C2 4394   4.154   3.306  14.321 -0.0645 -0.1524  0.7618
  288TMC3    C3 4395   4.030   3.275  14.374 -0.2238 -0.0918 -0.0687
  288TMC3    C4 4396   4.098   3.199  14.115  0.4125  0.2019  0.0698
  288TMC3    C5 4397   3.979   3.160  14.168  0.2303 -0.7697  0.0490
  288TMC3    C6 4398   3.947   3.205  14.297 -0.3656 -0.0932  0.0937
  288TMC3     C 4399   4.289   3.350  14.130 -0.0971 -0.7301 -1.0074
  288TMC3     O 4400   4.399   3.347  14.188 -0.2141 -0.2296  0.0625
  288TMC3     H 4401   4.218   3.369  14.382 -0.9787  0.8430  0.6758
  288TMC3    H1 4402   4.125   3.188  14.010 -2.9908  1.7262 -0.9419
  288TMC3    H2 4403   3.845   3.185  14.326  1.0393 -2.5110  3.2665
  288TMC3    C7 4404   3.872   3.138  14.070  0.3473 -0.6960 -0.3365
  288TMC3    C8 4405   3.999   3.326  14.508  0.3000  0.2120 -0.1410
  288TMC3    O1 4406   3.760   3.174  14.111  0.3090  0.0471  0.1131
  288TMC3    O2 4407   4.063   3.416  14.560  0.2717 -0.2838 -0.2545
  289MPD2     C 4408   4.300   2.577  14.460  0.6278 -0.2773  0.3507
  289MPD2    C1 4409   4.266   2.706  14.421  0.2878  0.1096  0.1441
  289MPD2    C2 4410   4.147   2.716  14.339 -0.0890 -0.2360  0.0667
  289MPD2    C3 4411   4.070   2.604  14.311  0.6521  0.3960 -0.6905
  289MPD2    C4 4412   4.123   2.483  14.341 -0.1577  0.6239 -0.3793
  289MPD2    C5 4413   4.239   2.465  14.409 -0.5852  0.8767  0.0169
  289MPD2     H 4414   4.111   2.814  14.310  1.7719 -0.3617 -2.7558
  289MPD2    H1 4415   4.070   2.392  14.313  1.2360 -0.3446  0.1225
  289MPD2    H2 4416   4.393   2.550  14.508  1.0136  0.3229 -0.0540
  289MPD2    H3 4417   4.281   2.370  14.437 -0.3109  1.6792  2.3048
  289MPD2     N 4418   3.942   2.610  14.259  0.4530  0.0452 -0.4432
  289MPD2    H5 4419   3.893   2.523  14.241  0.9204 -0.5666  1.2393
  289MPD2    N1 4420   4.340   2.815  14.473  0.8631 -0.2277 -0.4659
  289MPD2    H7 4421   4.415   2.795  14.539 -1.9736 -0.9973  2.5635
  290TMC3    C1 4422   3.760   2.691  14.145 -0.2570  0.0800 -0.1043
  290TMC3    C2 4423   3.693   2.790  14.086 -0.4685  0.0992  0.2495
  290TMC3    C3 4424   3.565   2.768  14.036  0.5111 -0.7504 -0.2031
  290TMC3    C4 4425   3.692   2.573  14.170  0.1167  0.5394 -0.6018
  290TMC3    C5 4426   3.573   2.545  14.106  0.2903 -0.0884  0.9760
  290TMC3    C6 4427   3.512   2.642  14.035  0.5944  0.4155 -0.2420
  290TMC3     C 4428   3.884   2.721  14.214 -0.4612  0.6997 -0.1882
  290TMC3     O 4429   3.927   2.830  14.198  0.1520  0.4205  0.1045
  290TMC3     H 4430   3.740   2.885  14.064 -0.3882 -0.0735 -0.3347
  290TMC3    H1 4431   3.726   2.506  14.248 -0.3092 -0.6562 -1.4354
  290TMC3    H2 4432   3.414   2.624  13.991  0.6479 -1.9087  0.6024
  290TMC3    C7 4433   3.489   2.448  14.173  0.1157 -0.3584  0.0608
  290TMC3    C8 4434   3.471   2.880  14.035  0.4084  0.6930 -0.1586
  290TMC3    O1 4435   3.368   2.464  14.152 -0.2996  0.1221 -0.4226
  290TMC3    O2 4436   3.356   2.853  13.995 -0.6864  0.0093 -0.0317
  291MPD2     C 4437   3.193   2.796   0.325  0.0405  0.2071  0.1346
  291MPD2    C1 4438   3.290   2.695   0.320  0.3915 -0.1883  0.0427
  291MPD2    C2 4439   3.419   2.730   0.350  0.2289 -0.2048  0.0975
  291MPD2    C3 4440   3.454   2.863   0.386 -0.1163  0.3900  0.3417
  291MPD2    C4 4441   3.353   2.960   0.392 -0.1462  0.7367  0.1301
  291MPD2    C5 4442   3.226   2.929   0.353 -0.6450  0.0995 -0.1937
  291MPD2     H 4443   3.493   2.652   0.363 -1.8633 -1.8558  1.9701
  291MPD2    H1 4444   3.365   3.066   0.413  0.5486  0.5185  0.8016
  291MPD2    H2 4445   3.089   2.781   0.301 -0.6137  1.3235  2.2776
  291MPD2    H3 4446   3.150   3.005   0.356 -0.6112  0.0869  1.0351
  291MPD2     N 4447   3.579   2.905   0.427  0.3755  0.5985  0.2891
  291MPD2    H5 4448   3.590   2.998   0.466 -0.3791  0.6977  0.2597
  291MPD2    N1 4449   3.264   2.557   0.312  0.4993 -0.2338 -0.3117
  291MPD2    H7 4450   3.338   2.493   0.338  0.6401 -0.7524 -1.9788
  292TMC3    C1 4451   3.145   2.350   0.303  0.5966  0.1578 -0.3666
  292TMC3    C2 4452   3.166   2.322   0.432 -0.0337 -0.0611  0.6740
  292TMC3    C3 4453   3.165   2.190   0.468 -0.1910 -0.0970  0.0614
  292TMC3    C4 4454   3.106   2.261   0.208  0.7458  0.2254  0.3200
  292TMC3    C5 4455   3.096   2.125   0.249  0.4420  0.0547 -0.1226
  292TMC3    C6 4456   3.134   2.088   0.378 -0.3234  0.0299 -0.1298
  292TMC3     C 4457   3.144   2.494   0.279 -0.7233  0.1776 -0.2685
  292TMC3     O 4458   3.041   2.545   0.230 -0.2790 -0.1305  0.4987
  292TMC3     H 4459   3.198   2.399   0.502 -2.7816  0.3487  1.4711
  292TMC3    H1 4460   3.085   2.287   0.104 -1.7187  1.2326  1.0554
  292TMC3    H2 4461   3.143   1.983   0.402  3.1793  0.3819  0.0820
  292TMC3    C7 4462   3.075   2.023   0.152  0.3091 -0.3224  0.0725
  292TMC3    C8 4463   3.273   2.156   0.564 -0.5399 -0.1793 -0.0726
  292TMC3    O1 4464   3.125   1.911   0.173 -0.2469 -0.1838  0.0325
  292TMC3    O2 4465   3.359   2.243   0.574 -0.2583 -0.1201 -0.0300
  293MPD2     C 4466   4.721   4.226  12.577  0.4851 -0.9918  0.0819
  293MPD2    C1 4467   4.660   4.164  12.680  0.1714 -1.0074 -0.4020
  293MPD2    C2 4468   4.734   4.139  12.794 -0.0028 -0.6576  0.2719
  293MPD2    C3 4469   0.120   4.184  12.815  0.0807 -0.2097 -0.1293
  293MPD2    C4 4470   0.176   4.261  12.713  0.2601 -0.5543 -0.2379
  293MPD2    C5 4471   0.111   4.274  12.593  0.6216  0.6225 -0.5636
  293MPD2     H 4472   4.696   4.086  12.881  1.5529 -1.6128  0.3578
  293MPD2    H1 4473   0.267   4.318  12.723  0.3353 -0.7025 -0.0680
  293MPD2    H2 4474   4.680   4.233  12.477  1.1549 -2.2462 -0.2856
  293MPD2    H3 4475   0.157   4.334  12.515  1.2736  2.3444  1.1406
  293MPD2     N 4476   0.190   4.173  12.936 -0.0232 -0.2082  0.2201
  293MPD2    H5 4477   0.137   4.152  13.019 -0.8670  0.6582 -0.1043
  293MPD2    N1 4478   4.525   4.125  12.665  0.1556  0.0296 -0.1092
  293MPD2    H7 4479   4.491   4.154  12.574  0.4237 -0.4434 -0.3641
  294TMC3    C1 4480   4.320   3.991  12.698  0.1305 -0.1635 -0.3632
  294TMC3    C2 4481   4.322   3.853  12.691  0.3104 -0.0337  0.0132
  294TMC3    C3 4482   4.252   3.795  12.589 -0.1018 -0.5943  0.2799
  294TMC3    C4 4483   4.257   4.063  12.598 -0.2373  0.0256 -0.3969
  294TMC3    C5 4484   4.189   3.999  12.499 -0.2246  0.0727 -0.1196
  294TMC3    C6 4485   4.181   3.861  12.487 -0.5687 -0.4259 -0.0715
  294TMC3     C 4486   4.445   4.045  12.751 -0.1017 -0.4706  0.2908
  294TMC3     O 4487   4.487   4.001  12.857 -0.2105 -0.0544  0.1615
  294TMC3     H 4488   4.369   3.799  12.773  0.1716 -0.1090  0.0425
  294TMC3    H1 4489   4.257   4.172  12.595  2.7885  0.0200 -0.7578
  294TMC3    H2 4490   4.145   3.813  12.397  0.5514 -0.0846 -0.7129
  294TMC3    C7 4491   4.136   4.081  12.389  0.0551  0.7575  0.3992
  294TMC3    C8 4492   4.298   3.657  12.548  0.4520 -0.0547 -0.4126
  294TMC3    O1 4493   4.196   4.184  12.371 -0.1036  0.1393 -0.1781
  294TMC3    O2 4494   4.233   3.618  12.452 -0.4395  0.2735  0.1258
  295MPD2     C 4495   1.704   2.005   0.089  0.3120 -0.5478 -0.5283
  295MPD2    C1 4496   1.595   2.091   0.116  0.8238 -0.8771 -0.6420
  295MPD2    C2 4497   1.487   2.045   0.190 -0.2082  0.2634 -0.4692
  295MPD2    C3 4498   1.479   1.917   0.224  0.8755  0.0899 -0.2037
  295MPD2    C4 4499   1.583   1.832   0.179  0.0056 -0.3050  0.1531
  295MPD2    C5 4500   1.699   1.877   0.116 -0.5404  0.3722 -0.0550
  295MPD2     H 4501   1.409   2.119   0.203 -0.5996 -0.7636  3.0960
  295MPD2    H1 4502   1.584   1.726   0.206  1.0580 -0.2636  0.2765
  295MPD2    H2 4503   1.790   2.041   0.032 -0.0444  0.1828 -0.6040
  295MPD2    H3 4504   1.778   1.817   0.072 -0.7472 -0.6806  1.0133
  295MPD2     N 4505   1.371   1.861   0.296  0.6163 -0.7213  0.0963
  295MPD2    H5 4506   1.377   1.762   0.317  0.4792 -0.6899  0.2906
  295MPD2    N1 4507   1.608   2.232   0.093 -0.0426 -0.1255  0.0930
  295MPD2    H7 4508   1.537   2.290   0.135  0.9941  0.4832  0.9829
  296TMC3    C1 4509   1.181   1.845   0.429 -0.0797  0.5279 -0.0250
  296TMC3    C2 4510   1.094   1.904   0.521  0.0363  0.6148  0.7322
  296TMC3    C3 4511   1.012   1.821   0.593  0.1955  0.1414  0.0051
  296TMC3    C4 4512   1.180   1.715   0.407 -0.6825  1.1384  0.6438
  296TMC3    C5 4513   1.097   1.627   0.478 -0.6221  0.0853 -0.1381
  296TMC3    C6 4514   1.018   1.685   0.575 -0.0110  0.2933  0.1469
  296TMC3     C 4515   1.268   1.929   0.353 -0.8833 -0.0954 -0.4196
  296TMC3     O 4516   1.238   2.051   0.343  0.0548  0.1502  0.0527
  296TMC3     H 4517   1.089   2.011   0.535  0.4381  0.6343  0.7397
  296TMC3    H1 4518   1.238   1.685   0.320 -2.5574 -0.6650  0.0025
  296TMC3    H2 4519   0.959   1.623   0.641 -0.4242  0.6835  0.1442
  296TMC3    C7 4520   1.064   1.499   0.414 -0.1974  0.1726  0.1630
  296TMC3    C8 4521   0.929   1.866   0.703 -0.1317  0.3179 -0.4231
  296TMC3    O1 4522   1.136   1.463   0.325 -0.4233  0.5350  0.1051
  296TMC3    O2 4523   0.867   1.780   0.765 -0.7888 -0.0452 -0.1301
  297MPD2     C 4524   2.447   4.230  16.249 -0.3223 -0.7244  0.3877
  297MPD2    C1 4525   2.454   4.347  16.176  0.4508 -0.0697 -0.1080
  297MPD2    C2 4526   2.570   4.379  16.107 -0.5143 -1.1616 -0.1530
  297MPD2    C3 4527   2.684   4.309  16.128  0.3474 -0.8791  0.0562
  297MPD2    C4 4528   2.686   4.192  16.206  0.2389 -0.3886  0.2497
  297MPD2    C5 4529   2.568   4.166  16.275 -0.0493  0.4338  0.2669
  297MPD2     H 4530   2.572   4.468  16.046  1.9672 -0.4912  0.9218
  297MPD2    H1 4531   2.771   4.128  16.226  0.2456 -0.1185  1.1188
  297MPD2    H2 4532   2.358   4.188  16.295 -1.2654 -0.8364 -1.4973
  297MPD2    H3 4533   2.574   4.075  16.333 -0.7230 -1.2445 -2.2676
  297MPD2     N 4534   2.804   4.360  16.069  0.2699  0.4130  0.6102
  297MPD2    H5 4535   2.791   4.453  16.030 -1.5692  0.0617  0.3829
  297MPD2    N1 4536   2.349   4.439  16.166  0.3599 -0.0298 -0.2013
  297MPD2    H7 4537   2.356   4.507  16.092  1.1474 -1.2601 -1.2528
  298TMC3    C1 4538   2.169   4.570  16.224  0.1899  0.3435  0.3308
  298TMC3    C2 4539   2.132   4.571  16.092  0.2939 -0.4467 -0.3208
  298TMC3    C3 4540   2.040   4.672  16.065 -0.1830 -0.0541  0.1002
  298TMC3    C4 4541   2.115   4.654  16.325 -0.1048  0.0549  0.0846
  298TMC3    C5 4542   2.025   0.011  16.292 -0.3550 -0.5235 -0.4293
  298TMC3    C6 4543   1.986   0.010  16.164 -0.1179  0.0127 -0.4895
  298TMC3     C 4544   2.249   4.459  16.259 -0.2762  0.3832 -0.0163
  298TMC3     O 4545   2.240   4.415  16.370  0.2250  0.0470  0.0279
  298TMC3     H 4546   2.166   4.498  16.019 -0.2452  0.3227 -1.3354
  298TMC3    H1 4547   2.135   4.640  16.431 -0.1682  1.7834  0.3092
  298TMC3    H2 4548   1.920   0.088  16.127 -0.4776 -1.1702 -2.3764
  298TMC3    C7 4549   2.008   0.126  16.383  1.1420  0.5163  0.0508
  298TMC3    C8 4550   2.041   4.713  15.924 -0.6980 -0.1244 -0.0923
  298TMC3    O1 4551   2.089   0.148  16.472 -0.4361  0.6555  0.4852
  298TMC3    O2 4552   2.099   4.637  15.853  0.3179 -0.4533  0.1730
  299MPD2     C 4553   3.508   4.411  11.001  0.4109  0.1170 -0.2444
  299MPD2    C1 4554   3.604   4.478  10.919 -0.0486 -0.1675 -0.1897
  299MPD2    C2 4555   3.569   4.525  10.795  0.1631 -0.2697  0.4620
  299MPD2    C3 4556   3.444   4.499  10.739 -0.1960  0.1350  0.2405
  299MPD2    C4 4557   3.349   4.447  10.826 -0.3191 -0.4543 -0.8774
  299MPD2    C5 4558   3.382   4.394  10.953 -0.1121  0.5778  0.4917
  299MPD2     H 4559   3.635   4.580  10.729 -1.6450  0.1459 -0.9792
  299MPD2    H1 4560   3.244   4.437  10.803 -0.2559 -0.9843 -0.9426
  299MPD2    H2 4561   3.523   4.380  11.104  0.7490  1.4764  0.1105
  299MPD2    H3 4562   3.312   4.342  11.017  1.9339 -0.8330  1.5820
  299MPD2     N 4563   3.409   4.524  10.607  0.0346 -0.2330 -0.2818
  299MPD2    H5 4564   3.312   4.538  10.579 -0.6629 -2.8706  0.8181
  299MPD2    N1 4565   3.726   4.505  10.982  0.2579 -0.3664 -0.1782
  299MPD2    H7 4566   3.732   4.473  11.078 -0.5700  1.7621  0.5960
  300TMC3    C1 4567   3.432   4.563  10.381  0.4022  0.6888  0.4791
  300TMC3    C2 4568   3.513   4.604  10.276  0.1276 -0.9705  0.1130
  300TMC3    C3 4569   3.453   4.646  10.161 -0.1299 -0.1984 -0.8532
  300TMC3    C4 4570   3.297   4.573  10.377 -0.2619  0.3667 -0.3154
  300TMC3    C5 4571   3.245   4.618  10.262  0.3446 -0.2990 -0.5815
  300TMC3    C6 4572   3.315   4.648  10.150 -0.0299 -0.2259  0.0684
  300TMC3     C 4573   3.499   4.539  10.505  0.2311 -0.3026  1.0242
  300TMC3     O 4574   3.622   4.563  10.507  0.4688 -0.0574 -0.4209
  300TMC3     H 4575   3.620   4.586  10.279 -0.2493 -3.0293  1.4477
  300TMC3    H1 4576   3.235   4.517  10.445  0.7279 -0.8456 -0.4071
  300TMC3    H2 4577   3.276   4.695  10.061 -1.0981  0.6737  1.0038
  300TMC3    C7 4578   3.102   4.625  10.239 -0.3560 -0.0760 -0.2723
  300TMC3    C8 4579   3.506   0.029  10.112 -0.3885 -0.2357 -0.1255
  300TMC3    O1 4580   3.068   4.609  10.121 -0.4390 -0.2703  0.1073
  300TMC3    O2 4581   3.486   0.060   9.994  0.5278  0.0873 -0.7194
  301MPD2     C 4582   0.903   0.870  17.615 -0.0627  0.2608  0.3932
  301MPD2    C1 4583   0.785   0.873  17.691 -0.7770  0.2531  0.3567
  301MPD2    C2 4584   0.719   0.754  17.716  0.2466 -0.1564 -0.3121
  301MPD2    C3 4585   0.777   0.630  17.684  0.4189 -0.2310  0.2742
  301MPD2    C4 4586   0.889   0.629  17.607  0.5433 -0.2891  0.1308
  301MPD2    C5 4587   0.956   0.751  17.578  0.2861 -0.4478 -0.3166
  301MPD2     H 4588   0.633   0.756   0.029  1.2237 -1.7037  0.9786
  301MPD2    H1 4589   0.934   0.538  17.570  0.3569  0.7119 -2.5721
  301MPD2    H2 4590   0.939   0.960  17.566 -1.4421  0.4757 -0.2284
  301MPD2    H3 4591   1.042   0.751  17.511 -0.2323  0.2057 -0.9828
  301MPD2     N 4592   0.720   0.503  17.716  0.1228  0.5230 -0.0202
  301MPD2    H5 4593   0.766   0.421  17.678 -1.9347 -0.1002 -1.1134
  301MPD2    N1 4594   0.720   0.998  17.726  0.0060  0.2031 -0.2526
  301MPD2    H7 4595   0.625   0.981   0.005 -0.8388 -0.2976 -3.0235
  302TMC3    C1 4596   0.549   0.347   0.042  0.2014 -0.2087 -0.1037
  302TMC3    C2 4597   0.646   0.257   0.064 -0.3817 -1.0340 -0.9103
  302TMC3    C3 4598   0.608   0.135   0.113 -0.4087  0.4137 -0.8042
  302TMC3    C4 4599   0.425   0.334   0.091 -0.7812 -0.3511 -0.4423
  302TMC3    C5 4600   0.391   0.218   0.156 -0.0815  0.6447  0.0066
  302TMC3    C6 4601   0.478   0.113   0.154 -0.8143 -0.5155  0.5566
  302TMC3     C 4602   0.604   0.483   0.036 -0.2136  0.2517 -1.0811
  302TMC3     O 4603   0.536   0.564   0.089 -0.5562  0.3051 -0.1383
  302TMC3     H 4604   0.748   0.271   0.032 -0.2817 -0.0693 -0.1488
  302TMC3    H1 4605   0.343   0.404   0.083  0.5638  1.2831  0.1691
  302TMC3    H2 4606   0.443   0.029   0.212  1.0940 -1.0171  0.9928
  302TMC3    C7 4607   0.276   0.205   0.246 -0.2116  0.4483 -0.1369
  302TMC3    C8 4608   0.705   0.054   0.188  0.3342  1.1819 -0.4492
  302TMC3    O1 4609   0.257   0.091   0.290  0.4108  0.0696 -0.5383
  302TMC3    O2 4610   0.813   0.104   0.229  0.1723 -0.4466  0.0095
  303MPD2     C 4611   1.310   3.891  10.291  0.7216  0.2615 -0.8693
  303MPD2    C1 4612   1.185   3.847  10.330 -0.8090  0.1548 -0.1074
  303MPD2    C2 4613   1.093   3.824  10.236  0.0374  0.0178  0.2404
  303MPD2    C3 4614   1.106   3.852  10.104 -0.5559  0.4651 -0.3996
  303MPD2    C4 4615   1.222   3.916  10.068 -0.3156  0.3651  0.4004
  303MPD2    C5 4616   1.322   3.926  10.161 -0.4487  0.0397 -0.7736
  303MPD2     H 4617   1.003   3.775  10.272  1.8657 -2.4464  1.4378
  303MPD2    H1 4618   1.237   3.960   9.970  1.6163 -2.1490 -0.4244
  303MPD2    H2 4619   1.391   3.906  10.361  0.2177 -1.3114  0.0602
  303MPD2    H3 4620   1.405   3.985  10.123  0.8951 -2.0145 -1.0190
  303MPD2     N 4621   1.005   3.834  10.008  0.4970 -0.0832  0.2380
  303MPD2    H5 4622   1.029   3.847   9.910 -2.2281 -1.9607 -0.6827
  303MPD2    N1 4623   1.149   3.807  10.461 -0.8580  0.5198  0.4013
  303MPD2    H7 4624   1.067   3.754  10.486 -1.1894  1.3215  1.0093
  304TMC3    C1 4625   1.168   3.773  10.681 -0.3506  0.3548 -0.1663
  304TMC3    C2 4626   1.167   3.848  10.795 -0.0869 -0.3117 -0.0609
  304TMC3    C3 4627   1.070   3.811  10.891  0.4802  0.6395  0.6177
  304TMC3    C4 4628   1.123   3.650  10.666 -0.9894  0.0709  0.1575
  304TMC3    C5 4629   1.044   3.615  10.766  0.5294 -0.8171  0.2863
  304TMC3    C6 4630   1.016   3.687  10.881  0.4035  0.1266 -0.1039
  304TMC3     C 4631   1.221   3.842  10.569  0.3245 -0.3553 -0.3483
  304TMC3     O 4632   1.318   3.918  10.583  0.1744 -0.0689  0.3208
  304TMC3     H 4633   1.197   3.950  10.777  2.4190 -0.8764  1.0097
  304TMC3    H1 4634   1.134   3.604  10.568 -0.8067  0.8746 -0.2095
  304TMC3    H2 4635   0.968   3.641  10.967  2.8298 -1.4306  0.4288
  304TMC3    C7 4636   0.942   3.512  10.747  0.4974  0.3831  0.2326
  304TMC3    C8 4637   0.966   3.909  10.898  0.4484 -0.0983  0.2401
  304TMC3    O1 4638   0.858   3.511  10.838 -0.2720 -0.5096 -0.1610
  304TMC3    O2 4639   0.994   4.027  10.888 -0.1162 -0.1617  0.8364
  305MPD2     C 4640   3.931   1.181  13.998 -0.1462  0.3300  0.4170
  305MPD2    C1 4641   3.941   1.065  14.070  0.2712 -0.3661 -0.9930
  305MPD2    C2 4642   3.925   0.940  14.016 -0.0231 -0.4629  0.0816
  305MPD2    C3 4643   3.893   0.937  13.880  0.0361 -0.0865 -0.0024
  305MPD2    C4 4644   3.881   1.056  13.804  0.4515  0.4281 -0.0165
  305MPD2    C5 4645   3.894   1.176  13.869  0.8181  0.3666 -0.0020
  305MPD2     H 4646   3.928   0.844  14.066  1.5627  0.4670  1.8046
  305MPD2    H1 4647   3.865   1.045  13.697 -1.5458 -2.4885  0.5810
  305MPD2    H2 4648   3.955   1.276  14.043  0.7476  1.3798 -2.2534
  305MPD2    H3 4649   3.876   1.271  13.819 -0.0699  0.3058  0.1920
  305MPD2     N 4650   3.854   0.819  13.820 -0.1581  0.6039 -0.2188
  305MPD2    H5 4651   3.803   0.825  13.733 -1.5434 -1.7355  0.4343
  305MPD2    N1 4652   3.965   1.079  14.207  0.0450  0.0205  0.1196
  305MPD2    H7 4653   3.987   0.993  14.256 -4.2762 -0.3867  1.3659
  306TMC3    C1 4654   4.012   1.184  14.413 -0.1239  0.0296  0.1940
  306TMC3    C2 4655   4.111   1.092  14.428  0.0521  0.1013 -0.0368
  306TMC3    C3 4656   4.151   1.057  14.554 -0.2790  0.3585 -0.1759
  306TMC3    C4 4657   3.942   1.230  14.516 -0.2796  0.2061 -0.4149
  306TMC3    C5 4658   3.983   1.198  14.641 -0.1854 -0.3210 -0.3702
  306TMC3    C6 4659   4.084   1.106  14.664  0.0112  0.0711  0.1651
  306TMC3     C 4660   3.938   1.192  14.286 -0.2797  0.4139  0.5125
  306TMC3     O 4661   3.852   1.277  14.262  0.6340  0.6290 -0.4527
  306TMC3     H 4662   4.161   1.067  14.335 -2.5228 -0.8889 -1.1571
  306TMC3    H1 4663   3.851   1.283  14.489 -0.4057  0.8541  1.3014
  306TMC3    H2 4664   4.099   1.067  14.764  0.6556 -1.8706 -0.6845
  306TMC3    C7 4665   3.895   1.224  14.752 -0.1824  0.4201  0.0842
  306TMC3    C8 4666   4.227   0.938  14.567 -0.4346  0.0255  0.1105
  306TMC3    O1 4667   3.772   1.225  14.728 -0.6587  0.1314  0.1171
  306TMC3    O2 4668   4.242   0.884  14.457 -0.2899 -0.1332 -0.1170
  307MPD2     C 4669   1.878   3.566  17.398 -0.1947 -0.2653 -0.7897
  307MPD2    C1 4670   1.798   3.670  17.441  0.1191  0.3971 -0.2272
  307MPD2    C2 4671   1.734   3.647  17.561 -0.0635 -0.1779  0.1377
  307MPD2    C3 4672   1.751   3.536  17.630  0.1652 -0.3556  0.1709
  307MPD2    C4 4673   1.836   3.437  17.585  0.0600  0.1922  0.6230
  307MPD2    C5 4674   1.890   3.451  17.465  0.3075  0.3630 -0.0943
  307MPD2     H 4675   1.661   3.723  17.587  0.7510  0.0890  1.6317
  307MPD2    H1 4676   1.842   3.341  17.636 -0.3652 -0.3447 -0.3387
  307MPD2    H2 4677   1.945   3.567  17.312  0.4133  1.4355 -0.2996
  307MPD2    H3 4678   1.956   3.372  17.430 -0.6032  1.4905 -4.3518
  307MPD2     N 4679   1.680   3.507  17.749  0.3214  0.2578 -0.0753
  307MPD2    H5 4680   1.680   3.410   0.027 -1.2044  0.2991  0.0397
  307MPD2    N1 4681   1.784   3.790  17.372 -0.5696 -0.1477 -0.2515
  307MPD2    H7 4682   1.737   3.866  17.421  0.5762  0.3611  0.0507
  308TMC3    C1 4683   1.351   3.442   0.264 -0.3963 -0.1780  0.1103
  308TMC3    C2 4684   1.337   3.524   0.370 -1.1063 -0.5746 -0.2017
  308TMC3    C3 4685   1.430   3.635   0.372  0.7275 -0.3691  0.6621
  308TMC3    C4 4686   1.449   3.464   0.165  0.4935  0.4979 -0.5610
  308TMC3    C5 4687   1.548   3.554   0.188  0.1365 -0.3463 -0.2172
  308TMC3    C6 4688   1.528   3.652   0.283  0.7432  0.1520  0.3987
  308TMC3     C 4689   1.224   3.392   0.209 -0.7534  0.1349 -0.2757
  308TMC3     O 4690   1.226   3.297   0.137 -0.3007  0.1911 -0.5554
  308TMC3     H 4691   1.260   3.507   0.445  0.2949 -1.2911  1.0890
  308TMC3    H1 4692   1.425   3.426   0.067  0.4054  0.8277 -0.6684
  308TMC3    H2 4693   1.593   3.739   0.294  0.3193  0.6717 -1.2194
  308TMC3    C7 4694   1.616   3.609   0.069 -0.1493 -0.3088  0.3181
  308TMC3    C8 4695   1.405   3.740   0.467  0.5063  0.6587 -0.1116
  308TMC3    O1 4696   1.631   3.731   0.068 -0.1545  0.1753  0.4789
  308TMC3    O2 4697   1.344   3.712   0.567 -0.1093  0.2029 -0.3377
  309MPD2     C 4698   0.790   4.163  16.932 -0.6141  0.4580  0.0589
  309MPD2    C1 4699   0.807   4.298  16.923 -0.0904  0.3699  0.0962
  309MPD2    C2 4700   0.742   4.387  17.002 -0.2653 -0.8988 -0.1218
  309MPD2    C3 4701   0.670   4.339  17.113  0.8183 -0.2363 -0.7404
  309MPD2    C4 4702   0.652   4.205  17.127  0.6916 -0.6088 -0.5543
  309MPD2    C5 4703   0.711   4.117  17.037 -0.7459 -0.4214 -0.4091
  309MPD2     H 4704   0.754   4.493  16.985  0.8450 -1.1068 -0.6205
  309MPD2    H1 4705   0.597   4.166  17.213  1.8076  2.8245  1.7251
  309MPD2    H2 4706   0.832   4.095  16.859 -1.3036  1.3642 -1.1828
  309MPD2    H3 4707   0.703   4.011  17.058 -0.8354 -0.5359 -1.0221
  309MPD2     N 4708   0.588   4.415  17.197 -0.2610 -0.2067  0.0093
  309MPD2    H5 4709   0.529   4.369  17.265 -0.3956  1.2297  0.8643
  309MPD2    N1 4710   0.882   4.359  16.819 -0.0782 -0.2417  0.0978
  309MPD2    H7 4711   0.879   4.460  16.808 -1.8096 -0.2279  0.5794
  310TMC3    C1 4712   1.021   4.356  16.629 -0.3062 -0.6564 -0.4130
  310TMC3    C2 4713   0.987   4.484  16.610  1.6719  0.2605 -0.1369
  310TMC3    C3 4714   1.003   4.543  16.485 -0.1972 -0.6595 -0.1032
  310TMC3    C4 4715   1.065   4.279  16.526  0.3539  0.0365 -1.1563
  310TMC3    C5 4716   1.095   4.343  16.410  0.3629 -0.4047  1.0732
  310TMC3    C6 4717   1.065   4.473  16.388  0.6032  0.2840 -0.5936
  310TMC3     C 4718   0.951   4.286  16.732 -0.0782 -0.4834 -0.5700
  310TMC3     O 4719   0.976   4.162  16.734  0.4928  0.0358  0.3152
  310TMC3     H 4720   0.944   4.550  16.685  0.0873 -0.3227 -0.5177
  310TMC3    H1 4721   1.073   4.171  16.535  1.0946  0.1611 -0.2772
  310TMC3    H2 4722   1.073   4.512  16.287  2.3608  0.0287 -0.5529
  310TMC3    C7 4723   1.177   4.257  16.317 -0.2371 -0.8967 -0.4400
  310TMC3    C8 4724   0.925   4.661  16.447  0.0012  0.3227  0.0345
  310TMC3    O1 4725   1.203   4.147  16.361  0.1753 -0.3419  0.1988
  310TMC3    O2 4726   0.827   4.679  16.520 -0.3132 -0.1496 -0.2583
  311MPD2     C 4727   2.704   0.747  12.692 -0.0512  0.1595 -0.2124
  311MPD2    C1 4728   2.693   0.869  12.754 -0.2928  0.0759 -0.9405
  311MPD2    C2 4729   2.566   0.906  12.802  0.2331  0.4508 -0.2875
  311MPD2    C3 4730   2.455   0.818  12.795 -0.0968 -0.2378  0.1448
  311MPD2    C4 4731   2.475   0.707  12.722 -0.1372 -0.5119  0.8292
  311MPD2    C5 4732   2.596   0.671  12.671  0.0753 -0.2208  0.2677
  311MPD2     H 4733   2.552   1.004  12.846  0.4368  0.2361  0.2477
  311MPD2    H1 4734   2.391   0.642  12.699 -1.2732  0.6264  1.7548
  311MPD2    H2 4735   2.801   0.708  12.663  0.3713  1.6928 -0.9115
  311MPD2    H3 4736   2.616   0.575  12.624  0.2197  0.1946 -0.5105
  311MPD2     N 4737   2.336   0.839  12.866  0.6302  0.1372  0.4421
  311MPD2    H5 4738   2.339   0.914  12.935  2.8528  1.5285 -1.1812
  311MPD2    N1 4739   2.804   0.955  12.782  0.8218 -0.5430  0.1621
  311MPD2    H7 4740   2.791   1.032  12.847 -1.1899  0.7290 -1.7123
  312TMC3    C1 4741   2.144   0.802  12.977  0.0040 -0.5582  0.0114
  312TMC3    C2 4742   2.016   0.821  12.936 -0.2380  0.4417 -0.5759
  312TMC3    C3 4743   1.944   0.915  13.011 -0.7303  0.5107 -0.1344
  312TMC3    C4 4744   2.195   0.848  13.095  0.4159  0.6090  0.1983
  312TMC3    C5 4745   2.120   0.936  13.166  0.3344  0.0571 -0.4537
  312TMC3    C6 4746   2.000   0.976  13.120 -0.1433  0.0548 -0.7269
  312TMC3     C 4747   2.230   0.746  12.881 -0.0328  0.4861  0.1027
  312TMC3     O 4748   2.190   0.670  12.791 -0.4476  0.0400  0.4012
  312TMC3     H 4749   1.983   0.779  12.841 -1.8026 -2.2628  1.1610
  312TMC3    H1 4750   2.301   0.832  13.110  0.5529  1.8695  0.5967
  312TMC3    H2 4751   1.943   1.045  13.181  1.3136 -0.1013  0.8065
  312TMC3    C7 4752   2.168   0.996  13.288 -0.3023 -0.6588  0.2999
  312TMC3    C8 4753   1.817   0.956  12.944  0.1212 -0.6297 -0.1265
  312TMC3    O1 4754   2.120   1.101  13.327 -0.2922 -0.1967  0.2591
  312TMC3    O2 4755   1.782   0.874  12.859 -0.2142  0.6529 -0.2299
  313MPD2     C 4756   1.488   0.784  11.411  0.0252 -0.3483 -0.0628
  313MPD2    C1 4757   1.560   0.763  11.294 -0.6455  0.3242  0.7212
  313MPD2    C2 4758   1.537   0.648  11.219 -0.1113  1.6032 -0.1736
  313MPD2    C3 4759   1.428   0.565  11.245  0.3916  0.2568 -0.0962
  313MPD2    C4 4760   1.353   0.598  11.354  1.0911 -0.2989 -0.4465
  313MPD2    C5 4761   1.390   0.694  11.445 -0.6377  0.2583 -0.5921
  313MPD2     H 4762   1.597   0.630  11.130 -0.4522  2.3888 -0.5619
  313MPD2    H1 4763   1.278   0.526  11.382 -2.4237  3.5682 -0.0726
  313MPD2    H2 4764   1.502   0.860  11.487 -0.7288  0.0467 -0.3144
  313MPD2    H3 4765   1.331   0.698  11.536  2.8862 -1.6762  1.7692
  313MPD2     N 4766   1.397   0.465  11.151 -0.0285 -0.8060  0.0434
  313MPD2    H5 4767   1.462   0.445  11.076  0.5534  3.8976 -0.7484
  313MPD2    N1 4768   1.672   0.847  11.255  0.0013  0.1471 -0.5166
  313MPD2    H7 4769   1.706   0.835  11.160  1.9526  1.1959  0.0467
  314TMC3    C1 4770   1.815   1.024  11.251 -0.4731  0.4376 -0.4230
  314TMC3    C2 4771   1.913   1.083  11.325  0.8481 -0.5944  0.6443
  314TMC3    C3 4772   1.960   1.208  11.291 -0.0656 -0.5476  0.5987
  314TMC3    C4 4773   1.762   1.088  11.141 -0.7493 -0.4312 -0.0979
  314TMC3    C5 4774   1.803   1.215  11.116  0.5315 -0.4621  0.8909
  314TMC3    C6 4775   1.908   1.276  11.184 -0.5794 -0.9938  0.5239
  314TMC3     C 4776   1.722   0.947  11.330  0.3849  0.2008 -0.4182
  314TMC3     O 4777   1.686   0.994  11.439 -0.5428 -0.2524  0.9770
  314TMC3     H 4778   1.961   1.039  11.411 -0.5764  0.3251  1.9117
  314TMC3    H1 4779   1.679   1.041  11.089 -0.5799  1.0897 -1.7419
  314TMC3    H2 4780   1.942   1.375  11.156  0.0271 -1.3081  0.1158
  314TMC3    C7 4781   1.798   1.245  10.973 -0.4115 -0.8635 -0.6435
  314TMC3    C8 4782   2.092   1.248  11.329  0.6015  0.4408  0.1647
  314TMC3    O1 4783   1.800   1.357  10.932  0.0190  0.5197 -0.4236
  314TMC3    O2 4784   2.110   1.370  11.323  0.2377 -0.2510  0.1716
  315MPD2     C 4785   1.956   4.228  17.711  0.4903  0.5440  0.3034
  315MPD2    C1 4786   2.064   4.229   0.043 -0.2814  0.1404 -0.4161
  315MPD2    C2 4787   2.154   4.336   0.042 -0.1899  0.2412  0.5171
  315MPD2    C3 4788   2.142   4.432  17.696  0.4376 -0.5863 -0.2695
  315MPD2    C4 4789   2.034   4.424  17.610 -0.7429 -0.1462  0.1883
  315MPD2    C5 4790   1.936   4.328  17.622 -0.6277 -0.0335 -0.1979
  315MPD2     H 4791   2.247   4.331   0.099  0.0428 -0.6622  0.0656
  315MPD2    H1 4792   2.008   4.506  17.543  0.4270  0.3305  0.3183
  315MPD2    H2 4793   1.875   4.156  17.715  0.5366  0.4415 -0.5698
  315MPD2    H3 4794   1.851   4.325  17.554 -0.9853 -1.6898  0.3171
  315MPD2     N 4795   2.231   4.540  17.700 -0.7362  0.0894  0.7751
  315MPD2    H5 4796   2.292   4.530   0.027 -0.1655 -0.5909  0.2604
  315MPD2    N1 4797   2.088   4.119   0.131 -0.1958  0.1372  0.1366
  315MPD2    H7 4798   2.170   4.128   0.190  0.2858 -0.6711 -0.4194
  316TMC3    C1 4799   2.344   0.009  17.651 -0.6921 -0.2419 -0.7517
  316TMC3    C2 4800   2.427   4.719  17.748  0.5004  0.1728  0.1710
  316TMC3    C3 4801   2.494   0.090   0.039 -0.3117  0.1059 -0.4302
  316TMC3    C4 4802   2.316   0.141  17.598 -0.4128 -0.1388  0.1389
  316TMC3    C5 4803   2.385   0.245  17.656  0.0015 -0.1650 -0.0756
  316TMC3    C6 4804   2.468   0.218   0.006 -0.2561  0.4158 -0.7209
  316TMC3     C 4805   2.245   4.645  17.601  0.5023 -0.6176 -0.3721
  316TMC3     O 4806   2.183   4.662  17.496  0.0727  0.0038 -0.1250
  316TMC3     H 4807   2.461   4.618   0.016  1.3124  0.8538  2.0786
  316TMC3    H1 4808   2.246   0.146  17.516 -0.1029 -0.7106 -0.1565
  316TMC3    H2 4809   2.508   0.302   0.062  0.3549 -1.0721  1.0463
  316TMC3    C7 4810   2.347   0.385  17.634 -0.4528  0.2087 -0.5622
  316TMC3    C8 4811   2.618   0.071   0.109  0.1452 -0.2204 -0.7005
  316TMC3    O1 4812   2.400   0.460  17.715 -0.4227  0.4318 -0.4230
  316TMC3    O2 4813   2.696   0.168   0.097 -0.1291  0.0233 -0.2302
  317MPD2     C 4814   4.019   2.777  12.871  0.0900  0.1268 -0.1813
  317MPD2    C1 4815   4.085   2.656  12.874  0.2977 -0.8615 -0.8555
  317MPD2    C2 4816   4.100   2.591  12.994 -0.1334  0.1741 -0.8045
  317MPD2    C3 4817   4.075   2.658  13.113 -0.5921 -0.3230 -0.1602
  317MPD2    C4 4818   4.034   2.788  13.111  0.1286 -0.2323  0.0849
  317MPD2    C5 4819   4.005   2.842  12.986 -0.0029 -0.6067 -0.3567
  317MPD2     H 4820   4.144   2.492  12.991  0.0798  0.3720 -5.4426
  317MPD2    H1 4821   4.019   2.852  13.197 -1.9671 -1.2484  0.4577
  317MPD2    H2 4822   4.015   2.839  12.783 -0.5985 -1.3608 -1.1952
  317MPD2    H3 4823   3.967   2.944  12.979 -2.4548 -1.6619 -2.5219
  317MPD2     N 4824   4.102   2.594  13.238 -0.7267  0.3541 -0.3902
  317MPD2    H5 4825   4.112   2.493  13.239  2.0250  0.6398 -0.1706
  317MPD2    N1 4826   4.113   2.589  12.751  0.0475 -0.4654  0.3397
  317MPD2    H7 4827   4.170   2.506  12.754 -2.1392 -1.9412  1.3082
  318TMC3    C1 4828   4.165   2.561  13.459 -0.4151 -0.4099  0.3858
  318TMC3    C2 4829   4.109   2.439  13.470 -0.6573 -0.6998 -0.8165
  318TMC3    C3 4830   4.151   2.356  13.577 -0.1653  0.2157 -0.1145
  318TMC3    C4 4831   4.256   2.606  13.544  0.1223 -0.6116  1.0551
  318TMC3    C5 4832   4.304   2.521  13.638 -0.2351 -0.1803  0.0367
  318TMC3    C6 4833   4.255   2.395  13.660 -0.3227  0.0278  0.4527
  318TMC3     C 4834   4.124   2.654  13.356 -0.3707  0.3708 -0.4641
  318TMC3     O 4835   4.164   2.771  13.367 -0.3138 -0.9450  0.2550
  318TMC3     H 4836   4.042   2.401  13.394  0.3658 -0.9053 -1.6064
  318TMC3    H1 4837   4.292   2.708  13.539  1.1684 -1.0678 -0.6374
  318TMC3    H2 4838   4.285   2.346  13.752  1.8210  0.6391  0.0570
  318TMC3    C7 4839   4.420   2.554  13.709  0.6580 -0.3941  0.7543
  318TMC3    C8 4840   4.080   2.236  13.605  0.1942 -1.0611 -0.4222
  318TMC3    O1 4841   4.454   2.672  13.726 -0.5415 -0.3507 -0.3299
  318TMC3    O2 4842   4.131   2.167  13.688  0.0014 -0.2321  0.2371
  319MPD2     C 4843   4.699   3.856  16.749 -0.3390 -0.6981  0.4894
  319MPD2    C1 4844   0.029   3.738  16.732 -0.0262  0.5381  0.0861
  319MPD2    C2 4845   0.008   3.658  16.617  0.3883 -0.5094  0.0675
  319MPD2    C3 4846   4.664   3.714  16.519  0.2628 -0.1053  0.4307
  319MPD2    C4 4847   4.605   3.837  16.536  0.6240  0.0678  0.0693
  319MPD2    C5 4848   4.613   3.907  16.655 -0.1334 -0.1024 -0.8671
  319MPD2     H 4849   0.054   3.560  16.604 -1.3272 -0.9145 -3.0954
  319MPD2    H1 4850   4.546   3.879  16.455  0.6039  1.5705  0.8650
  319MPD2    H2 4851   4.709   3.915  16.840 -2.2345  0.3882  0.0141
  319MPD2    H3 4852   4.555   3.998  16.667  3.5351  2.1111  0.0795
  319MPD2     N 4853   4.628   3.631  16.407 -0.4086 -0.4729  0.0664
  319MPD2    H5 4854   4.555   3.672  16.350 -1.2781 -1.4403  0.4628
  319MPD2    N1 4855   0.128   3.695  16.822  0.0415 -0.6338 -0.2087
  319MPD2    H7 4856   0.172   3.607  16.795  0.5120 -0.3608 -0.3382
  320TMC3    C1 4857   4.632   3.466  16.240 -0.1066  0.3744  0.7494
  320TMC3    C2 4858   4.578   3.556  16.149 -0.4228  0.2229  0.3685
  320TMC3    C3 4859   4.579   3.522  16.016 -0.1891  0.0674  0.1805
  320TMC3    C4 4860   4.659   3.333  16.201  0.6762  0.1235  0.0227
  320TMC3    C5 4861   4.647   3.302  16.063 -0.4770  0.1335  0.5749
  320TMC3    C6 4862   4.613   3.396  15.970  0.8113  0.0313 -0.3070
  320TMC3     C 4863   4.676   3.507  16.374 -0.7247  0.0915 -0.1083
  320TMC3     O 4864   0.020   3.433  16.422 -0.7728  0.2609  0.1647
  320TMC3     H 4865   4.551   3.656  16.179  0.9718  0.4111  1.0073
  320TMC3    H1 4866   4.702   3.266  16.274 -2.2571 -2.3815 -0.4898
  320TMC3    H2 4867   4.594   3.355  15.871  1.6863 -1.2097  0.0344
  320TMC3    C7 4868   4.638   3.164  16.027 -0.8577  0.3799  0.4372
  320TMC3    C8 4869   4.480   3.603  15.942 -0.2784 -0.0211  0.0425
  320TMC3    O1 4870   4.671   3.123  15.914 -0.5110  0.2897 -0.1015
  320TMC3    O2 4871   4.407   3.668  16.015  0.5363 -0.3407 -0.2742
  321TMC3    C1 4872   0.285   3.688  17.001  0.3752  0.0748  0.2556
  321TMC3    C2 4873   0.292   3.545  17.007  0.1402 -0.4674 -0.1389
  321TMC3    C3 4874   0.389   3.486  17.084 -0.0002  0.1646  0.1601
  321TMC3    C4 4875   0.357   3.765  17.088  0.6988  0.4608 -0.5074
  321TMC3    C5 4876   0.439   3.700  17.177 -0.6307  0.0003  0.3744
  321TMC3    C6 4877   0.453   3.564  17.172 -0.0784 -0.2059  0.4212
  321TMC3     C 4878   0.187   3.764  16.928 -0.0000  0.3900 -0.5162
  321TMC3     O 4879   0.173   3.882  16.963  0.0028 -0.3008 -0.1559
  321TMC3     H 4880   0.220   3.480  16.959 -0.0960 -0.8949  0.8041
  321TMC3    H1 4881   0.347   3.872  17.102 -0.2688  0.1024  1.5092
  321TMC3    H2 4882   0.506   3.514  17.252 -0.9317  0.1587  1.2046
  321TMC3    C7 4883   0.571   3.759  17.198  0.5665  0.5508  0.7910
  321TMC3    C8 4884   0.464   3.374  17.039 -0.5093  0.7039 -0.2807
  321TMC3    O1 4885   0.587   3.870  17.258  0.6913 -0.0495 -0.0248
  321TMC3    O2 4886   0.561   3.353  17.112 -0.8457 -0.0646 -0.6024
  322MPD2     C 4887   3.790   0.216  13.875  0.2992 -0.3714  0.3539
  322MPD2    C1 4888   3.923   0.223  13.907 -0.3053 -0.2255 -0.2622
  322MPD2    C2 4889   4.014   0.166  13.826  0.0749 -0.1213 -0.3216
  322MPD2    C3 4890   3.975   0.083  13.723  0.0453  1.0406 -0.4836
  322MPD2    C4 4891   3.852   0.093  13.674 -0.4261 -0.2979  0.1270
  322MPD2    C5 4892   3.757   0.161  13.752 -0.3093 -0.6465 -0.2942
  322MPD2     H 4893   4.118   0.168  13.855 -0.5491  0.9415  1.7921
  322MPD2    H1 4894   3.817   0.027  13.595 -1.6718  0.6708 -0.1305
  322MPD2    H2 4895   3.710   0.261  13.933  0.7029  1.3387 -0.4254
  322MPD2    H3 4896   3.654   0.153  13.720  0.0817  0.5568 -1.8288
  322MPD2     N 4897   4.075   0.005  13.661 -0.1567 -0.2239  0.1922
  322MPD2    H5 4898   4.149   4.716  13.725 -0.4470 -0.6859  0.3324
  322MPD2    N1 4899   3.973   0.298  14.014 -0.5595  0.8986  0.0455
  322MPD2    H7 4900   4.072   0.321  14.015 -0.3800  0.1781 -1.2813
  323TMC3    C1 4901   3.980   0.393  14.235 -0.0485  0.6530 -0.0256
  323TMC3    C2 4902   4.060   0.498  14.201 -0.4032 -0.1387  0.3563
  323TMC3    C3 4903   4.162   0.524  14.288  0.0090  0.0994 -0.1066
  323TMC3    C4 4904   3.998   0.323  14.350 -0.2691 -0.0317  0.4180
  323TMC3    C5 4905   4.109   0.350  14.427  0.8423 -0.1315  0.2054
  323TMC3    C6 4906   4.187   0.454  14.399  0.3713  0.0829 -0.3077
  323TMC3     C 4907   3.900   0.324  14.126  0.2924 -0.4457 -0.2616
  323TMC3     O 4908   3.795   0.281  14.162  0.1247 -0.2636  0.8989
  323TMC3     H 4909   4.057   0.537  14.100 -0.1055  0.7019  0.6734
  323TMC3    H1 4910   3.928   0.247  14.384 -0.3204 -0.1665  0.0225
  323TMC3    H2 4911   4.274   0.481  14.458 -0.3931  0.6099  0.5807
  323TMC3    C7 4912   4.156   0.233  14.498 -0.3480  0.7262 -0.1844
  323TMC3    C8 4913   4.282   0.596  14.229  0.5256  0.1821  0.2789
  323TMC3    O1 4914   4.116   0.125  14.464 -0.4850  0.1166 -0.4399
  323TMC3    O2 4915   4.393   0.589  14.278 -0.5808  0.0246  0.5104
  324MPD2     C 4916   0.795   1.099  14.468 -0.1692 -0.5313 -0.3432
  324MPD2    C1 4917   0.800   1.220  14.393 -0.0641 -0.3055  0.1536
  324MPD2    C2 4918   0.683   1.292  14.381 -0.2671  0.7636  0.1542
  324MPD2    C3 4919   0.561   1.261  14.441 -0.8355  0.2542  1.2477
  324MPD2    C4 4920   0.559   1.130  14.502 -0.4069  0.1948  0.5820
  324MPD2    C5 4921   0.672   1.058  14.509 -0.0632 -0.0871 -0.0458
  324MPD2     H 4922   0.694   1.380  14.318 -2.4185  0.1573 -1.0614
  324MPD2    H1 4923   0.466   1.084  14.534  0.3510 -0.9307  1.1565
  324MPD2    H2 4924   0.868   1.019  14.469  0.6071  0.1432 -2.0804
  324MPD2    H3 4925   0.658   0.959  14.552  2.5368 -0.3239  0.2879
  324MPD2     N 4926   0.443   1.342  14.430  0.0286 -0.3970 -0.0831
  324MPD2    H5 4927   0.356   1.313  14.473 -0.4941  0.3279 -0.6644
  324MPD2    N1 4928   0.914   1.258  14.323 -0.2411 -0.2857 -0.0884
  324MPD2    H7 4929   0.913   1.336  14.259 -1.5882 -0.0919  0.1529
  325TMC3    C1 4930   0.317   1.531  14.351  0.3820  0.1402  0.7027
  325TMC3    C2 4931   0.210   1.482  14.415  0.5618 -0.2533  0.8932
  325TMC3    C3 4932   0.085   1.540  14.393  0.2531  0.7264 -0.0146
  325TMC3    C4 4933   0.303   1.629  14.253 -0.2505  0.2941  0.5046
  325TMC3    C5 4934   0.182   1.697  14.247  0.2748 -0.7630 -0.8084
  325TMC3    C6 4935   0.068   1.645  14.310 -0.3743 -0.4504  0.0235
  325TMC3     C 4936   0.441   1.452  14.354  0.5914  0.0427 -0.5919
  325TMC3     O 4937   0.526   1.507  14.278  0.3450 -0.0443 -0.0825
  325TMC3     H 4938   0.221   1.399  14.484  0.1823  0.4037  1.7393
  325TMC3    H1 4939   0.391   1.676  14.212 -0.1440  1.5282  2.1574
  325TMC3    H2 4940   4.708   1.679  14.284 -0.5866 -1.4954 -0.5754
  325TMC3    C7 4941   0.186   1.832  14.204 -0.2180 -0.0281  0.2321
  325TMC3    C8 4942   4.714   1.459  14.429  0.1973  0.2610 -0.1444
  325TMC3    O1 4943   0.285   1.868  14.146  0.1990  0.0220  0.4966
  325TMC3    O2 4944   4.735   1.341  14.451 -0.1051 -0.5580 -0.1020
  326MPD2     C 4945   1.938   3.090  11.420  0.0191  0.1327 -0.1235
  326MPD2    C1 4946   1.880   3.060  11.293  0.2877  0.6978 -0.7502
  326MPD2    C2 4947   1.957   3.012  11.183  0.0124 -0.7539 -0.1154
  326MPD2    C3 4948   2.098   3.005  11.208 -0.2433 -0.4990  0.0483
  326MPD2    C4 4949   2.145   3.037  11.335 -0.1367  0.1855  0.6603
  326MPD2    C5 4950   2.071   3.072  11.439  0.9608 -0.0512 -0.5480
  326MPD2     H 4951   1.925   2.990  11.082 -1.4204 -0.7525  0.3480
  326MPD2    H1 4952   2.252   3.051  11.340 -0.4839  2.8523  0.4601
  326MPD2    H2 4953   1.884   3.131  11.505  0.5903  1.3670 -0.3567
  326MPD2    H3 4954   2.127   3.109  11.524 -0.7038 -0.2228  0.6287
  326MPD2     N 4955   2.199   2.976  11.112 -0.3276 -0.0425  0.7236
  326MPD2    H5 4956   2.293   2.978  11.150 -0.6338  1.7534  1.4111
  326MPD2    N1 4957   1.743   3.078  11.264 -0.8263 -0.5174 -0.2420
  326MPD2    H7 4958   1.720   3.074  11.165  2.6335  2.4967 -1.1759
  327TMC3    C1 4959   1.518   3.068  11.302 -0.3252 -0.3106  0.6713
  327TMC3    C2 4960   1.473   3.160  11.216 -0.0327  0.3749 -0.5793
  327TMC3    C3 4961   1.418   3.112  11.094 -0.4140  0.9740 -0.0908
  327TMC3    C4 4962   1.521   2.941  11.273 -0.1250  1.0213  0.2278
  327TMC3    C5 4963   1.466   2.894  11.158  0.7603  0.2242 -0.3678
  327TMC3    C6 4964   1.401   2.979  11.071  1.4596 -0.3230 -0.1583
  327TMC3     C 4965   1.645   3.095  11.357 -0.3231  0.7672 -0.4311
  327TMC3     O 4966   1.660   3.081  11.480  0.2750  0.1333  0.2307
  327TMC3     H 4967   1.507   3.262  11.230 -1.2964  0.7106  0.0247
  327TMC3    H1 4968   1.577   2.875  11.338 -1.8443  0.5927  1.2429
  327TMC3    H2 4969   1.359   2.935  10.982  1.9407  0.8384 -0.9653
  327TMC3    C7 4970   1.545   2.790  11.095 -0.3333 -0.7599 -0.6370
  327TMC3    C8 4971   1.401   3.206  10.982 -0.2654  0.0177 -0.3012
  327TMC3    O1 4972   1.485   2.717  11.020 -0.7097 -0.3732  0.4084
  327TMC3    O2 4973   1.448   3.316  10.993  0.1632  0.3131  0.1707
  328MPD2     C 4974   4.513   2.474  17.043  0.1256  0.3012 -0.4066
  328MPD2    C1 4975   4.400   2.400  17.065 -0.3521  0.3539  0.2967
  328MPD2    C2 4976   4.307   2.390  16.961  0.9952 -0.7950  0.0555
  328MPD2    C3 4977   4.333   2.455  16.835 -0.3947  0.0882 -0.5457
  328MPD2    C4 4978   4.448   2.524  16.820 -0.0020 -0.2473 -0.5120
  328MPD2    C5 4979   4.536   2.529  16.922  0.3469  0.2388 -0.0672
  328MPD2     H 4980   4.214   2.339  16.985 -0.2133  0.9078 -1.0735
  328MPD2    H1 4981   4.452   2.593  16.736 -3.4316  0.7045  0.0958
  328MPD2    H2 4982   4.600   2.481  17.107 -0.8220 -1.3852  1.0680
  328MPD2    H3 4983   4.635   2.570  16.906  0.0708  0.9496  0.0343
  328MPD2     N 4984   4.228   2.480  16.740  0.7601  0.2746 -0.2446
  328MPD2    H5 4985   4.230   2.551  16.667 -3.1221  2.3783  1.7029
  328MPD2    N1 4986   4.394   2.342  17.193  0.4478  0.0873 -0.4628
  328MPD2    H7 4987   4.464   2.366  17.262  1.2976  2.1150 -2.0104
  329TMC3    C1 4988   4.304   2.227  17.372 -0.0925 -0.4215  0.3654
  329TMC3    C2 4989   4.350   2.325  17.459 -0.6824 -0.3695  0.6088
  329TMC3    C3 4990   4.368   2.297  17.593  0.5226  0.2984  0.0144
  329TMC3    C4 4991   4.265   2.107  17.425  0.0325  0.0332  0.2702
  329TMC3    C5 4992   4.285   2.083  17.563 -0.4755  0.1882 -0.3306
  329TMC3    C6 4993   4.333   2.181  17.650  0.2200  0.5571 -0.6597
  329TMC3     C 4994   4.299   2.251  17.229  0.6345  0.0953 -0.0536
  329TMC3     O 4995   4.219   2.184  17.160 -0.1451  0.2418 -0.1488
  329TMC3     H 4996   4.370   2.426  17.425  0.2469 -1.2819 -1.5454
  329TMC3    H1 4997   4.209   2.037  17.365  2.5159 -0.5718 -1.3269
  329TMC3    H2 4998   4.359   2.157  17.753 -1.4796  1.9613  0.0790
  329TMC3    C7 4999   4.219   1.975  17.628 -0.6348  0.3629 -0.6239
  329TMC3    C8 5000   4.433   2.397  17.677  0.5062 -0.0733  0.3173
  329TMC3    O1 5001   4.167   1.996  17.737  0.3599  0.3976 -0.0695
  329TMC3    O2 5002   4.527   2.455  17.624 -0.5779 -0.5121 -0.2114
  330TMC3    C1 5003   2.343   2.413   9.751 -0.1831 -0.0531 -0.3455
  330TMC3    C2 5004   2.293   2.345   9.645  0.0082 -0.0217  0.3706
  330TMC3    C3 5005   2.282   2.207   9.650  0.2884  0.0657 -0.4074
  330TMC3    C4 5006   2.374   2.355   9.876 -0.4872 -0.5303  0.0653
  330TMC3    C5 5007   2.356   2.216   9.871  0.7632  0.2263 -0.3026
  330TMC3    C6 5008   2.303   2.135   9.768  0.4217  0.1849  0.3099
  330TMC3     C 5009   2.369   2.553   9.744 -0.3458  0.3622 -0.4175
  330TMC3     O 5010   2.424   2.596   9.844 -0.3223 -0.4635  0.0987
  330TMC3     H 5011   2.284   2.391   9.548  0.4161 -2.0373 -0.6198
  330TMC3    H1 5012   2.423   2.406   9.957  1.6007 -3.3561  0.5613
  330TMC3    H2 5013   2.281   2.031   9.788 -1.2705  0.5500  0.3559
  330TMC3    C7 5014   2.425   2.148   9.984 -0.3895  0.1452  0.0144
  330TMC3    C8 5015   2.216   2.150   9.534 -0.3802  0.2367  0.3108
  330TMC3    O1 5016   2.460   2.208  10.081 -0.8238 -0.7153 -0.9174
  330TMC3    O2 5017   2.170   2.229   9.456  0.9952 -0.6577 -0.6072
  331MPD2     C 5018   0.413   1.217  13.374 -0.1077  0.7783  0.0421
  331MPD2    C1 5019   0.465   1.171  13.260 -0.2208  0.1384 -0.0930
  331MPD2    C2 5020   0.420   1.053  13.198 -0.1352 -0.0164  0.2540
  331MPD2    C3 5021   0.318   0.980  13.255 -0.0196  0.2228  0.0947
  331MPD2    C4 5022   0.257   1.035  13.370 -0.7863  0.2298  0.5805
  331MPD2    C5 5023   0.305   1.150  13.430 -0.7159 -0.1884 -0.6720
  331MPD2     H 5024   0.453   1.028  13.098  1.2247 -3.1972  1.5089
  331MPD2    H1 5025   0.168   0.995  13.417 -0.5308 -0.1438  0.7417
  331MPD2    H2 5026   0.445   1.309  13.423 -1.0350  0.7830  0.6237
  331MPD2    H3 5027   0.260   1.177  13.524 -0.9278 -0.1061 -0.7967
  331MPD2     N 5028   0.268   0.869  13.190 -0.2965  0.0331 -0.4166
  331MPD2    H5 5029   0.315   0.844  13.104 -3.7779 -0.7906 -2.1021
  331MPD2    N1 5030   0.551   1.265  13.195  0.0763  0.7703  0.6077
  331MPD2    H7 5031   0.559   1.357  13.238  0.8677  0.9507  0.0754
  332TMC3    C1 5032   0.139   0.686  13.139  0.0569  0.8001 -0.3467
  332TMC3    C2 5033   0.091   0.715  13.020 -0.0212  0.4084 -0.0615
  332TMC3    C3 5034   0.131   0.648  12.908  0.1546  0.2820 -0.0798
  332TMC3    C4 5035   0.232   0.588  13.149 -0.3037  0.5598  0.4593
  332TMC3    C5 5036   0.256   0.517  13.043 -0.1009 -0.9901 -0.3589
  332TMC3    C6 5037   0.214   0.535  12.916 -0.8527  0.1673  0.3652
  332TMC3     C 5038   0.151   0.800  13.220  0.0826  0.0148  0.1152
  332TMC3     O 5039   0.054   0.832  13.285 -0.4907 -0.0722 -0.3689
  332TMC3     H 5040   0.015   0.793  13.017  0.0540  0.4848  0.0077
  332TMC3    H1 5041   0.291   0.578  13.240  0.5001  0.5040 -0.0666
  332TMC3    H2 5042   0.251   0.479  12.831 -0.8786  0.6081  0.0590
  332TMC3    C7 5043   0.396   0.482  13.035  0.4297 -0.0749 -0.4258
  332TMC3    C8 5044   0.126   0.704  12.774  0.3012 -0.8070 -0.3498
  332TMC3    O1 5045   0.432   0.391  13.107 -0.1490  0.2848 -0.1640
  332TMC3    O2 5046   0.216   0.680  12.695  0.2038  0.2684 -0.1645
  333MPD2     C 5047   0.344   1.560  11.236  0.4845 -0.2557  0.2635
  333MPD2    C1 5048   0.403   1.466  11.150  0.3030  0.4605 -0.0804
  333MPD2    C2 5049   0.381   1.333  11.187  0.0462  0.2676  0.3751
  333MPD2    C3 5050   0.285   1.296  11.280  0.3667  0.7066 -0.2229
  333MPD2    C4 5051   0.219   1.394  11.359 -0.0416  0.7505  0.5189
  333MPD2    C5 5052   0.248   1.524  11.329  0.6318  0.4932 -0.4559
  333MPD2     H 5053   0.426   1.261  11.120  0.3191  0.5454  0.2597
  333MPD2    H1 5054   0.141   1.370  11.431 -1.3396 -0.3044 -1.2589
  333MPD2    H2 5055   0.378   1.663  11.226 -0.5291  0.1260  0.7938
  333MPD2    H3 5056   0.193   1.604  11.378 -0.3966 -0.9574  0.7650
  333MPD2     N 5057   0.251   1.159  11.278 -0.3323 -0.3982  0.1102
  333MPD2    H5 5058   0.307   1.104  11.213  0.3200  1.0660 -0.5599
  333MPD2    N1 5059   0.499   1.516  11.049 -1.0673 -0.1294 -0.4786
  333MPD2    H7 5060   0.512   1.617  11.042  0.1802 -0.2250  0.5478
  334TMC3    C1 5061   0.641   1.516  10.858  0.7786  0.5069  0.1206
  334TMC3    C2 5062   0.726   1.451  10.774 -0.1586  0.7069 -0.4775
  334TMC3    C3 5063   0.819   1.511  10.694  0.5486  0.4970 -0.2122
  334TMC3    C4 5064   0.658   1.653  10.875 -0.0443 -0.2714  0.0525
  334TMC3    C5 5065   0.747   1.716  10.793  0.6626  0.2451 -0.1098
  334TMC3    C6 5066   0.824   1.646  10.704  0.1680  0.1927 -0.3042
  334TMC3     C 5067   0.557   1.442  10.950 -0.1838 -0.6090  0.5454
  334TMC3     O 5068   0.522   1.333  10.910 -0.2084 -0.4907  0.1619
  334TMC3     H 5069   0.721   1.343  10.771  2.6120  0.6036 -1.5646
  334TMC3    H1 5070   0.592   1.716  10.933 -2.3356 -0.4288 -2.3743
  334TMC3    H2 5071   0.889   1.705  10.640 -0.1363  1.5518  0.6369
  334TMC3    C7 5072   0.746   1.859  10.784  0.4593 -0.8685  0.2968
  334TMC3    C8 5073   0.942   1.437  10.661 -0.2793  0.6775  0.4721
  334TMC3    O1 5074   0.836   1.911  10.715  0.1113  0.0219  0.3428
  334TMC3    O2 5075   0.925   1.324  10.613  0.7842 -0.3387  0.1305
  335TMC3    C1 5076   0.837   2.728  17.647 -0.2551  0.0747  0.4578
  335TMC3    C2 5077   0.711   2.733  17.592  0.2805 -0.3332 -0.6934
  335TMC3    C3 5078   0.688   2.625  17.510 -0.6560 -0.3997 -0.5390
  335TMC3    C4 5079   0.930   2.628  17.619 -0.1093 -0.6295 -0.5915
  335TMC3    C5 5080   0.899   2.537  17.515  0.3405 -0.0596  0.4341
  335TMC3    C6 5081   0.775   2.531  17.464  0.1700 -0.0907 -0.2538
  335TMC3     C 5082   0.877   2.811   0.010  0.3247 -0.0489 -0.5314
  335TMC3     O 5083   0.999   2.818   0.015 -0.2254  0.5338 -0.0975
  335TMC3     H 5084   0.638   2.811  17.607  0.3111 -0.2217 -1.1170
  335TMC3    H1 5085   1.030   2.629  17.659 -0.0724  0.1457 -0.7101
  335TMC3    H2 5086   0.753   2.471  17.376  0.5576 -1.7364  0.7751
  335TMC3    C7 5087   1.008   2.469  17.449  1.1712 -0.0773 -0.3475
  335TMC3    C8 5088   0.562   2.630  17.437  0.0341 -0.5455  0.0559
  335TMC3    O1 5089   1.002   2.457  17.327 -0.6873 -0.0225  0.6032
  335TMC3    O2 5090   0.515   2.746  17.417 -0.1194  0.1208  0.0990
  336MPD2     C 5091   4.652   0.232  16.298  0.0943  0.6180  0.4318
  336MPD2    C1 5092   4.594   0.131  16.218  0.0206  0.0798  0.1119
  336MPD2    C2 5093   4.617   4.736  16.240  0.2084 -0.0285  0.3042
  336MPD2    C3 5094   4.702   4.702  16.341 -0.0503 -0.1989 -0.2651
  336MPD2    C4 5095   0.020   0.058  16.424  0.0501  0.4379  0.0350
  336MPD2    C5 5096   0.003   0.196  16.401  0.0212  0.3978 -0.3164
  336MPD2     H 5097   4.548   4.672  16.187 -0.2244 -0.6149  1.5823
  336MPD2    H1 5098   0.094   0.020  16.493 -1.6224  3.0577  3.2530
  336MPD2    H2 5099   4.655   0.337  16.273  1.9827  1.0425  2.4581
  336MPD2    H3 5100   0.061   0.270  16.454 -0.5961 -0.7316  1.9509
  336MPD2     N 5101   0.001   4.575  16.362 -0.0299  0.7283 -0.2294
  336MPD2    H5 5102   0.048   4.557  16.450 -1.4202 -0.8211  0.1952
  336MPD2    N1 5103   4.497   0.162  16.115 -0.5600  0.1255 -0.7992
  336MPD2    H7 5104   4.468   0.085  16.056  1.1083  0.0419 -1.5100
  337TMC3    C1 5105   4.367   0.298  15.964 -0.5178  0.0186 -0.1418
  337TMC3    C2 5106   4.364   0.189  15.883  0.3455  0.1842  0.3498
  337TMC3    C3 5107   4.276   0.196  15.780  0.9775  0.9329  0.1774
  337TMC3    C4 5108   4.303   0.412  15.938  0.2158 -0.0031  0.3453
  337TMC3    C5 5109   4.227   0.417  15.834  0.0018 -0.0524 -0.6506
  337TMC3    C6 5110   4.202   0.309  15.757 -0.2659 -0.3663 -0.5208
  337TMC3     C 5111   4.441   0.287  16.090  0.3055  0.0430  0.4332
  337TMC3     O 5112   4.448   0.388  16.157 -0.0500 -0.1958  0.4260
  337TMC3     H 5113   4.435   0.108  15.879  0.4066  0.2510  0.0988
  337TMC3    H1 5114   4.320   0.499  16.002  1.6637 -0.1619  0.1864
  337TMC3    H2 5115   4.138   0.322  15.671  0.4740  0.5074 -0.9510
  337TMC3    C7 5116   4.182   0.547  15.774  0.1155  0.3960 -0.2539
  337TMC3    C8 5117   4.243   0.079  15.694 -0.6362 -0.1942 -0.5979
  337TMC3    O1 5118   4.151   0.542  15.658  0.2271  0.2694  0.0740
  337TMC3    O2 5119   4.322   4.724  15.684 -0.1253  0.0828  0.3765
  338MPD2     C 5120   0.746   4.182   0.816 -0.1975  0.2298  0.3321
  338MPD2    C1 5121   0.642   4.219   0.729  0.8986  0.2395 -0.1454
  338MPD2    C2 5122   0.574   4.332   0.766  0.2556  0.4371  0.2524
  338MPD2    C3 5123   0.595   4.395   0.884  0.8467  0.0665 -0.0287
  338MPD2    C4 5124   0.701   4.362   0.963  1.2169  0.1488 -0.2574
  338MPD2    C5 5125   0.777   4.256   0.925  0.5624 -1.0979 -0.2426
  338MPD2     H 5126   0.485   4.349   0.707  0.5077 -1.9640 -0.8268
  338MPD2    H1 5127   0.721   4.402   1.061  0.1955  1.0388 -0.4116
  338MPD2    H2 5128   0.819   4.104   0.794 -0.8222 -0.1939 -0.2599
  338MPD2    H3 5129   0.860   4.230   0.988 -0.3668  0.6863  1.7200
  338MPD2     N 5130   0.502   4.495   0.906 -0.3644 -0.3507  0.3885
  338MPD2    H5 5131   0.430   4.509   0.836  0.2345 -0.1923 -0.1976
  338MPD2    N1 5132   0.606   4.144   0.614  0.0342 -0.7580  0.4510
  338MPD2    H7 5133   0.524   4.178   0.565 -0.1908 -0.4364  1.0512
  339TMC3    C1 5134   0.378   4.653   1.018 -0.0883 -0.0628 -0.1618
  339TMC3    C2 5135   0.325   4.683   1.137  0.3130 -0.5218 -0.4525
  339TMC3    C3 5136   0.208   0.008   1.136 -0.7982 -0.1226  0.6015
  339TMC3    C4 5137   0.312   4.691   0.903  0.2919  0.3885 -0.1016
  339TMC3    C5 5138   0.193   0.008   0.905 -0.6094 -0.1394  0.1536
  339TMC3    C6 5139   0.139   0.038   1.021 -0.4693  0.1210 -0.5012
  339TMC3     C 5140   0.498   4.573   1.016  0.1658  0.4132  0.3593
  339TMC3     O 5141   0.555   4.555   1.125  0.0184  0.6404 -0.1738
  339TMC3     H 5142   0.379   4.659   1.228  0.7056 -2.2769 -1.1594
  339TMC3    H1 5143   0.354   4.664   0.807  0.2889  0.9316 -0.2591
  339TMC3    H2 5144   0.043   0.088   1.034 -0.1010  0.7061 -0.0271
  339TMC3    C7 5145   0.112   4.709   0.791 -0.4429  0.1502  0.3238
  339TMC3    C8 5146   0.127   4.708   1.249 -0.1243 -0.7333  0.9825
  339TMC3    O1 5147   0.175   4.684   0.686  0.1564  0.1676  0.0116
  339TMC3    O2 5148   0.069   0.057   1.313  0.5266 -0.7042 -0.3843
  340MPD2     C 5149   0.370   2.315  10.412  1.0929  0.0718 -0.1714
  340MPD2    C1 5150   0.395   2.377  10.292  0.0509  0.0913  0.5874
  340MPD2    C2 5151   0.523   2.426  10.270 -0.0176 -0.2251  0.3786
  340MPD2    C3 5152   0.630   2.397  10.353  0.3470  0.2561  0.2151
  340MPD2    C4 5153   0.598   2.338  10.471 -0.0140  0.0642 -0.6183
  340MPD2    C5 5154   0.472   2.300  10.502  0.7257 -0.5877 -0.1941
  340MPD2     H 5155   0.537   2.485  10.181  1.4385 -0.9396  0.1301
  340MPD2    H1 5156   0.684   2.304  10.527 -0.8723 -2.4136 -0.8184
  340MPD2    H2 5157   0.272   2.280  10.442  0.9544 -0.2866 -1.0469
  340MPD2    H3 5158   0.452   2.251  10.596  0.9365  0.6496  0.4998
  340MPD2     N 5159   0.769   2.418  10.338  0.0470 -0.2077  0.2989
  340MPD2    H5 5160   0.833   2.377  10.405 -2.4381 -1.6446  1.7901
  340MPD2    N1 5161   0.302   2.377  10.185 -0.2260  0.0687  0.2722
  340MPD2    H7 5162   0.345   2.421  10.105  1.2284  1.7897  1.9919
  341TMC3    C1 5163   0.140   2.294  10.039 -0.2741  0.0336 -1.0235
  341TMC3    C2 5164   0.064   2.187  10.010  0.4957 -0.6001 -0.3295
  341TMC3    C3 5165   0.073   2.135   9.884  0.6841 -0.0779 -0.5998
  341TMC3    C4 5166   0.218   2.352   9.944 -0.1054 -0.0185 -0.1166
  341TMC3    C5 5167   0.219   2.304   9.820 -0.1728 -0.0643 -0.1668
  341TMC3    C6 5168   0.144   2.200   9.789 -0.9035 -0.8049 -0.0056
  341TMC3     C 5169   0.183   2.305  10.178 -0.4216  0.1860  0.6293
  341TMC3     O 5170   0.140   2.221  10.251  0.2067  0.6333 -0.2047
  341TMC3     H 5171   0.002   2.145  10.088  1.3369 -1.7697 -0.2820
  341TMC3    H1 5172   0.300   2.418   9.969 -1.0039  1.8309 -2.1277
  341TMC3    H2 5173   0.139   2.150   9.692 -0.2595 -2.0153  0.5902
  341TMC3    C7 5174   0.350   2.306   9.749 -0.3013  0.5728 -0.4996
  341TMC3    C8 5175   0.019   2.007   9.868 -0.0600 -1.0733 -0.1025
  341TMC3    O1 5176   0.379   2.205   9.687 -0.7827 -0.1148 -0.5283
  341TMC3    O2 5177   0.005   1.941   9.972  0.0341 -0.0605  0.4760
  342MPD2     C 5178   2.703   0.631  17.657 -0.4939  0.0996  0.4270
  342MPD2    C1 5179   2.809   0.634  17.570  0.0100 -0.5683 -0.5545
  342MPD2    C2 5180   2.847   0.755  17.527 -0.3915  0.1306  0.0330
  342MPD2    C3 5181   2.792   0.871  17.580 -0.5757  0.5963  0.4724
  342MPD2    C4 5182   2.689   0.868  17.671 -0.2097  0.5902 -0.0831
  342MPD2    C5 5183   2.643   0.744  17.707 -0.6201 -0.2888 -0.2517
  342MPD2     H 5184   2.931   0.766  17.460 -0.1899 -0.5782  0.1633
  342MPD2    H1 5185   2.658   0.958  17.724 -1.4105 -0.4517  0.9833
  342MPD2    H2 5186   2.670   0.543  17.709  0.0908  0.1929  0.9537
  342MPD2    H3 5187   2.573   0.729   0.035 -1.4593 -0.0059 -0.9136
  342MPD2     N 5188   2.847   0.998  17.543  0.1770  0.1469  0.3864
  342MPD2    H5 5189   2.817   1.075  17.602 -2.0975  0.2713 -0.9592
  342MPD2    N1 5190   2.866   0.511  17.528 -0.0787  0.1954  0.7670
  342MPD2    H7 5191   2.823   0.420  17.546  1.3983 -0.1662  2.4444
  343TMC3    C1 5192   3.019   0.370  17.417  0.0708 -0.2489 -0.2494
  343TMC3    C2 5193   3.150   0.334  17.441 -0.1460 -0.1982 -0.5381
  343TMC3    C3 5194   3.204   0.222  17.393 -0.3309  0.7342 -0.9598
  343TMC3    C4 5195   2.935   0.276  17.368  0.5121 -0.6395  0.6042
  343TMC3    C5 5196   2.987   0.157  17.325  0.0903 -0.0919  0.4032
  343TMC3    C6 5197   3.120   0.127  17.335 -0.0845 -0.4888 -0.7781
  343TMC3     C 5198   2.980   0.502  17.445 -0.0158  0.2601 -0.0703
  343TMC3     O 5199   3.064   0.585  17.419  0.3184 -0.2034  0.4489
  343TMC3     H 5200   3.218   0.405  17.486 -1.6987 -0.2549  1.8881
  343TMC3    H1 5201   2.827   0.281  17.355  0.4664 -1.9521  0.4848
  343TMC3    H2 5202   3.156   0.031  17.300  0.6176 -0.4131 -0.2695
  343TMC3    C7 5203   2.895   0.043  17.331  0.0750  0.1977 -0.2681
  343TMC3    C8 5204   3.348   0.202  17.423  0.1356 -0.2902 -0.4213
  343TMC3    O1 5205   2.906   4.704  17.237  0.0361  0.1731 -0.0992
  343TMC3    O2 5206   3.404   0.290  17.490 -0.3319  0.0173  0.1804
  344MPD2     C 5207   4.121   0.501  11.101 -0.1168  0.2475  0.0479
  344MPD2    C1 5208   4.056   0.430  11.000  0.3152  0.5628  0.1994
  344MPD2    C2 5209   4.019   0.499  10.885  0.3693 -1.0254 -0.5772
  344MPD2    C3 5210   4.034   0.639  10.870  0.5021  0.6869 -0.8986
  344MPD2    C4 5211   4.076   0.702  10.980  0.5447  0.0543  0.8020
  344MPD2    C5 5212   4.129   0.635  11.090 -0.4115 -0.0587 -0.7394
  344MPD2     H 5213   3.975   0.445  10.802 -1.2431  1.1869 -1.1654
  344MPD2    H1 5214   4.088   0.810  10.984 -0.7539  0.1739  1.5333
  344MPD2    H2 5215   4.163   0.455  11.190 -0.0789  2.5505  1.2054
  344MPD2    H3 5216   4.159   0.693  11.177  0.1294  0.9969 -1.6308
  344MPD2     N 5217   4.027   0.705  10.746  0.4665  0.1279 -0.7151
  344MPD2    H5 5218   4.068   0.798  10.755  3.0059 -0.7861 -2.8108
  344MPD2    N1 5219   4.027   0.290  11.013 -0.1250 -0.0979  0.4310
  344MPD2    H7 5220   3.991   0.243  10.931  1.4388  0.1233 -0.3777
  345TMC3    C1 5221   3.994   0.749  10.522  0.4801 -0.8233 -0.3362
  345TMC3    C2 5222   4.105   0.754  10.448 -0.1204 -0.2737 -0.5016
  345TMC3    C3 5223   4.151   0.875  10.410  0.3383  0.7056 -0.0902
  345TMC3    C4 5224   3.919   0.863  10.548  1.1433 -0.4285 -0.3151
  345TMC3    C5 5225   3.958   0.982  10.483  0.4189  0.3521  0.6031
  345TMC3    C6 5226   4.077   0.989  10.419  0.2558  0.4286  0.8700
  345TMC3     C 5227   3.996   0.648  10.625 -0.1400  0.9258  0.5856
  345TMC3     O 5228   3.987   0.529  10.597  0.5218  0.4088  0.6206
  345TMC3     H 5229   4.161   0.662  10.437 -0.3138 -0.5761  1.0322
  345TMC3    H1 5230   3.835   0.866  10.617 -0.1280  0.0068 -1.9021
  345TMC3    H2 5231   4.099   1.079  10.364  0.5823  0.2316  0.6811
  345TMC3    C7 5232   3.875   1.102  10.470  0.0136 -0.9443  1.1219
  345TMC3    C8 5233   4.280   0.881  10.340 -0.4715 -0.1936 -0.3896
  345TMC3    O1 5234   3.939   1.204  10.450  0.0857 -0.1721 -0.1425
  345TMC3    O2 5235   4.332   0.777  10.303 -0.0912 -0.0693 -0.0150
  346MPD2     C 5236   3.910   1.990  14.564 -0.7585 -0.3150 -0.6221
  346MPD2    C1 5237   4.010   2.005  14.472  0.0690  0.5197  0.0133
  346MPD2    C2 5238   4.136   2.051  14.512 -0.1278  0.0180 -0.0396
  346MPD2    C3 5239   4.161   2.084  14.644  0.1426  0.3124  0.1091
  346MPD2    C4 5240   4.062   2.068  14.739  0.2096 -0.1122  0.2015
  346MPD2    C5 5241   3.938   2.018  14.699  0.2191 -0.0620 -0.2164
  346MPD2     H 5242   4.206   2.070  14.431 -3.1695 -0.1024 -2.7129
  346MPD2    H1 5243   4.065   2.092  14.844  1.0933  2.0011 -0.3007
  346MPD2    H2 5244   3.811   1.958  14.533  0.0061  1.5616 -4.9700
  346MPD2    H3 5245   3.864   1.996  14.775  1.5718 -1.1042  0.8020
  346MPD2     N 5246   4.287   2.136  14.672  0.1832 -0.4853  0.9841
  346MPD2    H5 5247   4.359   2.151  14.603  0.3813  0.3634  1.3750
  346MPD2    N1 5248   3.997   1.979  14.336 -0.2376  0.6224  0.5085
  346MPD2    H7 5249   4.073   2.010  14.275 -1.3550  0.4149 -0.9777
  347TMC3    C1 5250   4.456   2.225  14.784 -0.7422 -0.2746  0.4549
  347TMC3    C2 5251   4.461   2.321  14.690  0.0276 -0.6922 -0.4844
  347TMC3    C3 5252   4.573   2.337  14.610 -0.2651  0.9776  0.1954
  347TMC3    C4 5253   4.568   2.150  14.808 -0.1357 -0.5883 -0.4473
  347TMC3    C5 5254   4.677   2.177  14.737 -0.3756  0.1571  0.9240
  347TMC3    C6 5255   4.685   2.276  14.644  0.4212 -0.2194 -0.1229
  347TMC3     C 5256   4.333   2.158  14.797 -0.0966  0.1585  0.6346
  347TMC3     O 5257   4.297   2.124  14.907 -0.0519 -0.1671  0.4500
  347TMC3     H 5258   4.366   2.356  14.651 -0.4192  0.9695  2.1183
  347TMC3    H1 5259   4.571   2.074  14.886 -1.4755 -0.5556 -0.3691
  347TMC3    H2 5260   0.031   2.283  14.576 -2.8522  1.9454 -3.9958
  347TMC3    C7 5261   0.009   2.052  14.713 -0.1084 -0.8070 -0.3001
  347TMC3    C8 5262   4.542   2.292  14.478 -0.4667 -0.0691  0.3388
  347TMC3    O1 5263   4.684   1.947  14.729 -0.2279  0.0098  0.4869
  347TMC3    O2 5264   4.480   2.187  14.483 -0.0694  0.7575 -0.0590
  348MPD2     C 5265   2.552   1.653  12.103  0.5839 -1.0131 -0.2935
  348MPD2    C1 5266   2.677   1.664  12.045 -0.4513  0.4308 -0.3056
  348MPD2    C2 5267   2.698   1.750  11.940 -0.5043  0.2775  0.3183
  348MPD2    C3 5268   2.599   1.825  11.881 -0.3577  0.0748  0.4215
  348MPD2    C4 5269   2.473   1.813  11.946 -0.0982  0.5134 -0.0219
  348MPD2    C5 5270   2.453   1.731  12.056 -0.0986  0.5733  0.2397
  348MPD2     H 5271   2.793   1.765  11.890  0.0253 -1.3037  0.8486
  348MPD2    H1 5272   2.394   1.861  11.890 -0.6747  1.7253  1.8316
  348MPD2    H2 5273   2.517   1.583  12.179 -0.3063  0.5507  0.7327
  348MPD2    H3 5274   2.365   1.730  12.119 -0.5697 -1.5851 -0.4364
  348MPD2     N 5275   2.625   1.909  11.766  0.3530 -0.1825 -0.0094
  348MPD2    H5 5276   2.724   1.918  11.743  0.1023  2.1161 -0.1959
  348MPD2    N1 5277   2.792   1.585  12.085 -0.0640 -0.1910  0.4415
  348MPD2    H7 5278   2.873   1.610  12.030 -1.7493  3.2910 -0.5202
  349TMC3    C1 5279   2.943   1.442  12.183  0.6854 -0.1900  0.0346
  349TMC3    C2 5280   2.946   1.317  12.239 -0.7171 -0.0819 -0.3175
  349TMC3    C3 5281   2.977   1.209  12.165  0.5074 -0.2791 -0.3722
  349TMC3    C4 5282   2.999   1.459  12.056 -0.1628 -0.1850  0.3394
  349TMC3    C5 5283   3.017   1.345  11.980  0.0452 -0.2125  0.2978
  349TMC3    C6 5284   2.995   1.219  12.033  0.2191  0.8199 -0.0935
  349TMC3     C 5285   2.811   1.503  12.192 -0.0678 -0.0331  0.3920
  349TMC3     O 5286   2.733   1.454  12.270 -0.2555 -0.1145  0.3477
  349TMC3     H 5287   2.893   1.296  12.331  1.4860 -0.1697  0.9200
  349TMC3    H1 5288   3.038   1.553  12.020 -1.4707 -0.3170 -1.4057
  349TMC3    H2 5289   3.017   1.133  11.970  1.4359  1.8925 -1.1403
  349TMC3    C7 5290   2.958   1.357  11.845  1.0132 -0.5234 -0.6172
  349TMC3    C8 5291   2.998   1.082  12.236 -0.4114 -0.1846  0.6086
  349TMC3    O1 5292   2.867   1.278  11.815  0.1786 -0.1990  0.1016
  349TMC3    O2 5293   3.048   1.086  12.348 -0.1184  0.8342 -0.0961
  350MPD2     C 5294   1.905   4.661  10.591  0.8778 -0.6899  0.0672
  350MPD2    C1 5295   1.784   4.637  10.524  0.1640  0.1137 -0.1514
  350MPD2    C2 5296   1.669   4.697  10.573 -0.3140 -0.9094  0.2270
  350MPD2    C3 5297   1.675   0.026  10.693  0.1612  0.5829 -0.5011
  350MPD2    C4 5298   1.796   0.046  10.763  1.4232  0.0739 -0.4332
  350MPD2    C5 5299   1.911   4.730  10.713 -0.2132  1.1472 -0.3232
  350MPD2     H 5300   1.572   4.680  10.529 -1.6364  0.8345  2.4512
  350MPD2    H1 5301   1.797   0.098  10.858 -2.6576 -3.4714  1.5388
  350MPD2    H2 5302   1.999   4.630  10.547  0.1616 -2.6439 -0.0616
  350MPD2    H3 5303   2.005   0.009  10.764  0.3796  0.8256 -1.2934
  350MPD2     N 5304   1.555   0.085  10.749  0.0724  0.3600 -0.6486
  350MPD2    H5 5305   1.475   0.084  10.687 -0.5318 -1.8742  0.1568
  350MPD2    N1 5306   1.770   4.562  10.411 -0.3603 -0.3548  0.3708
  350MPD2    H7 5307   1.674   4.553  10.378 -0.5382  1.3991  0.4109
  351TMC3    C1 5308   1.805   4.391  10.267  0.4938  0.5029  0.0006
  351TMC3    C2 5309   1.893   4.342  10.172  0.1062  0.2266  0.2428
  351TMC3    C3 5310   1.849   4.267  10.070 -0.3864 -0.2358  0.2048
  351TMC3    C4 5311   1.670   4.373  10.248  0.7472 -0.3070 -0.1284
  351TMC3    C5 5312   1.631   4.311  10.137 -0.7426  0.2490 -1.1160
  351TMC3    C6 5313   1.720   4.255  10.049 -0.0315  0.4525 -0.2707
  351TMC3     C 5314   1.864   4.476  10.366 -0.0111  0.4918  0.0643
  351TMC3     O 5315   1.985   4.476  10.370 -0.0129  1.0836 -0.0800
  351TMC3     H 5316   1.999   4.341  10.193  0.1026  1.4757  0.2860
  351TMC3    H1 5317   1.600   4.400  10.326  2.9209  0.1126  1.6885
  351TMC3    H2 5318   1.677   4.193   9.971  0.2131  0.8342 -0.7040
  351TMC3    C7 5319   1.488   4.281  10.128  0.3924 -0.3906 -0.5546
  351TMC3    C8 5320   1.949   4.181  10.007 -0.0736 -0.7075  0.2443
  351TMC3    O1 5321   1.452   4.203  10.039  0.2758  0.5061 -0.3344
  351TMC3    O2 5322   2.065   4.228  10.002  0.3804  0.1960 -0.1920
  352MPD2     C 5323   0.947   1.992   0.220 -0.0976 -0.4831  0.6715
  352MPD2    C1 5324   0.843   1.942   0.291 -0.5172  0.4022 -0.8589
  352MPD2    C2 5325   0.802   1.810   0.273 -0.0996 -0.2339 -0.7097
  352MPD2    C3 5326   0.864   1.726   0.175 -0.0082 -0.1708 -0.9633
  352MPD2    C4 5327   0.977   1.778   0.115  0.0969  0.1864  0.1908
  352MPD2    C5 5328   1.017   1.911   0.139 -0.5297  0.4464  0.3247
  352MPD2     H 5329   0.717   1.773   0.328  0.2991  2.2368  1.5758
  352MPD2    H1 5330   1.027   1.714   0.043 -1.1952  0.3915 -0.8893
  352MPD2    H2 5331   0.972   2.096   0.237  0.3298 -0.4124 -0.4456
  352MPD2    H3 5332   1.109   1.947   0.095 -1.1066 -0.5691 -1.7303
  352MPD2     N 5333   0.833   1.589   0.144 -0.2956  0.1892 -0.8623
  352MPD2    H5 5334   0.880   1.546   0.066 -1.7423 -2.0168 -0.5060
  352MPD2    N1 5335   0.771   2.026   0.384 -0.4880 -0.2102 -0.5343
  352MPD2    H7 5336   0.817   2.115   0.398  1.0858 -1.3612  1.7253
  353TMC3    C1 5337   0.676   1.405   0.145 -0.4107  0.4809  0.0881
  353TMC3    C2 5338   0.736   1.341   0.035  0.3403  0.0417  0.0667
  353TMC3    C3 5339   0.678   1.228  17.734 -0.2472  0.6757 -0.5919
  353TMC3    C4 5340   0.555   1.366   0.190  0.3123 -0.0183 -0.4661
  353TMC3    C5 5341   0.494   1.260   0.129 -0.4650 -0.3169 -0.2166
  353TMC3    C6 5342   0.555   1.187   0.023  0.1602 -0.1635  0.4086
  353TMC3     C 5343   0.726   1.520   0.206  0.0495 -0.2895  0.1317
  353TMC3     O 5344   0.662   1.564   0.303 -0.7768  0.4150 -0.3501
  353TMC3     H 5345   0.842   1.348   0.012 -0.1381  1.0445 -1.8841
  353TMC3    H1 5346   0.522   1.400   0.288 -0.1009 -0.0526 -0.5946
  353TMC3    H2 5347   0.486   1.113  17.737  0.6980 -0.8222  0.7034
  353TMC3    C7 5348   0.362   1.230   0.156 -0.5228 -0.0110 -0.4600
  353TMC3    C8 5349   0.771   1.121  17.705 -0.5514  0.1452  0.2976
  353TMC3    O1 5350   0.333   1.113   0.144  0.0060  0.4523 -0.4893
  353TMC3    O2 5351   0.888   1.146  17.681  0.2829 -0.2208 -0.2543
  354TMC3    C1 5352   2.025   2.804  13.480  0.4442  0.1594 -0.1385
  354TMC3    C2 5353   1.981   2.925  13.434 -0.5251  0.4815  0.2728
  354TMC3    C3 5354   2.054   2.983  13.337 -0.2229  0.0474 -0.3746
  354TMC3    C4 5355   2.136   2.738  13.435 -0.6509  0.3918  0.0320
  354TMC3    C5 5356   2.192   2.794  13.324  0.4722  0.4271  0.3330
  354TMC3    C6 5357   2.160   2.919  13.274  0.1201  0.6369 -0.1679
  354TMC3     C 5358   1.943   2.740  13.584  0.2478  0.4148  0.1770
  354TMC3     O 5359   1.878   2.808  13.657  0.3084 -0.3924 -0.2365
  354TMC3     H 5360   1.918   2.986  13.497 -1.7854 -1.0582  0.5020
  354TMC3    H1 5361   2.157   2.634  13.459  0.4490 -0.5361 -4.9408
  354TMC3    H2 5362   2.206   2.973  13.192  0.8122  1.0080  0.4633
  354TMC3    C7 5363   2.281   2.699  13.257 -0.3185  0.0684  0.2556
  354TMC3    C8 5364   1.998   3.109  13.281 -0.0849 -0.0167  0.5088
  354TMC3    O1 5365   2.319   2.597  13.306 -0.3740  0.1271  0.4078
  354TMC3    O2 5366   2.079   3.167  13.210 -0.1590 -0.0844  0.2186
  355MPD2     C 5367   1.992   3.876  11.656  0.2324 -0.2791 -0.1259
  355MPD2    C1 5368   2.092   3.842  11.576  0.1629 -1.0127 -0.3634
  355MPD2    C2 5369   2.199   3.766  11.618 -0.3643 -0.0325 -0.5215
  355MPD2    C3 5370   2.211   3.744  11.749  0.0639  0.4185  0.6714
  355MPD2    C4 5371   2.115   3.782  11.836  0.2755  0.1741  0.2252
  355MPD2    C5 5372   2.002   3.845  11.792  0.3360  0.4685  0.8942
  355MPD2     H 5373   2.273   3.723  11.551  3.0529  1.8027  2.0521
  355MPD2    H1 5374   2.122   3.773  11.944  0.9319 -0.7145  0.1014
  355MPD2    H2 5375   1.906   3.934  11.623  0.2612  0.0903  0.4352
  355MPD2    H3 5376   1.928   3.880  11.863 -0.6791 -1.4444  0.7714
  355MPD2     N 5377   2.332   3.702  11.812  0.3019  0.4483  0.1110
  355MPD2    H5 5378   2.343   3.722  11.911  0.5552  1.1959 -0.0672
  355MPD2    N1 5379   2.074   3.881  11.440 -0.2157  0.3597  0.7036
  355MPD2    H7 5380   1.998   3.948  11.433 -1.6379 -1.0236  3.1387
  356TMC3    C1 5381   2.569   3.687  11.824 -0.2207 -0.0189  0.2943
  356TMC3    C2 5382   2.668   3.735  11.742 -0.6414 -0.4044 -0.3307
  356TMC3    C3 5383   2.742   3.835  11.783 -0.5789 -0.0104  0.3499
  356TMC3    C4 5384   2.570   3.712  11.961  0.0192  0.0724  0.3937
  356TMC3    C5 5385   2.665   3.805  12.000 -0.2520 -0.5172 -0.3858
  356TMC3    C6 5386   2.740   3.877  11.910  0.2858  0.8290 -0.4237
  356TMC3     C 5387   2.449   3.669  11.745  0.2612  0.0381 -1.0624
  356TMC3     O 5388   2.461   3.652  11.625 -0.6964  0.0889  0.0545
  356TMC3     H 5389   2.672   3.703  11.638  1.3458  0.0001 -0.3803
  356TMC3    H1 5390   2.493   3.668  12.024 -0.0598  1.2178  1.0877
  356TMC3    H2 5391   2.810   3.953  11.942 -0.3716  1.3169 -0.1586
  356TMC3    C7 5392   2.659   3.848  12.140 -0.1765 -0.0699 -0.2160
  356TMC3    C8 5393   2.811   3.912  11.674 -0.4162 -0.1974 -0.1452
  356TMC3    O1 5394   2.598   3.776  12.215 -0.1552  0.1434  0.0743
  356TMC3    O2 5395   2.797   3.864  11.558 -0.2733 -0.1511 -0.8314
  357MPD2     C 5396   2.565   3.415   0.933 -0.4688 -1.1013 -0.6259
  357MPD2    C1 5397   2.456   3.390   0.854  0.3891 -0.0847 -0.4661
  357MPD2    C2 5398   2.361   3.487   0.836 -0.7126  0.4196  0.5992
  357MPD2    C3 5399   2.381   3.616   0.885  0.0709 -0.0857  0.1072
  357MPD2    C4 5400   2.482   3.638   0.974 -0.6095 -0.1768  0.4716
  357MPD2    C5 5401   2.578   3.539   0.991  0.2959  0.2535  0.6253
  357MPD2     H 5402   2.267   3.459   0.790 -0.0173 -0.7028 -0.1248
  357MPD2    H1 5403   2.502   3.735   1.019  1.1737 -0.5306  0.4241
  357MPD2    H2 5404   2.638   3.338   0.953  0.6872 -0.4304 -2.1833
  357MPD2    H3 5405   2.669   3.566   1.043 -0.0095 -0.1170  1.3672
  357MPD2     N 5406   2.289   3.715   0.866  0.0771 -0.4649 -0.4727
  357MPD2    H5 5407   2.291   3.784   0.940 -0.3016  1.4767 -2.2653
  357MPD2    N1 5408   2.440   3.260   0.797  0.1828  0.0278  0.0375
  357MPD2    H7 5409   2.497   3.185   0.835 -0.6486 -1.6220 -2.0097
  358TMC3    C1 5410   2.301   3.093   0.724 -0.9900 -0.8931 -0.3696
  358TMC3    C2 5411   2.258   3.028   0.614  0.1565  0.7730  0.1364
  358TMC3    C3 5412   2.192   2.908   0.638 -0.2327 -0.2003  0.6108
  358TMC3    C4 5413   2.281   3.049   0.853  0.3180  0.1528  0.1190
  358TMC3    C5 5414   2.209   2.937   0.873  0.6686 -0.5374  0.2271
  358TMC3    C6 5415   2.157   2.865   0.765  0.1004  0.1843  0.1571
  358TMC3     C 5416   2.339   3.228   0.715 -0.0900  0.4124 -0.1033
  358TMC3     O 5417   2.300   3.298   0.620  0.8259  0.4385  0.9182
  358TMC3     H 5418   2.273   3.070   0.515 -1.3042 -0.9868 -0.8383
  358TMC3    H1 5419   2.321   3.110   0.932  1.6447 -0.4690 -0.0662
  358TMC3    H2 5420   2.119   2.764   0.774 -2.9317  1.1932 -1.2796
  358TMC3    C7 5421   2.192   2.871   1.000  0.4513 -0.3116 -0.3682
  358TMC3    C8 5422   2.169   2.830   0.519 -0.2138 -0.2509 -0.1254
  358TMC3    O1 5423   2.188   2.748   1.005  0.5896  0.2395  0.6040
  358TMC3    O2 5424   2.219   2.864   0.415  0.2554 -0.4726  0.0521
  359MPD2     C 5425   2.480   2.399  12.459 -0.0548  0.2287 -1.3524
  359MPD2    C1 5426   2.510   2.292  12.379 -0.4509 -0.1163 -0.3108
  359MPD2    C2 5427   2.410   2.204  12.336 -0.4118  0.3264 -0.3883
  359MPD2    C3 5428   2.280   2.223  12.377  0.6757 -0.2121  1.0257
  359MPD2    C4 5429   2.257   2.318  12.473  0.2030 -0.1334 -0.4749
  359MPD2    C5 5430   2.352   2.409  12.513  0.0132 -0.3085  0.5570
  359MPD2     H 5431   2.434   2.138  12.253  0.0026  0.8309 -0.6655
  359MPD2    H1 5432   2.155   2.331  12.506  0.1732  1.3374 -1.1364
  359MPD2    H2 5433   2.559   2.462  12.499 -0.1741 -1.0579  0.8907
  359MPD2    H3 5434   2.331   2.478  12.594  1.8515  1.7754 -0.7424
  359MPD2     N 5435   2.163   2.146  12.331 -0.0017  0.0787 -0.2368
  359MPD2    H5 5436   2.072   2.173  12.368 -1.0410 -0.9221 -2.1148
  359MPD2    N1 5437   2.643   2.279  12.321  0.6171  0.1058 -0.1334
  359MPD2    H7 5438   2.647   2.206  12.251 -1.7128 -2.0511  2.0188
  360TMC3    C1 5439   2.858   2.318  12.246  0.1938 -0.9172 -0.0482
  360TMC3    C2 5440   2.948   2.420  12.217 -0.4499 -0.5018 -0.0675
  360TMC3    C3 5441   3.017   2.412  12.105  0.2123  0.2265  0.4460
  360TMC3    C4 5442   2.834   2.207  12.165  0.6135 -0.3110 -0.1805
  360TMC3    C5 5443   2.906   2.207  12.049  0.2179  0.3563  0.3020
  360TMC3    C6 5444   2.998   2.306  12.022  0.5677  0.6285  0.3217
  360TMC3     C 5445   2.750   2.360  12.333  0.0707 -0.8335 -0.0043
  360TMC3     O 5446   2.773   2.440  12.425 -0.3979 -0.0339  0.3529
  360TMC3     H 5447   2.971   2.501  12.285 -2.1928  1.3100 -1.6516
  360TMC3    H1 5448   2.796   2.120  12.216  2.7773 -0.3568  1.3296
  360TMC3    H2 5449   3.036   2.303  11.920 -0.3096  1.5518 -0.0322
  360TMC3    C7 5450   2.813   2.199  11.935  0.3140 -0.3079  0.6070
  360TMC3    C8 5451   3.075   2.536  12.068 -0.6002 -0.0131  0.3224
  360TMC3    O1 5452   2.843   2.243  11.829  0.0227 -0.3415 -0.4762
  360TMC3    O2 5453   3.024   2.638  12.115  0.2160 -0.2737 -0.2690
  361MPD2     C 5454   3.801   0.606  16.772 -0.0634 -0.5090 -0.2306
  361MPD2    C1 5455   3.807   0.724  16.844 -0.7553 -0.3853 -0.0152
  361MPD2    C2 5456   3.907   0.745  16.932  0.5024 -0.0779  0.2778
  361MPD2    C3 5457   4.011   0.654  16.946 -0.6084  0.5549  0.7485
  361MPD2    C4 5458   4.013   0.543  16.861  0.3054  0.9083 -0.0069
  361MPD2    C5 5459   3.906   0.518  16.783 -0.1681  0.6730  0.0321
  361MPD2     H 5460   3.912   0.840  16.983 -1.3727  0.4572 -0.5512
  361MPD2    H1 5461   4.089   0.465  16.865 -1.6511 -0.8455  3.0008
  361MPD2    H2 5462   3.714   0.570  16.719 -0.6331  2.2229 -1.1212
  361MPD2    H3 5463   3.898   0.430  16.721  0.4366  1.1025 -0.6610
  361MPD2     N 5464   4.122   0.680  17.035  0.0537 -0.1844 -0.2824
  361MPD2    H5 5465   4.206   0.627  17.013  0.7327  1.2855 -1.2361
  361MPD2    N1 5466   3.702   0.820  16.838  0.3494 -0.3785 -0.0703
  361MPD2    H7 5467   3.713   0.889  16.911 -0.1191  2.1549 -2.3869
  362TMC3    C1 5468   3.506   0.935  16.764  0.2732 -0.0201  0.3443
  362TMC3    C2 5469   3.525   0.999  16.880  0.0536  0.3843 -0.2586
  362TMC3    C3 5470   3.472   1.124  16.890  0.0150  0.7544  0.2382
  362TMC3    C4 5471   3.447   0.990  16.657 -0.3926  0.9444 -0.6143
  362TMC3    C5 5472   3.405   1.124  16.662  0.0711 -0.4276  0.1862
  362TMC3    C6 5473   3.417   1.194  16.782 -0.3364 -0.2954  0.0976
  362TMC3     C 5474   3.601   0.828  16.741  0.0964 -0.0539 -0.1404
  362TMC3     O 5475   3.576   0.765  16.637 -0.9719 -1.0103  0.0514
  362TMC3     H 5476   3.564   0.957  16.972  1.7345  0.4509 -0.9561
  362TMC3    H1 5477   3.447   0.941  16.560 -1.5740 -1.2843  0.5281
  362TMC3    H2 5478   3.387   1.298  16.785  0.9330  0.0168  2.0109
  362TMC3    C7 5479   3.387   1.200  16.538 -0.1670 -0.2682 -0.0077
  362TMC3    C8 5480   3.517   1.197  17.005 -0.8667  0.1598  1.1608
  362TMC3    O1 5481   3.363   1.321  16.557 -0.1686 -0.0911 -0.5299
  362TMC3    O2 5482   3.621   1.160  17.051  0.0638 -0.1841  0.3234
  363TMC3    C1 5483   3.162   4.171   9.720  0.4281  0.1792  0.0284
  363TMC3    C2 5484   3.171   4.064   9.807  0.0958  0.8346  0.0190
  363TMC3    C3 5485   3.066   4.054   9.894  0.5401 -0.3991  0.3971
  363TMC3    C4 5486   3.059   4.267   9.713  0.7748 -0.1076 -0.2549
  363TMC3    C5 5487   2.967   4.262   9.814  0.0669 -0.3654  0.8305
  363TMC3    C6 5488   2.977   4.159   9.906  0.5050 -0.0935 -0.2485
  363TMC3     C 5489   3.258   4.158   9.613  0.0951  0.3924 -0.0498
  363TMC3     O 5490   3.302   4.043   9.599  0.3909 -0.1169 -0.0758
  363TMC3     H 5491   3.259   4.001   9.816  0.0583  0.8136  0.2291
  363TMC3    H1 5492   3.060   4.345   9.638 -0.2033  1.2068  1.1089
  363TMC3    H2 5493   2.905   4.145   9.986  0.4472  0.1884 -0.2499
  363TMC3    C7 5494   2.859   4.362   9.829  0.1653  0.3835  0.3350
  363TMC3    C8 5495   3.059   3.940   9.984 -0.3997 -0.5370 -0.4670
  363TMC3    O1 5496   2.882   4.472   9.784  0.7723 -0.5103  0.3585
  363TMC3    O2 5497   3.038   3.960  10.102 -0.1963 -0.0107  0.3480
  364MPD2     C 5498   1.225   3.295  10.514 -0.0355  0.7126  0.4759
  364MPD2    C1 5499   1.304   3.381  10.596  0.2390  0.4011 -1.1571
  364MPD2    C2 5500   1.330   3.331  10.721  0.4731 -0.1311  0.1569
  364MPD2    C3 5501   1.283   3.205  10.762  0.7341 -0.3141 -0.2980
  364MPD2    C4 5502   1.208   3.128  10.677  0.2421 -0.7399 -0.0263
  364MPD2    C5 5503   1.183   3.171  10.553  0.0323 -0.8363 -0.3728
  364MPD2     H 5504   1.399   3.392  10.778  0.1863  1.8303 -1.5638
  364MPD2    H1 5505   1.178   3.028  10.703 -1.0771  0.0919  1.6496
  364MPD2    H2 5506   1.209   3.341  10.418 -0.1840  0.0063  0.1681
  364MPD2    H3 5507   1.127   3.105  10.488 -0.7987 -0.1223 -0.3926
  364MPD2     N 5508   1.320   3.150  10.886 -0.7889  0.0630  0.0390
  364MPD2    H5 5509   1.291   3.054  10.903 -1.1447 -0.0674 -1.2830
  364MPD2    N1 5510   1.372   3.489  10.534  0.0743  0.3889 -0.8103
  364MPD2    H7 5511   1.374   3.489  10.433 -5.2182  0.2047 -0.9259
  365TMC3    C1 5512   1.544   3.648  10.503 -0.3163 -0.3201  0.1280
  365TMC3    C2 5513   1.573   3.598  10.378  0.6054  0.3647 -0.3766
  365TMC3    C3 5514   1.640   3.688  10.306  0.7588  0.1264  0.5822
  365TMC3    C4 5515   1.583   3.777  10.543  0.7698  0.1809 -0.6498
  365TMC3    C5 5516   1.634   3.869  10.458  0.1472  0.5292 -0.4303
  365TMC3    C6 5517   1.672   3.816  10.337 -0.3611 -0.2008  0.5418
  365TMC3     C 5518   1.462   3.579  10.599  0.5188  0.0522 -0.1606
  365TMC3     O 5519   1.478   3.602  10.719  0.0034 -0.3363 -0.0435
  365TMC3     H 5520   1.541   3.498  10.348  0.1789 -0.3041  2.3226
  365TMC3    H1 5521   1.533   3.814  10.632 -0.0565 -0.4215 -0.8602
  365TMC3    H2 5522   1.739   3.880  10.281  0.5051 -0.7497  0.9533
  365TMC3    C7 5523   1.648   4.007  10.493  0.0092 -0.2134 -0.0352
  365TMC3    C8 5524   1.696   3.639  10.177  0.4405  0.1182  0.1501
  365TMC3    O1 5525   1.700   4.080  10.409  0.0066 -0.1320  0.0094
  365TMC3    O2 5526   1.752   3.726  10.106 -0.3808  0.0820 -0.9241
  366MPD2     C 5527   4.331   4.415  15.000  0.0581 -0.6245 -0.0619
  366MPD2    C1 5528   4.404   4.471  15.106 -0.3142 -0.1755 -0.5889
  366MPD2    C2 5529   4.504   4.394  15.160  0.2620  0.0566 -0.1807
  366MPD2    C3 5530   4.529   4.268  15.134 -0.3411  0.8266 -0.2166
  366MPD2    C4 5531   4.462   4.210  15.024  0.2378 -0.4768 -0.1961
  366MPD2    C5 5532   4.369   4.290  14.959 -0.8823  0.4034 -0.3602
  366MPD2     H 5533   4.571   4.440  15.232 -0.2959  1.9883 -0.8913
  366MPD2    H1 5534   4.478   4.107  14.993  0.7245 -1.1398  2.2513
  366MPD2    H2 5535   4.250   4.458  14.943 -0.0589 -0.8572 -0.0714
  366MPD2    H3 5536   4.315   4.244  14.876 -1.2074  1.2527 -0.6246
  366MPD2     N 5537   4.637   4.200  15.199 -0.0561  0.4557  0.3205
  366MPD2    H5 5538   4.672   4.253  15.279 -0.5674  0.8932  0.2624
  366MPD2    N1 5539   4.385   4.600  15.158 -1.0511  0.2543 -0.2713
  366MPD2    H7 5540   4.434   4.627  15.243  0.0483 -0.3267 -0.7271
  367TMC3    C1 5541   4.314   0.079  15.166  0.4843  0.0217 -0.7871
  367TMC3    C2 5542   4.405   0.100  15.268 -0.3703  0.3332  0.7613
  367TMC3    C3 5543   4.383   0.198  15.357 -0.1837  0.4099  0.4934
  367TMC3    C4 5544   4.191   0.148  15.164  0.0671 -0.7448 -0.9158
  367TMC3    C5 5545   4.181   0.241  15.263  0.6653 -0.2656  0.4299
  367TMC3    C6 5546   4.263   0.265  15.366  0.1113 -0.7696 -0.0387
  367TMC3     C 5547   4.305   4.690  15.093  0.4395  0.5987 -0.7871
  367TMC3     O 5548   4.223   4.675  15.006  0.4142 -0.1232 -0.1064
  367TMC3     H 5549   4.502   0.053  15.264 -1.0391 -0.8680 -1.6392
  367TMC3    H1 5550   4.104   0.112  15.110  0.6425 -0.3137 -2.1287
  367TMC3    H2 5551   4.231   0.337  15.441  0.5857 -1.4519  0.8211
  367TMC3    C7 5552   4.048   0.285  15.293 -0.1064 -0.0939 -0.0252
  367TMC3    C8 5553   4.473   0.212  15.467 -0.0511  0.0063  0.4359
  367TMC3    O1 5554   4.013   0.302  15.408  0.3796  0.2632  0.3911
  367TMC3    O2 5555   4.520   0.109  15.508 -0.3732 -0.4120  0.2683
  368MPD2     C 5556   1.164   1.621  13.672 -0.0352 -0.4130 -0.0173
  368MPD2    C1 5557   1.122   1.709  13.577  1.3602  0.5935  0.0437
  368MPD2    C2 5558   1.215   1.783  13.508  0.1937  0.2475 -0.2585
  368MPD2    C3 5559   1.351   1.777  13.529  0.4319  0.5871 -0.6590
  368MPD2    C4 5560   1.395   1.682  13.633  0.1075  0.1420 -0.0492
  368MPD2    C5 5561   1.301   1.606  13.699 -0.7406 -0.2403 -0.2844
  368MPD2     H 5562   1.171   1.852  13.438  0.2305 -1.0134 -1.5349
  368MPD2    H1 5563   1.502   1.675  13.652 -0.0830 -2.0816  0.2232
  368MPD2    H2 5564   1.096   1.556  13.725 -1.7196 -0.5566 -2.3485
  368MPD2    H3 5565   1.333   1.531  13.771 -0.1335 -0.3638 -0.6830
  368MPD2     N 5566   1.443   1.859  13.459  0.8820  0.5236  0.2921
  368MPD2    H5 5567   1.541   1.842  13.478  0.1832 -2.4644  1.3201
  368MPD2    N1 5568   0.984   1.731  13.547  0.7766  0.4769  0.1324
  368MPD2    H7 5569   0.978   1.792  13.466  0.0536  0.2778  0.0402
  369TMC3    C1 5570   0.761   1.714  13.528  0.3022 -0.3265 -0.5136
  369TMC3    C2 5571   0.770   1.800  13.424 -0.2683  0.4121  0.0444
  369TMC3    C3 5572   0.653   1.844  13.368 -0.2518 -0.1289 -0.1198
  369TMC3    C4 5573   0.643   1.667  13.578 -0.4787 -0.1229  0.4703
  369TMC3    C5 5574   0.531   1.710  13.512  0.3999 -0.3239 -0.2747
  369TMC3    C6 5575   0.529   1.797  13.407  0.3755 -0.3592 -0.0724
  369TMC3     C 5576   0.874   1.679  13.598  0.0604  0.7737 -0.1402
  369TMC3     O 5577   0.867   1.605  13.694  0.1756  0.3330 -0.5216
  369TMC3     H 5578   0.862   1.825  13.374 -1.3551  1.8895 -1.1886
  369TMC3    H1 5579   0.647   1.594  13.658 -0.7333 -0.1571  0.4522
  369TMC3    H2 5580   0.437   1.838  13.367  1.2945  1.8990  0.1342
  369TMC3    C7 5581   0.419   1.626  13.529 -0.2340 -0.1162  0.6773
  369TMC3    C8 5582   0.661   1.924  13.247 -0.3089 -0.3292  0.2632
  369TMC3    O1 5583   0.421   1.543  13.622 -0.2778  0.2532  0.6156
  369TMC3    O2 5584   0.569   1.920  13.169 -0.2933 -0.1498 -0.1240
  370TMC3    C1 5585   0.562   2.095  16.061 -0.2603 -0.4855  0.1646
  370TMC3    C2 5586   0.469   2.101  16.161  0.1170  0.3360 -0.9202
  370TMC3    C3 5587   0.362   2.019  16.133 -0.0602  0.1482 -0.5748
  370TMC3    C4 5588   0.562   2.015  15.950  0.0978 -0.8435  0.0908
  370TMC3    C5 5589   0.446   1.945  15.921 -0.3197 -0.1283  0.1101
  370TMC3    C6 5590   0.349   1.940  16.015 -0.2127  0.1324  0.2454
  370TMC3     C 5591   0.697   2.150  16.098 -0.1867 -0.1593 -0.4953
  370TMC3     O 5592   0.724   2.171  16.217  0.1906 -0.3388 -0.4509
  370TMC3     H 5593   0.485   2.153  16.255 -0.5485  1.5520 -1.4768
  370TMC3    H1 5594   0.652   2.014  15.890  0.1999  0.3124  0.2196
  370TMC3    H2 5595   0.253   1.895  15.996 -0.0188 -1.3497  2.7128
  370TMC3    C7 5596   0.457   1.845  15.815  0.4447  0.2625 -0.1828
  370TMC3    C8 5597   0.293   1.970  16.246 -0.3922 -0.4152 -0.9577
  370TMC3    O1 5598   0.360   1.809  15.751  0.0451  0.4145  0.3827
  370TMC3    O2 5599   0.237   1.861  16.227 -0.0415 -0.1034  0.0371
  371TMC3    C1 5600   1.719   0.052  15.506 -0.5623 -0.5887 -0.2945
  371TMC3    C2 5601   1.634   0.084  15.610 -0.1749  0.7018 -0.0171
  371TMC3    C3 5602   1.600   0.214  15.624 -1.0131  0.9534  0.1703
  371TMC3    C4 5603   1.767   0.138  15.410  0.0548  0.8857  0.4090
  371TMC3    C5 5604   1.719   0.269  15.424  0.5877 -0.7104  0.5217
  371TMC3    C6 5605   1.640   0.305  15.527  0.1987  0.2481 -0.2623
  371TMC3     C 5606   1.756   4.651  15.489  0.1398  0.2218  0.0519
  371TMC3     O 5607   1.852   4.628  15.422  0.6388 -0.3083  0.2444
  371TMC3     H 5608   1.611   0.014  15.690  1.0302  0.9639  0.5487
  371TMC3    H1 5609   1.829   0.088  15.336  0.8914  1.6501  0.5918
  371TMC3    H2 5610   1.623   0.411  15.542 -0.3188 -0.1549  1.9667
  371TMC3    C7 5611   1.742   0.382  15.333 -0.0110  1.1075 -0.1118
  371TMC3    C8 5612   1.465   0.230  15.671 -0.7003 -0.0018 -0.3293
  371TMC3    O1 5613   1.691   0.491  15.357  0.0070 -0.0153 -1.1944
  371TMC3    O2 5614   1.394   0.139  15.641 -0.5727 -0.3452  0.3312
  372MPD2     C 5615   0.811   1.340  13.504  1.1269  0.3625  0.7061
  372MPD2    C1 5616   0.935   1.280  13.508 -0.4285 -0.3192 -0.7961
  372MPD2    C2 5617   0.941   1.157  13.568  0.4416 -0.2174 -0.0030
  372MPD2    C3 5618   0.835   1.099  13.631  0.4843 -0.2359  0.3042
  372MPD2    C4 5619   0.713   1.168  13.635 -0.0078 -0.4117 -0.4044
  372MPD2    C5 5620   0.704   1.294  13.573  0.5025 -0.4502  0.1139
  372MPD2     H 5621   1.037   1.107  13.575  0.2733 -0.2480  2.0141
  372MPD2    H1 5622   0.623   1.137  13.686 -0.0893 -2.1195 -1.6035
  372MPD2    H2 5623   0.797   1.435  13.452  2.4046 -1.1107 -2.3458
  372MPD2    H3 5624   0.609   1.346  13.584 -0.6568 -2.0985 -2.0983
  372MPD2     N 5625   0.836   0.963  13.685 -0.2484  0.0350  0.1950
  372MPD2    H5 5626   0.924   0.913  13.685 -1.4449 -2.0689  0.2046
  372MPD2    N1 5627   1.053   1.332  13.449 -0.1732 -0.8973 -0.0176
  372MPD2    H7 5628   1.139   1.288  13.482  0.1343  0.2237  0.6712
  373TMC3    C1 5629   0.759   0.775  13.809  0.5863  0.3076 -0.1555
  373TMC3    C2 5630   0.713   0.739  13.934  0.7076  0.2113  0.4522
  373TMC3    C3 5631   0.754   0.616  13.990  0.4461 -0.8942 -0.1518
  373TMC3    C4 5632   0.848   0.690  13.746 -0.7007 -0.2496 -0.6768
  373TMC3    C5 5633   0.892   0.576  13.802 -0.5849  0.6437 -0.1396
  373TMC3    C6 5634   0.837   0.532  13.921 -0.2469 -0.0661 -0.3823
  373TMC3     C 5635   0.737   0.913  13.771  0.2659  0.1510  0.0758
  373TMC3     O 5636   0.645   0.974  13.824 -0.0199  0.2876  0.0501
  373TMC3     H 5637   0.652   0.806  13.993 -0.5887 -0.1873 -0.4426
  373TMC3    H1 5638   0.897   0.734  13.660 -0.2331 -2.2765 -1.4345
  373TMC3    H2 5639   0.845   0.427  13.948 -0.0262 -0.1523 -0.7819
  373TMC3    C7 5640   1.009   0.515  13.751  0.2962  0.3799  0.2953
  373TMC3    C8 5641   0.671   0.578  14.105 -0.2126  0.3836  0.2137
  373TMC3    O1 5642   1.053   0.560  13.647 -0.0734 -0.3641 -0.2283
  373TMC3    O2 5643   0.557   0.617  14.107  0.0891  0.0459  0.3375
  374TMC3    C1 5644   1.772   1.932   9.646  0.2277 -0.0751  0.0370
  374TMC3    C2 5645   1.826   2.049   9.689 -0.2172 -0.5761 -0.5098
  374TMC3    C3 5646   1.782   2.163   9.629 -0.2440  0.3339  0.8427
  374TMC3    C4 5647   1.689   1.926   9.547  0.1389  0.6515  0.0354
  374TMC3    C5 5648   1.647   2.040   9.489  0.1871 -0.1027 -0.2165
  374TMC3    C6 5649   1.694   2.161   9.529 -0.0783  0.9996 -0.2848
  374TMC3     C 5650   1.808   1.809   9.714  0.1390  0.3787  0.3287
  374TMC3     O 5651   1.896   1.813   9.792  0.9457  0.4072  0.3227
  374TMC3     H 5652   1.910   2.039   9.756  0.3193  0.7720 -0.9837
  374TMC3    H1 5653   1.659   1.830   9.505  1.4268  0.2431  0.0707
  374TMC3    H2 5654   1.677   2.256   9.480 -0.6929  0.7241 -0.6054
  374TMC3    C7 5655   1.575   2.025   9.368 -0.2612 -0.9936 -0.4319
  374TMC3    C8 5656   1.856   2.283   9.652 -0.4170  0.4157  0.2215
  374TMC3    O1 5657   1.588   1.918   9.308 -0.2295  0.4661 -0.3964
  374TMC3    O2 5658   1.847   2.375   9.572 -0.2099 -0.4102 -0.1747
  375MPD2     C 5659   1.965   2.451  16.558 -0.1852  0.0703 -0.2149
  375MPD2    C1 5660   1.895   2.337  16.566 -0.0984  0.0570 -0.7263
  375MPD2    C2 5661   1.933   2.236  16.481 -0.2938  0.2071  0.7275
  375MPD2    C3 5662   2.046   2.251  16.398  0.7291  0.3838 -1.5357
  375MPD2    C4 5663   2.112   2.370  16.393  0.2986  0.2507  0.6805
  375MPD2    C5 5664   2.079   2.465  16.478  0.6715  0.3577  0.0562
  375MPD2     H 5665   1.871   2.147  16.473 -0.0279  0.0396  0.5473
  375MPD2    H1 5666   2.196   2.387  16.326 -0.3581  3.7482  0.7579
  375MPD2    H2 5667   1.946   2.538  16.621 -3.5628 -1.2463  0.5403
  375MPD2    H3 5668   2.136   2.557  16.478  0.3659  0.5451  0.0433
  375MPD2     N 5669   2.093   2.150  16.309 -0.3076 -0.3237  0.3869
  375MPD2    H5 5670   2.162   2.175  16.240  0.6125 -1.2835  0.9643
  375MPD2    N1 5671   1.782   2.324  16.650 -0.5750 -0.2962 -0.5645
  375MPD2    H7 5672   1.726   2.240  16.657  1.0160 -1.2137  1.1444
  376TMC3    C1 5673   2.139   1.944  16.230  0.1961 -0.0627 -0.1236
  376TMC3    C2 5674   2.199   1.833  16.291  0.2250 -0.4814 -0.1391
  376TMC3    C3 5675   2.309   1.787  16.233  0.4125 -0.5663  0.0601
  376TMC3    C4 5676   2.173   1.996  16.112  0.2883 -0.6371  0.1414
  376TMC3    C5 5677   2.282   1.940  16.052 -0.2936 -0.0297 -0.2268
  376TMC3    C6 5678   2.355   1.838  16.109 -0.6867  0.1622 -0.4216
  376TMC3     C 5679   2.055   2.018  16.321 -0.1740 -0.0725 -0.6613
  376TMC3     O 5680   2.006   1.963  16.417 -0.1985  0.7553 -0.3774
  376TMC3     H 5681   2.178   1.797  16.391  1.5008  1.8387  0.9564
  376TMC3    H1 5682   2.130   2.079  16.057 -0.5282 -1.0852  0.1017
  376TMC3    H2 5683   2.442   1.796  16.060  0.1932  0.6933  0.6998
  376TMC3    C7 5684   2.269   1.963  15.911 -0.0541 -0.4755 -0.4631
  376TMC3    C8 5685   2.419   1.771  16.321  0.1916 -0.1227  0.0965
  376TMC3    O1 5686   2.244   2.074  15.865  0.4269 -0.5559 -0.0504
  376TMC3    O2 5687   2.412   1.683  16.403  0.0945  0.3339 -0.1344
  377MPD2     C 5688   4.295   1.975  13.078 -0.8093  0.1837  0.8398
  377MPD2    C1 5689   4.399   1.888  13.096  0.1599  0.2852  0.3645
  377MPD2    C2 5690   4.391   1.780  13.183 -0.0647  0.2693 -0.2605
  377MPD2    C3 5691   4.286   1.775  13.269 -0.3320  0.8828 -0.2681
  377MPD2    C4 5692   4.182   1.869  13.260  0.2197 -0.3475  0.0109
  377MPD2    C5 5693   4.188   1.959  13.157  0.3629 -0.2506  0.2083
  377MPD2     H 5694   4.463   1.699  13.180 -1.2935 -0.8997  1.1752
  377MPD2    H1 5695   4.091   1.863  13.319  1.1927 -0.4112  1.4837
  377MPD2    H2 5696   4.283   2.029  12.985 -0.1751  0.9298  1.1903
  377MPD2    H3 5697   4.099   2.015  13.131  1.0547  1.5164  1.6831
  377MPD2     N 5698   4.263   1.662  13.355  0.1255  0.2893  0.4137
  377MPD2    H5 5699   4.173   1.663  13.400 -0.9278  2.3152 -1.7175
  377MPD2    N1 5700   4.494   1.897  12.990 -0.1834 -0.1461 -0.4616
  377MPD2    H7 5701   4.483   1.958  12.910  0.6822  0.1900 -0.3193
  378TMC3    C1 5702   4.726   1.873  12.648 -0.4032  0.6290  0.7186
  378TMC3    C2 5703   4.639   1.843  12.756 -0.7219 -0.3294  0.1174
  378TMC3    C3 5704   4.695   1.849  12.884 -0.7641  0.1067  0.0102
  378TMC3    C4 5705   0.124   1.884  12.658  0.2799  0.4901  0.4993
  378TMC3    C5 5706   0.172   1.885  12.790  0.4916 -0.8959 -0.5248
  378TMC3    C6 5707   0.088   1.860  12.897 -1.2306  0.3581 -0.0918
  378TMC3     C 5708   4.664   1.909  12.524  0.2420  1.4169 -0.1752
  378TMC3     O 5709   4.543   1.919  12.527  0.7250  0.8465 -0.0624
  378TMC3     H 5710   4.534   1.822  12.739 -0.5079 -1.0030 -0.3496
  378TMC3    H1 5711   0.192   1.929  12.586 -0.6254  1.6554  0.3630
  378TMC3    H2 5712   0.129   1.847  12.996  0.1382 -0.4595 -0.7712
  378TMC3    C7 5713   0.309   1.847  12.816  0.3136 -0.8614 -0.2292
  378TMC3    C8 5714   4.612   1.834  13.004  0.5605  0.0745  0.3251
  378TMC3    O1 5715   0.342   1.843  12.933 -0.0115  0.0423  0.0520
  378TMC3    O2 5716   4.659   1.792  13.110 -0.2851  0.6614 -0.5944
  379MPD2     C 5717   0.757   0.230  16.065 -0.0189 -0.7000  0.0160
  379MPD2    C1 5718   0.693   0.175  16.173 -0.1681 -0.1056  0.1089
  379MPD2    C2 5719   0.766   0.100  16.266 -0.8832 -0.0398 -0.5802
  379MPD2    C3 5720   0.898   0.073  16.251  0.3716 -0.7110  0.7437
  379MPD2    C4 5721   0.964   0.134  16.138  0.0938  0.1252 -0.0264
  379MPD2    C5 5722   0.896   0.223  16.053 -0.8427  0.5568  0.2101
  379MPD2     H 5723   0.710   0.061  16.350  0.4279 -1.4108 -0.3350
  379MPD2    H1 5724   1.069   0.117  16.121  0.4366  2.3975 -0.1430
  379MPD2    H2 5725   0.705   0.303  16.004  0.0898 -1.4670 -1.0003
  379MPD2    H3 5726   0.947   0.277  15.974 -0.4065 -0.9611 -0.5552
  379MPD2     N 5727   0.965   4.724  16.332 -0.0203  0.0697  0.1720
  379MPD2    H5 5728   1.058   4.696  16.303  0.2647  1.0469  0.1268
  379MPD2    N1 5729   0.550   0.184  16.164  0.1089  0.1579 -0.1831
  379MPD2    H7 5730   0.509   0.234  16.087  1.0002  0.2521 -0.5994
  380TMC3    C1 5731   0.332   0.120  16.209 -0.0692 -0.4788 -0.0190
  380TMC3    C2 5732   0.308   4.726  16.187  0.9759  0.2847  0.1587
  380TMC3    C3 5733   0.215   4.695  16.094  0.0739 -0.2818  0.0804
  380TMC3    C4 5734   0.273   0.214  16.134 -0.3817  0.3902 -0.6320
  380TMC3    C5 5735   0.178   0.174  16.047 -1.1514 -0.3469 -0.2729
  380TMC3    C6 5736   0.141   0.045  16.035  0.1433 -0.6681 -0.3781
  380TMC3     C 5737   0.464   0.141  16.261 -0.6999 -0.0895  0.1935
  380TMC3     O 5738   0.488   0.074  16.360 -0.5409  0.3254  0.0332
  380TMC3     H 5739   0.355   4.647  16.244  0.4123  0.2772  0.6129
  380TMC3    H1 5740   0.301   0.314  16.165 -1.4951  1.1205 -1.9683
  380TMC3    H2 5741   0.056   0.017  15.972 -0.1323 -0.8314  0.0654
  380TMC3    C7 5742   0.098   0.282  15.997 -0.2048  0.0791 -0.1884
  380TMC3    C8 5743   0.213   4.564  16.029 -0.1181 -2.0088 -0.0420
  380TMC3    O1 5744   0.119   0.398  16.037 -0.8048 -0.0530  0.0060
  380TMC3    O2 5745   0.145   4.553  15.928 -0.1010  0.2233  0.7654
  381TMC3    C1 5746   0.106   1.601  16.136  0.2440 -0.2193 -0.0436
  381TMC3    C2 5747   0.223   1.574  16.073  1.1228 -0.2773 -0.1674
  381TMC3    C3 5748   0.322   1.518  16.147  0.2963 -0.6693 -0.6935
  381TMC3    C4 5749   0.084   1.555  16.259 -0.1451 -0.2943 -0.7833
  381TMC3    C5 5750   0.181   1.485  16.321 -0.1616  0.3944  0.3224
  381TMC3    C6 5751   0.300   1.461  16.270  0.3799  0.5226 -0.3032
  381TMC3     C 5752   4.730   1.650  16.056 -0.9576 -0.4124 -0.3690
  381TMC3     O 5753   4.632   1.666  16.129 -0.8063  0.2909 -0.1840
  381TMC3     H 5754   0.255   1.628  15.984 -1.1450  0.1536 -0.7262
  381TMC3    H1 5755   4.724   1.566  16.302 -0.8253  1.0639 -2.7154
  381TMC3    H2 5756   0.386   1.420  16.322  0.0279 -0.3250 -0.3849
  381TMC3    C7 5757   0.156   1.442  16.460  0.1002  0.2319 -0.5734
  381TMC3    C8 5758   0.455   1.568  16.131  0.8321 -0.1647 -0.6727
  381TMC3    O1 5759   0.214   1.338  16.488 -0.2716  0.3559 -0.2483
  381TMC3    O2 5760   0.517   1.523  16.035 -0.1015  0.4685 -0.6905
  382MPD2     C 5761   4.355   3.364  16.521  0.5250 -0.4610  0.1352
  382MPD2    C1 5762   4.399   3.374  16.651 -0.8258  0.4878 -0.3550
  382MPD2    C2 5763   4.429   3.255  16.722 -1.3682  0.0073 -0.4693
  382MPD2    C3 5764   4.409   3.135  16.660 -0.1672 -0.2387 -0.4223
  382MPD2    C4 5765   4.355   3.126  16.536  0.5091  0.9036 -0.2760
  382MPD2    C5 5766   4.336   3.243  16.463 -0.1351 -0.1407  0.4451
  382MPD2     H 5767   4.450   3.262  16.828 -1.3913 -0.5777 -0.4284
  382MPD2    H1 5768   4.320   3.032  16.496  1.0976  0.8459 -0.6557
  382MPD2    H2 5769   4.319   3.445  16.460 -1.0758 -0.9516  0.4128
  382MPD2    H3 5770   4.288   3.235  16.366  2.1872  0.3984 -0.7593
  382MPD2     N 5771   4.406   3.021  16.738 -0.0638  0.0482 -0.3095
  382MPD2    H5 5772   4.358   2.941  16.698  1.0175 -1.9828  2.4974
  382MPD2    N1 5773   4.406   3.498  16.717 -0.1521 -0.6143  0.0260
  382MPD2    H7 5774   4.456   3.499  16.805  0.8876  0.9470 -0.5772
  383TMC3    C1 5775   4.438   2.878  16.917 -0.4654  0.0892 -0.0622
  383TMC3    C2 5776   4.314   2.830  16.897 -0.0362  0.1147  0.0816
  383TMC3    C3 5777   4.261   2.764  17.001  0.6273 -0.1954  0.4491
  383TMC3    C4 5778   4.509   2.856  17.032 -0.0532 -0.0528  0.3225
  383TMC3    C5 5779   4.456   2.780  17.130  0.9576 -0.2604  0.4230
  383TMC3    C6 5780   4.329   2.745  17.124  0.2240 -0.6402  0.6418
  383TMC3     C 5781   4.467   3.005  16.857 -0.2704 -0.4028 -0.1723
  383TMC3     O 5782   4.547   3.079  16.915  0.2664  0.1771  0.6287
  383TMC3     H 5783   4.259   2.866  16.811 -1.5687  0.2773  1.1257
  383TMC3    H1 5784   4.609   2.899  17.036  1.2667 -3.1103  0.3791
  383TMC3    H2 5785   4.290   2.687  17.207 -1.3294 -1.2151 -0.4779
  383TMC3    C7 5786   4.534   2.732  17.245  0.3133  0.2587  0.1114
  383TMC3    C8 5787   4.126   2.724  16.990  0.7653 -0.4815 -0.4307
  383TMC3    O1 5788   4.475   2.662  17.329 -0.0888  0.3632  0.4999
  383TMC3    O2 5789   4.071   2.766  16.890  0.3732 -1.0046 -0.0971
  384MPD2     C 5790   0.728   0.476  12.115 -0.3539 -0.0461  0.6565
  384MPD2    C1 5791   0.759   0.425  12.238  0.2383 -0.1541  0.4347
  384MPD2    C2 5792   0.880   0.380  12.255  0.0455  0.1992  0.4816
  384MPD2    C3 5793   0.981   0.384  12.168 -0.1932  0.4619  0.1944
  384MPD2    C4 5794   0.960   0.437  12.046 -0.0097 -0.0628  0.2182
  384MPD2    C5 5795   0.837   0.487  12.030 -0.1810  0.3174 -0.2976
  384MPD2     H 5796   0.906   0.322  12.343  0.1197  1.0134  0.9963
  384MPD2    H1 5797   1.037   0.443  11.970 -0.8264 -1.3900 -0.7230
  384MPD2    H2 5798   0.627   0.492  12.078  0.1853  0.1518 -0.7231
  384MPD2    H3 5799   0.814   0.506  11.926  0.8125 -1.0398 -0.7708
  384MPD2     N 5800   1.099   0.325  12.210  0.0613  0.1180 -0.0428
  384MPD2    H5 5801   1.107   0.279  12.300  1.2971  0.0845 -0.1609
  384MPD2    N1 5802   0.668   0.400  12.341 -0.2379  0.3185 -0.0112
  384MPD2    H7 5803   0.709   0.356  12.423 -0.7183  0.0229  0.0698
  385TMC3    C1 5804   1.321   0.239  12.209  0.1652 -0.2141  0.1156
  385TMC3    C2 5805   1.345   0.117  12.148  0.9244  0.4254 -0.3275
  385TMC3    C3 5806   1.343   0.002  12.219  0.1749 -0.5408  0.3126
  385TMC3    C4 5807   1.306   0.244  12.344  0.2134 -0.5929 -0.1363
  385TMC3    C5 5808   1.303   0.127  12.421 -0.6039  0.0644 -0.2378
  385TMC3    C6 5809   1.315   0.005  12.356 -0.6761  0.7610  0.6332
  385TMC3     C 5810   1.209   0.310  12.137 -0.0918 -0.1022  0.0014
  385TMC3     O 5811   1.222   0.318  12.016  0.2109 -0.3516  0.2246
  385TMC3     H 5812   1.353   0.125  12.040  0.5727  1.6180 -0.2645
  385TMC3    H1 5813   1.299   0.340  12.394  1.4208 -0.2735 -0.5825
  385TMC3    H2 5814   1.303   4.648  12.405 -0.8481  1.1778  1.4169
  385TMC3    C7 5815   1.186   0.139  12.507  0.0545 -0.4282 -0.9234
  385TMC3    C8 5816   1.347   4.606  12.157  0.3163 -0.0501 -0.1631
  385TMC3    O1 5817   1.115   0.239  12.485  0.7729 -0.4099 -0.2626
  385TMC3    O2 5818   1.341   4.513  12.237  0.2301  0.2617 -0.2655
  386TMC3    C1 5819   1.588   1.925  11.847 -0.4918  0.4949  0.5438
  386TMC3    C2 5820   1.578   1.980  11.725  0.2724  0.2171  0.4677
  386TMC3    C3 5821   1.454   2.000  11.673  0.8956  1.3045 -0.4732
  386TMC3    C4 5822   1.477   1.879  11.921  0.3308  0.4647  0.4184
  386TMC3    C5 5823   1.353   1.913  11.875 -0.3298  0.6892  0.3081
  386TMC3    C6 5824   1.343   1.965  11.754 -0.2662 -0.5414  0.2930
  386TMC3     C 5825   1.718   1.872  11.880 -0.3552  0.5586 -0.3675
  386TMC3     O 5826   1.811   1.951  11.864 -0.3191  0.5578  0.0046
  386TMC3     H 5827   1.672   1.990  11.671  0.7999 -0.2656  1.2928
  386TMC3    H1 5828   1.497   1.829  12.015 -2.6239  0.8720  1.2416
  386TMC3    H2 5829   1.245   1.987  11.716  0.0625 -0.0136 -0.2414
  386TMC3    C7 5830   1.229   1.892  11.954  0.8004  0.3480 -0.8625
  386TMC3    C8 5831   1.433   2.056  11.539 -0.0749 -0.0884  0.7051
  386TMC3    O1 5832   1.247   1.897  12.074  0.4489  0.1955 -0.1867
  386TMC3    O2 5833   1.320   2.050  11.490  0.4101 -0.0104 -0.3963
  387MPD2     C 5834   4.076   2.196   9.518 -0.2870  0.0986  0.4896
  387MPD2    C1 5835   4.025   2.250   9.638  0.2611 -0.7124  0.2029
  387MPD2    C2 5836   3.939   2.174   9.719 -0.4325  0.2347  0.7064
  387MPD2    C3 5837   3.896   2.044   9.682  0.7825 -0.5069 -0.5411
  387MPD2    C4 5838   3.937   1.991   9.559  0.4929  0.6163  0.6084
  387MPD2    C5 5839   4.017   2.076   9.482  0.6269 -0.4740 -0.4526
  387MPD2     H 5840   3.922   2.206   9.821 -0.1385  0.6419  0.6284
  387MPD2    H1 5841   3.910   1.898   9.510  1.2931  1.2562 -1.0498
  387MPD2    H2 5842   4.139   2.251   9.449  1.6116 -1.9481  0.5659
  387MPD2    H3 5843   4.069   2.035   9.396 -1.0137 -0.2637 -1.5359
  387MPD2     N 5844   3.819   1.976   9.776 -0.6510  0.0457 -0.7255
  387MPD2    H5 5845   3.779   2.026   9.855  1.4606 -1.0706  1.0627
  387MPD2    N1 5846   4.049   2.378   9.690  1.2163 -0.6391 -0.5437
  387MPD2    H7 5847   4.000   2.396   9.777  1.7619  2.1775 -0.8397
  388TMC3    C1 5848   4.181   2.563   9.734  0.4774  0.3777  0.2550
  388TMC3    C2 5849   4.281   2.644   9.697  0.2710 -0.0835  0.0173
  388TMC3    C3 5850   4.352   2.706   9.797 -0.1052 -0.3189  0.0731
  388TMC3    C4 5851   4.152   2.538   9.872  0.4319 -0.1988 -0.7990
  388TMC3    C5 5852   4.220   2.607   9.958  0.3125  0.4900 -0.2768
  388TMC3    C6 5853   4.321   2.689   9.927  0.6658 -0.5036 -0.0551
  388TMC3     C 5854   4.140   2.463   9.635  0.2969  0.2350 -0.1758
  388TMC3     O 5855   4.205   2.455   9.533  0.0495  0.4582  0.1280
  388TMC3     H 5856   4.316   2.658   9.595  1.3106 -0.8686  0.2685
  388TMC3    H1 5857   4.076   2.467   9.901 -1.1614  1.9019  0.1707
  388TMC3    H2 5858   4.387   2.725  10.006  0.3493  1.1375 -0.5273
  388TMC3    C7 5859   4.224   2.556  10.099 -0.4926  0.0504 -0.4388
  388TMC3    C8 5860   4.458   2.792   9.750 -0.2946 -0.3484 -0.0660
  388TMC3    O1 5861   4.242   2.640  10.184 -0.0727 -0.4806 -0.0650
  388TMC3    O2 5862   4.516   2.763   9.647 -0.5488  1.0460  0.4577
  389MPD2     C 5863   3.361   0.425  11.355  0.3425  0.3357 -0.1533
  389MPD2    C1 5864   3.360   0.397  11.222  0.0476  0.4343  0.2567
  389MPD2    C2 5865   3.297   0.269  11.193  0.5455  0.9567  0.3838
  389MPD2    C3 5866   3.237   0.189  11.283 -1.1815  0.0383  0.2054
  389MPD2    C4 5867   3.251   0.230  11.412 -0.1109 -0.0097 -0.3967
  389MPD2    C5 5868   3.306   0.350  11.458 -0.0895 -0.1347 -0.9993
  389MPD2     H 5869   3.291   0.229  11.092 -1.7808 -1.4507  1.4779
  389MPD2    H1 5870   3.200   0.173  11.488  1.2052  0.7601  1.0511
  389MPD2    H2 5871   3.395   0.522  11.389  0.3309  0.6293 -0.9946
  389MPD2    H3 5872   3.302   0.386  11.560  0.5769  0.3742 -1.1455
  389MPD2     N 5873   3.188   0.060  11.263 -0.2133 -0.2206 -0.5770
  389MPD2    H5 5874   3.165   0.011  11.350 -1.3752  2.1982  0.4599
  389MPD2    N1 5875   3.424   0.479  11.134 -0.1950  0.1441 -0.0364
  389MPD2    H7 5876   3.453   0.572  11.162  2.5374 -0.7087  0.0096
  390TMC3    C1 5877   3.137   4.599  11.168  0.2220  0.3318 -0.2374
  390TMC3    C2 5878   3.047   4.537  11.081  0.1361 -0.1192 -0.1225
  390TMC3    C3 5879   3.008   4.411  11.128  0.0608  0.0389 -0.0890
  390TMC3    C4 5880   3.184   4.549  11.284 -0.2385 -0.8949 -0.2391
  390TMC3    C5 5881   3.106   4.454  11.337  0.2834 -0.4623 -0.6428
  390TMC3    C6 5882   3.024   4.379  11.254  0.1087 -0.8609  0.3714
  390TMC3     C 5883   3.178   4.734  11.144  0.0297 -0.3167  0.1607
  390TMC3     O 5884   3.211   0.016  11.025 -0.3840 -0.0809 -0.3703
  390TMC3     H 5885   3.026   4.572  10.981  1.6632  0.8514 -0.0908
  390TMC3    H1 5886   3.279   4.577  11.328 -0.9477 -0.8053  1.2186
  390TMC3    H2 5887   2.966   4.294  11.288  0.5389 -0.7032  1.4970
  390TMC3    C7 5888   3.034   4.540  11.429 -0.5419 -0.0047 -0.0533
  390TMC3    C8 5889   2.870   4.387  11.080  0.7839  0.4163 -0.5348
  390TMC3    O1 5890   3.106   4.635  11.466 -0.0555  0.1190 -0.1298
  390TMC3    O2 5891   2.836   4.269  11.095  0.3082  0.0779  0.4489
  391MPD2     C 5892   2.115   2.078  11.223  0.4508 -0.3718  0.1908
  391MPD2    C1 5893   2.241   2.099  11.171 -0.5008 -0.6633  0.0090
  391MPD2    C2 5894   2.249   2.159  11.047  0.3639 -0.4440  0.6097
  391MPD2    C3 5895   2.138   2.197  10.973  0.7271  0.0269  0.2479
  391MPD2    C4 5896   2.019   2.173  11.017 -0.1063  0.1669 -1.0656
  391MPD2    C5 5897   2.010   2.113  11.147  0.6734  0.0608 -0.7129
  391MPD2     H 5898   2.351   2.162  11.011  0.4610  2.6197  1.1344
  391MPD2    H1 5899   1.925   2.193  10.968 -1.2076  0.3996  1.1490
  391MPD2    H2 5900   2.092   2.026  11.315 -0.0516 -0.5768 -0.0508
  391MPD2    H3 5901   1.911   2.090  11.185  1.4042 -0.2154  1.0005
  391MPD2     N 5902   2.155   2.259  10.847  0.8708  0.2460 -0.0470
  391MPD2    H5 5903   2.248   2.280  10.812  0.8234  0.1527 -0.2279
  391MPD2    N1 5904   2.347   2.068  11.249 -0.2894 -0.0865  0.2235
  391MPD2    H7 5905   2.321   2.030  11.340 -1.2807  1.8313  0.7331
  392TMC3    C1 5906   2.107   2.379  10.644  0.0906  0.4645 -0.0418
  392TMC3    C2 5907   2.063   2.340  10.521  0.1572  0.0703 -0.7318
  392TMC3    C3 5908   2.111   2.415  10.419 -0.2590  0.1227 -0.5075
  392TMC3    C4 5909   2.214   2.468  10.662  0.2292  0.8756  0.2108
  392TMC3    C5 5910   2.268   2.530  10.556  0.2144  0.4855 -0.2367
  392TMC3    C6 5911   2.221   2.496  10.426  0.2148 -0.0356  0.2016
  392TMC3     C 5912   2.059   2.303  10.762  0.0974  0.2319 -0.0625
  392TMC3     O 5913   1.941   2.271  10.755  0.4145 -0.0380 -0.0190
  392TMC3     H 5914   1.983   2.268  10.510 -0.0366  0.2448 -0.4598
  392TMC3    H1 5915   2.230   2.505  10.763  1.4186  1.4140 -0.1840
  392TMC3    H2 5916   2.263   2.543  10.338  1.2947  1.4762  1.5400
  392TMC3    C7 5917   2.384   2.620  10.575  0.5060  0.3122  0.0264
  392TMC3    C8 5918   2.069   2.376  10.286 -0.0055 -0.3717 -0.0463
  392TMC3    O1 5919   2.404   2.653  10.692  0.2244  0.2000 -0.4720
  392TMC3    O2 5920   2.005   2.271  10.273 -0.2167  0.0876  0.1694
  393TMC3    C1 5921   0.666   0.139  10.087  0.1523  0.2129  0.3800
  393TMC3    C2 5922   0.635   0.026  10.016 -0.0587  0.0451  0.3704
  393TMC3    C3 5923   0.553   4.680  10.081  0.3886 -0.4202  0.1797
  393TMC3    C4 5924   0.645   0.159  10.217  0.6531 -0.1651 -0.0408
  393TMC3    C5 5925   0.554   0.073  10.274  0.2752 -0.3573  0.1762
  393TMC3    C6 5926   0.503   4.706  10.206 -0.8792  0.0311  0.2728
  393TMC3     C 5927   0.732   0.247  10.009 -0.0162 -0.0311 -0.0055
  393TMC3     O 5928   0.731   0.235   9.887 -0.4906 -0.0990 -0.3201
  393TMC3     H 5929   0.676   0.006   9.917 -2.6589 -1.2406 -0.4742
  393TMC3    H1 5930   0.649   0.258  10.261 -0.6869  0.2637 -0.8807
  393TMC3    H2 5931   0.449   4.632  10.265 -1.1157  1.2340  1.5723
  393TMC3    C7 5932   0.541   0.072  10.423  0.2008  0.2541  0.1190
  393TMC3    C8 5933   0.512   4.556  10.022  0.3421  0.5204 -1.2873
  393TMC3    O1 5934   0.460   4.734  10.474 -0.5908 -0.0028 -0.0185
  393TMC3    O2 5935   0.416   4.499  10.082 -0.2104  0.5726 -0.2339
  394TMC3    C1 5936   3.556   0.530  10.942  0.0892  0.2964  0.2798
  394TMC3    C2 5937   3.636   0.464  10.850 -0.0715  0.1895  0.1399
  394TMC3    C3 5938   3.649   0.527  10.725  0.3811  0.5338  0.3601
  394TMC3    C4 5939   3.517   0.659  10.919  0.3318 -0.6824 -0.1181
  394TMC3    C5 5940   3.554   0.728  10.806 -0.3039 -0.3109 -0.0395
  394TMC3    C6 5941   3.616   0.660  10.707 -0.1961 -0.5726 -0.3260
  394TMC3     C 5942   3.469   0.439  11.010  0.2149 -0.0258  0.1008
  394TMC3     O 5943   3.489   0.325  10.970  0.1398 -0.1742 -0.4117
  394TMC3     H 5944   3.671   0.362  10.853 -0.8417 -0.0575  0.7543
  394TMC3    H1 5945   3.438   0.701  10.980 -0.1125  0.4942 -1.5200
  394TMC3    H2 5946   3.647   0.718  10.621  2.0804  0.2292  1.0502
  394TMC3    C7 5947   3.521   0.866  10.787  0.3431 -0.8264 -0.0315
  394TMC3    C8 5948   3.648   0.439  10.609  0.5428  0.3974  0.3659
  394TMC3    O1 5949   3.595   0.927  10.707  0.1955  0.1826  0.3676
  394TMC3    O2 5950   3.673   0.323  10.631 -0.3661  0.3968  0.0752
  395TMC3    C1 5951   2.843   1.842  14.995 -0.5855  0.7339 -0.5927
  395TMC3    C2 5952   2.821   1.786  14.874 -0.1538 -0.3987  0.6301
  395TMC3    C3 5953   2.899   1.820  14.770  0.0845 -0.0514  1.1365
  395TMC3    C4 5954   2.961   1.903  15.014  1.0283  0.7665 -0.2782
  395TMC3    C5 5955   3.038   1.931  14.911 -0.2965 -0.5386 -0.8798
  395TMC3    C6 5956   3.013   1.885  14.788  0.2564  0.2924  0.6939
  395TMC3     C 5957   2.738   1.834  15.087 -0.4071  0.2600  0.5336
  395TMC3     O 5958   2.635   1.786  15.046  0.3293 -0.1261 -0.1128
  395TMC3     H 5959   2.733   1.724  14.868  2.2306 -3.6180 -1.0770
  395TMC3    H1 5960   2.978   1.957  15.106 -4.3920  0.2785  0.9825
  395TMC3    H2 5961   3.067   1.921  14.701 -2.4073 -1.1356 -1.5496
  395TMC3    C7 5962   3.150   2.026  14.921 -0.7977  0.6231  0.4820
  395TMC3    C8 5963   2.907   1.726  14.656  0.5776  0.7244  0.0548
  395TMC3    O1 5964   3.149   2.099  15.018 -0.3819  0.0311  0.0657
  395TMC3    O2 5965   3.012   1.707  14.596  0.2495  0.2544  0.4831
  396MPD2     C 5966   2.500   2.864  16.996 -0.7828  0.8834  0.0112
  396MPD2    C1 5967   2.618   2.893  17.057 -0.5964 -0.2259  0.3116
  396MPD2    C2 5968   2.705   2.980  16.998 -0.1742  0.0296 -0.2637
  396MPD2    C3 5969   2.680   3.043  16.874 -0.2085 -0.2796  0.0721
  396MPD2    C4 5970   2.551   3.020  16.816  0.1304  0.0910  0.5082
  396MPD2    C5 5971   2.473   2.928  16.876 -0.1708 -0.1290 -0.3519
  396MPD2     H 5972   2.805   2.987  17.040 -0.1957 -0.9562 -0.0328
  396MPD2    H1 5973   2.516   3.057  16.720  1.1273 -0.0259  0.1050
  396MPD2    H2 5974   2.434   2.788  17.036 -1.4727  2.2117  1.3882
  396MPD2    H3 5975   2.377   2.913  16.828  0.9667 -1.0111 -2.3218
  396MPD2     N 5976   2.778   3.128  16.819  0.0403 -0.1011  0.7203
  396MPD2    H5 5977   2.864   3.136  16.872  0.4068 -0.7719  0.2287
  396MPD2    N1 5978   2.648   2.822  17.179 -0.4017 -0.4878  0.1386
  396MPD2    H7 5979   2.586   2.745  17.203 -1.1250  0.4495  1.3674
  397TMC3    C1 5980   2.785   2.719  17.338 -0.4906  0.5325 -0.6837
  397TMC3    C2 5981   2.921   2.694  17.328 -0.1215  0.9594  0.2855
  397TMC3    C3 5982   2.956   2.588  17.253 -0.1356  0.6595 -0.4902
  397TMC3    C4 5983   2.691   2.621  17.314 -0.1044  0.0663  0.3912
  397TMC3    C5 5984   2.732   2.502  17.258  0.2220 -0.4943  0.4327
  397TMC3    C6 5985   2.868   2.484  17.224 -0.0296  0.3431  0.3849
  397TMC3     C 5986   2.755   2.842  17.264  0.2676  0.4764  0.4495
  397TMC3     O 5987   2.813   2.946  17.281  0.1218 -0.4050  0.1330
  397TMC3     H 5988   2.983   2.783  17.333 -0.4424  1.3533 -2.9027
  397TMC3    H1 5989   2.587   2.640  17.338 -0.7573 -1.0134 -1.5654
  397TMC3    H2 5990   2.902   2.407  17.156  1.3894  0.4954  0.9189
  397TMC3    C7 5991   2.680   2.390  17.333 -0.3989  0.0131 -0.0678
  397TMC3    C8 5992   3.015   2.615  17.124  0.2280 -0.0792 -0.1873
  397TMC3    O1 5993   2.724   2.278  17.309  0.1259 -0.3232  0.0315
  397TMC3    O2 5994   2.946   2.576  17.027 -0.1529  0.4101  0.3692
  398MPD2     C 5995   0.738   4.510  17.536 -0.8025  1.0822 -0.6243
  398MPD2    C1 5996   0.795   4.407  17.604 -0.0866 -0.0308 -0.4917
  398MPD2    C2 5997   0.901   4.425  17.690  0.3859 -0.1831  0.4310
  398MPD2    C3 5998   0.953   4.555  17.699  0.5483  0.7713  0.3450
  398MPD2    C4 5999   0.894   4.659  17.625  0.3694 -0.3226  0.2692
  398MPD2    C5 6000   0.793   4.633  17.544  0.8189 -0.0644  0.3355
  398MPD2     H 6001   0.950   4.344  17.743 -0.0655 -0.7579 -0.0321
  398MPD2    H1 6002   0.937   0.019  17.621 -1.1882  0.4204  1.4143
  398MPD2    H2 6003   0.649   4.503  17.475 -1.7782 -0.3252  0.9413
  398MPD2    H3 6004   0.748   4.717  17.490  0.6190 -1.3191 -1.4555
  398MPD2     N 6005   1.054   4.577   0.042 -0.1238  0.2346  0.1944
  398MPD2    H5 6006   1.095   4.495   0.085 -0.1891  0.5889  0.9429
  398MPD2    N1 6007   0.730   4.284  17.604  0.6203  0.8198  0.2826
  398MPD2    H7 6008   0.759   4.218  17.676  1.4846  0.9139  0.0187
  399TMC3    C1 6009   0.601   4.106  17.574 -0.3690 -0.1359  0.0566
  399TMC3    C2 6010   0.709   4.027  17.610  0.3412  0.4244  0.3926
  399TMC3    C3 6011   0.671   3.902  17.655 -0.0757 -0.1133 -0.6146
  399TMC3    C4 6012   0.469   4.065  17.566 -0.4047 -0.2791 -0.1153
  399TMC3    C5 6013   0.450   3.935  17.602  0.2397  0.4491 -1.4001
  399TMC3    C6 6014   0.544   3.848  17.649 -0.1851 -0.2763  0.1424
  399TMC3     C 6015   0.628   4.245  17.525 -1.4060 -0.6490  0.2333
  399TMC3     O 6016   0.545   4.304  17.456 -0.1658 -0.6357  0.5370
  399TMC3     H 6017   0.809   4.068  17.611  1.1299 -1.4440 -1.4254
  399TMC3    H1 6018   0.388   4.131  17.539  0.7793  0.7785 -1.0962
  399TMC3    H2 6019   0.520   3.748  17.684  1.1137 -0.9259 -0.8505
  399TMC3    C7 6020   0.313   3.880  17.609  0.2156 -0.0021  0.4531
  399TMC3    C8 6021   0.779   3.807  17.687  0.2565 -0.3069  0.7778
  399TMC3    O1 6022   0.296   3.778  17.675 -0.0677  1.0120  0.2571
  399TMC3    O2 6023   0.863   3.850   0.006 -0.5136 -0.2672  0.3095
  400TMC3    C1 6024   4.002   2.474  16.675  0.4035  0.3065 -0.4646
  400TMC3    C2 6025   3.898   2.387  16.650  0.0928  0.1495 -0.1039
  400TMC3    C3 6026   3.787   2.445  16.590 -0.2168 -0.0778 -0.1343
  400TMC3    C4 6027   4.003   2.611  16.658 -0.1729  0.2167  0.2357
  400TMC3    C5 6028   3.890   2.664  16.603 -0.1062  0.8901  0.6765
  400TMC3    C6 6029   3.781   2.583  16.570  0.4961 -0.7061 -0.5847
  400TMC3     C 6030   4.108   2.409  16.748 -0.2224 -0.5575 -0.2546
  400TMC3     O 6031   4.092   2.296  16.794 -0.3554 -0.5017 -0.1799
  400TMC3     H 6032   3.902   2.282  16.676  3.6120 -0.2203 -2.1656
  400TMC3    H1 6033   4.091   2.665  16.691 -1.1549  1.5575  0.6831
  400TMC3    H2 6034   3.704   2.634  16.513  0.4199  0.9093  0.9337
  400TMC3    C7 6035   3.876   2.802  16.582  0.3743 -0.5370 -0.1202
  400TMC3    C8 6036   3.682   2.362  16.538  0.1750  0.6336 -0.6822
  400TMC3    O1 6037   3.789   2.846  16.514  0.2154  0.2457  0.0115
  400TMC3    O2 6038   3.619   2.405  16.440  0.4893  0.0294 -0.8298
  401MPD2     C 6039   2.978   1.158   0.821  0.1032  0.2871  0.1214
  401MPD2    C1 6040   3.098   1.127   0.874 -0.3605 -0.1329 -0.9005
  401MPD2    C2 6041   3.168   1.021   0.818  0.2709  0.1750 -0.2014
  401MPD2    C3 6042   3.117   0.950   0.706  0.4963 -0.0975  0.1942
  401MPD2    C4 6043   2.988   0.981   0.666 -0.5022 -0.9270  0.2460
  401MPD2    C5 6044   2.922   1.085   0.720  0.4428  0.0768  0.1346
  401MPD2     H 6045   3.262   0.994   0.865 -0.5893  0.1085  1.5104
  401MPD2    H1 6046   2.929   0.929   0.592 -1.1167 -1.9496  1.4599
  401MPD2    H2 6047   2.928   1.253   0.834 -2.3917 -1.1201  0.7955
  401MPD2    H3 6048   2.827   1.113   0.674  1.0604 -0.4674 -1.4747
  401MPD2     N 6049   3.187   0.835   0.660  0.0537  0.1945 -0.2923
  401MPD2    H5 6050   3.269   0.803   0.711 -0.3436  0.4420  0.5018
  401MPD2    N1 6051   3.159   1.202   0.978 -0.1882 -0.0687 -0.4055
  401MPD2    H7 6052   3.251   1.171   1.007  0.2404  0.7906 -0.8316
  402TMC3    C1 6053   3.222   0.621   0.570  0.7610 -0.4129  0.1753
  402TMC3    C2 6054   3.308   0.595   0.678 -0.3907  0.0663 -0.1882
  402TMC3    C3 6055   3.387   0.486   0.669  0.4630  0.2910  0.1485
  402TMC3    C4 6056   3.222   0.554   0.452  0.1700  0.0871 -0.1961
  402TMC3    C5 6057   3.294   0.434   0.454  0.5187 -0.2322 -0.7515
  402TMC3    C6 6058   3.379   0.402   0.560 -0.5197  1.5696 -0.4542
  402TMC3     C 6059   3.142   0.744   0.571  0.5938 -0.0975  0.1185
  402TMC3     O 6060   3.042   0.753   0.504  0.3168 -0.1784  0.3334
  402TMC3     H 6061   3.298   0.654   0.768  0.7139  0.0512 -0.0550
  402TMC3    H1 6062   3.145   0.587   0.383  1.8964  0.4546 -1.9649
  402TMC3    H2 6063   3.441   0.313   0.554 -1.0752  1.1451  0.0848
  402TMC3    C7 6064   3.246   0.330   0.358  0.0579  0.3661 -0.3587
  402TMC3    C8 6065   3.443   0.426   0.786  0.2418 -0.5841 -0.9115
  402TMC3    O1 6066   3.155   0.358   0.279  0.2760  0.4539  0.0955
  402TMC3    O2 6067   3.414   0.306   0.807  0.4183  0.4216 -0.6657
  403MPD2     C 6068   0.933   4.344  13.112  0.4081  0.0672 -0.1536
  403MPD2    C1 6069   0.850   4.353  13.226 -0.4642 -0.1556  0.2908
  403MPD2    C2 6070   0.905   4.365  13.356 -0.0959 -0.0169  0.5474
  403MPD2    C3 6071   1.040   4.345  13.377  0.6045 -0.0379  0.2918
  403MPD2    C4 6072   1.122   4.325  13.265 -0.2975 -0.2494 -0.5072
  403MPD2    C5 6073   1.070   4.332  13.137  0.3174  0.5703 -0.3058
  403MPD2     H 6074   0.844   4.375  13.445  2.3305  2.5092  1.9189
  403MPD2    H1 6075   1.221   4.285  13.283 -0.8404 -2.3304 -2.2050
  403MPD2    H2 6076   0.894   4.329  13.012  1.9762  1.1800 -0.9269
  403MPD2    H3 6077   1.132   4.336  13.048  1.6162  0.7542  0.6111
  403MPD2     N 6078   1.098   4.350  13.505 -0.5077  0.6016 -0.2875
  403MPD2    H5 6079   1.196   4.322  13.505 -0.4739  0.7449  2.8384
  403MPD2    N1 6080   0.712   4.342  13.203 -0.1756  0.2376 -0.5433
  403MPD2    H7 6081   0.679   4.342  13.107 -2.8071 -1.0775  0.3392
  404TMC3    C1 6082   0.482   4.305  13.257  0.6665  0.1143  0.6472
  404TMC3    C2 6083   0.408   4.247  13.353 -0.2133  0.0128 -0.3880
  404TMC3    C3 6084   0.316   4.148  13.320 -0.2652 -0.5280 -0.1236
  404TMC3    C4 6085   0.462   4.282  13.126 -0.3364 -0.1641 -0.1614
  404TMC3    C5 6086   0.359   4.203  13.100 -0.5007 -0.0450  0.0887
  404TMC3    C6 6087   0.280   4.136  13.189  0.7781 -0.3028  0.5671
  404TMC3     C 6088   0.619   4.335  13.304 -0.0854  0.0133 -0.0706
  404TMC3     O 6089   0.632   4.310  13.424 -0.5807  0.3676  0.3991
  404TMC3     H 6090   0.428   4.265  13.458  0.2974 -1.7777 -0.1810
  404TMC3    H1 6091   0.522   4.335  13.053 -0.6869  1.7297  0.9219
  404TMC3    H2 6092   0.205   4.063  13.161  0.0443  0.4135  0.6571
  404TMC3    C7 6093   0.321   4.205  12.959  0.0911  0.2510 -0.0926
  404TMC3    C8 6094   0.354   4.018  13.370 -0.2679 -0.7955  0.5006
  404TMC3    O1 6095   0.421   4.221  12.889  0.1022  0.0908  0.1685
  404TMC3    O2 6096   0.361   3.918  13.296 -0.3419 -0.1896 -0.1402
  405MPD2     C 6097   0.919   0.307  15.307  0.4115 -0.4914  0.6090
  405MPD2    C1 6098   0.885   0.248  15.189 -0.5575 -0.6471 -0.2928
  405MPD2    C2 6099   0.797   0.318  15.103  0.6077  0.1626 -0.0378
  405MPD2    C3 6100   0.729   0.431  15.155  0.7549  1.0915 -0.0832
  405MPD2    C4 6101   0.762   0.485  15.278 -0.1532  0.0684 -0.0495
  405MPD2    C5 6102   0.867   0.427  15.346 -0.3977 -0.4275 -0.0063
  405MPD2     H 6103   0.774   0.296  14.999  0.8956 -0.0414 -0.0598
  405MPD2    H1 6104   0.721   0.582  15.304 -0.4123  0.3457 -1.4694
  405MPD2    H2 6105   0.984   0.254  15.377  0.4570 -0.6537  0.4427
  405MPD2    H3 6106   0.907   0.464  15.439  1.7087 -0.3951 -0.9282
  405MPD2     N 6107   0.616   0.469  15.077  0.2794  0.0434  0.2032
  405MPD2    H5 6108   0.593   0.411  14.997  3.8831  0.4324 -1.1273
  405MPD2    N1 6109   0.945   0.121  15.160 -0.2747  0.1755 -0.2341
  405MPD2    H7 6110   1.020   0.103  15.225 -0.0461 -1.2346 -0.8833
  406TMC3    C1 6111   0.222   0.614  14.913  0.4122  0.3703  0.2825
  406TMC3    C2 6112   0.203   0.495  14.863  0.4966  0.2896 -0.2115
  406TMC3    C3 6113   0.289   0.393  14.905  0.1234 -0.5621  0.0164
  406TMC3    C4 6114   0.317   0.642  15.008  0.1092  0.0466 -0.1949
  406TMC3    C5 6115   0.406   0.540  15.044  0.3853  0.1904  0.0482
  406TMC3    C6 6116   0.393   0.412  14.998  0.2587 -0.1458  0.5930
  406TMC3     C 6117   0.154   0.736  14.866 -0.0918 -0.1280  0.2688
  406TMC3     O 6118   0.142   0.833  14.943 -0.1110  0.3064  0.3339
  406TMC3     H 6119   0.114   0.473  14.805 -0.4572  0.1466  1.2921
  406TMC3    H1 6120   0.328   0.739  15.054  0.0267 -0.7413  1.5075
  406TMC3    H2 6121   0.426   0.327  15.055 -2.9331 -0.6128  1.7432
  406TMC3    C7 6122   0.528   0.571  15.109  0.4537  0.0993 -0.0879
  406TMC3    C8 6123   0.257   0.260  14.874  0.3893 -0.3636  0.2948
  406TMC3    O1 6124   0.545   0.667  15.180 -0.2028  0.2658 -0.0605
  406TMC3    O2 6125   0.141   0.226  14.849  0.0354  0.0223 -0.7147
  407MPD2     C 6126   3.193   1.495   9.711  0.5479 -0.3801 -0.0738
  407MPD2    C1 6127   3.289   1.516   9.806  0.1096  0.5630 -0.0218
  407MPD2    C2 6128   3.310   1.646   9.850 -0.5802  0.2782 -0.1136
  407MPD2    C3 6129   3.232   1.748   9.816  0.3479 -0.1788  0.6333
  407MPD2    C4 6130   3.140   1.726   9.722  0.0158 -0.6019  0.0277
  407MPD2    C5 6131   3.120   1.602   9.661  0.7851 -0.8579  0.5190
  407MPD2     H 6132   3.386   1.658   9.927 -0.0409  0.9793 -0.7554
  407MPD2    H1 6133   3.070   1.803   9.693 -0.2769 -1.9852 -2.9173
  407MPD2    H2 6134   3.180   1.397   9.666 -0.3952  0.5821 -1.8859
  407MPD2    H3 6135   3.043   1.585   9.587 -0.4202 -1.4878  1.9260
  407MPD2     N 6136   3.244   1.874   9.872  0.5541  0.4651  0.4827
  407MPD2    H5 6137   3.179   1.945   9.840  1.5336  0.6363 -1.0879
  407MPD2    N1 6138   3.374   1.416   9.852 -0.5583  0.2521 -0.6967
  407MPD2    H7 6139   3.455   1.437   9.909  0.4871  0.0302 -2.1070
  408TMC3    C1 6140   3.449   1.196   9.905  0.1219  0.4271 -0.5497
  408TMC3    C2 6141   3.579   1.238   9.928 -0.1531  0.5061 -0.1045
  408TMC3    C3 6142   3.663   1.165  10.009 -0.4721 -0.1757 -0.4656
  408TMC3    C4 6143   3.401   1.088   9.970  0.3793  0.2087  0.2453
  408TMC3    C5 6144   3.478   1.027  10.065  0.4061  0.2898 -0.0143
  408TMC3    C6 6145   3.617   1.052  10.068  0.1441  0.2994  0.4135
  408TMC3     C 6146   3.349   1.279   9.834 -1.4553 -0.1803  0.1240
  408TMC3     O 6147   3.258   1.224   9.774 -0.2998 -0.1881 -0.3268
  408TMC3     H 6148   3.609   1.330   9.879  0.6298  1.7958  2.7859
  408TMC3    H1 6149   3.296   1.060   9.960  0.6405 -1.8846  3.1641
  408TMC3    H2 6150   3.679   1.002  10.141  0.4713 -0.1992 -0.1984
  408TMC3    C7 6151   3.436   0.901  10.114  0.3965  0.4653  0.4471
  408TMC3    C8 6152   3.784   1.224  10.049 -1.0854 -0.7858 -0.9559
  408TMC3    O1 6153   3.518   0.811  10.131 -0.6333  0.2505 -0.6609
  408TMC3    O2 6154   3.858   1.160  10.118  0.9420  0.0922  0.3095
  409MPD2     C 6155   2.775   2.137  16.800  0.4468 -0.0025  0.0987
  409MPD2    C1 6156   2.869   2.170  16.892 -0.2779 -0.6126 -0.0776
  409MPD2    C2 6157   2.953   2.282  16.871 -0.4499  0.2844  0.6444
  409MPD2    C3 6158   2.955   2.354  16.755 -0.6220  0.3754  0.6144
  409MPD2    C4 6159   2.867   2.309  16.659 -0.5368  0.1405  0.4338
  409MPD2    C5 6160   2.775   2.213  16.683  0.1585  0.1480  0.8648
  409MPD2     H 6161   3.009   2.309  16.959 -1.2600 -1.0694  1.5767
  409MPD2    H1 6162   2.865   2.354  16.560 -2.2878 -1.2600 -0.1736
  409MPD2    H2 6163   2.707   2.053  16.807  0.2845  0.0799 -0.4518
  409MPD2    H3 6164   2.708   2.188  16.602  1.2119 -1.2184  0.3993
  409MPD2     N 6165   3.050   2.461  16.731  1.2005 -0.2606  0.1598
  409MPD2    H5 6166   3.049   2.516  16.646 -0.9815 -1.0156 -0.3039
  409MPD2    N1 6167   2.902   2.103  17.014 -0.1416  0.3884  0.2261
  409MPD2    H7 6168   2.975   2.139  17.074 -2.1890 -1.0723  3.6013
  410TMC3    C1 6169   3.260   2.569  16.757 -0.2518  0.0311 -0.5311
  410TMC3    C2 6170   3.371   2.569  16.833 -0.4645 -0.1454  0.4482
  410TMC3    C3 6171   3.480   2.643  16.791  0.1921 -0.4491 -0.5196
  410TMC3    C4 6172   3.258   2.628  16.631 -0.1034 -0.3638 -0.8592
  410TMC3    C5 6173   3.356   2.715  16.602 -0.2518  0.2806 -0.4239
  410TMC3    C6 6174   3.467   2.733  16.680  0.2705 -0.4695 -0.0374
  410TMC3     C 6175   3.150   2.491  16.816  0.1592 -0.1889 -0.1184
  410TMC3     O 6176   3.191   2.411  16.898  0.0451 -1.0650  0.5856
  410TMC3     H 6177   3.369   2.525  16.932 -2.0124  0.7892  0.8371
  410TMC3    H1 6178   3.167   2.628  16.573 -0.0282  0.4799 -0.9822
  410TMC3    H2 6179   3.555   2.773  16.631 -0.1447  0.5166  0.0050
  410TMC3    C7 6180   3.350   2.761  16.464 -0.5908 -0.0219  0.0917
  410TMC3    C8 6181   3.604   2.649  16.867 -0.0192  0.8133 -0.0888
  410TMC3    O1 6182   3.269   2.705  16.392  0.4080  0.5199  0.3919
  410TMC3    O2 6183   3.685   2.737  16.837 -0.1153 -0.0771  0.9129
  411MPD2     C 6184   3.221   2.690  14.629 -0.0766  0.0154  0.1963
  411MPD2    C1 6185   3.185   2.754  14.511  0.6597 -0.0189  0.5124
  411MPD2    C2 6186   3.111   2.685  14.419 -0.2566 -0.7602  0.3119
  411MPD2    C3 6187   3.080   2.548  14.438 -0.4795 -0.1985 -0.6870
  411MPD2    C4 6188   3.122   2.484  14.554 -0.2667 -0.9229  0.1338
  411MPD2    C5 6189   3.190   2.558  14.651  0.4529 -1.1687  0.2910
  411MPD2     H 6190   3.080   2.736  14.328 -0.7817 -1.4039  0.1306
  411MPD2    H1 6191   3.101   2.380  14.575 -2.2279 -0.7152 -0.7476
  411MPD2    H2 6192   3.280   2.738  14.706  0.0161 -1.1401  0.8497
  411MPD2    H3 6193   3.226   2.510  14.742 -0.1380 -0.1098  1.0917
  411MPD2     N 6194   3.022   2.477  14.332 -0.2948 -0.3352 -0.0636
  411MPD2    H5 6195   3.017   2.376  14.323 -0.4909 -0.2253 -1.3133
  411MPD2    N1 6196   3.219   2.889  14.488 -0.1809 -0.4804 -0.6225
  411MPD2    H7 6197   3.185   2.924  14.399  1.1194  0.1474 -0.8711
  412TMC3    C1 6198   2.920   2.462  14.115 -0.3078  0.0291 -0.5769
  412TMC3    C2 6199   2.795   2.480  14.068  0.0906 -0.0251 -0.1482
  412TMC3    C3 6200   2.779   2.462  13.931 -0.6932 -0.1872 -0.4941
  412TMC3    C4 6201   3.034   2.437  14.037  0.7021  0.5922  0.4334
  412TMC3    C5 6202   3.011   2.421  13.901  0.1505  0.0848  0.2813
  412TMC3    C6 6203   2.886   2.430  13.849 -0.3667 -0.2440 -0.4498
  412TMC3     C 6204   2.943   2.538  14.234  0.6604 -0.4217  0.0928
  412TMC3     O 6205   2.880   2.643  14.238 -0.3866 -0.1323  0.3242
  412TMC3     H 6206   2.712   2.520  14.125  0.7944  0.6616  0.3929
  412TMC3    H1 6207   3.136   2.417  14.069  0.5766 -0.9206 -0.1037
  412TMC3    H2 6208   2.872   2.409  13.744  0.8056 -0.8610 -0.4814
  412TMC3    C7 6209   3.104   2.493  13.819 -0.2561  0.2041  0.6319
  412TMC3    C8 6210   2.698   2.571  13.872 -0.4790  0.3927 -0.1240
  412TMC3    O1 6211   3.051   2.560  13.730 -0.1273 -0.0668 -0.3335
  412TMC3    O2 6212   2.582   2.595  13.906  0.2883  0.3252  0.3563
  413MPD2     C 6213   4.648   1.317  15.913 -0.7969 -1.0217  0.2073
  413MPD2    C1 6214   4.609   1.286  15.786  0.5350  0.6212 -0.3548
  413MPD2    C2 6215   4.690   1.225  15.698  0.3685 -0.8628  0.0676
  413MPD2    C3 6216   0.081   1.193  15.741 -0.0263  0.1186  1.1116
  413MPD2    C4 6217   0.117   1.210  15.872  0.4090 -0.0358  0.7796
  413MPD2    C5 6218   0.031   1.271  15.955  0.5385 -0.1350  0.6049
  413MPD2     H 6219   4.662   1.201  15.596  0.2634 -1.2656  0.1932
  413MPD2    H1 6220   0.208   1.172  15.916  0.5631 -0.9264 -0.3007
  413MPD2    H2 6221   4.587   1.364  15.989  2.6130  2.1165  1.0153
  413MPD2    H3 6222   0.063   1.286  16.057 -0.5803  0.6155  0.8414
  413MPD2     N 6223   0.161   1.127  15.641  0.0069  0.2698 -0.1359
  413MPD2    H5 6224   0.138   1.156  15.546 -1.0821 -1.3471 -0.3786
  413MPD2    N1 6225   4.471   1.311  15.755 -0.2164 -0.0912  0.1549
  413MPD2    H7 6226   4.415   1.337  15.836  1.4282 -2.4947  2.0945
  414TMC3    C1 6227   0.322   0.973  15.567  0.6288 -0.4193 -0.1546
  414TMC3    C2 6228   0.336   0.842  15.573  0.0301 -0.1334  0.4284
  414TMC3    C3 6229   0.339   0.773  15.457  0.0867  0.4011  0.1217
  414TMC3    C4 6230   0.320   1.042  15.449  0.0077 -0.0336 -0.0258
  414TMC3    C5 6231   0.346   0.973  15.335  0.5674 -0.4799 -0.3451
  414TMC3    C6 6232   0.354   0.834  15.339 -0.0349 -0.1321 -0.3823
  414TMC3     C 6233   0.256   1.033  15.677 -0.4287 -0.0584 -0.5972
  414TMC3     O 6234   0.295   1.003  15.792  0.0088  0.9997 -1.1607
  414TMC3     H 6235   0.307   0.790  15.664 -0.7351 -1.4213 -0.5526
  414TMC3    H1 6236   0.330   1.150  15.456 -0.5416  0.0893 -1.1928
  414TMC3    H2 6237   0.365   0.781  15.245  0.1467  1.4613 -1.2572
  414TMC3    C7 6238   0.455   1.035  15.255  0.3592 -0.0965  0.2782
  414TMC3    C8 6239   0.391   0.641  15.469 -0.0134  0.2050  0.0152
  414TMC3    O1 6240   0.527   0.952  15.207 -1.2132 -0.3723  0.4758
  414TMC3    O2 6241   0.330   0.552  15.411  0.4762 -0.2446 -0.5771
  415TMC3    C1 6242   0.786   3.808   9.915 -0.2755  0.3667  0.2839
  415TMC3    C2 6243   0.826   3.864   9.803 -0.8248 -0.5781 -0.3479
  415TMC3    C3 6244   0.772   3.833   9.680 -0.2020  0.0545 -0.1674
  415TMC3    C4 6245   0.659   3.755   9.926  0.2421 -0.5071 -0.3783
  415TMC3    C5 6246   0.598   3.732   9.806  0.8734 -0.0676  0.1459
  415TMC3    C6 6247   0.651   3.765   9.681  0.5785  0.6017 -0.0146
  415TMC3     C 6248   0.874   3.798  10.031  0.4207  0.1299  0.1326
  415TMC3     O 6249   0.828   3.754  10.136 -0.3766 -0.3079 -0.1582
  415TMC3     H 6250   0.921   3.916   9.805 -1.5267  0.6728  0.1525
  415TMC3    H1 6251   0.622   3.716  10.020 -1.7626 -1.1416 -1.4237
  415TMC3    H2 6252   0.586   3.755   9.594  1.1653  0.3523 -0.4231
  415TMC3    C7 6253   0.461   3.689   9.792 -0.4550  0.4612 -0.9047
  415TMC3    C8 6254   0.805   3.907   9.555  0.2994  0.6449  0.4647
  415TMC3    O1 6255   0.420   3.637   9.686 -0.4042  0.0865  0.6645
  415TMC3    O2 6256   0.768   3.855   9.449  0.5730  0.4045 -0.4394
  416MPD2     C 6257   2.636   3.152  11.707 -0.3089 -0.3929  1.6140
  416MPD2    C1 6258   2.543   3.164  11.602 -0.0976 -0.4111  0.4660
  416MPD2    C2 6259   2.534   3.061  11.507  0.0039  0.6330  0.0667
  416MPD2    C3 6260   2.627   2.950  11.517  0.3768  0.7842  0.2874
  416MPD2    C4 6261   2.728   2.955  11.610  0.1240  0.9553 -0.1402
  416MPD2    C5 6262   2.719   3.047  11.708  0.1309 -0.0317  0.6492
  416MPD2     H 6263   2.449   3.049  11.441  0.8306 -1.0797 -0.6878
  416MPD2    H1 6264   2.784   2.866  11.637  0.6222  0.7035 -1.9560
  416MPD2    H2 6265   2.617   3.208  11.798 -1.7499  0.7835  0.6034
  416MPD2    H3 6266   2.780   3.033  11.797  0.4291 -1.4982  0.2080
  416MPD2     N 6267   2.615   2.833  11.431 -0.0795  0.4187  0.6619
  416MPD2    H5 6268   2.687   2.763  11.444  0.6087  0.8634 -0.7233
  416MPD2    N1 6269   2.452   3.263  11.625 -0.4393  0.2030 -0.2122
  416MPD2    H7 6270   2.445   3.308  11.716 -0.8550  0.4734 -0.3829
  417TMC3    C1 6271   2.252   3.363  11.597 -0.1588  0.0388 -0.2947
  417TMC3    C2 6272   2.221   3.346  11.724 -0.6732 -0.3984 -0.6798
  417TMC3    C3 6273   2.110   3.407  11.780  0.1710  0.0366 -0.2583
  417TMC3    C4 6274   2.158   3.422  11.515 -1.3991 -0.0722  0.2466
  417TMC3    C5 6275   2.038   3.474  11.564 -0.2936 -0.3002  0.5411
  417TMC3    C6 6276   2.016   3.477  11.705  0.0683 -0.0512  0.7401
  417TMC3     C 6277   2.354   3.289  11.538 -0.3172 -0.6314  0.4534
  417TMC3     O 6278   2.362   3.265  11.418  0.9670  0.3630  0.5153
  417TMC3     H 6279   2.266   3.265  11.781  0.1491  0.1727 -0.5133
  417TMC3    H1 6280   2.175   3.420  11.408 -1.8699  0.0870  0.1737
  417TMC3    H2 6281   1.930   3.523  11.752 -0.9513  0.3980 -1.5619
  417TMC3    C7 6282   1.952   3.554  11.476 -0.0257 -0.0311 -0.2028
  417TMC3    C8 6283   2.086   3.389  11.923 -0.0869  0.3774  0.0429
  417TMC3    O1 6284   1.976   3.559  11.356 -0.1008 -0.2012 -0.3869
  417TMC3    O2 6285   2.001   3.453  11.983 -0.5324 -0.7432  0.0290
  418TMC3    C1 6286   1.441   4.663   0.157 -0.2013 -0.1810  0.2969
  418TMC3    C2 6287   1.332   4.736   0.132 -0.5040 -0.4620  0.2573
  418TMC3    C3 6288   1.212   4.679   0.174  0.6653 -0.0347 -0.2045
  418TMC3    C4 6289   1.443   4.549   0.229 -0.3084  0.3413  0.0029
  418TMC3    C5 6290   1.325   4.505   0.275  0.2555  0.3295 -0.6251
  418TMC3    C6 6291   1.203   4.561   0.243  0.2148 -1.1608  0.0169
  418TMC3     C 6292   1.556   4.698   0.075 -0.4392 -0.5427 -0.1430
  418TMC3     O 6293   1.594   0.074   0.079  0.4211 -0.2421 -0.8344
  418TMC3     H 6294   1.334   0.074   0.054  0.4512 -1.3867 -0.6305
  418TMC3    H1 6295   1.534   4.492   0.243  0.2835  0.8747 -1.6055
  418TMC3    H2 6296   1.108   4.521   0.276 -1.1928  1.2857 -1.1676
  418TMC3    C7 6297   1.313   4.368   0.317  0.8593  0.0760 -0.2682
  418TMC3    C8 6298   1.097   4.701   0.084 -0.3020 -0.2925  0.6475
  418TMC3    O1 6299   1.219   4.296   0.282  0.4758 -0.0002  0.4496
  418TMC3    O2 6300   1.060   0.070   0.047 -0.3919  0.1847 -0.1077
  419MPD2     C 6301   4.556   2.731  12.427 -0.3000 -1.4871 -0.3123
  419MPD2    C1 6302   4.469   2.834  12.412 -0.1032  1.1122 -0.2277
  419MPD2    C2 6303   4.394   2.884  12.517  0.1444 -0.1315 -0.2267
  419MPD2    C3 6304   4.411   2.824  12.643 -0.2171 -1.1806 -0.1955
  419MPD2    C4 6305   4.513   2.734  12.661 -0.6994  0.5379 -0.5795
  419MPD2    C5 6306   4.577   2.683  12.547 -0.9060 -0.2175 -0.1911
  419MPD2     H 6307   4.327   2.968  12.507  1.9100  1.3608  0.4540
  419MPD2    H1 6308   4.546   2.696  12.757  2.3556  1.5806 -1.2202
  419MPD2    H2 6309   4.611   2.680  12.348 -0.3383 -0.0123 -1.2908
  419MPD2    H3 6310   4.656   2.610  12.558 -0.6882  0.2543  1.2789
  419MPD2     N 6311   4.347   2.881  12.755  0.1138  0.6125 -0.9790
  419MPD2    H5 6312   4.289   2.962  12.737 -1.1122 -0.1825 -0.6147
  419MPD2    N1 6313   4.448   2.891  12.282 -0.1459 -0.2405 -0.2162
  419MPD2    H7 6314   4.384   2.970  12.288  0.8343  0.3384  2.4301
  420TMC3    C1 6315   4.324   2.966  12.995  0.2912  0.2865 -0.0041
  420TMC3    C2 6316   4.241   3.071  12.962 -0.0405  0.8291 -0.8996
  420TMC3    C3 6317   4.187   3.157  13.056 -0.3065 -0.3787  0.2703
  420TMC3    C4 6318   4.362   2.951  13.127  0.3131 -0.0869  0.5705
  420TMC3    C5 6319   4.311   3.042  13.217  0.4628  0.2630  0.0063
  420TMC3    C6 6320   4.223   3.144  13.189 -0.6562  0.5080 -0.2095
  420TMC3     C 6321   4.378   2.869  12.891 -0.3629  0.1833  0.1603
  420TMC3     O 6322   4.466   2.798  12.939  0.5347 -0.7010 -0.1555
  420TMC3     H 6323   4.218   3.081  12.856 -0.5925 -0.2041 -0.8751
  420TMC3    H1 6324   4.419   2.863  13.157  2.4168  1.0320 -0.1407
  420TMC3    H2 6325   4.167   3.203  13.261 -2.4304  1.2251 -2.1860
  420TMC3    C7 6326   4.364   3.032  13.342  0.3898  0.6158  0.2319
  420TMC3    C8 6327   4.071   3.234  13.028 -0.3592  0.4471  0.3042
  420TMC3    O1 6328   4.419   2.926  13.379 -0.9083  0.3214 -0.2961
  420TMC3    O2 6329   4.042   3.319  13.108 -0.3688 -0.1440  0.2121
  421TMC3    C1 6330   1.122   4.344  13.734 -0.4434 -0.2667  0.1750
  421TMC3    C2 6331   1.077   4.389  13.857 -0.4537  0.1718  0.4379
  421TMC3    C3 6332   1.116   4.319  13.965 -0.1257 -0.1261 -0.7412
  421TMC3    C4 6333   1.204   4.229  13.723 -0.0969 -0.4870 -0.0622
  421TMC3    C5 6334   1.256   4.169  13.838 -0.7379 -0.2469  0.5966
  421TMC3    C6 6335   1.211   4.213  13.959 -0.7976 -0.4741  0.1791
  421TMC3     C 6336   1.048   4.395  13.621  0.0643  0.5131 -0.0266
  421TMC3     O 6337   0.954   4.472  13.638  0.2893 -0.3626  0.5033
  421TMC3     H 6338   1.018   4.479  13.869 -1.8583 -0.5720 -0.9394
  421TMC3    H1 6339   1.217   4.183  13.626  1.9208  1.1258 -0.5485
  421TMC3    H2 6340   1.257   4.164  14.044 -1.1516  1.0433  1.2512
  421TMC3    C7 6341   1.366   4.082  13.826  0.6212 -0.1801  0.2264
  421TMC3    C8 6342   1.139   4.403  14.080 -0.6311  0.2304 -0.1088
  421TMC3    O1 6343   1.395   4.017  13.926  0.1603  0.5540 -0.0408
  421TMC3    O2 6344   1.156   4.523  14.057 -0.3298  0.5374 -0.0775
  422TMC3    C1 6345   3.247   1.122  12.742  0.2116  0.0527 -0.4942
  422TMC3    C2 6346   3.224   1.228  12.826  0.7829 -0.2390 -0.2481
  422TMC3    C3 6347   3.106   1.220  12.894 -0.3943 -0.7058  0.1126
  422TMC3    C4 6348   3.159   1.020  12.718  0.2604 -0.1453  0.2330
  422TMC3    C5 6349   3.032   1.037  12.772 -0.0754 -0.2970  0.5836
  422TMC3    C6 6350   3.005   1.131  12.863  0.5722 -0.3500 -0.2959
  422TMC3     C 6351   3.348   1.151  12.645 -0.0500  0.1625 -0.7665
  422TMC3     O 6352   3.436   1.232  12.676  0.6442 -0.4248 -0.1610
  422TMC3     H 6353   3.303   1.299  12.849  1.2820 -1.1846  0.9858
  422TMC3    H1 6354   3.180   0.929  12.662  1.5779  1.6560 -2.2240
  422TMC3    H2 6355   2.929   1.103  12.936  1.6732 -0.4725  0.8105
  422TMC3    C7 6356   2.934   0.932  12.736 -0.4643  0.1818  0.0161
  422TMC3    C8 6357   3.081   1.334  12.990  0.2644 -0.1458 -0.1971
  422TMC3    O1 6358   2.983   0.833  12.686  0.2863 -0.1314 -0.5317
  422TMC3    O2 6359   3.173   1.379  13.056  0.2175  0.3112  0.3950
  423MPD2     C 6360   0.043   1.930   0.517 -0.4782 -0.2757 -0.3056
  423MPD2    C1 6361   0.158   1.953   0.450  0.7887  0.3865 -0.7536
  423MPD2    C2 6362   0.174   1.910   0.321 -0.0386 -1.1349  0.4253
  423MPD2    C3 6363   0.070   1.850   0.253 -0.7484  0.2503 -0.1480
  423MPD2    C4 6364   4.694   1.825   0.325  0.0398  0.3945  0.3108
  423MPD2    C5 6365   4.677   1.857   0.455  0.4023 -0.2907  0.4443
  423MPD2     H 6366   0.263   1.935   0.264 -0.5001  2.2659  1.2185
  423MPD2    H1 6367   4.608   1.774   0.283 -0.9860  1.5959  0.9814
  423MPD2    H2 6368   0.032   1.959   0.621 -1.8294  1.5955 -0.9871
  423MPD2    H3 6369   4.581   1.831   0.498 -0.4045  3.3920  0.8991
  423MPD2     N 6370   0.082   1.800   0.122  0.0490 -0.5132  0.3899
  423MPD2    H5 6371   4.727   1.771   0.096  1.2984 -1.3365 -3.2123
  423MPD2    N1 6372   0.270   2.019   0.506 -0.0499 -0.6401 -0.0271
  423MPD2    H7 6373   0.363   2.016   0.466 -0.4717  0.8381 -1.1118
  424TMC3    C1 6374   0.400   2.148   0.635 -0.0971 -0.3538 -0.3655
  424TMC3    C2 6375   0.494   2.057   0.601  0.1965  0.1314  0.6175
  424TMC3    C3 6376   0.612   2.099   0.542 -0.4784  0.1888  0.3638
  424TMC3    C4 6377   0.414   2.281   0.626 -0.0138 -0.2483  0.2903
  424TMC3    C5 6378   0.532   2.321   0.561 -0.6101  0.0721  0.5122
  424TMC3    C6 6379   0.624   2.232   0.513  0.0121  0.4060 -1.1407
  424TMC3     C 6380   0.273   2.094   0.621  0.2432 -0.6658 -0.3742
  424TMC3     O 6381   0.184   2.151   0.681 -0.6617 -0.2013  0.1586
  424TMC3     H 6382   0.471   1.953   0.624 -0.2838  0.1802  0.3650
  424TMC3    H1 6383   0.328   2.346   0.638 -0.7379 -1.5763  2.2347
  424TMC3    H2 6384   0.712   2.267   0.460  0.2240  0.6769 -0.6098
  424TMC3    C7 6385   0.549   2.458   0.519  0.3872 -0.2912  0.1650
  424TMC3    C8 6386   0.662   1.997   0.458  0.6191  0.4565 -0.3428
  424TMC3    O1 6387   0.640   2.488   0.442  0.0375  0.4973 -0.3651
  424TMC3    O2 6388   0.581   1.906   0.435 -0.4381  0.6970  0.4095
  425MPD2     C 6389   3.788   1.020  17.409 -0.7130 -0.6447 -0.1356
  425MPD2    C1 6390   3.690   0.950  17.335 -0.0852 -0.1240 -0.3428
  425MPD2    C2 6391   3.563   1.000  17.334 -0.3337 -0.8571 -0.3987
  425MPD2    C3 6392   3.536   1.121  17.392 -0.2788 -0.2539 -0.1245
  425MPD2    C4 6393   3.638   1.199  17.458 -0.4111  0.7084  0.6712
  425MPD2    C5 6394   3.765   1.142  17.460  0.1780  0.1495 -0.1907
  425MPD2     H 6395   3.478   0.953  17.287 -0.7935 -0.5315  0.1044
  425MPD2    H1 6396   3.633   1.302  17.492  0.2700  1.4536 -1.4195
  425MPD2    H2 6397   3.886   0.975  17.413 -0.0092  0.8406 -0.8632
  425MPD2    H3 6398   3.839   1.187  17.526  0.6442  1.4841 -1.5957
  425MPD2     N 6399   3.404   1.167  17.389  0.2363 -0.0086 -0.3067
  425MPD2    H5 6400   3.328   1.122  17.339 -0.5103  1.0539 -0.1410
  425MPD2    N1 6401   3.720   0.822  17.282 -0.1206 -0.1804  0.1655
  425MPD2    H7 6402   3.809   0.778  17.305 -0.3483 -0.8238 -0.1776
  426TMC3    C1 6403   3.695   0.623  17.187  0.3237 -0.2388 -0.3928
  426TMC3    C2 6404   3.644   0.538  17.093  0.3045  0.7475 -0.2211
  426TMC3    C3 6405   3.700   0.415  17.063 -0.0184  0.0487  0.5699
  426TMC3    C4 6406   3.823   0.590  17.239 -0.0797  0.4321  0.6137
  426TMC3    C5 6407   3.884   0.473  17.202 -0.0686 -0.2473 -0.1452
  426TMC3    C6 6408   3.826   0.383  17.111 -0.5094  0.3961  1.5804
  426TMC3     C 6409   3.640   0.750  17.203 -0.3573 -0.3288  0.6036
  426TMC3     O 6410   3.528   0.779  17.160  0.3015 -0.0412  0.5581
  426TMC3     H 6411   3.548   0.562  17.048 -1.9609 -1.1690  3.5239
  426TMC3    H1 6412   3.880   0.648  17.311 -0.1394  2.0085 -0.6264
  426TMC3    H2 6413   3.867   0.284  17.096  1.7223  1.3379  1.4599
  426TMC3    C7 6414   3.990   0.420  17.288  0.9351  0.0698  0.5977
  426TMC3    C8 6415   3.643   0.342  16.952 -0.2231 -0.7075  0.4078
  426TMC3    O1 6416   4.076   0.359  17.226 -0.5645 -0.0304 -0.2452
  426TMC3    O2 6417   3.723   0.281  16.875 -0.4712 -0.0391  0.4051
  427MPD2     C 6418   2.578   3.454  14.898 -0.4646 -0.5673  0.6195
  427MPD2    C1 6419   2.530   3.363  14.991 -0.8722 -0.7989  0.6852
  427MPD2    C2 6420   2.390   3.355  15.008  0.0501  0.4847 -0.4951
  427MPD2    C3 6421   2.299   3.431  14.941 -0.1453 -0.0141 -0.8622
  427MPD2    C4 6422   2.352   3.533  14.868 -0.6123 -0.2716  0.1674
  427MPD2    C5 6423   2.488   3.540  14.841  0.7751  0.3479  0.5566
  427MPD2     H 6424   2.367   3.284  15.086 -0.2693  1.9826  0.7757
  427MPD2    H1 6425   2.298   3.618  14.828  1.7056  1.7003  1.2464
  427MPD2    H2 6426   2.681   3.469  14.867 -0.4486  0.6840  1.2874
  427MPD2    H3 6427   2.519   3.618  14.773  1.2366 -1.0518 -0.8403
  427MPD2     N 6428   2.164   3.405  14.944 -0.5416  0.4905  0.5154
  427MPD2    H5 6429   2.110   3.473  14.891  2.2463  0.1762 -2.8111
  427MPD2    N1 6430   2.614   3.288  15.074  0.3097  0.4815 -0.0142
  427MPD2    H7 6431   2.570   3.249  15.157 -1.0416 -0.9035 -1.3975
  428TMC3    C1 6432   2.812   3.205  15.180  0.1436 -0.8307 -0.0557
  428TMC3    C2 6433   2.741   3.215  15.299  0.4643  0.8400  0.2208
  428TMC3    C3 6434   2.780   3.131  15.398 -0.8204 -0.6594  0.4928
  428TMC3    C4 6435   2.931   3.134  15.164 -0.2462  0.4529  0.2325
  428TMC3    C5 6436   2.972   3.061  15.279 -0.7692  0.1508 -0.4853
  428TMC3    C6 6437   2.894   3.056  15.392 -0.1257 -1.1707  0.6534
  428TMC3     C 6438   2.752   3.275  15.063  0.3249 -0.2970 -0.5380
  428TMC3     O 6439   2.828   3.278  14.966  0.7178  0.0243 -0.0642
  428TMC3     H 6440   2.654   3.279  15.308 -0.4976 -0.4457  0.0788
  428TMC3    H1 6441   2.987   3.142  15.072 -0.6866  0.2459 -0.0569
  428TMC3    H2 6442   2.936   3.013  15.482  3.0378 -0.2389 -0.3822
  428TMC3    C7 6443   3.117   3.060  15.299 -0.9432  0.2084  0.0486
  428TMC3    C8 6444   2.676   3.100  15.493  0.5043 -0.1810 -0.3726
  428TMC3    O1 6445   3.151   3.058  15.418 -0.7305 -0.4462  0.7642
  428TMC3    O2 6446   2.570   3.155  15.481 -0.5506 -0.7005 -0.0783
  429MPD2     C 6447   3.597   3.253  17.746 -0.0534 -0.3208 -0.1351
  429MPD2    C1 6448   3.665   3.161  17.671 -0.1929 -0.0274  0.0082
  429MPD2    C2 6449   3.730   3.187  17.559  0.0506 -0.4665  0.1624
  429MPD2    C3 6450   3.738   3.314  17.514  0.4288  0.2099 -0.3326
  429MPD2    C4 6451   3.679   3.412  17.584 -0.2535  0.6367  0.1265
  429MPD2    C5 6452   3.611   3.380  17.694  0.7439 -0.2441 -0.2143
  429MPD2     H 6453   3.780   3.112  17.499  0.1179  1.0374 -1.6770
  429MPD2    H1 6454   3.687   3.518  17.563  1.8446  0.6232  0.8181
  429MPD2    H2 6455   3.543   3.232   0.083 -0.4993 -0.0795 -0.3433
  429MPD2    H3 6456   3.571   3.452   0.011 -0.3695 -0.8858 -0.1932
  429MPD2     N 6457   3.825   3.339  17.404  0.3136 -0.1868  0.0214
  429MPD2    H5 6458   3.872   3.257  17.367  1.5577 -0.0877  1.3349
  429MPD2    N1 6459   3.660   3.022  17.703  0.1946  0.0268 -1.1195
  429MPD2    H7 6460   3.731   2.958  17.669  0.4430  0.1089 -0.7597
  430TMC3    C1 6461   3.957   3.446  17.246 -0.0448  0.3358 -0.4952
  430TMC3    C2 6462   3.975   3.557  17.165 -0.3050 -0.7535  0.1900
  430TMC3    C3 6463   4.076   3.564  17.069 -0.0447 -0.3703  0.3381
  430TMC3    C4 6464   4.036   3.339  17.230 -0.5546 -0.3297 -0.2203
  430TMC3    C5 6465   4.124   3.344  17.119  0.8222  0.1277  0.1891
  430TMC3    C6 6466   4.162   3.452  17.053 -0.1651 -0.4623  0.0605
  430TMC3     C 6467   3.844   3.453  17.337  0.0633 -0.5125 -0.3686
  430TMC3     O 6468   3.796   3.563  17.361 -0.2730  0.2214 -0.6545
  430TMC3     H 6469   3.895   3.630  17.173  0.8307  0.5446 -0.2709
  430TMC3    H1 6470   4.032   3.243  17.279  0.3692  0.5703  1.6190
  430TMC3    H2 6471   4.238   3.459  16.975  2.0824  3.7668  2.6385
  430TMC3    C7 6472   4.092   3.233  17.027 -0.3008  0.3350  0.4175
  430TMC3    C8 6473   4.034   3.616  16.939  0.0026  0.0986 -0.2503
  430TMC3    O1 6474   4.052   3.128  17.075  0.2715  0.4186  0.2829
  430TMC3    O2 6475   4.076   3.556  16.838  0.5965 -0.2915  0.2819
  431MPD2     C 6476   4.588   3.473  12.654 -0.0087 -0.1860  0.1726
  431MPD2    C1 6477   4.492   3.514  12.563 -0.3587 -0.3346  0.3858
  431MPD2    C2 6478   4.470   3.453  12.438 -0.8995 -0.0448  0.3137
  431MPD2    C3 6479   4.544   3.339  12.409 -0.4882 -0.2623  0.5598
  431MPD2    C4 6480   4.634   3.294  12.510  0.5839  0.3666  0.1549
  431MPD2    C5 6481   4.661   3.370  12.616  0.0463  0.4538  0.2005
  431MPD2     H 6482   4.396   3.493  12.370 -1.2994 -2.4254 -0.6449
  431MPD2    H1 6483   4.693   3.206  12.486  1.0854 -0.0831  3.0430
  431MPD2    H2 6484   4.594   3.515  12.754  2.2159  0.8098 -0.3846
  431MPD2    H3 6485   4.734   3.329  12.685  0.1506  2.6086  1.3841
  431MPD2     N 6486   4.536   3.263  12.292  0.2991 -0.6092  0.1161
  431MPD2    H5 6487   4.602   3.186  12.279  1.9929  1.2155 -2.0927
  431MPD2    N1 6488   4.412   3.615  12.608  0.3755  0.3063 -0.9986
  431MPD2    H7 6489   4.459   3.666  12.683 -0.2752 -1.9840  0.9829
  432TMC3    C1 6490   4.474   3.210  12.082 -0.3280 -0.8321 -0.1859
  432TMC3    C2 6491   4.580   3.224  11.994 -0.3656  0.2305 -0.3105
  432TMC3    C3 6492   4.643   3.111  11.941 -0.2078  0.0346  0.3113
  432TMC3    C4 6493   4.438   3.087  12.126  0.2474 -0.0776  0.2799
  432TMC3    C5 6494   4.502   2.976  12.081 -0.5915 -0.2119 -1.0126
  432TMC3    C6 6495   4.599   2.987  11.984  0.0295 -0.0050  0.4827
  432TMC3     C 6496   4.474   3.308  12.179  0.2292 -0.3403 -0.3131
  432TMC3     O 6497   4.417   3.412  12.152  0.1268 -0.0125 -0.4217
  432TMC3     H 6498   4.615   3.322  11.965  3.9602 -0.5956  2.0059
  432TMC3    H1 6499   4.358   3.095  12.199  0.9583  2.2396  0.8066
  432TMC3    H2 6500   4.647   2.901  11.938 -0.8927 -0.7442  0.8840
  432TMC3    C7 6501   4.510   2.859  12.163  0.8379  0.2851  0.4217
  432TMC3    C8 6502   4.712   3.121  11.821 -0.9361  0.5602 -0.3910
  432TMC3    O1 6503   4.567   2.757  12.124  0.7841  0.0329 -0.4003
  432TMC3    O2 6504   4.728   3.014  11.765  0.7214 -0.1989  0.3096
  433MPD2     C 6505   3.293   2.367  10.759  0.1711  0.0384  0.1059
  433MPD2    C1 6506   3.348   2.259  10.832 -0.0215 -0.4825  1.1625
  433MPD2    C2 6507   3.429   2.277  10.939 -0.0294  0.3117  0.9294
  433MPD2    C3 6508   3.456   2.408  10.982 -0.1844  0.3621 -0.3167
  433MPD2    C4 6509   3.398   2.516  10.913 -0.4327 -0.1775 -0.2984
  433MPD2    C5 6510   3.312   2.495  10.804  0.0737  0.3426  0.0443
  433MPD2     H 6511   3.475   2.190  10.986  0.1242  0.0090  0.2098
  433MPD2    H1 6512   3.417   2.620  10.932 -3.0239 -0.1888  2.2501
  433MPD2    H2 6513   3.214   2.354  10.685  1.4979 -0.2727 -1.2475
  433MPD2    H3 6514   3.270   2.579  10.751  1.3881  0.8855 -0.1291
  433MPD2     N 6515   3.547   2.424  11.093  0.5010  0.0098 -0.1721
  433MPD2    H5 6516   3.589   2.338  11.127 -1.4681  0.1179  2.6340
  433MPD2    N1 6517   3.303   2.128  10.789 -0.4670  0.5316  0.4600
  433MPD2    H7 6518   3.247   2.120  10.705 -0.9576  0.4686  0.7913
  434TMC3    C1 6519   3.300   1.891  10.804 -0.7458  0.4120 -0.1864
  434TMC3    C2 6520   3.395   1.798  10.842  0.3478 -0.3950  0.6198
  434TMC3    C3 6521   3.366   1.668  10.866  0.3716  0.4552 -0.7125
  434TMC3    C4 6522   3.177   1.840  10.792  0.0917 -0.3889 -0.3402
  434TMC3    C5 6523   3.145   1.710  10.811 -0.7577  0.3643 -0.8348
  434TMC3    C6 6524   3.244   1.614  10.854  0.3268 -0.2955  0.9308
  434TMC3     C 6525   3.307   2.016  10.872  0.5202 -0.0352  0.2568
  434TMC3     O 6526   3.345   2.015  10.991  0.1969  0.2369  0.0539
  434TMC3     H 6527   3.500   1.821  10.837  0.4222 -0.6202  1.2613
  434TMC3    H1 6528   3.096   1.912  10.792  0.8898  0.5023 -0.7505
  434TMC3    H2 6529   3.234   1.506  10.859  0.9793 -0.4526 -1.4708
  434TMC3    C7 6530   3.009   1.668  10.768  1.1079  0.6832  0.3317
  434TMC3    C8 6531   3.475   1.588  10.915  0.2256 -0.3379 -0.2474
  434TMC3    O1 6532   2.956   1.734  10.677 -0.1032 -0.1158 -0.9825
  434TMC3    O2 6533   3.587   1.632  10.914  0.8549 -0.2582 -0.8242
  435MPD2     C 6534   0.837   1.809  15.283  0.7027 -0.3238  0.4069
  435MPD2    C1 6535   0.791   1.861  15.399  0.7180 -0.5783  0.0831
  435MPD2    C2 6536   0.860   1.829  15.517 -0.4367 -0.2818 -0.0526
  435MPD2    C3 6537   0.986   1.774  15.518  0.3896 -0.5531  0.7544
  435MPD2    C4 6538   1.047   1.749  15.395 -0.2122 -0.0914 -0.1601
  435MPD2    C5 6539   0.968   1.766  15.280 -0.5089  0.3768  0.1445
  435MPD2     H 6540   0.822   1.853  15.616 -0.9025 -0.3554 -0.2129
  435MPD2    H1 6541   1.142   1.699  15.387  1.2174  2.4372  0.9294
  435MPD2    H2 6542   0.783   1.811  15.188 -0.1490 -1.2078  0.8728
  435MPD2    H3 6543   1.003   1.736  15.181 -0.5948 -1.3160  0.6242
  435MPD2     N 6544   1.052   1.753  15.645  0.8079 -0.2523 -0.7463
  435MPD2    H5 6545   1.003   1.788  15.727  2.1716 -1.0395  0.4008
  435MPD2    N1 6546   0.654   1.911  15.419 -1.1584  0.7405  0.4280
  435MPD2    H7 6547   0.638   1.937  15.516 -0.0115  3.9480 -0.2427
  436TMC3    C1 6548   0.347   2.110  15.562  0.3744 -0.0652 -1.1734
  436TMC3    C2 6549   0.463   2.073  15.496 -0.7122 -0.9102 -0.3617
  436TMC3    C3 6550   0.449   2.001  15.383  0.0176 -0.8510 -0.6717
  436TMC3    C4 6551   0.224   2.074  15.522  0.0348 -0.2060 -0.7869
  436TMC3    C5 6552   0.221   2.002  15.404 -0.3487 -0.0405 -0.0027
  436TMC3    C6 6553   0.331   1.956  15.337 -0.0422  0.7274  0.2269
  436TMC3     C 6554   0.368   2.179  15.683  0.2283 -0.5592  0.0499
  436TMC3     O 6555   0.487   2.199  15.708  0.1960  0.1084 -0.0562
  436TMC3     H 6556   0.559   2.118  15.520 -1.3751  0.0404  0.5165
  436TMC3    H1 6557   0.129   2.099  15.567 -0.4434 -0.8144 -1.4617
  436TMC3    H2 6558   0.314   1.889  15.253  0.7700 -0.2041  0.8116
  436TMC3    C7 6559   0.094   1.932  15.391  0.2558 -0.1795  0.3942
  436TMC3    C8 6560   0.561   1.938  15.326  0.9638  0.8013  0.1789
  436TMC3    O1 6561   0.043   1.897  15.495 -0.0298 -0.3797  0.0438
  436TMC3    O2 6562   0.550   1.905  15.209 -0.0963  0.1361  0.2317
  437TMC3    C1 6563   3.622   3.954  13.198 -0.3661 -0.4952  0.7129
  437TMC3    C2 6564   3.493   3.983  13.237  0.0940 -0.0143 -0.4326
  437TMC3    C3 6565   3.418   4.038  13.138 -0.2212 -0.7346 -0.9969
  437TMC3    C4 6566   3.669   3.986  13.069 -0.3206 -0.1751  0.3526
  437TMC3    C5 6567   3.581   4.036  12.975  0.9859  0.2028 -0.9057
  437TMC3    C6 6568   3.458   4.063  13.010 -0.8552 -0.1553  0.1031
  437TMC3     C 6569   3.701   3.881  13.296 -0.7217 -0.1519 -0.0373
  437TMC3     O 6570   3.642   3.834  13.393 -0.6151  0.1052  0.2374
  437TMC3     H 6571   3.461   3.962  13.338 -2.9790  0.3227 -1.3297
  437TMC3    H1 6572   3.766   3.948  13.040 -0.9181 -1.9924  0.7320
  437TMC3    H2 6573   3.384   4.105  12.942  1.0772  1.2448 -1.1495
  437TMC3    C7 6574   3.635   4.107  12.861 -0.1732  0.0922  0.2849
  437TMC3    C8 6575   3.287   4.073  13.179 -0.3700  0.0019 -0.1858
  437TMC3    O1 6576   3.557   4.150  12.778  0.1060 -0.4819  0.0133
  437TMC3    O2 6577   3.195   4.047  13.099 -0.0995  0.4363  0.1010
  438MPD2     C 6578   1.734   4.718  16.614  0.0216 -0.0183 -0.0236
  438MPD2    C1 6579   1.744   4.596  16.682 -0.5707  0.0126 -0.6484
  438MPD2    C2 6580   1.685   4.573  16.801 -0.8687  0.0732 -1.0613
  438MPD2    C3 6581   1.621   4.682  16.867  0.3024  0.3104  0.2071
  438MPD2    C4 6582   1.617   0.067  16.802  0.7080 -0.1949  0.0813
  438MPD2    C5 6583   1.672   0.085  16.681  1.0672 -0.2469 -0.4222
  438MPD2     H 6584   1.687   4.475  16.848  1.3724  1.0694  0.9663
  438MPD2    H1 6585   1.584   0.159  16.848  0.7138 -0.1875  0.0706
  438MPD2    H2 6586   1.779   4.723  16.515  0.5864  1.5702  0.3158
  438MPD2    H3 6587   1.672   0.180  16.629 -1.0982 -0.9770 -1.7957
  438MPD2     N 6588   1.558   4.668  16.996 -0.4816  0.6372 -0.4413
  438MPD2    H5 6589   1.513   0.012  17.033  0.0613  0.7762 -0.0930
  438MPD2    N1 6590   1.801   4.480  16.613  0.3436 -0.0075 -0.3931
  438MPD2    H7 6591   1.810   4.398  16.673 -0.5646  0.1563 -0.0284
  439TMC3    C1 6592   1.908   4.341  16.463  0.6911  0.0536 -0.1235
  439TMC3    C2 6593   1.928   4.299  16.328 -0.5789  0.3105  0.3376
  439TMC3    C3 6594   1.990   4.177  16.304  0.0163 -0.2695 -0.6518
  439TMC3    C4 6595   1.944   4.262  16.570 -0.6521 -0.6980 -0.4027
  439TMC3    C5 6596   2.003   4.142  16.541  0.1409 -0.0186  0.3993
  439TMC3    C6 6597   2.026   4.101  16.413  0.3908 -0.1624 -0.0004
  439TMC3     C 6598   1.840   4.468  16.480 -0.4184 -0.0670 -0.4756
  439TMC3     O 6599   1.826   4.543  16.384  0.3917  0.2376  0.7870
  439TMC3     H 6600   1.895   4.361  16.246 -2.2105 -1.0668 -0.0388
  439TMC3    H1 6601   1.945   4.291  16.674  4.2174  0.8474 -0.8877
  439TMC3    H2 6602   2.085   4.010  16.403 -1.2797 -1.5350  2.6713
  439TMC3    C7 6603   2.084   4.080  16.644 -0.0063 -0.0014 -0.0827
  439TMC3    C8 6604   2.051   4.146  16.176 -0.2853  0.1786  0.3359
  439TMC3    O1 6605   2.169   4.154  16.695 -0.0799  0.5518  0.2551
  439TMC3    O2 6606   2.104   4.035  16.168  0.6359 -0.6819  0.0564
  440MPD2     C 6607   0.002   0.242  15.150  0.1546  0.1724  1.1772
  440MPD2    C1 6608   0.104   0.295  15.229  0.3771 -0.4342 -0.2199
  440MPD2    C2 6609   0.211   0.214  15.266  0.9798  0.4387  0.0242
  440MPD2    C3 6610   0.214   0.080  15.232  0.3242 -0.1136  0.6078
  440MPD2    C4 6611   0.103   0.027  15.163 -0.3166 -0.1190 -0.3928
  440MPD2    C5 6612   0.008   0.108  15.115 -0.4628 -1.4017  0.2327
  440MPD2     H 6613   0.290   0.257  15.325  1.5453  1.7849 -1.7395
  440MPD2    H1 6614   0.086   4.659  15.148  0.2987 -0.5011  1.5994
  440MPD2    H2 6615   4.652   0.297  15.120  1.7064  1.8079 -0.4118
  440MPD2    H3 6616   4.666   0.083  15.047 -1.3683  1.7340  0.1923
  440MPD2     N 6617   0.319   4.731  15.257 -0.8310 -0.5944 -0.1602
  440MPD2    H5 6618   0.312   4.635  15.227 -0.1516 -0.3659 -1.0462
  440MPD2    N1 6619   0.095   0.430  15.268  0.0772  0.3350 -0.0991
  440MPD2    H7 6620   0.162   0.449  15.341 -0.4264 -1.4060  0.7986
  441TMC3    C1 6621   0.541   4.672  15.335  0.7055  0.3443 -0.7026
  441TMC3    C2 6622   0.653   4.737  15.374  0.2643  0.1390  0.1014
  441TMC3    C3 6623   0.699   4.709  15.499  0.3247 -0.2612 -0.7994
  441TMC3    C4 6624   0.487   4.560  15.399  0.4145  0.3626  0.4096
  441TMC3    C5 6625   0.553   4.516  15.511 -0.2000 -0.5606 -0.2813
  441TMC3    C6 6626   0.651   4.596  15.574  0.3403  0.0839  0.5797
  441TMC3     C 6627   0.441   0.035  15.309 -0.7421 -0.1196  0.0945
  441TMC3     O 6628   0.481   0.150  15.334 -0.1000 -0.2954 -0.6495
  441TMC3     H 6629   0.693   0.080  15.315  1.5075 -1.2307 -0.9602
  441TMC3    H1 6630   0.398   4.509  15.365  1.7685  0.1005 -2.7712
  441TMC3    H2 6631   0.685   4.579  15.675  0.3621 -0.2174  0.5208
  441TMC3    C7 6632   0.465   4.451  15.604  0.6237  0.9738  0.0549
  441TMC3    C8 6633   0.736   0.084  15.576  0.6932  0.6639  0.2653
  441TMC3    O1 6634   0.347   4.489  15.598 -0.0501 -0.4955  0.0630
  441TMC3    O2 6635   0.784   0.056  15.688  0.0936 -0.2713  0.2767
  442MPD2     C 6636   3.355   0.420  16.269  0.6176  0.5373 -0.8502
  442MPD2    C1 6637   3.287   0.335  16.352 -0.2879 -0.2629 -0.3189
  442MPD2    C2 6638   3.233   0.221  16.301 -0.2783  0.1210 -0.1008
  442MPD2    C3 6639   3.259   0.190  16.172  0.0373  0.3336 -0.0430
  442MPD2    C4 6640   3.346   0.270  16.097  1.1959 -0.0032 -0.4400
  442MPD2    C5 6641   3.385   0.387  16.144  0.0351 -0.4386  0.1910
  442MPD2     H 6642   3.167   0.164  16.365  0.8535 -0.8202  0.2252
  442MPD2    H1 6643   3.391   0.233  16.005  1.2018  0.2441 -0.5367
  442MPD2    H2 6644   3.393   0.516  16.303 -0.6221  0.0889  1.7646
  442MPD2    H3 6645   3.450   0.448  16.083  0.5224 -1.1123  0.0336
  442MPD2     N 6646   3.227   0.066  16.108 -0.3140 -0.6090 -0.2475
  442MPD2    H5 6647   3.250   0.048  16.010  0.6261  0.0260 -0.1427
  442MPD2    N1 6648   3.252   0.356  16.488  0.7601 -0.7841 -0.5593
  442MPD2    H7 6649   3.179   0.303  16.533 -0.2100  0.0893 -1.1146
  443TMC3    C1 6650   3.231   0.519  16.673 -0.2653  0.3033  0.2655
  443TMC3    C2 6651   3.257   0.654  16.700 -0.6874 -0.2990 -0.3033
  443TMC3    C3 6652   3.160   0.713  16.789 -0.5918 -0.3482 -0.7863
  443TMC3    C4 6653   3.138   0.449  16.751 -0.3135  0.8360  0.7991
  443TMC3    C5 6654   3.051   0.514  16.829 -0.6801 -0.1451  0.8280
  443TMC3    C6 6655   3.059   0.653  16.848 -0.8433 -0.4406 -0.4811
  443TMC3     C 6656   3.310   0.463  16.557  0.0272 -0.5408 -0.0000
  443TMC3     O 6657   3.411   0.533  16.532 -0.5923  1.0765  0.9349
  443TMC3     H 6658   3.321   0.711  16.634 -1.0365  2.0419  1.3531
  443TMC3    H1 6659   3.107   0.350  16.720 -1.3805  0.8288  1.8860
  443TMC3    H2 6660   3.000   0.709  16.919  0.0876 -2.1335  1.6251
  443TMC3    C7 6661   2.947   0.438  16.891 -1.2093  0.7606  0.1984
  443TMC3    C8 6662   3.165   0.855  16.816  0.7124  0.3815 -0.6186
  443TMC3    O1 6663   2.915   0.327  16.847 -0.6058  0.0150  0.1276
  443TMC3    O2 6664   3.213   0.873  16.927  0.3798 -0.0519  0.7631
  444MPD2     C 6665   3.630   0.113  17.451  0.6238 -0.0672 -0.3793
  444MPD2    C1 6666   3.558   0.111  17.331 -0.7264 -0.2826  0.5374
  444MPD2    C2 6667   3.631   0.074  17.221  0.2652 -0.2152  0.6054
  444MPD2    C3 6668   3.766   0.042  17.224  0.2702  0.0418  0.0103
  444MPD2    C4 6669   3.835   0.059  17.342  0.1463  0.3767 -0.2963
  444MPD2    C5 6670   3.767   0.097  17.450  0.0171 -0.1933 -0.3522
  444MPD2     H 6671   3.587   0.070  17.122  2.5967 -4.1129 -0.2709
  444MPD2    H1 6672   3.942   0.043  17.345  0.0816 -0.1321 -0.6173
  444MPD2    H2 6673   3.573   0.132  17.541 -3.3984  0.3873 -3.0004
  444MPD2    H3 6674   3.819   0.107  17.545 -0.6205  3.4986 -0.3911
  444MPD2     N 6675   3.815   4.735  17.104 -0.4208  0.3289  0.1371
  444MPD2    H5 6676   3.749   4.727  17.027  1.2355  0.4831 -1.3043
  444MPD2    N1 6677   3.418   0.122  17.330 -0.4111 -0.6575  0.9117
  444MPD2    H7 6678   3.366   0.075  17.257 -1.2660 -1.3521  1.9700
  445TMC3    C1 6679   3.956   4.631  16.958 -0.3749  0.1335 -0.4230
  445TMC3    C2 6680   3.852   4.621  16.869 -0.3376 -0.3066  0.1071
  445TMC3    C3 6681   3.865   4.544  16.755 -0.4246 -0.1699 -0.3713
  445TMC3    C4 6682   4.073   4.557  16.941 -0.2251 -0.3829 -0.5399
  445TMC3    C5 6683   4.074   4.480  16.826 -0.1865 -0.4436  0.7599
  445TMC3    C6 6684   3.973   4.467  16.736 -0.1196 -0.9992 -0.3938
  445TMC3     C 6685   3.944   4.692  17.086 -0.6516  0.5723 -0.5902
  445TMC3     O 6686   4.035   4.685  17.168 -0.5072  0.2384 -0.4836
  445TMC3     H 6687   3.761   4.679  16.881  0.5152  1.3844 -1.6872
  445TMC3    H1 6688   4.153   4.564  17.014  0.8082  0.0594 -1.7172
  445TMC3    H2 6689   3.982   4.403  16.649  1.6577  1.0304 -1.7206
  445TMC3    C7 6690   4.201   4.415  16.788  0.1766 -0.7701 -0.3065
  445TMC3    C8 6691   3.738   4.512  16.694  0.0787  0.0281 -0.5246
  445TMC3    O1 6692   4.218   4.385  16.671 -0.0250 -0.3374  0.3340
  445TMC3    O2 6693   3.635   4.568  16.733  0.7125 -0.2793 -0.4430
  446MPD2     C 6694   3.218   1.607  11.356 -0.1357 -0.4247 -0.9798
  446MPD2    C1 6695   3.196   1.717  11.271 -0.6527  0.0554 -0.2093
  446MPD2    C2 6696   3.306   1.787  11.223 -0.4545  0.0729 -0.4007
  446MPD2    C3 6697   3.434   1.742  11.242  0.0094 -0.0270  0.2385
  446MPD2    C4 6698   3.452   1.622  11.318 -0.2573  0.2381  0.5483
  446MPD2    C5 6699   3.346   1.567  11.376 -0.3696 -0.0247 -0.1906
  446MPD2     H 6700   3.286   1.872  11.159  1.6844 -0.5571 -1.8985
  446MPD2    H1 6701   3.548   1.576  11.335 -0.1853  0.1128 -0.1961
  446MPD2    H2 6702   3.136   1.561  11.408  1.0611 -0.8974  0.4675
  446MPD2    H3 6703   3.355   1.477  11.435 -2.5556 -0.9020 -1.1806
  446MPD2     N 6704   3.543   1.811  11.176 -0.5688  0.2127  0.5932
  446MPD2    H5 6705   3.514   1.894  11.124 -0.7933 -0.4807 -0.3856
  446MPD2    N1 6706   3.063   1.751  11.222  0.4410  0.6553  0.2606
  446MPD2    H7 6707   3.046   1.848  11.198  0.9248  0.2576 -1.7088
  447TMC3    C1 6708   3.746   1.865  11.094 -0.4173  0.2708  0.0034
  447TMC3    C2 6709   3.683   1.944  10.995 -0.0728  0.2931 -0.1858
  447TMC3    C3 6710   3.759   2.026  10.920  0.1928 -0.3378 -0.3197
  447TMC3    C4 6711   3.881   1.859  11.095 -0.3990  0.2564 -0.9814
  447TMC3    C5 6712   3.951   1.945  11.014 -0.0783 -0.4759 -0.4386
  447TMC3    C6 6713   3.893   2.037  10.927 -0.1238  0.7546  0.2381
  447TMC3     C 6714   3.672   1.777  11.179 -0.1213 -0.1780  0.7561
  447TMC3     O 6715   3.734   1.693  11.240 -0.1512  0.0978  0.0710
  447TMC3     H 6716   3.576   1.945  10.977  0.3821  3.2225 -2.6954
  447TMC3    H1 6717   3.934   1.804  11.172 -1.7226  1.4864  0.8146
  447TMC3    H2 6718   3.950   2.075  10.842  0.7555 -1.7533 -0.3035
  447TMC3    C7 6719   4.092   1.942  11.023 -0.0747 -0.1347  0.2258
  447TMC3    C8 6720   3.700   2.069  10.801  0.7205  0.4206 -0.1733
  447TMC3    O1 6721   4.149   1.840  11.058 -0.1759 -0.0911  0.6226
  447TMC3    O2 6722   3.627   1.990  10.745 -0.0635 -0.2513  0.0204
  448TMC3    C1 6723   2.327   1.869  17.288  0.0931  0.8661 -0.8818
  448TMC3    C2 6724   2.283   1.788  17.192 -0.3220  0.7472 -0.0716
  448TMC3    C3 6725   2.248   1.661  17.227 -0.0382 -0.3131  0.1660
  448TMC3    C4 6726   2.352   1.817  17.412  0.4052  0.5966 -0.1378
  448TMC3    C5 6727   2.314   1.688  17.448 -0.6076 -0.1726  0.3438
  448TMC3    C6 6728   2.257   1.604  17.359 -0.1813  0.4919  0.3854
  448TMC3     C 6729   2.331   2.013  17.270  0.0324 -0.6722  0.2558
  448TMC3     O 6730   2.296   2.085  17.361 -0.1677 -0.2416  0.2102
  448TMC3     H 6731   2.262   1.830  17.094 -1.7381 -0.0651 -0.1077
  448TMC3    H1 6732   2.407   1.884  17.477 -0.6692  1.9685 -0.6250
  448TMC3    H2 6733   2.235   1.500  17.381  2.3019 -0.0655  0.2095
  448TMC3    C7 6734   2.345   1.647  17.582 -0.2978  0.1386 -0.0519
  448TMC3    C8 6735   2.181   1.563  17.136 -0.1581  0.5782  0.5481
  448TMC3    O1 6736   2.444   1.700  17.631 -0.3030  0.5787  0.1545
  448TMC3    O2 6737   2.155   1.453  17.184 -0.8616 -0.0748 -0.0370
  449MPD2     C 6738   3.247   4.326  13.923  0.6112  0.6002 -0.3504
  449MPD2    C1 6739   3.117   4.351  13.890  0.1654  0.1680 -0.7982
  449MPD2    C2 6740   3.021   4.261  13.938 -0.4077  0.0134 -0.6907
  449MPD2    C3 6741   3.060   4.146  14.010 -0.1537 -0.7020  0.1657
  449MPD2    C4 6742   3.192   4.123  14.038  0.9696  0.0234  0.3319
  449MPD2    C5 6743   3.284   4.215  13.999  0.1893 -0.4905 -0.1644
  449MPD2     H 6744   2.914   4.277  13.932 -0.5650 -0.5887  0.5137
  449MPD2    H1 6745   3.230   4.040  14.097  2.9598  0.1266 -0.7890
  449MPD2    H2 6746   3.325   4.398  13.900  0.1928  0.4539 -2.2299
  449MPD2    H3 6747   3.386   4.207  14.035  0.3667  0.0245 -0.5610
  449MPD2     N 6748   2.963   4.047  14.038  0.4259 -0.2238 -0.0709
  449MPD2    H5 6749   2.876   4.047  13.986 -0.6171 -2.0232  1.6337
  449MPD2    N1 6750   3.076   4.454  13.807 -0.4457 -0.3449 -0.2921
  449MPD2    H7 6751   2.975   4.456  13.797 -0.1037 -0.2262 -3.6451
  450TMC3    C1 6752   3.086   4.586  13.629  0.3587 -0.5298 -0.5656
  450TMC3    C2 6753   3.135   4.539  13.514 -0.5052 -0.3173 -0.3235
  450TMC3    C3 6754   3.060   4.478  13.417  0.1732 -0.6387  0.0510
  450TMC3    C4 6755   2.951   4.573  13.653  0.5463  0.5246 -1.0192
  450TMC3    C5 6756   2.863   4.524  13.552 -0.3421  0.1462  0.2967
  450TMC3    C6 6757   2.921   4.468  13.436 -0.4560  0.0242 -0.3751
  450TMC3     C 6758   3.159   4.544  13.737 -0.3407  0.5424  0.0741
  450TMC3     O 6759   3.278   4.574  13.743 -0.2197  0.4470  0.0938
  450TMC3     H 6760   3.243   4.536  13.503 -0.3030 -0.7686  1.7219
  450TMC3    H1 6761   2.913   4.619  13.744 -2.4874 -2.6348 -0.6699
  450TMC3    H2 6762   2.865   4.416  13.360 -0.0786 -2.2984  0.9358
  450TMC3    C7 6763   2.735   4.470  13.584 -0.6168  0.8200 -0.4662
  450TMC3    C8 6764   3.108   4.465  13.281 -0.5903 -0.0130  0.9059
  450TMC3    O1 6765   2.718   4.356  13.542 -0.0880 -0.0083 -0.4357
  450TMC3    O2 6766   3.018   4.462  13.197  0.2692  0.5564 -0.4567
  451MPD2     C 6767   4.434   4.191   1.137  0.3470  1.2005 -0.3144
  451MPD2    C1 6768   4.495   4.077   1.095 -0.4365 -0.1103  0.1143
  451MPD2    C2 6769   4.627   4.079   1.055 -0.6646  1.1879  0.6171
  451MPD2    C3 6770   4.696   4.194   1.049  1.1271  0.0824 -0.1284
  451MPD2    C4 6771   4.635   4.308   1.087 -0.2634  0.9581 -0.5154
  451MPD2    C5 6772   4.508   4.307   1.136 -0.4661 -0.5986 -0.2701
  451MPD2     H 6773   4.670   3.988   1.015 -0.5681  2.7152 -2.6876
  451MPD2    H1 6774   4.684   4.404   1.071  1.3110  0.2570  0.0724
  451MPD2    H2 6775   4.332   4.198   1.172  0.1029  1.1275 -1.0236
  451MPD2    H3 6776   4.454   4.391   1.179  0.0616 -0.2920 -0.2146
  451MPD2     N 6777   0.091   4.181   1.004 -0.0761 -0.4454  0.5140
  451MPD2    H5 6778   0.127   4.088   0.985 -1.2028 -1.1921  2.0051
  451MPD2    N1 6779   4.408   3.964   1.096 -0.4967  0.2191 -0.3389
  451MPD2    H7 6780   4.310   3.972   1.123 -0.5453 -1.1144 -0.1189
  452TMC3    C1 6781   0.310   4.205   0.976 -0.0759 -0.1299 -0.6030
  452TMC3    C2 6782   0.387   4.178   1.085 -0.9649 -0.2149 -0.1833
  452TMC3    C3 6783   0.454   4.060   1.096  1.1129 -0.9771 -0.0259
  452TMC3    C4 6784   0.294   4.104   0.886 -0.1401 -0.4405  0.5172
  452TMC3    C5 6785   0.369   3.993   0.891  0.1752 -0.2738 -0.4260
  452TMC3    C6 6786   0.457   3.972   0.989 -0.4137  0.2785 -0.3408
  452TMC3     C 6787   0.190   4.278   1.013 -0.4568  0.6890 -0.4076
  452TMC3     O 6788   0.185   4.394   1.055  0.5767  0.2978  0.2498
  452TMC3     H 6789   0.404   4.265   1.149 -1.5731  1.4070 -2.2410
  452TMC3    H1 6790   0.242   4.135   0.796  0.8960 -2.0375 -0.6408
  452TMC3    H2 6791   0.514   3.880   1.000  1.1010  1.4791  1.8162
  452TMC3    C7 6792   0.343   3.909   0.768 -0.2516  0.3145  0.1399
  452TMC3    C8 6793   0.465   3.996   1.229  0.2222 -0.0783  0.4405
  452TMC3    O1 6794   0.238   3.918   0.704  0.8908 -0.0787  0.6971
  452TMC3    O2 6795   0.471   3.872   1.230 -0.5156 -0.3259  0.1538
  453TMC3    C1 6796   0.854   1.127  11.573 -0.0437  0.1428 -0.2214
  453TMC3    C2 6797   0.740   1.048  11.577  1.1538 -0.5040 -0.8157
  453TMC3    C3 6798   0.658   1.056  11.471  0.9304 -0.2136  0.1785
  453TMC3    C4 6799   0.886   1.197  11.461 -0.1331 -0.3019 -0.1718
  453TMC3    C5 6800   0.794   1.215  11.362  0.1404 -0.2549 -0.2370
  453TMC3    C6 6801   0.681   1.143  11.366 -0.1558 -0.5147  0.5929
  453TMC3     C 6802   0.956   1.111  11.671  0.6273  0.3658 -0.2229
  453TMC3     O 6803   1.040   1.200  11.671  0.0587 -0.3064  0.5092
  453TMC3     H 6804   0.708   0.991  11.663 -1.4157  1.2869 -0.5921
  453TMC3    H1 6805   0.972   1.263  11.462 -0.3624  0.0202 -2.4766
  453TMC3    H2 6806   0.608   1.142  11.286  0.7590 -1.5295 -0.2291
  453TMC3    C7 6807   0.852   1.237  11.230 -0.5236 -0.0353 -0.0169
  453TMC3    C8 6808   0.577   0.935  11.448  0.4667  0.1495  0.3698
  453TMC3    O1 6809   0.794   1.175  11.138 -0.1626 -0.2562 -0.4469
  453TMC3    O2 6810   0.498   0.938  11.351  0.8070 -0.0134 -0.0444
  454MPD2     C 6811   4.214   4.710  16.105  0.5123  0.5470  0.2861
  454MPD2    C1 6812   4.114   4.664  16.023  0.0281 -0.1377  0.2987
  454MPD2    C2 6813   3.986   4.714  16.028 -0.0626  0.1809  0.0579
  454MPD2    C3 6814   3.959   0.084  16.114  0.4680  0.4823  0.2539
  454MPD2    C4 6815   4.056   0.133  16.193 -0.0411  0.1181  0.0618
  454MPD2    C5 6816   4.185   0.081  16.186 -0.8375  0.4200 -0.3585
  454MPD2     H 6817   3.921   4.673  15.951 -1.1335  1.2682  0.3850
  454MPD2    H1 6818   4.033   0.207  16.268  2.0940 -0.6263  1.4564
  454MPD2    H2 6819   4.319   4.684  16.100 -0.0419 -1.6390 -0.2196
  454MPD2    H3 6820   4.259   0.129  16.250  1.5023  0.6249 -3.1904
  454MPD2     N 6821   3.826   0.134  16.128 -0.0919 -0.0108 -0.7379
  454MPD2    H5 6822   3.803   0.194  16.207 -1.1200  0.3702 -1.3341
  454MPD2    N1 6823   4.126   4.559  15.933 -0.3564 -0.4697 -0.6260
  454MPD2    H7 6824   4.044   4.534  15.878 -0.0804  0.3122 -1.3900
  455TMC3    C1 6825   3.606   0.053  16.130 -0.3934 -0.4104 -0.0884
  455TMC3    C2 6826   3.590   0.105  16.257  0.3850 -0.2190 -0.8746
  455TMC3    C3 6827   3.539   0.022  16.355  0.5501  0.5234  0.5636
  455TMC3    C4 6828   3.572   4.658  16.113 -0.1045 -0.3783  1.0859
  455TMC3    C5 6829   3.530   4.578  16.216 -0.2408 -0.3423  0.0483
  455TMC3    C6 6830   3.517   4.626  16.341 -0.1854 -0.4316 -0.3078
  455TMC3     C 6831   3.723   0.089  16.046  0.6796  0.1431  0.2932
  455TMC3     O 6832   3.726   0.052  15.927  0.1449 -0.4812 -0.2175
  455TMC3     H 6833   3.618   0.208  16.272 -0.6263  0.1410 -1.4718
  455TMC3    H1 6834   3.607   4.605  16.025  0.1516  0.9872  0.3715
  455TMC3    H2 6835   3.483   4.566  16.425 -0.1263 -2.6695 -1.8614
  455TMC3    C7 6836   3.585   4.441  16.212  0.2460 -0.6375 -0.3684
  455TMC3    C8 6837   3.535   0.089  16.489  0.4447 -0.0609 -0.4032
  455TMC3    O1 6838   3.514   4.347  16.192  0.3736 -0.2588  0.5909
  455TMC3    O2 6839   3.609   0.187  16.500  0.0189 -0.3808 -0.1788
  456MPD2     C 6840   1.725   0.369  16.333  0.3700 -0.0815  0.0622
  456MPD2    C1 6841   1.839   0.315  16.394  0.4128 -0.1112 -0.3662
  456MPD2    C2 6842   1.893   0.382  16.501  0.8357  0.5284  0.0559
  456MPD2    C3 6843   1.832   0.500  16.553 -0.5107 -0.9335 -0.2988
  456MPD2    C4 6844   1.713   0.541  16.498 -0.3389  0.3245  0.3033
  456MPD2    C5 6845   1.661   0.471  16.390 -0.2517 -0.3204 -0.5518
  456MPD2     H 6846   1.992   0.355  16.535  1.1158 -0.9070 -1.9091
  456MPD2    H1 6847   1.670   0.639  16.516 -1.7382 -0.3113  0.4637
  456MPD2    H2 6848   1.679   0.320  16.248  0.9865  0.6930 -0.7136
  456MPD2    H3 6849   1.567   0.495  16.342 -0.2045  0.0549 -0.4531
  456MPD2     N 6850   1.888   0.582  16.655 -0.3923 -0.0528  0.3536
  456MPD2    H5 6851   1.970   0.540  16.696  0.2094  1.2203  0.4644
  456MPD2    N1 6852   1.900   0.201  16.341  0.1461  0.1790  0.4691
  456MPD2    H7 6853   1.845   0.153  16.270 -0.0452 -0.8809  1.3464
  457TMC3    C1 6854   1.953   0.762  16.786 -0.2145  0.1533  0.1440
  457TMC3    C2 6855   1.962   0.897  16.804 -0.3837  0.6042 -0.1393
  457TMC3    C3 6856   2.049   0.951  16.896 -0.0482 -0.1653 -0.4661
  457TMC3    C4 6857   2.035   0.671  16.854  0.0384  0.3851 -0.6183
  457TMC3    C5 6858   2.121   0.730  16.944  0.0050  0.9077  0.0907
  457TMC3    C6 6859   2.138   0.870  16.957  0.3925 -0.3384 -0.0287
  457TMC3     C 6860   1.869   0.715  16.681  0.0276  0.4480  0.0009
  457TMC3     O 6861   1.801   0.794  16.617  0.3138  0.4382 -0.0725
  457TMC3     H 6862   1.889   0.955  16.750 -0.3657 -0.0648 -0.8926
  457TMC3    H1 6863   2.014   0.565  16.862  1.3619  0.1761 -0.0434
  457TMC3    H2 6864   2.225   0.913  17.005  0.0466 -1.3498  1.5177
  457TMC3    C7 6865   2.164   0.654  17.059 -0.0402  0.6323 -0.1436
  457TMC3    C8 6866   2.066   1.092  16.914 -0.2725 -0.0524 -0.0166
  457TMC3    O1 6867   2.130   0.539  17.075 -0.4532  0.0497  0.4529
  457TMC3    O2 6868   2.127   1.110  17.023 -0.1250  0.8156  0.2809
  458MPD2     C 6869   4.018   4.331  12.632 -0.0512  0.0348 -0.5134
  458MPD2    C1 6870   4.062   4.294  12.758  0.1904  0.1504 -0.6872
  458MPD2    C2 6871   3.967   4.249  12.841 -0.3073 -0.2006 -0.5868
  458MPD2    C3 6872   3.845   4.217  12.799 -0.7331  0.9053  0.2725
  458MPD2    C4 6873   3.800   4.254  12.677 -0.0442  0.0257  0.1175
  458MPD2    C5 6874   3.887   4.313  12.591  0.2319 -0.4858  0.5393
  458MPD2     H 6875   3.987   4.234  12.947 -1.5287  0.6317 -0.2373
  458MPD2    H1 6876   3.698   4.244  12.640 -0.0216 -1.0291  0.3515
  458MPD2    H2 6877   4.080   4.382  12.559  0.7926  0.2429  0.3478
  458MPD2    H3 6878   3.861   4.332  12.487 -1.7288 -0.1194  1.1050
  458MPD2     N 6879   3.765   4.154  12.891 -0.2255  0.0439  0.0528
  458MPD2    H5 6880   3.809   4.132  12.979  1.2395  2.0841 -0.1621
  458MPD2    N1 6881   4.197   4.317  12.806 -0.1270  0.0888  0.1378
  458MPD2    H7 6882   4.262   4.367  12.746  0.3321 -0.4447  0.1847
  459TMC3    C1 6883   4.368   4.335  12.958 -0.0909  0.5542 -0.8619
  459TMC3    C2 6884   4.436   4.421  12.873 -0.5169 -0.4986  0.2678
  459TMC3    C3 6885   4.568   4.446  12.901  0.2193  0.0368 -0.3321
  459TMC3    C4 6886   4.422   4.292  13.074 -0.0648  0.0707 -0.0212
  459TMC3    C5 6887   4.558   4.301  13.082 -0.1226 -0.0150  1.0158
  459TMC3    C6 6888   4.635   4.378  12.998 -0.5662  0.3700 -0.0310
  459TMC3     C 6889   4.244   4.269  12.922  0.3255  0.3661 -0.1657
  459TMC3     O 6890   4.197   4.183  12.994 -0.4781  0.1327 -0.2625
  459TMC3     H 6891   4.387   4.478  12.795 -0.2088 -1.2482 -0.4683
  459TMC3    H1 6892   4.365   4.230  13.142 -0.5049  1.1693  0.6296
  459TMC3    H2 6893   0.004   4.368  13.002 -0.7246 -1.5318 -0.5501
  459TMC3    C7 6894   4.621   4.196  13.165  0.0821 -0.2236 -0.0840
  459TMC3    C8 6895   4.645   4.541  12.827  0.6409  0.2375  0.3393
  459TMC3    O1 6896   4.730   4.156  13.119  0.2990 -0.4174  0.2552
  459TMC3    O2 6897   0.010   4.573  12.882  0.1754 -0.2335  0.2203
  460MPD2     C 6898   3.715   2.403  10.662  0.4123  0.0882  0.4666
  460MPD2    C1 6899   3.683   2.275  10.662  0.7397 -0.0930  0.1062
  460MPD2    C2 6900   3.596   2.227  10.561 -0.2537 -0.0039  0.2655
  460MPD2    C3 6901   3.559   2.315  10.461  0.3448  0.0168  0.0116
  460MPD2    C4 6902   3.596   2.447  10.459  0.0499 -0.3354  0.0038
  460MPD2    C5 6903   3.665   2.490  10.569  0.1445  0.2417  0.2256
  460MPD2     H 6904   3.557   2.127  10.568 -0.2258  0.0119  0.6405
  460MPD2    H1 6905   3.563   2.522  10.388 -1.5737 -0.3322  0.7701
  460MPD2    H2 6906   3.762   2.450  10.747 -0.2078  1.5446  0.0110
  460MPD2    H3 6907   3.684   2.595  10.590  3.0776 -0.2298 -0.1078
  460MPD2     N 6908   3.478   2.259  10.359 -0.0860  0.5497  0.3011
  460MPD2    H5 6909   3.448   2.163  10.370  3.4596 -0.5271  0.7132
  460MPD2    N1 6910   3.728   2.199  10.772  0.2545 -0.2700  0.0780
  460MPD2    H7 6911   3.795   2.244  10.834 -1.7289  0.8435  1.4283
  461TMC3    C1 6912   3.355   2.230  10.164 -0.6157  0.0037  0.1984
  461TMC3    C2 6913   3.389   2.103  10.123 -0.2724  0.1824 -0.6184
  461TMC3    C3 6914   3.329   2.057  10.003 -0.2616 -0.3628 -0.6589
  461TMC3    C4 6915   3.250   2.300  10.104  0.0370 -0.5890 -0.6894
  461TMC3    C5 6916   3.198   2.249   9.984 -0.7288  0.2449 -0.5792
  461TMC3    C6 6917   3.250   2.137   9.927 -0.0592  0.7755  0.1109
  461TMC3     C 6918   3.440   2.314  10.239 -0.2370 -0.2381  0.5947
  461TMC3     O 6919   3.451   2.428  10.192  0.3781 -1.0855 -0.3427
  461TMC3     H 6920   3.472   2.051  10.170 -0.9670  1.3243  1.8856
  461TMC3    H1 6921   3.218   2.392  10.153 -2.5083 -0.9242 -1.7326
  461TMC3    H2 6922   3.212   2.100   9.833  1.0174 -1.2698  0.4783
  461TMC3    C7 6923   3.105   2.334   9.911 -0.0641  0.8578  0.5305
  461TMC3    C8 6924   3.338   1.914   9.966  0.5339 -0.3774 -0.2842
  461TMC3    O1 6925   3.104   2.446   9.956 -0.2682  0.5650 -0.1011
  461TMC3    O2 6926   3.395   1.855  10.054 -0.0643 -0.3596 -0.2273
  462TMC3    C1 6927   3.920   3.064   0.583 -0.1090  0.1791  0.0655
  462TMC3    C2 6928   4.038   3.039   0.516  0.2418 -0.3339 -0.7634
  462TMC3    C3 6929   4.040   2.934   0.422 -0.1522 -0.1234 -0.2955
  462TMC3    C4 6930   3.801   2.996   0.549  1.1170 -0.6494 -0.0617
  462TMC3    C5 6931   3.809   2.915   0.442  0.0489 -0.0589 -0.0235
  462TMC3    C6 6932   3.929   2.872   0.378 -0.0802 -0.4929 -0.5453
  462TMC3     C 6933   3.909   3.130   0.715 -0.5900 -0.1340 -0.0426
  462TMC3     O 6934   3.800   3.159   0.763 -0.1386  0.3224 -0.1324
  462TMC3     H 6935   4.131   3.094   0.530 -0.0744  0.2738 -1.0323
  462TMC3    H1 6936   3.711   3.022   0.604  2.1468  0.7165  1.0029
  462TMC3    H2 6937   3.921   2.811   0.289 -0.4958 -2.1640  0.6280
  462TMC3    C7 6938   3.694   2.833   0.402 -0.0378 -0.0037  0.6259
  462TMC3    C8 6939   4.160   2.905   0.350 -0.3798 -0.1235 -0.6019
  462TMC3    O1 6940   3.715   2.732   0.332  0.4344 -0.1246  0.3967
  462TMC3    O2 6941   4.246   2.997   0.337 -0.2419 -0.5720  0.1576
  463MPD2     C 6942   4.677   1.589   0.732  0.3701  0.2153 -0.3817
  463MPD2    C1 6943   4.615   1.470   0.762  1.0713  0.1975  0.9051
  463MPD2    C2 6944   4.679   1.347   0.725  0.0328 -0.2830 -0.0595
  463MPD2    C3 6945   0.066   1.354   0.671 -0.2482 -0.1627  0.0021
  463MPD2    C4 6946   0.125   1.474   0.636  0.3987  1.0241 -0.3551
  463MPD2    C5 6947   0.054   1.589   0.664  0.5365  0.8293 -0.1541
  463MPD2     H 6948   4.641   1.253   0.763 -1.3480 -0.0653 -0.8738
  463MPD2    H1 6949   0.226   1.475   0.597 -0.2585  0.1031 -2.0768
  463MPD2    H2 6950   4.629   1.682   0.762 -3.1240 -1.7808  0.2913
  463MPD2    H3 6951   0.104   1.685   0.655  1.4050  0.4231  0.3298
  463MPD2     N 6952   0.144   1.242   0.634  0.2908 -0.4693  0.2970
  463MPD2    H5 6953   0.230   1.257   0.583  0.1808 -2.1327 -0.3665
  463MPD2    N1 6954   4.498   1.466   0.838  0.1193  0.2954 -0.1402
  463MPD2    H7 6955   4.479   1.376   0.879 -2.0591  1.3997  1.2805
  464TMC3    C1 6956   4.310   1.538   0.966  0.3044 -0.6848 -0.1633
  464TMC3    C2 6957   4.191   1.610   0.981 -0.6290  0.1551  0.4151
  464TMC3    C3 6958   4.106   1.589   1.085  0.4582  0.4643 -0.0423
  464TMC3    C4 6959   4.334   1.436   1.047  0.4858  0.0083 -0.3759
  464TMC3    C5 6960   4.240   1.406   1.149  0.2375 -0.1660 -0.4371
  464TMC3    C6 6961   4.121   1.478   1.166 -0.2003 -0.2930  0.0559
  464TMC3     C 6962   4.404   1.568   0.857  0.8521  0.2473 -0.2444
  464TMC3     O 6963   4.395   1.676   0.798  0.2376 -0.8595 -0.0723
  464TMC3     H 6964   4.185   1.701   0.923 -1.2145  0.3629  0.8016
  464TMC3    H1 6965   4.430   1.387   1.052  0.1506 -0.9154 -2.6605
  464TMC3    H2 6966   4.047   1.448   1.238  0.2603 -1.5309  0.0294
  464TMC3    C7 6967   4.264   1.295   1.232 -0.8942  0.4475 -0.3289
  464TMC3    C8 6968   3.995   1.687   1.103 -0.2030 -0.0289 -0.8674
  464TMC3    O1 6969   4.333   1.205   1.184 -0.0015 -0.0458  0.0626
  464TMC3    O2 6970   3.972   1.768   1.013  0.0878 -0.4144  0.8912
  465MPD2     C 6971   1.479   0.276  16.104  0.0175  0.0825  0.1897
  465MPD2    C1 6972   1.392   0.217  16.192  0.7323 -0.5889  0.2457
  465MPD2    C2 6973   1.267   0.280  16.214  0.2580 -0.2676 -0.2463
  465MPD2    C3 6974   1.233   0.395  16.147  0.4472  0.6270 -0.3188
  465MPD2    C4 6975   1.325   0.452  16.060 -0.7174 -0.1290  0.0846
  465MPD2    C5 6976   1.446   0.395  16.036  0.6182  0.5284 -0.0595
  465MPD2     H 6977   1.190   0.239  16.279  1.5087 -0.3394  1.2044
  465MPD2    H1 6978   1.308   0.545  16.007  0.4272  0.2180  0.3158
  465MPD2    H2 6979   1.578   0.237  16.082 -0.8263 -1.7431 -0.3411
  465MPD2    H3 6980   1.519   0.446  15.975  1.5899 -1.1067 -0.2736
  465MPD2     N 6981   1.100   0.449  16.159 -0.4565 -1.0696  0.7565
  465MPD2    H5 6982   1.043   0.400  16.228  0.0027 -1.9684  0.5071
  465MPD2    N1 6983   1.418   0.105  16.264  0.2097  0.6029 -0.1111
  465MPD2    H7 6984   1.349   0.080  16.334 -0.8342 -1.8517 -2.0195
  466TMC3    C1 6985   0.711   0.562  16.216 -0.1152 -0.5500 -0.1632
  466TMC3    C2 6986   0.656   0.662  16.137 -0.2366  0.1569 -0.5366
  466TMC3    C3 6987   0.738   0.720  16.046  0.3857 -0.2667  0.4351
  466TMC3    C4 6988   0.844   0.522  16.210 -0.2275 -0.8253  1.1001
  466TMC3    C5 6989   0.920   0.599  16.122 -0.5066  0.5284  0.2527
  466TMC3    C6 6990   0.870   0.696  16.040  0.6564  0.2627 -0.0389
  466TMC3     C 6991   0.630   0.490  16.315 -0.0633 -0.3395 -0.0633
  466TMC3     O 6992   0.693   0.443  16.409 -0.4804  0.5991  0.2306
  466TMC3     H 6993   0.556   0.702  16.153 -0.4190 -0.3467 -0.4130
  466TMC3    H1 6994   0.876   0.448  16.282 -0.7004 -2.6790 -0.5840
  466TMC3    H2 6995   0.928   0.751  15.966  2.9688  0.4378  1.8928
  466TMC3    C7 6996   1.060   0.570  16.105 -0.8125 -0.1382 -0.5656
  466TMC3    C8 6997   0.726   0.869  16.030  0.2461  0.1024  0.1073
  466TMC3    O1 6998   1.124   0.664  16.059  0.4048  0.1050  0.3002
  466TMC3    O2 6999   0.744   0.907  15.917 -0.2899  0.0276 -0.2036
  467TMC3    C1 7000   2.041   3.519  13.431 -0.4411 -0.8351  0.8853
  467TMC3    C2 7001   2.109   3.520  13.317 -0.4596 -0.2620 -0.3117
  467TMC3    C3 7002   2.054   3.586  13.210  1.0323 -0.2988  0.0215
  467TMC3    C4 7003   1.915   3.578  13.445  0.2295 -0.5364 -0.7784
  467TMC3    C5 7004   1.856   3.630  13.327  0.1265 -0.2421  0.2474
  467TMC3    C6 7005   1.932   3.649  13.213 -0.4250  0.1555 -0.3931
  467TMC3     C 7006   2.108   3.470  13.538  0.5713  0.2099  0.1074
  467TMC3     O 7007   2.234   3.488  13.533 -0.3877 -0.1174  0.6089
  467TMC3     H 7008   2.203   3.466  13.313 -1.3274 -1.7449 -0.4695
  467TMC3    H1 7009   1.866   3.577  13.542 -1.1081 -1.1927 -1.4650
  467TMC3    H2 7010   1.902   3.695  13.120  1.0192  0.2578 -0.8114
  467TMC3    C7 7011   1.724   3.691  13.333  0.2050 -0.0614 -0.2754
  467TMC3    C8 7012   2.148   3.653  13.125  0.1617 -0.4792  0.2371
  467TMC3    O1 7013   1.689   3.775  13.254  0.0484  0.1001  0.2039
  467TMC3    O2 7014   2.109   3.754  13.069 -0.4587 -0.3226  0.3532
  468MPD2     C 7015   0.562   2.324  10.884  0.8287 -0.0416 -0.2153
  468MPD2    C1 7016   0.689   2.282  10.876 -0.3118  0.0436  0.8382
  468MPD2    C2 7017   0.717   2.147  10.848 -0.2363  0.4891 -0.5408
  468MPD2    C3 7018   0.613   2.055  10.842 -0.5089  0.2100  0.2636
  468MPD2    C4 7019   0.486   2.099  10.857  0.4544  0.0336  0.6165
  468MPD2    C5 7020   0.461   2.231  10.875  0.4712  0.0803  0.2177
  468MPD2     H 7021   0.820   2.114  10.841  0.2738  2.0007 -0.1763
  468MPD2    H1 7022   0.402   2.032  10.838  0.7317 -0.8799  2.6439
  468MPD2    H2 7023   0.555   2.430  10.907  0.9013 -0.4053  1.5243
  468MPD2    H3 7024   0.357   2.264  10.876  0.1393 -0.9328 -0.5949
  468MPD2     N 7025   0.628   1.919  10.828 -0.4382  0.7045 -0.2900
  468MPD2    H5 7026   0.558   1.849  10.853  0.3482 -0.1760 -0.5748
  468MPD2    N1 7027   0.805   2.359  10.895  0.2147  0.0572  0.9973
  468MPD2    H7 7028   0.898   2.319  10.883 -0.2405 -0.4564 -0.8825
  469TMC3    C1 7029   0.936   2.531  10.970  0.1873 -0.1087 -1.2526
  469TMC3    C2 7030   1.016   2.439  11.040 -0.5890 -0.3336 -0.5041
  469TMC3    C3 7031   1.141   2.484  11.079 -0.4541  0.3681  0.0408
  469TMC3    C4 7032   0.979   2.664  10.942 -0.7892  0.0018  0.3395
  469TMC3    C5 7033   1.098   2.707  10.996  0.6474  0.5341 -0.5421
  469TMC3    C6 7034   1.177   2.620  11.072  0.1044 -0.5703 -0.1054
  469TMC3     C 7035   0.807   2.495  10.917  0.1706  0.0931  0.3860
  469TMC3     O 7036   0.718   2.580  10.908 -0.4386 -0.5831  0.4729
  469TMC3     H 7037   0.981   2.339  11.062 -1.8645  0.0625 -0.6933
  469TMC3    H1 7038   0.911   2.733  10.894 -1.5554  0.3711  1.9430
  469TMC3    H2 7039   1.280   2.640  11.100  0.4782  0.6010 -2.2684
  469TMC3    C7 7040   1.101   2.845  11.004  0.5280 -0.8638  0.2019
  469TMC3    C8 7041   1.223   2.385  11.152  0.1797 -0.0882 -0.0943
  469TMC3    O1 7042   1.105   2.911  10.900 -0.5015 -0.2906 -0.4438
  469TMC3    O2 7043   1.173   2.281  11.200 -0.0273  1.0388  0.1275
  470TMC3    C1 7044   2.916   2.447   0.785 -0.0916  0.5253  0.5066
  470TMC3    C2 7045   2.950   2.578   0.813 -0.6134  0.2502 -0.1019
  470TMC3    C3 7046   2.964   2.616   0.941  0.2611  1.0517 -0.6831
  470TMC3    C4 7047   2.861   2.363   0.884  0.2993  0.1557  0.6056
  470TMC3    C5 7048   2.860   2.423   1.010 -0.2989 -0.2130 -0.0298
  470TMC3    C6 7049   2.933   2.531   1.043  0.8179 -0.1185  0.4362
  470TMC3     C 7050   2.902   2.412   0.648  0.0240 -0.3381  0.2759
  470TMC3     O 7051   2.952   2.494   0.569 -0.1915  0.6184 -0.0287
  470TMC3     H 7052   2.945   2.643   0.726 -2.1210  0.5521  0.2187
  470TMC3    H1 7053   2.814   2.266   0.873  0.3747  0.3268 -1.2537
  470TMC3    H2 7054   2.946   2.573   1.143  0.5095 -0.2817  0.5457
  470TMC3    C7 7055   2.863   2.322   1.111  0.5115  0.5322 -0.9006
  470TMC3    C8 7056   3.042   2.738   0.968  0.3167  0.1074  0.3443
  470TMC3    O1 7057   2.856   2.203   1.088 -0.2425  0.0807 -0.3517
  470TMC3    O2 7058   3.026   2.789   1.079 -0.7592  0.1033  0.0788
  471MPD2     C 7059   3.689   3.876  16.652 -0.0988  0.1072  0.0461
  471MPD2    C1 7060   3.778   3.773  16.619 -0.1973 -0.2513 -0.7474
  471MPD2    C2 7061   3.862   3.717  16.715 -0.0184  0.2414  0.1135
  471MPD2    C3 7062   3.865   3.774  16.842 -0.2028  0.2043 -0.0845
  471MPD2    C4 7063   3.774   3.877  16.869  0.0194 -0.1348  0.2756
  471MPD2    C5 7064   3.690   3.926  16.778 -0.3124  0.0386  0.2421
  471MPD2     H 7065   3.918   3.628  16.688  0.5389 -0.0057  2.0972
  471MPD2    H1 7066   3.765   3.923  16.967  1.3584 -1.3863  0.9837
  471MPD2    H2 7067   3.612   3.914  16.585 -1.2254 -1.0086  0.7066
  471MPD2    H3 7068   3.616   4.002  16.801  0.8258  1.7088 -1.5669
  471MPD2     N 7069   3.938   3.712  16.950  0.8155 -0.2409  0.1209
  471MPD2    H5 7070   3.922   3.759  17.038 -0.2188 -1.4070  0.5509
  471MPD2    N1 7071   3.782   3.700  16.496  0.2624  0.1744 -0.4948
  471MPD2    H7 7072   3.847   3.622  16.489  0.4231  0.4118 -1.6405
  472TMC3    C1 7073   3.706   3.623  16.279  0.1916  0.0397 -0.1415
  472TMC3    C2 7074   3.648   3.661  16.165 -1.3259  0.7681 -0.4446
  472TMC3    C3 7075   3.641   3.575  16.063  0.4082  0.4301 -0.2001
  472TMC3    C4 7076   3.745   3.494  16.297  0.8338  0.8493 -0.3547
  472TMC3    C5 7077   3.733   3.405  16.199  0.5565  0.0118 -0.6371
  472TMC3    C6 7078   3.679   3.447  16.084  0.3675  0.3951 -0.0034
  472TMC3     C 7079   3.705   3.726  16.386  0.0742  0.5897 -0.2980
  472TMC3     O 7080   3.644   3.830  16.362  0.0572 -0.7989  0.2082
  472TMC3     H 7081   3.606   3.759  16.144 -1.1034  0.8828 -0.3571
  472TMC3    H1 7082   3.779   3.457  16.393  0.1699  0.2388 -0.3558
  472TMC3    H2 7083   3.686   3.384  15.996 -2.0937 -1.5111  1.1767
  472TMC3    C7 7084   3.704   3.270  16.248 -0.0326  0.3744 -0.0767
  472TMC3    C8 7085   3.513   3.579  16.001  0.0389 -0.7479  0.8617
  472TMC3    O1 7086   3.709   3.256  16.370  0.3479  0.5081  0.4081
  472TMC3    O2 7087   3.473   3.670  15.934 -0.0656  0.0057  0.6405
  473MPD2     C 7088   3.458   1.076  13.807 -0.1183  0.3528  0.0410
  473MPD2    C1 7089   3.404   1.207  13.806  0.1554 -0.3905  0.0257
  473MPD2    C2 7090   3.443   1.283  13.913  0.4394 -0.2787 -0.5877
  473MPD2    C3 7091   3.544   1.249  14.003 -0.6287 -0.4621  0.1318
  473MPD2    C4 7092   3.603   1.123  13.983 -0.2580 -0.2164 -0.3982
  473MPD2    C5 7093   3.558   1.040  13.888  0.4893 -0.3211 -0.2031
  473MPD2     H 7094   3.390   1.377  13.912  3.0872  1.1996 -2.2725
  473MPD2    H1 7095   3.690   1.098  14.043  0.5417  0.6978 -1.1608
  473MPD2    H2 7096   3.437   1.001  13.732 -0.4163  1.2557 -0.7808
  473MPD2    H3 7097   3.618   0.953  13.863  0.5527  0.3466 -2.3726
  473MPD2     N 7098   3.585   1.334  14.117  0.2590  0.9234  0.9121
  473MPD2    H5 7099   3.665   1.313  14.176  2.0693  3.4963 -0.5970
  473MPD2    N1 7100   3.331   1.257  13.696 -0.6603  0.2353 -0.8177
  473MPD2    H7 7101   3.310   1.356  13.691  0.1685  0.2944 -3.2308
  474TMC3    C1 7102   3.576   1.530  14.260 -0.1340  0.7347  0.1294
  474TMC3    C2 7103   3.489   1.598  14.342 -0.3053  0.2006 -0.2934
  474TMC3    C3 7104   3.535   1.689  14.435 -0.6230 -0.4669 -0.2124
  474TMC3    C4 7105   3.707   1.542  14.291 -0.0050  0.1089 -0.3325
  474TMC3    C5 7106   3.747   1.615  14.403  0.4552 -0.4754  0.1628
  474TMC3    C6 7107   3.663   1.692  14.480 -0.1362 -0.3993 -0.3085
  474TMC3     C 7108   3.521   1.459  14.145 -0.3919 -0.7603  0.1926
  474TMC3     O 7109   3.422   1.500  14.088  0.1386  0.4314 -0.6370
  474TMC3     H 7110   3.384   1.599  14.317 -0.4891 -0.5287  0.4552
  474TMC3    H1 7111   3.781   1.492  14.231 -1.0798  1.5057 -2.8051
  474TMC3    H2 7112   3.707   1.759  14.553 -1.2898  0.2493 -0.2178
  474TMC3    C7 7113   3.889   1.620  14.432 -0.0830  0.3450 -0.3885
  474TMC3    C8 7114   3.449   1.801  14.455 -0.1760  0.5268 -0.0368
  474TMC3    O1 7115   3.966   1.610  14.338  0.4897  0.5820 -0.4506
  474TMC3    O2 7116   3.325   1.796  14.455  0.6455  0.1140  0.6211
  475MPD2     C 7117   0.735   0.146  10.888  0.0181  0.6396  0.5916
  475MPD2    C1 7118   0.825   0.171  10.792  0.2194 -0.4325 -0.8609
  475MPD2    C2 7119   0.787   0.190  10.661 -0.5413  0.1944  0.5661
  475MPD2    C3 7120   0.659   0.159  10.618 -0.4146  0.2304 -0.4762
  475MPD2    C4 7121   0.573   0.112  10.712 -0.4520 -0.1662  0.0964
  475MPD2    C5 7122   0.607   0.125  10.843  0.3500  0.0085  0.5405
  475MPD2     H 7123   0.852   0.225  10.581 -1.5671  1.1158  0.1457
  475MPD2    H1 7124   0.473   0.075  10.691 -0.6226 -0.4543  1.4232
  475MPD2    H2 7125   0.754   0.136  10.995  1.4871 -1.2789  0.1392
  475MPD2    H3 7126   0.532   0.085  10.910 -1.1647  1.4087 -0.3025
  475MPD2     N 7127   0.638   0.152  10.477  0.3776 -0.0781  0.0788
  475MPD2    H5 7128   0.698   0.207  10.417 -1.4400  0.0358 -1.6086
  475MPD2    N1 7129   0.956   0.198  10.836 -0.6583 -0.2750  0.0294
  475MPD2    H7 7130   0.956   0.200  10.937 -1.4901 -0.9918  0.0494
  476TMC3    C1 7131   1.186   0.240  10.848  0.1923 -0.1327  0.0178
  476TMC3    C2 7132   1.310   0.183  10.812  0.0409  0.3575 -0.3509
  476TMC3    C3 7133   1.405   0.168  10.910 -0.4571  0.0357  0.2940
  476TMC3    C4 7134   1.167   0.314  10.961 -0.4279  0.2891  0.8576
  476TMC3    C5 7135   1.274   0.302  11.039  0.3010  0.1367  0.1580
  476TMC3    C6 7136   1.388   0.239  11.026 -0.2283  0.8753 -0.6821
  476TMC3     C 7137   1.070   0.211  10.763 -0.2652 -0.3820 -0.1177
  476TMC3     O 7138   1.087   0.166  10.650  0.3757  0.0664 -0.2015
  476TMC3     H 7139   1.312   0.119  10.724  1.6529 -0.1719  0.0800
  476TMC3    H1 7140   1.077   0.373  10.972 -1.3663 -0.4986 -2.3774
  476TMC3    H2 7141   1.464   0.233  11.102 -1.4230 -0.3763  0.4309
  476TMC3    C7 7142   1.280   0.393  11.153  0.4530  0.3424  0.6785
  476TMC3    C8 7143   1.533   0.111  10.882  0.2173  0.1349 -0.1256
  476TMC3    O1 7144   1.168   0.423  11.198 -0.4052  0.1575 -0.2189
  476TMC3    O2 7145   1.606   0.100  10.982 -0.1412  0.2463  0.4399
  477MPD2     C 7146   4.207   1.377  11.994  0.6874 -0.0535  0.1746
  477MPD2    C1 7147   4.210   1.272  11.908  0.5682 -0.4952 -0.6566
  477MPD2    C2 7148   4.224   1.143  11.961 -0.0375 -0.3068 -0.0293
  477MPD2    C3 7149   4.259   1.120  12.094  0.0091  0.2636  0.1085
  477MPD2    C4 7150   4.265   1.231  12.177 -0.2166  0.1039  0.0466
  477MPD2    C5 7151   4.242   1.356  12.127  0.7037  0.5292 -0.2453
  477MPD2     H 7152   4.226   1.056  11.896 -2.0304  1.5817 -2.6064
  477MPD2    H1 7153   4.309   1.224  12.276  1.2661  0.0329 -0.6185
  477MPD2    H2 7154   4.193   1.479  11.960  0.5925 -0.4993 -1.1148
  477MPD2    H3 7155   4.256   1.439  12.194 -1.6247 -0.4390  1.4330
  477MPD2     N 7156   4.295   0.984  12.136 -0.3586 -0.1172  0.2179
  477MPD2    H5 7157   4.311   0.915  12.063  2.6221 -0.8248  1.5202
  477MPD2    N1 7158   4.202   1.300  11.766 -0.2949  0.3512 -0.1727
  477MPD2    H7 7159   4.181   1.396  11.740  0.2120  1.0851  2.1193
  478TMC3    C1 7160   4.172   1.281  11.537 -0.3195  0.3908  0.6110
  478TMC3    C2 7161   4.213   1.409  11.520  0.1288 -0.1322  0.3753
  478TMC3    C3 7162   4.150   1.490  11.433 -0.7237 -0.5178 -0.1515
  478TMC3    C4 7163   4.070   1.233  11.469  0.1494  0.1395  0.4610
  478TMC3    C5 7164   4.000   1.319  11.389 -0.4916  0.0976 -0.2488
  478TMC3    C6 7165   4.029   1.453  11.366  0.0076 -0.3902  0.3719
  478TMC3     C 7166   4.194   1.206  11.667  0.3661  0.2600 -0.2068
  478TMC3     O 7167   4.160   1.090  11.679  0.1420  0.4054 -0.1610
  478TMC3     H 7168   4.288   1.450  11.587  2.0587  1.4382 -2.7501
  478TMC3    H1 7169   4.036   1.132  11.487 -0.5092 -0.0629 -1.9742
  478TMC3    H2 7170   3.968   1.523  11.310  1.8460 -0.3654 -1.5505
  478TMC3    C7 7171   3.871   1.263  11.343 -0.1464 -0.2730 -0.4035
  478TMC3    C8 7172   4.209   1.620  11.419 -0.0345  0.5988  0.7138
  478TMC3    O1 7173   3.850   1.149  11.385 -0.3794 -0.0324 -0.1130
  478TMC3    O2 7174   4.328   1.634  11.441 -0.3970 -0.2177 -0.4043
  479MPD2     C 7175   3.386   3.143  15.062 -1.0372  0.5412  0.4166
  479MPD2    C1 7176   3.321   3.125  15.179 -0.4961 -0.1949  0.0662
  479MPD2    C2 7177   3.400   3.142  15.294 -0.3834  0.3137  0.3631
  479MPD2    C3 7178   3.524   3.208  15.288  0.0847 -0.6052 -0.9057
  479MPD2    C4 7179   3.576   3.225  15.165 -0.6312 -0.2028 -0.2963
  479MPD2    C5 7180   3.510   3.201  15.048 -0.5708  0.1063 -0.7209
  479MPD2     H 7181   3.362   3.106  15.389  0.6297  2.5357  1.6036
  479MPD2    H1 7182   3.675   3.265  15.150 -0.2168 -1.0513  0.1679
  479MPD2    H2 7183   3.330   3.132  14.969 -0.1878 -0.6985  0.0475
  479MPD2    H3 7184   3.547   3.217  14.947 -1.0358  0.6578 -0.7974
  479MPD2     N 7185   3.595   3.261  15.397 -0.5688  0.4489 -0.5666
  479MPD2    H5 7186   3.695   3.276  15.386 -0.2224 -1.7885 -0.5071
  479MPD2    N1 7187   3.194   3.069  15.184  0.0938 -0.2803  1.1408
  479MPD2    H7 7188   3.145   3.048  15.098  1.6146  1.3880 -0.1145
  480TMC3    C1 7189   3.220   3.241  15.664 -0.2846  0.2229 -0.1090
  480TMC3    C2 7190   3.134   3.322  15.587 -0.4154  0.3572  0.4211
  480TMC3    C3 7191   3.190   3.401  15.484 -0.4251  0.0011  0.0839
  480TMC3    C4 7192   3.355   3.249  15.640 -0.1246 -1.0583  0.6625
  480TMC3    C5 7193   3.404   3.314  15.531 -0.0080 -0.2475 -0.0030
  480TMC3    C6 7194   3.327   3.395  15.454 -0.2420 -0.6348 -0.3230
  480TMC3     C 7195   3.170   3.141  15.754  0.1486  0.1500 -0.0843
  480TMC3     O 7196   3.252   3.059  15.794  0.2725 -0.1127  0.7851
  480TMC3     H 7197   3.027   3.329  15.599 -0.6463  0.2982 -1.5833
  480TMC3    H1 7198   3.422   3.192  15.703 -0.0400 -2.0798 -0.3671
  480TMC3    H2 7199   3.377   3.470  15.393 -2.6716  0.2301 -1.2668
  480TMC3    C7 7200   3.543   3.298  15.515  0.6244 -0.5076 -0.1283
  480TMC3    C8 7201   3.087   3.450  15.385 -0.8175  0.4606  0.1624
  480TMC3    O1 7202   3.611   3.332  15.612  0.6624  0.2057  0.1683
  480TMC3    O2 7203   2.965   3.454  15.408 -0.1074  0.5347  0.4669
  481MPD2     C 7204   0.143   2.958  14.535  0.3754  0.0063 -0.2474
  481MPD2    C1 7205   0.061   2.846  14.523 -0.7945  0.2356 -0.1617
  481MPD2    C2 7206   0.042   2.758  14.630 -0.3486 -0.1043  0.3723
  481MPD2    C3 7207   0.120   2.781  14.744  0.6157  0.0730 -1.2257
  481MPD2    C4 7208   0.209   2.881  14.748 -0.4004  0.1910  0.3961
  481MPD2    C5 7209   0.215   2.972  14.651  0.6337 -0.1922  0.3652
  481MPD2     H 7210   4.714   2.673  14.625 -1.8625  1.1182 -0.0492
  481MPD2    H1 7211   0.268   2.885  14.839 -1.5337  0.8297  1.1035
  481MPD2    H2 7212   0.149   3.024  14.449  0.9771 -0.1115 -0.2962
  481MPD2    H3 7213   0.277   3.061  14.649 -0.5002  0.6701  2.3466
  481MPD2     N 7214   0.112   2.695  14.853  0.4452  0.1531  0.1891
  481MPD2    H5 7215   0.167   2.723  14.934  0.1282  0.7251  0.2022
  481MPD2    N1 7216   4.737   2.837  14.395 -0.3055  0.5785 -0.4526
  481MPD2    H7 7217   0.012   2.915  14.331  0.3002 -0.0150 -1.0366
  482TMC3    C1 7218   4.599   2.731  14.215  0.8562 -0.3868 -0.3172
  482TMC3    C2 7219   4.508   2.636  14.179 -0.3923 -0.5818  0.0052
  482TMC3    C3 7220   4.432   2.655  14.066  0.6521 -0.2507 -0.1631
  482TMC3    C4 7221   4.618   2.840  14.137 -0.0844 -0.2899  0.6785
  482TMC3    C5 7222   4.529   2.864  14.034 -0.2524  0.3428 -0.4737
  482TMC3    C6 7223   4.431   2.774  14.007  0.8249 -0.5724  0.1450
  482TMC3     C 7224   4.665   2.724  14.350 -0.2529 -0.7675 -0.3961
  482TMC3     O 7225   4.650   2.615  14.401  0.5447  0.1879 -0.5544
  482TMC3     H 7226   4.497   2.545  14.238  1.0804 -0.5419  0.3262
  482TMC3    H1 7227   4.705   2.898  14.166  0.6364 -1.7424  1.4587
  482TMC3    H2 7228   4.362   2.780  13.924 -1.8987  3.4943  2.6641
  482TMC3    C7 7229   4.537   2.988  13.957 -0.3067 -0.4656 -0.1703
  482TMC3    C8 7230   4.340   2.557  14.030 -0.3943 -0.4488 -0.7397
  482TMC3    O1 7231   4.612   3.080  13.995  0.6690  0.1850 -0.7064
  482TMC3    O2 7232   4.358   2.437  14.051 -0.6051 -0.5287  0.1826
  483TMC3    C1 7233   3.223   1.388   1.098  0.1307  0.0387 -0.0922
  483TMC3    C2 7234   3.237   1.522   1.098 -0.4515  0.3010  0.1222
  483TMC3    C3 7235   3.346   1.577   1.166  0.1687 -0.6329  0.7887
  483TMC3    C4 7236   3.295   1.317   1.184 -1.2848 -0.5255 -0.2311
  483TMC3    C5 7237   3.388   1.375   1.267  0.2595  0.1738  0.1771
  483TMC3    C6 7238   3.422   1.502   1.247 -0.5980 -0.2931 -0.3831
  483TMC3     C 7239   3.119   1.323   1.019  0.0326  0.0532 -0.0682
  483TMC3     O 7240   3.017   1.386   1.002  0.3778 -0.1259  0.6118
  483TMC3     H 7241   3.172   1.585   1.039 -3.1653 -1.9880  0.6819
  483TMC3    H1 7242   3.265   1.214   1.200 -0.9571 -0.6438 -0.3844
  483TMC3    H2 7243   3.513   1.543   1.289 -0.2736 -0.1095 -1.2587
  483TMC3    C7 7244   3.478   1.288   1.340 -0.5116  0.0059  0.1421
  483TMC3    C8 7245   3.422   1.673   1.090  0.1137  0.2747  0.1079
  483TMC3    O1 7246   3.488   1.167   1.319  0.0763  0.0661 -0.3037
  483TMC3    O2 7247   3.545   1.656   1.096  0.0696 -0.3867 -0.6550
  484MPD2     C 7248   4.515   0.019  12.555  0.2769 -0.2868 -0.1973
  484MPD2    C1 7249   4.605   4.718  12.647  0.0716  0.9355  0.0737
  484MPD2    C2 7250   4.733   0.038  12.648 -0.2511 -0.9562 -0.1402
  484MPD2    C3 7251   0.022   0.140  12.563  0.0987 -0.9514  0.1531
  484MPD2    C4 7252   4.665   0.187  12.475  0.3952  0.2984 -0.1815
  484MPD2    C5 7253   4.535   0.125  12.474  0.1862 -0.6215  0.1333
  484MPD2     H 7254   0.068   4.735  12.716  0.2163  1.6151  0.9177
  484MPD2    H1 7255   4.696   0.257  12.399 -0.0676 -0.9647 -1.5412
  484MPD2    H2 7256   4.424   4.702  12.537 -1.2599  1.2691  2.6024
  484MPD2    H3 7257   4.465   0.169  12.405 -0.1024  0.6489  1.2324
  484MPD2     N 7258   0.151   0.201  12.551 -0.1129  0.2552 -0.3681
  484MPD2    H5 7259   0.151   0.291  12.506  3.4758  1.3443  1.8519
  484MPD2    N1 7260   4.574   4.603  12.727 -0.3113  0.0755  0.0013
  484MPD2    H7 7261   4.486   4.564  12.696  1.1203  0.3812 -4.4556
  485TMC3    C1 7262   0.363   0.252  12.596  0.1221 -0.2589 -0.6725
  485TMC3    C2 7263   0.467   0.240  12.685 -0.3263 -0.2952 -0.8632
  485TMC3    C3 7264   0.571   0.329  12.673 -0.0887 -0.8056 -0.1980
  485TMC3    C4 7265   0.368   0.337  12.486  0.2324  0.4838 -0.4474
  485TMC3    C5 7266   0.482   0.409  12.471  0.1039  0.3909 -0.2757
  485TMC3    C6 7267   0.578   0.417  12.575  0.3322 -0.1620  0.2800
  485TMC3     C 7268   0.256   0.157  12.622 -0.1674  0.3219  0.5648
  485TMC3     O 7269   0.285   0.051  12.681 -0.5960  0.2058  0.3137
  485TMC3     H 7270   0.464   0.148  12.742 -0.4862  0.2213 -0.0277
  485TMC3    H1 7271   0.296   0.348  12.406 -0.8811 -1.2910  0.3179
  485TMC3    H2 7272   0.641   0.504  12.588  0.3663  0.0921 -1.6909
  485TMC3    C7 7273   0.538   0.433  12.340 -0.3738  0.5821 -0.3453
  485TMC3    C8 7274   0.704   0.277  12.681  0.4730 -0.3173  0.6324
  485TMC3    O1 7275   0.469   0.489  12.254 -0.4659 -0.0303 -0.0058
  485TMC3    O2 7276   0.793   0.334  12.620  0.0574  0.1667 -0.0670
  486MPD2     C 7277   2.344   3.541  12.745 -0.0698  0.1314  0.0747
  486MPD2    C1 7278   2.414   3.521  12.622  0.5809  0.4884 -0.4170
  486MPD2    C2 7279   2.434   3.627  12.544  0.3386 -0.5218 -0.0970
  486MPD2    C3 7280   2.392   3.755  12.577 -0.3515 -0.0368 -0.0182
  486MPD2    C4 7281   2.350   3.778  12.707  0.5404 -0.4706  0.0358
  486MPD2    C5 7282   2.317   3.666  12.788 -1.2067 -0.2220 -0.0265
  486MPD2     H 7283   2.470   3.607  12.444  0.9537  0.6816 -0.1135
  486MPD2    H1 7284   2.314   3.871  12.751 -2.0441 -1.2711 -0.4323
  486MPD2    H2 7285   2.309   3.458  12.805  0.1852  0.6727  0.9695
  486MPD2    H3 7286   2.258   3.687  12.876  1.1817  1.7171  1.1371
  486MPD2     N 7287   2.385   3.850  12.478  0.3435  0.8529  0.1254
  486MPD2    H5 7288   2.401   3.814  12.385 -0.0249  1.1525 -0.0537
  486MPD2    N1 7289   2.452   3.388  12.592 -0.2759  0.1138  0.0090
  486MPD2    H7 7290   2.451   3.309  12.655  2.8281 -0.2730 -0.4158
  487TMC3    C1 7291   2.577   3.216  12.494  0.3608  0.7213  0.5279
  487TMC3    C2 7292   2.491   3.121  12.542 -0.6900 -0.4815  0.4094
  487TMC3    C3 7293   2.541   2.995  12.567 -0.0793 -0.6857 -0.1733
  487TMC3    C4 7294   2.708   3.190  12.465 -0.2377  0.2758  0.0217
  487TMC3    C5 7295   2.754   3.067  12.511 -0.0103 -0.2817  0.6015
  487TMC3    C6 7296   2.673   2.966  12.556 -0.4134 -0.0712  0.1873
  487TMC3     C 7297   2.542   3.357  12.493  0.1125 -0.1138 -0.2843
  487TMC3     O 7298   2.594   3.422  12.403  0.3554 -0.1277  0.1161
  487TMC3     H 7299   2.390   3.146  12.573 -0.1813  3.1908 -0.8032
  487TMC3    H1 7300   2.777   3.272  12.452 -1.2844  0.6384 -3.3653
  487TMC3    H2 7301   2.719   2.883  12.609 -0.7754 -0.5454 -0.2429
  487TMC3    C7 7302   2.895   3.058  12.554 -0.7137  0.1528  0.1050
  487TMC3    C8 7303   2.460   2.908  12.652  0.5138 -0.0769 -0.4471
  487TMC3    O1 7304   2.959   3.162  12.560  0.2211  0.0490  0.3124
  487TMC3    O2 7305   2.348   2.941  12.688 -0.0125  0.1787 -0.2302
  488MPD2     C 7306   2.642   4.606  16.382 -0.0675 -0.0040  0.3174
  488MPD2    C1 7307   2.690   4.716  16.462  0.5714 -0.3389 -0.4425
  488MPD2    C2 7308   2.684   4.698  16.601  0.5653 -0.5919 -0.1800
  488MPD2    C3 7309   2.625   4.589  16.659 -0.3265 -0.3112 -0.3074
  488MPD2    C4 7310   2.579   4.482  16.584 -0.0450  0.4352  0.0857
  488MPD2    C5 7311   2.591   4.494  16.446  0.8581 -0.0678  0.5135
  488MPD2     H 7312   2.729   0.036  16.662 -0.0040 -0.8764  0.6018
  488MPD2    H1 7313   2.523   4.395  16.616  1.7449 -0.6573  0.2625
  488MPD2    H2 7314   2.653   4.613  16.274 -0.0400 -1.1558  0.2469
  488MPD2    H3 7315   2.553   4.412  16.385  2.1795  0.0050 -0.4170
  488MPD2     N 7316   2.610   4.586  16.800 -1.2492  0.4928  0.7505
  488MPD2    H5 7317   2.666   4.655  16.850  0.4259 -0.5067  0.2708
  488MPD2    N1 7318   2.768   0.092  16.406  0.3641  0.0776 -0.1517
  488MPD2    H7 7319   2.824   0.148  16.468  0.2599 -0.1267  0.1290
  489TMC3    C1 7320   2.517   4.524  17.001  0.7903 -0.2080  0.4090
  489TMC3    C2 7321   2.504   4.652  17.043  0.1554 -1.2240  0.2206
  489TMC3    C3 7322   2.477   4.683  17.169  0.0902 -0.3124  0.4237
  489TMC3    C4 7323   2.488   4.424  17.086 -0.0309  0.1781 -0.4926
  489TMC3    C5 7324   2.448   4.456  17.212 -0.1215  0.9222 -0.3093
  489TMC3    C6 7325   2.447   4.584  17.258 -0.5312  0.2338  0.5267
  489TMC3     C 7326   2.544   4.489  16.869 -0.9956  0.0466 -0.5353
  489TMC3     O 7327   2.494   4.385  16.836 -0.4859 -0.7617 -0.0705
  489TMC3     H 7328   2.517   4.730  16.970 -1.1889 -3.1839 -2.1127
  489TMC3    H1 7329   2.477   4.324  17.047 -0.6860  0.8538 -2.0692
  489TMC3    H2 7330   2.416   4.605  17.360 -0.9314  1.0874  0.2275
  489TMC3    C7 7331   2.402   4.354  17.299  0.1836  1.2690  0.2951
  489TMC3    C8 7332   2.515   0.070  17.225 -0.3015  0.3811 -0.7054
  489TMC3    O1 7333   2.422   4.366  17.420  0.3407  0.6539 -0.4143
  489TMC3    O2 7334   2.470   0.091  17.336  0.0788 -0.4376  0.0819
  490MPD2     C 7335   3.128   4.388  17.525 -0.9912 -0.4976 -0.4375
  490MPD2    C1 7336   3.221   4.304  17.585  0.0754 -0.4271  0.6030
  490MPD2    C2 7337   3.344   4.345  17.624 -0.4576 -0.1348 -0.0876
  490MPD2    C3 7338   3.394   4.467  17.567  0.0375  0.5895  0.2294
  490MPD2    C4 7339   3.315   4.543  17.485 -0.0006 -0.3814  0.4995
  490MPD2    C5 7340   3.176   4.504  17.468  0.2034 -0.0855  0.1711
  490MPD2     H 7341   3.405   4.278  17.684  0.5191 -1.1831 -2.2541
  490MPD2    H1 7342   3.353   4.630  17.433 -1.7648  0.2793  0.3033
  490MPD2    H2 7343   3.024   4.358  17.518 -0.9105 -0.7177 -0.6760
  490MPD2    H3 7344   3.108   4.573  17.419 -0.1331  0.7844  1.8664
  490MPD2     N 7345   3.529   4.518  17.579 -0.1689  0.0334 -0.4792
  490MPD2    H5 7346   3.566   4.591  17.518  1.1194 -0.3304 -0.1442
  490MPD2    N1 7347   3.191   4.170  17.615  0.1334 -0.1445  0.7944
  490MPD2    H7 7348   3.267   4.118  17.659 -0.3896 -1.4128  0.1832
  491TMC3    C1 7349   3.084   3.962  17.605 -0.3453 -0.0448 -0.6742
  491TMC3    C2 7350   3.091   3.938  17.740 -0.0912  0.5912 -0.3321
  491TMC3    C3 7351   3.179   3.850   0.032 -0.7820 -0.0230  0.1581
  491TMC3    C4 7352   3.149   3.877  17.524 -0.3877 -0.0224 -0.2554
  491TMC3    C5 7353   3.232   3.789  17.570 -0.2178  0.2866  0.1153
  491TMC3    C6 7354   3.254   3.773  17.704 -0.1014 -0.1895  0.1883
  491TMC3     C 7355   3.088   4.097  17.556 -0.4384  0.2844 -0.1920
  491TMC3     O 7356   3.020   4.131  17.459 -0.0658  0.2428  0.2009
  491TMC3     H 7357   3.050   4.011   0.056 -2.6634 -1.8772  0.7710
  491TMC3    H1 7358   3.141   3.900  17.419  1.9699  2.1771  0.0461
  491TMC3    H2 7359   3.344   3.717  17.730  1.3809  1.6068 -1.0437
  491TMC3    C7 7360   3.328   3.720  17.479  0.4932 -0.7700  0.0803
  491TMC3    C8 7361   3.210   3.846   0.170 -0.5348 -0.3869 -0.6504
  491TMC3    O1 7362   3.432   3.684  17.525 -0.3626 -0.0154  0.2975
  491TMC3    O2 7363   3.152   3.931   0.237 -0.2798  0.4374  0.2345
  492MPD2     C 7364   4.078   4.671  11.703 -0.0008 -0.5469 -0.5004
  492MPD2    C1 7365   4.003   4.600  11.618  0.5300  0.0793  0.6629
  492MPD2    C2 7366   3.900   4.524  11.665  0.5240 -0.1939 -0.0033
  492MPD2    C3 7367   3.878   4.515  11.799 -0.5182 -0.0858  0.7767
  492MPD2    C4 7368   3.960   4.581  11.886  0.2013 -0.3009  0.0791
  492MPD2    C5 7369   4.053   4.666  11.837  0.5045 -0.0615 -0.0988
  492MPD2     H 7370   3.842   4.471  11.590 -0.1086  0.2564  0.1715
  492MPD2    H1 7371   3.943   4.575  11.993 -3.2217  0.1500 -0.4375
  492MPD2    H2 7372   4.153   0.002  11.668  0.0522 -0.9867 -1.2687
  492MPD2    H3 7373   4.106   4.729  11.908  0.3729 -1.1915  0.9955
  492MPD2     N 7374   3.777   4.432  11.860 -0.3575  0.4498 -0.2590
  492MPD2    H5 7375   3.778   4.427  11.962 -2.7489 -2.4339 -0.3782
  492MPD2    N1 7376   4.023   4.622  11.484  0.2759 -0.5149 -0.5809
  492MPD2    H7 7377   4.085   4.699  11.460 -1.7644  1.0036 -0.9640
  493TMC3    C1 7378   3.994   4.601  11.247 -0.1253 -0.1918 -0.4966
  493TMC3    C2 7379   4.039   4.729  11.235  0.3799  0.0796  1.2651
  493TMC3    C3 7380   4.027   0.068  11.121  0.3621 -0.1384  0.0286
  493TMC3    C4 7381   3.934   4.542  11.138  0.0828 -0.0683 -0.0593
  493TMC3    C5 7382   3.935   4.609  11.023  0.7269 -0.7179 -0.0898
  493TMC3    C6 7383   3.974   0.003  11.006  0.8464  1.0343  0.4431
  493TMC3     C 7384   3.968   4.548  11.382 -0.0904 -0.1638 -0.5741
  493TMC3     O 7385   3.907   4.440  11.392  0.2912 -0.1837 -0.1120
  493TMC3     H 7386   4.067   0.044  11.325 -2.2442  0.7832  1.6685
  493TMC3    H1 7387   3.892   4.443  11.154  0.9862 -0.4550 -0.0786
  493TMC3    H2 7388   3.977   0.044  10.905 -0.7859  2.4312  0.9615
  493TMC3    C7 7389   3.840   4.563  10.915  0.4503 -0.3104 -0.0879
  493TMC3    C8 7390   4.052   0.212  11.127  0.6816 -0.1989 -0.1723
  493TMC3    O1 7391   3.868   4.597  10.800 -0.3725  0.7377  0.1402
  493TMC3    O2 7392   4.091   0.239  11.237  0.0865 -0.0735  0.6462
  494TMC3    C1 7393   4.224   1.956   0.562 -0.4584  0.7925 -0.8861
  494TMC3    C2 7394   4.200   1.828   0.587 -0.0880  0.5886  0.9057
  494TMC3    C3 7395   4.211   1.740   0.477  0.1684  0.7225 -0.0621
  494TMC3    C4 7396   4.287   2.005   0.455  0.0269 -0.6755  0.2340
  494TMC3    C5 7397   4.326   1.908   0.363  0.0943 -0.8492  0.0994
  494TMC3    C6 7398   4.290   1.775   0.369  1.4643  0.6456 -0.2814
  494TMC3     C 7399   4.175   2.047   0.660 -0.3769  0.5867 -0.8305
  494TMC3     O 7400   4.076   2.015   0.728 -0.5122 -0.1123  0.1612
  494TMC3     H 7401   4.160   1.796   0.682  0.3708  0.6672  1.1251
  494TMC3    H1 7402   4.278   2.111   0.433  0.3918 -1.4993 -3.9250
  494TMC3    H2 7403   4.311   1.700   0.293 -0.6443 -0.0445 -0.2057
  494TMC3    C7 7404   4.400   1.951   0.246 -0.2067 -0.3916  0.1091
  494TMC3    C8 7405   4.196   1.598   0.506 -0.1825  0.3255  0.0168
  494TMC3    O1 7406   4.404   1.867   0.155  0.0128  0.0335 -0.9077
  494TMC3    O2 7407   4.260   1.524   0.438 -0.2927 -0.0366  0.5519
  495TMC3    C1 7408   3.283   3.112  14.523 -0.0538 -0.2375 -0.4777
  495TMC3    C2 7409   3.195   3.129  14.424 -0.0085  0.2136 -0.4114
  495TMC3    C3 7410   3.122   3.238  14.420  0.1978 -0.6039 -0.1711
  495TMC3    C4 7411   3.289   3.197  14.631 -0.0257  0.1575  0.1604
  495TMC3    C5 7412   3.210   3.306  14.622  0.3023  0.0695  0.3435
  495TMC3    C6 7413   3.121   3.321  14.525  0.5252  0.5787  0.1966
  495TMC3     C 7414   3.281   2.974  14.576 -0.2090  0.7162 -0.2724
  495TMC3     O 7415   3.323   2.956  14.690  0.1492  0.0056  0.1398
  495TMC3     H 7416   3.202   3.069  14.334 -1.1504 -2.9200  1.5954
  495TMC3    H1 7417   3.355   3.174  14.713  0.7103  2.2107  0.1660
  495TMC3    H2 7418   3.059   3.410  14.523  1.0426  0.9157 -0.6854
  495TMC3    C7 7419   3.217   3.385  14.744 -0.5755  0.2919  0.1737
  495TMC3    C8 7420   2.986   3.226  14.358 -0.0731  0.3070  0.4498
  495TMC3    O1 7421   3.313   3.370  14.815 -0.4819 -0.2120  0.3059
  495TMC3    O2 7422   2.898   3.283  14.429 -0.4767 -0.1715 -0.3722
  496MPD2     C 7423   0.459   3.589  14.939  0.1332  0.2443  0.1433
  496MPD2    C1 7424   0.521   3.567  15.060  0.5827  0.3751 -0.0041
  496MPD2    C2 7425   0.442   3.585  15.176  0.4712  0.0486 -0.2482
  496MPD2    C3 7426   0.303   3.615  15.170 -0.5405  0.0305 -0.5646
  496MPD2    C4 7427   0.245   3.633  15.043 -0.2678  0.5247  0.3752
  496MPD2    C5 7428   0.322   3.607  14.928 -0.1550  0.0716  0.1231
  496MPD2     H 7429   0.489   3.556  15.269  0.3096 -0.5443 -0.3493
  496MPD2    H1 7430   0.138   3.642  15.029 -0.6304 -2.9133  0.8196
  496MPD2    H2 7431   0.518   3.555  14.854  0.4638 -0.9187  0.8279
  496MPD2    H3 7432   0.274   3.612  14.831  0.4714  1.0968 -0.1388
  496MPD2     N 7433   0.216   3.643  15.278  0.1378 -0.4964 -0.6778
  496MPD2    H5 7434   0.123   3.661  15.243  0.3320  0.4725 -0.6956
  496MPD2    N1 7435   0.653   3.520  15.045 -0.0346 -0.2465 -0.5164
  496MPD2    H7 7436   0.683   3.478  14.958 -0.6087 -0.5361 -0.5740
  497TMC3    C1 7437   0.146   3.690  15.498  0.5909 -0.9147 -0.4516
  497TMC3    C2 7438   0.027   3.719  15.441  0.2737  0.6286 -0.4193
  497TMC3    C3 7439   4.672   3.770  15.530 -0.3991  0.2554 -0.1987
  497TMC3    C4 7440   0.173   3.699  15.632  0.5783  0.0617 -0.0368
  497TMC3    C5 7441   0.071   3.734  15.716 -0.4016  0.7271  0.2371
  497TMC3    C6 7442   4.690   3.778  15.665  0.0348 -0.6564  0.5249
  497TMC3     C 7443   0.261   3.652  15.410 -0.3754  0.5089  0.3013
  497TMC3     O 7444   0.364   3.611  15.464  0.1418  0.8434  0.0987
  497TMC3     H 7445   4.736   3.716  15.337 -1.0614  0.4318 -0.0292
  497TMC3    H1 7446   0.272   3.669  15.665  1.5846  0.6939 -2.4638
  497TMC3    H2 7447   4.607   3.801  15.731 -0.5688  1.9106 -1.1313
  497TMC3    C7 7448   0.084   3.738  15.856 -0.3955  0.5362  0.4346
  497TMC3    C8 7449   4.580   3.874  15.479 -0.0446 -0.6829  0.2917
  497TMC3    O1 7450   0.001   3.812  15.908  0.3251 -0.2450 -0.2404
  497TMC3    O2 7451   4.533   3.848  15.371  0.3841  0.2129 -0.2765
  498MPD2     C 7452   0.903   4.350   9.311 -0.1548  0.2696  0.6511
  498MPD2    C1 7453   0.901   4.367   9.451  0.2965  0.4233 -0.5577
  498MPD2    C2 7454   0.888   4.259   9.540  0.1521  0.1379  0.2104
  498MPD2    C3 7455   0.873   4.131   9.496  0.8035 -1.0601  0.5838
  498MPD2    C4 7456   0.871   4.108   9.358  0.0505 -0.3112  0.2901
  498MPD2    C5 7457   0.891   4.219   9.276  0.1658  0.0464  0.0473
  498MPD2     H 7458   0.884   4.280   9.646  1.4052  0.3768  0.1990
  498MPD2    H1 7459   0.862   4.009   9.314 -0.2571  0.3664 -1.1556
  498MPD2    H2 7460   0.912   4.424   9.233  1.4880 -0.8124 -0.1852
  498MPD2    H3 7461   0.884   4.206   9.168  1.1232  0.8932 -0.1210
  498MPD2     N 7462   0.860   4.022   9.584 -1.0415 -0.3431 -0.6861
  498MPD2    H5 7463   0.871   4.043   9.683  0.7151 -1.0698 -0.7204
  498MPD2    N1 7464   0.921   4.498   9.508  0.1500  0.2437  0.8922
  498MPD2    H7 7465   0.941   4.505   9.607  1.4580 -0.2519  0.6733
  499TMC3    C1 7466   0.947   4.731   9.521  0.8584  0.3283 -0.4777
  499TMC3    C2 7467   0.940   4.719   9.655 -0.0227 -0.3215 -0.5603
  499TMC3    C3 7468   0.968   0.093   9.734 -0.7697 -0.4140  0.5000
  499TMC3    C4 7469   0.974   0.108   9.455 -0.4136 -0.2839  0.1341
  499TMC3    C5 7470   1.003   0.213   9.532 -0.0876 -0.7038  0.1211
  499TMC3    C6 7471   0.998   0.209   9.669 -0.2901  0.3584 -0.9201
  499TMC3     C 7472   0.927   4.611   9.435 -0.0605  0.0456  0.5461
  499TMC3     O 7473   0.906   4.629   9.318 -0.5191  0.2990 -0.0271
  499TMC3     H 7474   0.922   4.625   9.706 -2.4578  1.8398  2.5640
  499TMC3    H1 7475   0.977   0.117   9.347  0.6453  0.1114  0.1992
  499TMC3    H2 7476   0.983   0.306   9.715 -1.2087 -1.2061  2.1159
  499TMC3    C7 7477   1.081   0.323   9.472  0.4463  0.3352  0.0139
  499TMC3    C8 7478   1.002   0.079   9.871  0.0036  0.1669  0.3295
  499TMC3    O1 7479   1.156   0.379   9.549  0.0501 -0.1742  0.3342
  499TMC3    O2 7480   0.952   4.722   9.935  0.0786 -0.1924 -0.1150
  500MPD2     C 7481   2.804   0.521  10.633 -0.3222  0.1395  0.1950
  500MPD2    C1 7482   2.703   0.585  10.703 -0.6932 -1.0933 -0.2047
  500MPD2    C2 7483   2.568   0.562  10.666 -0.4077  0.6239 -0.6669
  500MPD2    C3 7484   2.529   0.474  10.567  0.3112  0.7019 -0.2609
  500MPD2    C4 7485   2.629   0.420  10.489  0.0230 -0.7344 -0.0474
  500MPD2    C5 7486   2.760   0.449  10.519  0.5497 -0.0650 -0.5162
  500MPD2     H 7487   2.499   0.633  10.710  0.0168  1.0822 -0.7411
  500MPD2    H1 7488   2.606   0.369  10.396  1.4044 -0.7140 -0.3921
  500MPD2    H2 7489   2.910   0.533  10.649  0.0985 -0.9535 -1.7363
  500MPD2    H3 7490   2.840   0.418  10.452  0.4866  0.7713 -0.9849
  500MPD2     N 7491   2.400   0.463  10.523 -0.2886 -0.7452  0.2458
  500MPD2    H5 7492   2.369   0.421  10.436 -0.9947 -0.4393  0.3475
  500MPD2    N1 7493   2.734   0.672  10.805 -0.4351 -0.2308 -0.9227
  500MPD2    H7 7494   2.662   0.722  10.856 -0.8233 -0.5341 -1.1744
  501TMC3    C1 7495   2.843   0.763  10.986 -0.5305 -0.3829  0.1917
  501TMC3    C2 7496   2.813   0.897  10.971 -0.1018  0.4569 -0.3184
  501TMC3    C3 7497   2.829   0.981  11.079  0.5469 -0.8325 -0.3022
  501TMC3    C4 7498   2.897   0.716  11.100  0.5239 -0.0686 -0.1295
  501TMC3    C5 7499   2.930   0.805  11.200 -0.6696 -0.8313  0.2581
  501TMC3    C6 7500   2.891   0.936  11.201 -0.1615 -1.0123  0.0002
  501TMC3     C 7501   2.857   0.686  10.869  0.3056  0.5709 -0.1669
  501TMC3     O 7502   2.946   0.606  10.867  0.6631  0.3082  0.3678
  501TMC3     H 7503   2.769   0.924  10.876  0.7835  1.1337 -0.5308
  501TMC3    H1 7504   2.935   0.615  11.098 -0.9711 -0.5933 -2.1861
  501TMC3    H2 7505   2.908   1.002  11.286 -0.6692 -1.1374  0.2019
  501TMC3    C7 7506   3.062   0.783  11.243 -0.0638  0.0199 -0.0036
  501TMC3    C8 7507   2.826   1.124  11.051 -0.9123  0.4008 -0.1052
  501TMC3    O1 7508   3.146   0.758  11.158 -0.0273 -0.2510 -0.2938
  501TMC3    O2 7509   2.906   1.193  11.119 -0.0197 -0.1678  0.9429
  502TMC3    C1 7510   2.683   4.367  14.966  0.4142  0.1681 -0.5374
  502TMC3    C2 7511   2.655   4.492  14.917 -0.4783  0.4971  0.0292
  502TMC3    C3 7512   2.537   4.549  14.955 -0.3439  0.4597  0.2022
  502TMC3    C4 7513   2.590   4.292  15.039 -0.3543 -0.0307  0.6086
  502TMC3    C5 7514   2.467   4.348  15.050 -0.1281 -0.4532  0.0011
  502TMC3    C6 7515   2.436   4.473  15.013  0.0084  0.3230  0.3408
  502TMC3     C 7516   2.816   4.340  15.012 -0.1303 -0.2924 -0.0740
  502TMC3     O 7517   2.913   4.387  14.950  0.7782  0.0505  0.3910
  502TMC3     H 7518   2.736   4.548  14.871  0.3973  0.2833  1.2993
  502TMC3    H1 7519   2.610   4.189  15.067 -0.9042 -0.2745  0.1000
  502TMC3    H2 7520   2.344   4.528  15.027 -0.9620 -0.9457 -1.0759
  502TMC3    C7 7521   2.379   4.274  15.139 -0.0446  0.0369  0.2359
  502TMC3    C8 7522   2.512   4.692  14.951 -0.4939 -0.1596 -0.6706
  502TMC3    O1 7523   2.439   4.187  15.204  0.1678 -0.5586 -0.1935
  502TMC3    O2 7524   2.429   4.728  15.037 -0.7682  0.0816  0.2064
  503MPD2     C 7525   4.687   0.486  16.940 -0.1570  0.2316  0.9446
  503MPD2    C1 7526   4.695   0.499  17.077  0.9797 -0.8265 -0.2888
  503MPD2    C2 7527   4.734   0.391  17.149  0.1736  0.0211 -0.4113
  503MPD2    C3 7528   0.042   0.277  17.086  0.5395  0.1785  0.2290
  503MPD2    C4 7529   0.025   0.255  16.951 -0.0586  0.0557  0.3293
  503MPD2    C5 7530   4.706   0.361  16.885  0.0733  0.0917  0.1445
  503MPD2     H 7531   0.009   0.394  17.256  1.1356 -1.4149 -0.4878
  503MPD2    H1 7532   0.051   0.161  16.904  0.5236 -0.0112  0.7867
  503MPD2    H2 7533   4.642   0.557  16.872 -0.4963  0.2618  1.1989
  503MPD2    H3 7534   4.670   0.342  16.784 -0.8280  0.2376  0.4425
  503MPD2     N 7535   0.105   0.182  17.172  0.6670  0.9502 -0.0898
  503MPD2    H5 7536   0.121   0.205  17.270 -0.2187  1.3899 -0.0546
  503MPD2    N1 7537   4.653   0.618  17.152  0.1338  0.4530  0.3046
  503MPD2    H7 7538   4.647   0.607  17.253 -2.5482  0.0687  0.1079
  504TMC3    C1 7539   0.266   0.012  17.218  0.3282 -0.6615  0.3331
  504TMC3    C2 7540   0.201   4.692  17.321  0.3083 -0.7606  0.1277
  504TMC3    C3 7541   0.263   4.587  17.382 -0.5500 -0.3667 -0.7008
  504TMC3    C4 7542   0.390   4.714  17.176 -0.3672  0.3437 -0.2279
  504TMC3    C5 7543   0.447   4.604  17.233 -0.6704  0.5719 -0.4984
  504TMC3    C6 7544   0.376   4.533  17.328 -0.2136 -0.2573  0.1385
  504TMC3     C 7545   0.191   0.088  17.119 -1.0687 -0.1112  0.1520
  504TMC3     O 7546   0.237   0.071  17.004 -0.2390 -0.4124  0.6237
  504TMC3     H 7547   0.097   4.717  17.335  0.5470  1.6312 -2.1498
  504TMC3    H1 7548   0.440   0.020  17.091 -0.4335 -0.8823 -0.9203
  504TMC3    H2 7549   0.405   4.430  17.346 -0.2060  0.1560  2.4456
  504TMC3    C7 7550   0.572   4.551  17.181 -0.0621 -0.8506 -0.1616
  504TMC3    C8 7551   0.176   4.496  17.440  0.5280  0.0605  0.0324
  504TMC3    O1 7552   0.637   4.630  17.114  0.0464  0.0114  0.4020
  504TMC3    O2 7553   0.055   4.503  17.413 -0.2390  0.2292  0.2902
  505MPD2     C 7554   0.450   3.990  10.857 -0.0427  0.7218  0.4159
  505MPD2    C1 7555   0.480   3.858  10.819  0.0013 -0.1228  0.5096
  505MPD2    C2 7556   0.614   3.816  10.824  1.0720 -0.2872 -0.7154
  505MPD2    C3 7557   0.713   3.898  10.863 -0.1193  0.6266  0.0373
  505MPD2    C4 7558   0.681   4.032  10.895 -0.5036  0.2856  0.1183
  505MPD2    C5 7559   0.547   4.077  10.891  0.3277 -0.2266  0.2238
  505MPD2     H 7560   0.651   3.716  10.802  1.9408 -0.5081  1.7795
  505MPD2    H1 7561   0.760   4.095  10.933  1.8295 -1.8501 -1.1482
  505MPD2    H2 7562   0.350   4.032  10.863 -0.0458  0.6859  0.6196
  505MPD2    H3 7563   0.513   4.172  10.929 -0.3541 -0.0313 -0.8718
  505MPD2     N 7564   0.843   3.843  10.882 -0.2128 -0.4834  0.3622
  505MPD2    H5 7565   0.848   3.742  10.879 -0.8407 -0.5298  0.8515
  505MPD2    N1 7566   0.380   3.778  10.783  0.4022  0.7115 -0.2558
  505MPD2    H7 7567   0.292   3.826  10.769  0.3482  0.9561  0.8785
  506TMC3    C1 7568   0.273   3.582  10.712 -0.0551  0.2096  0.2150
  506TMC3    C2 7569   0.217   3.646  10.601 -0.2778 -0.6128 -0.1723
  506TMC3    C3 7570   0.164   3.573  10.501 -0.6348  0.3525 -0.8193
  506TMC3    C4 7571   0.279   3.450  10.726  0.0624 -0.0971 -0.1996
  506TMC3    C5 7572   0.259   3.381  10.609 -0.2789 -0.1098  0.1541
  506TMC3    C6 7573   0.179   3.433  10.506  0.8466  0.3818  0.2802
  506TMC3     C 7574   0.394   3.640  10.768 -0.0600  0.1253 -0.2676
  506TMC3     O 7575   0.482   3.554  10.801 -0.2269  0.2519 -0.0440
  506TMC3     H 7576   0.207   3.753  10.588  0.5837 -0.2560  2.0863
  506TMC3    H1 7577   0.324   3.390  10.804  1.4242 -0.2429 -1.1056
  506TMC3    H2 7578   0.158   3.370  10.420  0.4714  0.1614  0.5305
  506TMC3    C7 7579   0.364   3.296  10.562 -0.1606  0.4711  0.5935
  506TMC3    C8 7580   0.163   3.640  10.372 -0.0806 -0.6039 -0.9945
  506TMC3    O1 7581   0.336   3.237  10.457  0.4605 -0.5639  0.1830
  506TMC3    O2 7582   0.226   3.746  10.366 -0.3782  0.1885 -0.1691
  507TMC3    C1 7583   0.868   4.481  15.166  1.1488 -0.0802 -0.2059
  507TMC3    C2 7584   0.820   4.417  15.055  0.1496 -0.1237 -0.0545
  507TMC3    C3 7585   0.852   4.475  14.941  0.6447 -0.0972 -0.1308
  507TMC3    C4 7586   0.946   4.595  15.167 -0.3098 -0.6078 -0.5454
  507TMC3    C5 7587   0.961   4.658  15.043  0.6589  0.4132  0.2491
  507TMC3    C6 7588   0.923   4.591  14.927 -0.5934  0.2235 -0.3041
  507TMC3     C 7589   0.864   4.425  15.302 -0.0528 -0.4019 -0.8722
  507TMC3     O 7590   0.919   4.491  15.393  0.4706 -0.2340 -0.1094
  507TMC3     H 7591   0.763   4.326  15.069  0.9979 -0.7086 -0.4012
  507TMC3    H1 7592   0.980   4.648  15.255 -0.8301 -1.7756  0.3635
  507TMC3    H2 7593   0.941   4.639  14.832 -0.3716  1.4470  0.3571
  507TMC3    C7 7594   0.930   0.061  15.036  0.3474  0.0564 -0.4528
  507TMC3    C8 7595   0.738   4.466  14.848  0.6484  0.0871 -0.2282
  507TMC3    O1 7596   0.843   0.084  14.948  0.1058  0.2962 -0.0264
  507TMC3    O2 7597   0.673   4.364  14.851 -0.3123 -0.4002  0.2409
  508MPD2     C 7598   2.215   1.694  15.665  0.0967 -0.5606  0.0808
  508MPD2    C1 7599   2.239   1.825  15.707  0.2047 -0.3880  0.5662
  508MPD2    C2 7600   2.256   1.927  15.615  0.4140 -0.1455 -0.4737
  508MPD2    C3 7601   2.246   1.895  15.479  0.0799  0.0766  0.2873
  508MPD2    C4 7602   2.208   1.770  15.433  0.1102 -0.2429  0.1465
  508MPD2    C5 7603   2.196   1.667  15.531 -0.1152  0.8829 -0.0141
  508MPD2     H 7604   2.276   2.032  15.632 -3.7463  0.7204 -0.7248
  508MPD2    H1 7605   2.181   1.751  15.330  1.1686 -0.9792  0.0155
  508MPD2    H2 7606   2.198   1.615  15.737  0.4622  0.2562  1.0523
  508MPD2    H3 7607   2.179   1.567  15.492  1.2987  1.6162 -2.4414
  508MPD2     N 7608   2.261   2.007  15.387 -0.0599  0.0375  0.5325
  508MPD2    H5 7609   2.269   2.098  15.430  0.1171  0.6586 -0.8158
  508MPD2    N1 7610   2.260   1.842  15.848  0.0863  0.9223  0.3745
  508MPD2    H7 7611   2.264   1.760  15.907  4.3564 -0.7766 -2.2977
  509TMC3    C1 7612   2.200   2.357  15.106  0.1884  0.1081 -0.3831
  509TMC3    C2 7613   2.247   2.434  15.205 -0.4823  0.3333  0.3059
  509TMC3    C3 7614   2.301   2.378  15.318  0.0929 -0.3059 -0.1148
  509TMC3    C4 7615   2.211   2.224  15.114  0.5350 -0.0205 -0.5284
  509TMC3    C5 7616   2.271   2.164  15.225  0.0515  0.1071 -0.3233
  509TMC3    C6 7617   2.313   2.243  15.323  0.2566 -0.0389  0.1894
  509TMC3     C 7618   2.080   2.402  15.034  0.0775 -0.2591  0.0904
  509TMC3     O 7619   2.038   2.321  14.949 -0.3810 -0.2055  0.4473
  509TMC3     H 7620   2.220   2.539  15.206 -3.0194 -0.3203  0.1409
  509TMC3    H1 7621   2.166   2.161  15.038  0.7213  0.5398 -1.1018
  509TMC3    H2 7622   2.385   2.217  15.400 -1.0825  0.0975  1.4858
  509TMC3    C7 7623   2.254   2.021  15.252 -0.4574 -0.7140 -0.0171
  509TMC3    C8 7624   2.266   2.439  15.449 -0.0010  0.2190  0.2500
  509TMC3    O1 7625   2.230   1.939  15.164 -0.8638 -0.9814  0.6459
  509TMC3    O2 7626   2.250   2.353  15.533 -0.3631 -0.4534  0.0592
  510MPD2     C 7627   4.267   3.651  14.411 -0.0254  0.0556 -0.6404
  510MPD2    C1 7628   4.352   3.606  14.510 -0.4502  0.8620  0.1987
  510MPD2    C2 7629   4.486   3.613  14.484  0.2499  0.2027 -0.2908
  510MPD2    C3 7630   4.532   3.678  14.377 -0.0871  0.5753 -0.1034
  510MPD2    C4 7631   4.449   3.715  14.277 -0.0122 -0.1504  0.7700
  510MPD2    C5 7632   4.313   3.691  14.289  0.6301 -0.5315 -0.5159
  510MPD2     H 7633   4.557   3.571  14.554  0.3990  1.9922  0.6110
  510MPD2    H1 7634   4.477   3.751  14.179  1.3649 -1.9305  0.5130
  510MPD2    H2 7635   4.160   3.643  14.424  0.3284 -1.1303  1.3827
  510MPD2    H3 7636   4.245   3.707  14.206 -1.3690 -1.0310  1.0167
  510MPD2     N 7637   4.673   3.689  14.362 -0.3987  0.4542 -0.0257
  510MPD2    H5 7638   4.716   3.630  14.432 -1.9121  0.5288  0.9721
  510MPD2    N1 7639   4.294   3.539  14.624  0.5823 -0.5604  0.1439
  510MPD2    H7 7640   4.203   3.495  14.616  0.2221 -0.2807  2.7580
  511TMC3    C1 7641   4.325   3.423  14.825 -0.3694 -0.5069 -0.2959
  511TMC3    C2 7642   4.339   3.439  14.956 -0.2990  0.1720 -0.1727
  511TMC3    C3 7643   4.298   3.337  15.035  0.0627  0.3712 -0.4943
  511TMC3    C4 7644   4.291   3.306  14.763 -0.7266 -0.7277  0.0652
  511TMC3    C5 7645   4.259   3.197  14.842 -0.0984  0.0959 -0.3214
  511TMC3    C6 7646   4.253   3.218  14.981 -0.2348 -0.0857 -0.6499
  511TMC3     C 7647   4.370   3.534  14.742 -0.5414  0.6865 -0.5506
  511TMC3     O 7648   4.470   3.596  14.774 -0.1488  0.4547  0.1081
  511TMC3     H 7649   4.365   3.538  14.992  0.1892 -0.0263  0.0096
  511TMC3    H1 7650   4.300   3.291  14.656  0.8905 -1.3360  0.2798
  511TMC3    H2 7651   4.210   3.138  15.041  0.0728 -0.1859 -0.5625
  511TMC3    C7 7652   4.183   3.091  14.782 -0.5778 -0.9001  0.0661
  511TMC3    C8 7653   4.261   3.360  15.176 -0.2386  0.3720 -0.2079
  511TMC3    O1 7654   4.185   3.098  14.658 -0.1781  0.2487 -0.1424
  511TMC3    O2 7655   4.249   3.479  15.200 -0.7702  0.0688  0.0663
  512TMC3    C1 7656   3.495   3.197  13.062 -0.4688  0.8825 -0.4931
  512TMC3    C2 7657   3.572   3.197  13.173 -0.2874 -0.3399 -0.0994
  512TMC3    C3 7658   3.669   3.099  13.182  0.3932  0.4465  0.2351
  512TMC3    C4 7659   3.518   3.121  12.952  0.0885  0.2622 -0.0389
  512TMC3    C5 7660   3.614   3.023  12.968 -0.4554  0.4427  0.5496
  512TMC3    C6 7661   3.690   3.009  13.077 -0.1085 -0.2750 -0.9017
  512TMC3     C 7662   3.373   3.260  13.084  0.2642  0.2713 -0.1914
  512TMC3     O 7663   3.350   3.296  13.201 -0.0879 -0.1529 -0.0207
  512TMC3     H 7664   3.569   3.281  13.241 -0.7320 -0.1427 -0.3639
  512TMC3    H1 7665   3.454   3.125  12.864  0.2840  1.6403 -0.1260
  512TMC3    H2 7666   3.770   2.936  13.075 -1.2331 -1.4965 -1.2589
  512TMC3    C7 7667   3.634   2.929  12.865 -0.2168  0.0437 -0.8271
  512TMC3    C8 7668   3.781   3.111  13.278 -0.6763  0.4979  0.3247
  512TMC3    O1 7669   3.610   2.964  12.752  0.1678 -0.5741 -0.4436
  512TMC3    O2 7670   3.875   3.037  13.266 -0.5723  0.2202  0.3315
  513MPD2     C 7671   0.586   3.668  12.984  0.0131  0.9385 -0.0468
  513MPD2    C1 7672   0.605   3.538  12.944  0.0665 -0.0232 -0.0793
  513MPD2    C2 7673   0.637   3.434  13.031 -0.0931 -0.6194 -0.1177
  513MPD2    C3 7674   0.657   3.461  13.164  0.4710  0.2335 -0.5308
  513MPD2    C4 7675   0.645   3.591  13.200  0.2755 -0.1398 -0.0490
  513MPD2    C5 7676   0.603   3.689  13.117  0.2780  0.2842  0.4389
  513MPD2     H 7677   0.660   3.335  12.993  1.9508  0.3518 -1.3917
  513MPD2    H1 7678   0.667   3.623  13.302 -0.1147 -0.3012  0.0884
  513MPD2    H2 7679   0.564   3.755  12.925 -3.4360  0.3158  0.3357
  513MPD2    H3 7680   0.604   3.788  13.161 -1.7042  0.0965  0.8832
  513MPD2     N 7681   0.697   3.352  13.247 -0.1713 -0.3328  0.3666
  513MPD2    H5 7682   0.708   3.266  13.195 -0.5190 -0.8256  1.1126
  513MPD2    N1 7683   0.609   3.498  12.808  0.0586  0.5619 -0.1500
  513MPD2    H7 7684   0.632   3.402  12.785  0.3387  0.9676 -1.5731
  514TMC3    C1 7685   0.607   3.514  12.573 -0.3746 -0.1869  0.1619
  514TMC3    C2 7686   0.702   3.590  12.510 -0.6019  0.0144 -0.3484
  514TMC3    C3 7687   0.807   3.526  12.446 -0.6268 -0.4007 -0.1060
  514TMC3    C4 7688   0.626   3.379  12.583 -0.1250  0.9330  0.1860
  514TMC3    C5 7689   0.749   3.324  12.550 -0.2705  0.0299 -0.2291
  514TMC3    C6 7690   0.841   3.394  12.476 -0.0381 -0.0322 -0.0724
  514TMC3     C 7691   0.578   3.579  12.698  0.4624 -0.9811 -0.4348
  514TMC3     O 7692   0.553   3.698  12.695 -0.6706  0.4077  0.6249
  514TMC3     H 7693   0.691   3.698  12.512  0.7419  0.1108  1.1025
  514TMC3    H1 7694   0.555   3.317  12.637 -0.1739 -0.7452 -1.7700
  514TMC3    H2 7695   0.926   3.342  12.433 -0.2333  1.3267 -2.1120
  514TMC3    C7 7696   0.800   3.238  12.658 -0.3569  0.0561 -0.0578
  514TMC3    C8 7697   0.862   3.584  12.329  0.1851  0.6406 -0.1474
  514TMC3    O1 7698   0.732   3.232  12.758  0.7764 -0.9234 -0.1070
  514TMC3    O2 7699   0.959   3.531  12.269  0.2129 -0.3301 -0.0913
  515MPD2     C 7700   3.448   0.025  14.700  0.4368  0.3526  0.5548
  515MPD2    C1 7701   3.413   4.634  14.735  0.4058 -0.6162  0.1442
  515MPD2    C2 7702   3.380   4.605  14.865  0.5475 -0.4548 -0.1439
  515MPD2    C3 7703   3.370   4.709  14.958  0.3737  0.1734  0.2198
  515MPD2    C4 7704   3.385   0.105  14.924 -0.0022  0.6226 -0.1189
  515MPD2    C5 7705   3.428   0.125  14.792 -0.0471 -0.7019  1.1623
  515MPD2     H 7706   3.341   4.509  14.895  0.1360 -0.4402 -0.6309
  515MPD2    H1 7707   3.370   0.196  14.980 -0.6785  1.1512 -1.1761
  515MPD2    H2 7708   3.492   0.056  14.605  0.7891 -0.9207  0.3012
  515MPD2    H3 7709   3.468   0.220  14.760  2.5415 -1.7622  1.1981
  515MPD2     N 7710   3.328   4.686  15.091  0.5334  0.5861 -0.4313
  515MPD2    H5 7711   3.328   0.034  15.145 -1.0673 -0.1244  0.7211
  515MPD2    N1 7712   3.395   4.532  14.643  0.3263 -0.1967  0.2019
  515MPD2    H7 7713   3.376   4.440  14.682  1.4124  0.4120  2.1782
  516TMC3    C1 7714   3.342   4.451  14.419  0.1867 -0.6812 -0.0985
  516TMC3    C2 7715   3.252   4.496  14.328  0.0157 -0.2761  0.6898
  516TMC3    C3 7716   3.156   4.407  14.283  0.4149  0.0603  0.1950
  516TMC3    C4 7717   3.335   4.324  14.466  0.1753  0.0491  0.2940
  516TMC3    C5 7718   3.241   4.242  14.412  0.3117 -0.5948  0.1332
  516TMC3    C6 7719   3.150   4.273  14.319 -0.0196 -0.1251  0.2819
  516TMC3     C 7720   3.393   4.558  14.504  0.3888 -0.5747 -0.4222
  516TMC3     O 7721   3.392   4.668  14.452  0.0450  0.1193 -0.1044
  516TMC3     H 7722   3.247   4.603  14.313  1.5630 -0.4246 -0.7840
  516TMC3    H1 7723   3.409   4.293  14.539  0.5030 -0.9495 -0.4621
  516TMC3    H2 7724   3.068   4.210  14.285 -1.1570  2.0305 -0.9651
  516TMC3    C7 7725   3.239   4.103  14.468 -0.0623  0.6331 -0.3073
  516TMC3    C8 7726   3.044   4.458  14.210  0.0506 -0.7177 -0.0902
  516TMC3    O1 7727   3.343   4.040  14.462  0.0697  0.2454  0.3931
  516TMC3    O2 7728   2.941   4.393  14.231  0.1380  0.4978  0.4976
  517MPD2     C 7729   2.822   1.778  17.524  0.2909 -0.3938 -0.5601
  517MPD2    C1 7730   2.932   1.732  17.594 -0.4197  0.3239 -0.4796
  517MPD2    C2 7731   2.979   1.822  17.690  0.1366  0.3906  0.2966
  517MPD2    C3 7732   2.926   1.952  17.716 -0.6544  0.3356  0.1619
  517MPD2    C4 7733   2.821   1.989  17.631 -0.3075 -0.6551 -0.9699
  517MPD2    C5 7734   2.765   1.905  17.545  0.9357  0.5807  0.1235
  517MPD2     H 7735   3.057   1.771  17.746  0.6355  0.5892 -0.2103
  517MPD2    H1 7736   2.775   2.087  17.634 -0.7268 -0.8997  0.7054
  517MPD2    H2 7737   2.779   1.722  17.442  0.4430  1.0596 -1.6322
  517MPD2    H3 7738   2.675   1.923  17.488  1.7094 -0.6517 -1.5321
  517MPD2     N 7739   2.974   2.044   0.064  0.5851  0.0423  0.0075
  517MPD2    H5 7740   2.922   2.130   0.078 -1.5891 -1.1388 -0.8245
  517MPD2    N1 7741   2.988   1.596  17.593  0.0998  0.5201  0.2656
  517MPD2    H7 7742   3.059   1.575  17.663  0.4793  0.1862 -0.2199
  518TMC3    C1 7743   3.014   1.376  17.535  0.1281  0.1078 -0.2360
  518TMC3    C2 7744   2.946   1.260  17.507 -0.4127  0.2926 -0.2548
  518TMC3    C3 7745   3.011   1.155  17.454 -0.5296 -0.0216 -0.1671
  518TMC3    C4 7746   3.153   1.388  17.521 -0.6068  0.1671 -0.3409
  518TMC3    C5 7747   3.211   1.287  17.462 -0.1028  0.2710 -0.4106
  518TMC3    C6 7748   3.147   1.169  17.433  0.3436  0.1485 -0.2610
  518TMC3     C 7749   2.946   1.498  17.510  0.6533 -0.0937  0.5478
  518TMC3     O 7750   2.841   1.495  17.443 -0.6222 -0.0734 -0.1630
  518TMC3     H 7751   2.839   1.251  17.520 -0.1231 -0.5743  1.4980
  518TMC3    H1 7752   3.213   1.474  17.547 -0.5425 -0.5031  1.7691
  518TMC3    H2 7753   3.187   1.074  17.401  1.1561  0.4186 -0.0408
  518TMC3    C7 7754   3.355   1.268  17.468 -0.2816  0.3503 -0.1391
  518TMC3    C8 7755   2.950   1.024  17.445  0.7122 -0.2658  0.6930
  518TMC3    O1 7756   3.418   1.325  17.559 -0.6879 -0.7444 -0.0661
  518TMC3    O2 7757   2.989   0.947  17.357  0.5790  0.6006  0.0641
  519MPD2     C 7758   0.295   0.046  14.450 -0.1883  0.1862  0.0694
  519MPD2    C1 7759   0.237   0.089  14.332  0.3123  1.1665  0.1761
  519MPD2    C2 7760   0.303   0.067  14.210 -0.0537  0.1004  0.4365
  519MPD2    C3 7761   0.424   4.736  14.213  0.0843 -0.1355 -0.1300
  519MPD2    C4 7762   0.480   4.699  14.331 -0.1609  0.0380 -0.9437
  519MPD2    C5 7763   0.415   4.719  14.449 -0.7798 -0.1143  0.0082
  519MPD2     H 7764   0.263   0.104  14.115  1.0414  1.3817  0.4800
  519MPD2    H1 7765   0.579   4.654  14.330  0.0693  0.5357 -0.2059
  519MPD2    H2 7766   0.248   0.070  14.545  1.2409 -0.1728  0.8590
  519MPD2    H3 7767   0.461   4.697  14.544  0.3621  1.0157 -0.2789
  519MPD2     N 7768   0.492   4.703  14.087  0.2045  0.2454  0.3727
  519MPD2    H5 7769   0.577   4.650  14.100 -0.5235 -0.8805  0.5314
  519MPD2    N1 7770   0.110   0.150  14.340  0.7994 -0.8118 -0.3844
  519MPD2    H7 7771   0.067   0.152  14.432 -2.1584 -1.8559 -1.7410
  520TMC3    C1 7772   0.528   4.658  13.855  0.7259  0.2384  0.5677
  520TMC3    C2 7773   0.496   4.689  13.725  0.1138  0.4897  0.1484
  520TMC3    C3 7774   0.562   4.630  13.627  0.8072 -0.4751  0.2014
  520TMC3    C4 7775   0.624   4.564  13.880  0.2826 -0.6548  0.2937
  520TMC3    C5 7776   0.673   4.489  13.776 -0.2551  0.1657  0.3690
  520TMC3    C6 7777   0.640   4.523  13.645 -0.4783  0.4986  0.0662
  520TMC3     C 7778   0.442   4.711  13.957  0.8175  0.2766 -0.2916
  520TMC3     O 7779   0.339   0.028  13.913  0.0088  0.0429 -0.0657
  520TMC3     H 7780   0.430   0.031  13.698 -0.4677 -0.2329 -0.5531
  520TMC3    H1 7781   0.639   4.532  13.982 -1.6812  0.7421  1.0238
  520TMC3    H2 7782   0.683   4.485  13.553 -1.5563  2.1004 -1.0864
  520TMC3    C7 7783   0.735   4.365  13.802 -0.3291 -0.2636 -0.5715
  520TMC3    C8 7784   0.477   4.612  13.507 -0.1310 -0.6207 -0.9012
  520TMC3    O1 7785   0.763   4.327  13.916  0.3818 -0.0473  0.3162
  520TMC3    O2 7786   0.533   4.603  13.397 -0.1324  0.3177 -0.3873
  521MPD2     C 7787   1.297   2.307  17.619 -0.2031  0.2964  0.2850
  521MPD2    C1 7788   1.226   2.367  17.516 -0.3914  0.3706 -0.5865
  521MPD2    C2 7789   1.277   2.368  17.385 -0.4861 -0.8692 -0.1987
  521MPD2    C3 7790   1.402   2.312  17.361  1.3280 -0.1510 -0.6377
  521MPD2    C4 7791   1.463   2.241  17.466  0.1437  0.2992 -0.3364
  521MPD2    C5 7792   1.408   2.234  17.587  0.1492 -0.4153 -0.2314
  521MPD2     H 7793   1.228   2.412  17.299  1.8592 -2.0005 -2.1097
  521MPD2    H1 7794   1.556   2.187  17.453 -0.2842 -0.2189 -1.2769
  521MPD2    H2 7795   1.251   2.288  17.716 -1.2220  3.5264  0.4226
  521MPD2    H3 7796   1.441   2.163  17.662 -1.2918  1.4239  2.1435
  521MPD2     N 7797   1.447   2.317  17.231  0.9373  0.4905 -0.2879
  521MPD2    H5 7798   1.381   2.356  17.164 -0.4862  1.6602  1.7702
  521MPD2    N1 7799   1.093   2.420  17.540 -0.1609  0.2148 -0.0389
  521MPD2    H7 7800   1.062   2.416  17.637 -0.1768 -1.8345 -0.1318
  522TMC3    C1 7801   1.572   2.262  17.046 -0.4661 -0.5235 -0.1702
  522TMC3    C2 7802   1.673   2.331  16.977  0.1914 -0.5403  0.3455
  522TMC3    C3 7803   1.651   2.344  16.844 -1.4676 -0.0160 -0.2119
  522TMC3    C4 7804   1.456   2.200  16.994 -0.3994  0.2601  0.0491
  522TMC3    C5 7805   1.436   2.225  16.858  0.6787  0.5931  0.0424
  522TMC3    C6 7806   1.537   2.285  16.787  0.3146 -0.2973 -0.1849
  522TMC3     C 7807   1.575   2.284  17.190  0.2112  0.1571  0.2068
  522TMC3     O 7808   1.678   2.283  17.253 -0.0825 -0.0927  0.1154
  522TMC3     H 7809   1.757   2.378  17.026 -0.0661  0.8109 -0.4910
  522TMC3    H1 7810   1.382   2.155  17.058 -0.9073  1.3357  0.2242
  522TMC3    H2 7811   1.533   2.286  16.679 -1.1873 -1.6662 -0.1219
  522TMC3    C7 7812   1.331   2.156  16.787 -0.2564  0.7245 -0.2050
  522TMC3    C8 7813   1.758   2.404  16.760  0.4306 -0.2187 -0.2072
  522TMC3    O1 7814   1.296   2.050  16.832 -0.5029  0.6228 -0.5573
  522TMC3    O2 7815   1.816   2.499  16.807  0.4507 -0.6105 -0.1762
  523MPD2     C 7816   3.038   2.306   9.556 -0.3441 -0.3234  0.1711
  523MPD2    C1 7817   3.046   2.370   9.677 -0.0702  0.7346  0.5736
  523MPD2    C2 7818   3.057   2.509   9.679 -0.7811 -0.1217  0.5893
  523MPD2    C3 7819   3.077   2.583   9.563  0.3410  0.2693  0.2893
  523MPD2    C4 7820   3.084   2.521   9.445 -0.1687 -0.2521 -0.1483
  523MPD2    C5 7821   3.052   2.387   9.440  0.1295 -0.2389 -0.3067
  523MPD2     H 7822   3.057   2.566   9.771  1.9041  1.2296 -0.2283
  523MPD2    H1 7823   3.107   2.560   9.347 -0.3948  0.2419 -0.0057
  523MPD2    H2 7824   3.037   2.198   9.549  0.6629 -0.3352  0.3152
  523MPD2    H3 7825   3.052   2.331   9.347 -3.0994 -1.4404  0.4399
  523MPD2     N 7826   3.105   2.722   9.552 -0.0039 -0.7302 -0.3947
  523MPD2    H5 7827   3.117   2.767   9.462 -0.4760  0.2134  0.0195
  523MPD2    N1 7828   3.066   2.287   9.790 -0.5244  0.1612  0.6362
  523MPD2    H7 7829   3.071   2.186   9.783 -0.2957  0.2049  0.1615
  524TMC3    C1 7830   3.137   2.948   9.625 -0.7267  0.4992 -1.2785
  524TMC3    C2 7831   3.211   2.994   9.516  0.0330  0.0316 -0.1463
  524TMC3    C3 7832   3.272   3.117   9.525  0.1890  0.2432 -0.0863
  524TMC3    C4 7833   3.105   3.033   9.728 -0.8189  0.2436  0.3633
  524TMC3    C5 7834   3.157   3.157   9.726  0.4163  0.4570  0.3667
  524TMC3    C6 7835   3.239   3.197   9.624  0.1661 -0.8412 -0.3187
  524TMC3     C 7836   3.111   2.809   9.658 -0.0187 -0.0877  0.1884
  524TMC3     O 7837   3.108   2.787   9.780 -0.8354  0.2309 -0.3113
  524TMC3     H 7838   3.263   2.914   9.465 -2.0786 -2.4900  1.6369
  524TMC3    H1 7839   3.044   2.999   9.811 -0.9929  1.1707  0.6103
  524TMC3    H2 7840   3.285   3.296   9.626  2.0619 -1.6965 -1.6736
  524TMC3    C7 7841   3.132   3.234   9.845 -0.5618  0.3275 -0.3801
  524TMC3    C8 7842   3.367   3.140   9.416 -0.0442 -0.1482  0.1941
  524TMC3    O1 7843   3.134   3.169   9.949 -0.2161  0.1279  0.2696
  524TMC3    O2 7844   3.357   3.063   9.321  0.5047  0.1728 -0.1196
  525MPD2     C 7845   1.488   4.303  14.334 -0.2664 -0.2471 -0.0986
  525MPD2    C1 7846   1.572   4.262  14.434 -0.2247  0.0167  0.3191
  525MPD2    C2 7847   1.667   4.353  14.475 -0.2838  0.7417  0.1694
  525MPD2    C3 7848   1.677   4.481  14.416 -0.2417 -0.2412 -0.3819
  525MPD2    C4 7849   1.571   4.526  14.342  0.5312  0.0939  0.2719
  525MPD2    C5 7850   1.488   4.434  14.298  0.0126 -0.0746 -0.3450
  525MPD2     H 7851   1.738   4.320  14.550 -2.5898 -0.8471  1.6248
  525MPD2    H1 7852   1.560   4.624  14.298  0.5826  0.1038  0.2811
  525MPD2    H2 7853   1.411   4.236  14.301 -1.6717  1.2673  0.1095
  525MPD2    H3 7854   1.409   4.469  14.233 -0.7735 -1.3693 -0.0846
  525MPD2     N 7855   1.781   4.569  14.446 -0.4009 -0.1509  0.7726
  525MPD2    H5 7856   1.777   4.666  14.418  1.4009 -0.7221 -1.4619
  525MPD2    N1 7857   1.583   4.133  14.483 -0.0708  0.1556 -0.5192
  525MPD2    H7 7858   1.665   4.116  14.540 -0.3014  2.7903  0.6180
  526TMC3    C1 7859   1.535   3.933  14.563  0.0285 -0.8955  0.7633
  526TMC3    C2 7860   1.444   3.902  14.661 -0.0330  0.5661  0.7814
  526TMC3    C3 7861   1.491   3.846  14.778  0.4777 -0.4723  0.2917
  526TMC3    C4 7862   1.669   3.907  14.577 -0.3657 -0.6941  0.5307
  526TMC3    C5 7863   1.713   3.856  14.702  0.2401  0.1717  0.1045
  526TMC3    C6 7864   1.626   3.821  14.802 -0.2884 -0.1268  0.5177
  526TMC3     C 7865   1.492   4.034  14.476 -0.2679 -0.4548 -0.1074
  526TMC3     O 7866   1.372   4.053  14.460  0.1154 -0.0400 -0.1955
  526TMC3     H 7867   1.339   3.926  14.649  0.2235  1.1032 -0.4530
  526TMC3    H1 7868   1.730   3.913  14.487  0.1439  1.2859  0.9908
  526TMC3    H2 7869   1.675   3.790  14.893 -3.2390 -0.1519  2.0846
  526TMC3    C7 7870   1.851   3.804  14.708  0.1195 -0.0112  0.0745
  526TMC3    C8 7871   1.400   3.827  14.884 -0.5940  0.1023  0.6494
  526TMC3    O1 7872   1.880   3.720  14.791 -0.1718 -0.3166  0.4478
  526TMC3    O2 7873   1.452   3.822  14.991 -0.3277  0.4179 -0.2115
  527MPD2     C 7874   0.403   2.944   0.555 -0.0549  0.4040  0.4238
  527MPD2    C1 7875   0.304   2.863   0.598 -0.5721  0.3817  0.0934
  527MPD2    C2 7876   0.320   2.726   0.594 -0.1303 -0.2602  0.7569
  527MPD2    C3 7877   0.441   2.672   0.556 -0.0850  0.2900 -0.7894
  527MPD2    C4 7878   0.551   2.754   0.523  0.0712 -0.1475  0.2401
  527MPD2    C5 7879   0.521   2.886   0.508 -0.6655 -0.1475 -0.0862
  527MPD2     H 7880   0.235   2.669   0.632 -2.4507  0.2585 -3.5230
  527MPD2    H1 7881   0.637   2.703   0.482  1.4192  0.6436  2.0627
  527MPD2    H2 7882   0.383   3.050   0.552 -1.0300  0.2345  0.9475
  527MPD2    H3 7883   0.603   2.950   0.476  1.2751 -2.4229  0.3667
  527MPD2     N 7884   0.451   2.535   0.568 -0.5735 -0.2453  0.1774
  527MPD2    H5 7885   0.371   2.496   0.618  2.1242 -2.3501  2.8761
  527MPD2    N1 7886   0.174   2.905   0.644 -0.3490  0.3304 -0.4843
  527MPD2    H7 7887   0.110   2.827   0.662  0.6372 -0.5371 -0.7196
  528TMC3    C1 7888   4.731   3.033   0.709  0.5754 -0.4645  0.5143
  528TMC3    C2 7889   4.718   3.122   0.816 -0.1535 -0.1697 -0.6943
  528TMC3    C3 7890   4.605   3.108   0.890  0.5068  0.1378  0.2861
  528TMC3    C4 7891   4.630   2.948   0.662 -0.1691 -0.0008  0.2279
  528TMC3    C5 7892   4.514   2.953   0.732  0.0444 -0.0672 -0.4588
  528TMC3    C6 7893   4.497   3.030   0.851 -0.0675 -0.3963 -0.5542
  528TMC3     C 7894   0.126   3.034   0.657  1.0309 -0.4671  0.3242
  528TMC3     O 7895   0.181   3.139   0.634  0.0775 -1.0699  0.0669
  528TMC3     H 7896   0.067   3.180   0.843  0.8859 -1.6260 -0.8804
  528TMC3    H1 7897   4.632   2.900   0.564  0.9321 -2.2552  1.3553
  528TMC3    H2 7898   4.421   3.013   0.926  1.5001 -0.7566  0.9589
  528TMC3    C7 7899   4.405   2.865   0.694 -0.3882  0.2170 -0.1387
  528TMC3    C8 7900   4.612   3.138   1.033 -0.1781  0.2248 -0.6211
  528TMC3    O1 7901   4.291   2.899   0.726 -0.0518  0.2372  0.3304
  528TMC3    O2 7902   4.669   3.240   1.066  0.8906 -0.4399  0.4901
  529MPD2     C 7903   2.044   4.731   0.180  0.3093  0.0794  0.2244
  529MPD2    C1 7904   2.094   0.097   0.260 -0.3200  0.5475  1.1552
  529MPD2    C2 7905   2.100   0.224   0.209 -1.0014  0.2325 -0.2532
  529MPD2    C3 7906   2.040   0.251   0.088 -0.9572  0.2890 -0.0941
  529MPD2    C4 7907   1.996   0.146   0.011  0.0562 -0.3258  0.0806
  529MPD2    C5 7908   2.002   0.015   0.051 -0.0454 -0.2784 -0.2462
  529MPD2     H 7909   2.158   0.299   0.262 -2.1172  0.0801  1.1809
  529MPD2    H1 7910   1.959   0.168  17.665 -2.2194 -0.9819  0.7673
  529MPD2    H2 7911   2.059   4.625   0.201  1.0189 -0.2731 -2.0934
  529MPD2    H3 7912   1.979   4.673  17.737 -0.4351  0.3633 -0.8811
  529MPD2     N 7913   2.037   0.381   0.029 -0.5488  0.0402 -0.0746
  529MPD2    H5 7914   2.000   0.383  17.688  0.6278 -2.4158 -0.5964
  529MPD2    N1 7915   2.134   0.071   0.392  0.1971 -0.0249 -0.0726
  529MPD2    H7 7916   2.175   0.153   0.435 -0.1515 -0.1035  0.4099
  530TMC3    C1 7917   2.143   4.699   0.597 -0.0201 -0.0763  0.0936
  530TMC3    C2 7918   2.254   0.034   0.618 -0.4301  0.8123 -0.0383
  530TMC3    C3 7919   2.296   0.045   0.751 -0.0373  0.3414  0.6277
  530TMC3    C4 7920   2.065   4.646   0.695 -0.3976  1.3461  0.4733
  530TMC3    C5 7921   2.103   4.671   0.826 -0.1255  0.8264  0.8207
  530TMC3    C6 7922   2.221   4.726   0.854 -0.0557 -0.8005  0.2836
  530TMC3     C 7923   2.098   4.697   0.462  0.1276 -0.5141  0.1887
  530TMC3     O 7924   2.019   4.608   0.436  0.3985 -0.2030  0.6161
  530TMC3     H 7925   2.322   0.064   0.539 -0.0326 -0.0232 -0.0084
  530TMC3    H1 7926   1.972   4.598   0.668  1.4078 -1.6439 -0.4616
  530TMC3    H2 7927   2.247   0.014   0.956  1.7914  0.1887 -0.4545
  530TMC3    C7 7928   2.023   4.622   0.938 -0.3043 -0.8153 -0.3223
  530TMC3    C8 7929   2.412   0.126   0.788  0.5636 -0.3815 -0.0226
  530TMC3    O1 7930   2.083   4.606   1.040 -0.2192  0.0003 -0.3717
  530TMC3    O2 7931   2.449   0.202   0.700 -0.4192  0.2182 -0.6605
  531MPD2     C 7932   1.126   2.944  12.913  0.4637  0.5740 -0.3223
  531MPD2    C1 7933   1.021   3.017  12.953  0.1276  0.1400 -0.8087
  531MPD2    C2 7934   0.957   3.102  12.865  0.4339 -0.7092  0.4907
  531MPD2    C3 7935   0.992   3.104  12.731  0.6336  0.6713  0.2048
  531MPD2    C4 7936   1.105   3.035  12.692 -0.2861  0.8288  0.3132
  531MPD2    C5 7937   1.165   2.956  12.784  0.6087  0.0834 -0.8637
  531MPD2     H 7938   0.883   3.172  12.900  0.3935 -0.8337  0.6561
  531MPD2    H1 7939   1.137   3.049  12.590 -2.1498  1.2940 -0.2138
  531MPD2    H2 7940   1.185   2.891  12.988  0.5751 -2.0515 -2.2574
  531MPD2    H3 7941   1.242   2.888  12.751  0.6257 -0.6096  0.5898
  531MPD2     N 7942   0.921   3.180  12.637 -0.5831 -0.0042  0.1972
  531MPD2    H5 7943   0.958   3.191  12.543  1.3739  1.0569  1.1026
  531MPD2    N1 7944   0.978   3.002  13.090 -0.3882 -0.1162  0.2758
  531MPD2    H7 7945   1.038   2.941  13.145 -0.6458 -0.5705  0.0572
  532TMC3    C1 7946   0.872   3.065  13.295  0.3192  0.1274  0.2256
  532TMC3    C2 7947   0.758   3.130  13.329 -0.0139  0.0126  0.4023
  532TMC3    C3 7948   0.783   3.234  13.413  0.1983 -0.0458  0.0022
  532TMC3    C4 7949   0.987   3.070  13.369  0.2548  0.4517 -0.5199
  532TMC3    C5 7950   0.997   3.165  13.462  0.5022  0.6029  0.0378
  532TMC3    C6 7951   0.902   3.254  13.482 -0.0564  0.4936 -0.4252
  532TMC3     C 7952   0.871   3.059  13.146 -0.3010 -0.0182  0.4163
  532TMC3     O 7953   0.780   3.130  13.089 -0.7706  0.2875  0.0456
  532TMC3     H 7954   0.662   3.094  13.291 -0.0876  0.4140  0.2096
  532TMC3    H1 7955   1.075   3.016  13.335  1.3651  0.8427  1.7147
  532TMC3    H2 7956   0.926   3.339  13.544  2.1772 -0.3698 -0.0877
  532TMC3    C7 7957   1.097   3.151  13.567 -0.5440  0.6655  0.3229
  532TMC3    C8 7958   0.732   3.361  13.377  0.1929 -0.2396 -0.1642
  532TMC3    O1 7959   1.122   3.248  13.632  0.1048 -0.0403 -0.8276
  532TMC3    O2 7960   0.725   3.451  13.455  0.7475 -0.3341  0.4054
  533TMC3    C1 7961   1.985   4.636  14.534 -0.3886 -0.2888 -1.1571
  533TMC3    C2 7962   2.116   4.610  14.555  0.1191  0.4792 -0.4351
  533TMC3    C3 7963   2.185   4.682  14.640 -0.2476  0.4239  0.3605
  533TMC3    C4 7964   1.925   4.736  14.605  0.3163  0.1485  0.0956
  533TMC3    C5 7965   2.002   0.077  14.691  0.2137 -0.6745  0.3745
  533TMC3    C6 7966   2.136   0.041  14.712 -0.0053 -1.0958 -0.6510
  533TMC3     C 7967   1.907   4.525  14.491  0.1121  0.3369 -0.0611
  533TMC3     O 7968   1.950   4.413  14.519 -0.0862 -0.0273 -0.2865
  533TMC3     H 7969   2.164   4.519  14.521  0.5736 -0.3923  2.4825
  533TMC3    H1 7970   1.819   0.016  14.602  0.5394  1.3624 -0.4363
  533TMC3    H2 7971   2.191   0.090  14.792 -1.6170 -1.5367  0.7216
  533TMC3    C7 7972   1.934   0.090  14.819 -0.7223  0.5313 -0.3796
  533TMC3    C8 7973   2.325   4.692  14.606  0.2748 -0.6032  0.1944
  533TMC3    O1 7974   1.982   0.019  14.911 -0.7022  0.4384 -0.4678
  533TMC3    O2 7975   2.379   0.062  14.602  0.8718  0.0761  0.3711
  534MPD2     C 7976   4.203   1.234   1.574  0.8493 -0.2966  0.7262
  534MPD2    C1 7977   4.208   1.203   1.446 -0.1540  0.0689  0.1033
  534MPD2    C2 7978   4.230   1.070   1.410 -0.0396  0.4457 -0.0487
  534MPD2    C3 7979   4.247   0.973   1.500  0.4694  0.4803 -0.2294
  534MPD2    C4 7980   4.242   1.009   1.635 -0.3700  0.1074 -0.2550
  534MPD2    C5 7981   4.206   1.141   1.676  0.1826  0.0076 -0.0595
  534MPD2     H 7982   4.212   1.055   1.304 -0.8765  0.3463  0.1091
  534MPD2    H1 7983   4.269   0.934   1.709 -0.2175  2.5853  2.1870
  534MPD2    H2 7984   4.202   1.339   1.600  1.0094  0.2048 -1.3365
  534MPD2    H3 7985   4.202   1.169   1.781  1.2098  0.2629 -0.0881
  534MPD2     N 7986   4.283   0.842   1.473  0.4335  0.5348 -0.3565
  534MPD2    H5 7987   4.321   0.793   1.553 -0.4432  0.4932  0.0380
  534MPD2    N1 7988   4.196   1.306   1.355  0.3146 -0.4303  0.3475
  534MPD2    H7 7989   4.155   1.393   1.387  2.3567  0.1784  1.3000
  535TMC3    C1 7990   4.326   0.653   1.312  0.0002  0.3797  0.1983
  535TMC3    C2 7991   4.312   0.560   1.408 -0.7423  0.3172 -0.4576
  535TMC3    C3 7992   4.325   0.432   1.379 -0.6512  0.0926  0.0968
  535TMC3    C4 7993   4.336   0.614   1.179  0.0637 -0.1240  1.0034
  535TMC3    C5 7994   4.337   0.481   1.151  0.6542  0.1339  0.1181
  535TMC3    C6 7995   4.329   0.385   1.249 -0.0743 -0.7051  0.2902
  535TMC3     C 7996   4.285   0.790   1.339 -0.2348  0.1807  0.1741
  535TMC3     O 7997   4.247   0.846   1.235  0.2207 -0.4114 -0.2350
  535TMC3     H 7998   4.305   0.587   1.513  0.7412 -0.6066 -0.1184
  535TMC3    H1 7999   4.357   0.695   1.110 -2.4847 -0.3549 -0.0510
  535TMC3    H2 8000   4.344   0.285   1.210  3.0533 -0.3755  0.6271
  535TMC3    C7 8001   4.309   0.451   1.015 -0.2080  0.2105 -0.1584
  535TMC3    C8 8002   4.283   0.335   1.478 -0.0499 -0.3476  0.8176
  535TMC3    O1 8003   4.347   0.347   0.964  0.4755 -0.3653  0.5898
  535TMC3    O2 8004   4.209   0.367   1.570  0.1519 -0.2041 -0.4938
  536MPD2     C 8005   3.301   3.710  16.350  0.0127 -0.1797 -0.3479
  536MPD2    C1 8006   3.174   3.653  16.350  0.2147  0.1393  0.0477
  536MPD2    C2 8007   3.076   3.703  16.257 -0.4552 -0.8170 -0.4983
  536MPD2    C3 8008   3.107   3.803  16.169  0.6167 -0.1162 -0.1469
  536MPD2    C4 8009   3.229   3.865  16.182 -0.2766  0.3261 -0.7736
  536MPD2    C5 8010   3.325   3.816  16.273 -0.5582 -0.2822  0.7816
  536MPD2     H 8011   2.973   3.671  16.253 -0.4481 -0.6420 -2.1571
  536MPD2    H1 8012   3.249   3.951  16.119 -0.0822  0.7947 -0.0725
  536MPD2    H2 8013   3.384   3.677  16.411 -0.1845 -0.0201  0.0035
  536MPD2    H3 8014   3.416   3.874  16.276  1.0528 -2.7219 -0.8806
  536MPD2     N 8015   3.019   3.866  16.083  0.0666  0.5316 -0.0647
  536MPD2    H5 8016   3.062   3.939  16.028  0.4562  0.2400 -0.1524
  536MPD2    N1 8017   3.147   3.552  16.444  0.0258 -0.5270 -0.5909
  536MPD2    H7 8018   3.225   3.527  16.505 -1.5470 -2.5537  0.5819
  537TMC3    C1 8019   3.027   3.385  16.558  0.0229 -0.5088 -0.8603
  537TMC3    C2 8020   3.087   3.437  16.669  0.0859  0.2123  0.5269
  537TMC3    C3 8021   3.037   3.406  16.796  0.1918 -0.4948 -0.3532
  537TMC3    C4 8022   2.914   3.311  16.566 -0.3864 -0.0766 -0.4365
  537TMC3    C5 8023   2.858   3.302  16.691  0.0599 -0.4206 -0.0231
  537TMC3    C6 8024   2.917   3.352  16.806 -0.4829 -0.6709  0.0506
  537TMC3     C 8025   3.034   3.466  16.440 -0.4434  0.4623  0.0494
  537TMC3     O 8026   2.930   3.477  16.378 -0.3944  0.1057  0.3085
  537TMC3     H 8027   3.176   3.498  16.673  0.7170 -0.5678 -1.7540
  537TMC3    H1 8028   2.864   3.255  16.487  1.2761 -0.1269 -1.4674
  537TMC3    H2 8029   2.869   3.357  16.903  0.2382 -0.9080  0.4203
  537TMC3    C7 8030   2.757   3.202  16.708 -0.4828  0.0916  0.0171
  537TMC3    C8 8031   3.086   3.480  16.915  0.8393  0.4222 -0.4097
  537TMC3    O1 8032   2.667   3.192  16.623  0.2509  0.0941 -0.2049
  537TMC3    O2 8033   3.006   3.542  16.983  0.6374 -0.4614  0.0674
  538TMC3    C1 8034   4.083   2.689  11.141 -0.3739 -0.1772 -0.2932
  538TMC3    C2 8035   4.083   2.566  11.086  0.3935 -0.1104 -0.1474
  538TMC3    C3 8036   3.973   2.542  11.015 -0.1544 -0.3505 -0.0490
  538TMC3    C4 8037   3.990   2.783  11.135 -0.7216  0.2370  0.0316
  538TMC3    C5 8038   3.877   2.755  11.060 -0.0045  0.3758 -0.1113
  538TMC3    C6 8039   3.867   2.629  11.002 -0.0496 -0.8746  0.2244
  538TMC3     C 8040   4.161   2.698  11.267 -0.1424  0.4246  0.0527
  538TMC3     O 8041   4.217   2.801  11.295 -0.2900  0.0095 -0.4970
  538TMC3     H 8042   4.164   2.497  11.108  1.3553  1.3186  0.7921
  538TMC3    H1 8043   4.000   2.882  11.179 -1.5027  1.0342 -1.6042
  538TMC3    H2 8044   3.786   2.590  10.942  0.8556 -2.2088 -0.1296
  538TMC3    C7 8045   3.762   2.843  11.033  0.1378  0.2909  0.0682
  538TMC3    C8 8046   3.988   2.447  10.905  0.2586 -0.3512 -0.4007
  538TMC3    O1 8047   3.679   2.810  10.946  0.2741 -0.5731 -0.2078
  538TMC3    O2 8048   3.938   2.335  10.907  0.8529  0.0539  0.0605
  539MPD2     C 8049   4.256   1.913  11.369  0.5613  0.4573 -0.0450
  539MPD2    C1 8050   4.130   1.856  11.398 -0.8567  0.1372 -0.3212
  539MPD2    C2 8051   4.015   1.943  11.404 -0.1704 -0.1952 -0.3646
  539MPD2    C3 8052   4.030   2.075  11.371  0.1585 -0.3483  0.1881
  539MPD2    C4 8053   4.151   2.125  11.339 -0.9083  0.1049 -0.0097
  539MPD2    C5 8054   4.264   2.049  11.343 -0.3859 -0.4887 -0.5502
  539MPD2     H 8055   3.921   1.911  11.446 -0.5096 -0.6321 -1.4536
  539MPD2    H1 8056   4.157   2.226  11.298  0.2514  1.2174  2.9194
  539MPD2    H2 8057   4.344   1.851  11.354  0.7225  0.7593 -0.3268
  539MPD2    H3 8058   4.359   2.086  11.307  0.2235 -1.5016  0.0035
  539MPD2     N 8059   3.919   2.159  11.375 -0.4063  0.4838 -0.3577
  539MPD2    H5 8060   3.836   2.110  11.409  0.7750 -2.3795 -1.5990
  539MPD2    N1 8061   4.112   1.714  11.415 -0.1536 -0.1994  0.1865
  539MPD2    H7 8062   4.017   1.686  11.439  0.4456 -2.6502 -0.3435
  540TMC3    C1 8063   3.777   2.347  11.383 -0.2215 -0.2859  0.3888
  540TMC3    C2 8064   3.741   2.409  11.268 -0.8939 -0.9139  1.1241
  540TMC3    C3 8065   3.650   2.512  11.274  0.1449 -0.0958 -0.0761
  540TMC3    C4 8066   3.743   2.393  11.507 -0.0720  0.3813  0.3148
  540TMC3    C5 8067   3.645   2.483  11.511 -0.3987  0.7527  0.1571
  540TMC3    C6 8068   3.600   2.542  11.396 -0.0938  0.4670 -1.1521
  540TMC3     C 8069   3.916   2.296  11.377 -1.2956  0.1550 -0.2113
  540TMC3     O 8070   3.992   2.376  11.325 -0.2960  0.4445  0.2584
  540TMC3     H 8071   3.788   2.382  11.174 -2.4467  0.8397 -0.1416
  540TMC3    H1 8072   3.787   2.348  11.595 -0.5993 -0.6177  0.0694
  540TMC3    H2 8073   3.508   2.600  11.399 -0.3338  0.1110 -1.6823
  540TMC3    C7 8074   3.571   2.497  11.631  0.0565  1.0625  0.8084
  540TMC3    C8 8075   3.562   2.539  11.164  0.4310  0.1972 -0.0412
  540TMC3    O1 8076   3.580   2.407  11.710 -0.3065 -0.1836  0.1018
  540TMC3    O2 8077   3.485   2.638  11.165  0.3725  0.4631 -0.1900
  541MPD2     C 8078   1.667   3.264  13.293  0.0763 -0.2652 -0.2587
  541MPD2    C1 8079   1.791   3.231  13.244  0.7481 -0.1715  0.9601
  541MPD2    C2 8080   1.835   3.295  13.128  0.7105  0.2728 -0.1989
  541MPD2    C3 8081   1.768   3.411  13.084  0.4296  0.4302  0.1747
  541MPD2    C4 8082   1.648   3.445  13.134  0.5967  0.3096  0.5754
  541MPD2    C5 8083   1.595   3.366  13.235  0.3592 -0.5835  0.0213
  541MPD2     H 8084   1.919   3.255  13.073  0.6620  3.0895 -2.3293
  541MPD2    H1 8085   1.588   3.528  13.100 -2.9206 -2.0372  1.1177
  541MPD2    H2 8086   1.623   3.202  13.370 -0.6781  1.4213  0.6555
  541MPD2    H3 8087   1.495   3.387  13.270  1.3348  2.0654  1.2394
  541MPD2     N 8088   1.818   3.483  12.969  0.4568 -0.1278  0.5909
  541MPD2    H5 8089   1.757   3.561  12.947  0.2329 -0.6904 -0.7510
  541MPD2    N1 8090   1.865   3.133  13.311  0.6335  0.5740  0.1094
  541MPD2    H7 8091   1.827   3.076  13.386  0.5027  0.4430 -0.0573
  542TMC3    C1 8092   1.950   3.540  12.787 -0.2130 -0.3789 -0.4933
  542TMC3    C2 8093   1.975   3.483  12.668  0.4517  0.5599 -0.3691
  542TMC3    C3 8094   2.007   3.563  12.562 -0.0475 -0.2378  0.6927
  542TMC3    C4 8095   1.962   3.676  12.807 -0.4374 -0.3797 -0.1622
  542TMC3    C5 8096   1.992   3.751  12.698  0.5341  0.6342  0.4187
  542TMC3    C6 8097   2.024   3.700  12.571 -0.7219 -0.4315  0.5477
  542TMC3     C 8098   1.921   3.451  12.891 -0.4543 -0.1751 -0.3819
  542TMC3     O 8099   1.990   3.347  12.885 -0.0225 -0.4270  0.3143
  542TMC3     H 8100   1.945   3.380  12.651  0.2610  0.7953 -1.4340
  542TMC3    H1 8101   1.935   3.726  12.899 -1.4602 -1.2887  0.0279
  542TMC3    H2 8102   2.057   3.754  12.483 -0.6606 -2.2572 -0.5419
  542TMC3    C7 8103   2.010   3.900  12.709 -0.2443 -0.2514  0.1640
  542TMC3    C8 8104   2.045   3.501  12.442 -0.1907  0.5464  0.3012
  542TMC3    O1 8105   2.002   3.946  12.598  0.1974  0.3098  0.1325
  542TMC3    O2 8106   2.044   3.577  12.345  0.5274  0.3343  0.4774
  543TMC3    C1 8107   1.462   4.576  17.195  0.6405 -0.5947 -0.8378
  543TMC3    C2 8108   1.391   4.472  17.243  0.3831  0.0175 -0.3832
  543TMC3    C3 8109   1.307   4.492  17.347  0.0473 -0.0087 -0.0298
  543TMC3    C4 8110   1.476   4.695  17.266 -0.4154 -0.0368 -0.4673
  543TMC3    C5 8111   1.401   4.707  17.381  0.4204 -0.1254  0.3622
  543TMC3    C6 8112   1.311   4.610  17.419  0.0093  0.6226 -0.1912
  543TMC3     C 8113   1.544   4.554  17.071  0.0771  0.4035 -0.1491
  543TMC3     O 8114   1.551   4.439  17.036 -0.0273  0.9102  0.4762
  543TMC3     H 8115   1.388   4.377  17.191 -3.3358 -0.2180  0.2760
  543TMC3    H1 8116   1.539   0.037  17.230 -1.9644  0.6494 -1.6715
  543TMC3    H2 8117   1.271   4.609  17.520 -1.7663  2.1242 -0.8681
  543TMC3    C7 8118   1.374   0.101  17.445  0.3169  0.1774 -0.2219
  543TMC3    C8 8119   1.265   4.382  17.434  0.2210  0.3305  0.4056
  543TMC3    O1 8120   1.291   0.089  17.535 -0.2147 -0.2919  0.3457
  543TMC3    O2 8121   1.195   4.408  17.530  0.1235 -0.1432 -0.0670
  544MPD2     C 8122   1.233   3.895  17.543 -0.9373  0.0431 -0.5100
  544MPD2    C1 8123   1.329   3.902  17.450 -0.2585 -0.0555  0.0637
  544MPD2    C2 8124   1.358   4.028  17.400  0.3379  0.7486  0.1984
  544MPD2    C3 8125   1.285   4.137  17.444 -0.4928  0.8123  0.0831
  544MPD2    C4 8126   1.179   4.119  17.528 -0.0043  0.4006 -0.4875
  544MPD2    C5 8127   1.153   4.002  17.580 -0.1362 -0.5054  0.6224
  544MPD2     H 8128   1.425   4.040  17.316  1.1809  0.5903  0.8572
  544MPD2    H1 8129   1.123   4.205  17.560 -3.3781 -0.7838 -3.1532
  544MPD2    H2 8130   1.204   3.801  17.588  1.8122  0.2313  1.6566
  544MPD2    H3 8131   1.065   3.988  17.643 -1.3430 -2.7807 -1.5630
  544MPD2     N 8132   1.323   4.266  17.398  0.3286 -0.2280 -0.1446
  544MPD2    H5 8133   1.407   4.276  17.341  0.1112  3.2196  0.0986
  544MPD2    N1 8134   1.382   3.778  17.403 -0.2286 -0.3243  0.2982
  544MPD2    H7 8135   1.357   3.696  17.457  0.2588 -0.1417  0.7946
  545TMC3    C1 8136   1.504   3.620  17.267  0.6554 -0.3107 -1.3662
  545TMC3    C2 8137   1.547   3.574  17.145  0.0067  0.4141  0.6382
  545TMC3    C3 8138   1.568   3.441  17.126 -0.9338  0.0217  0.5697
  545TMC3    C4 8139   1.475   3.527  17.369  0.6920  0.2249  1.1498
  545TMC3    C5 8140   1.489   3.392  17.342  0.5155  0.0099  0.0291
  545TMC3    C6 8141   1.537   3.345  17.221  0.2349 -0.1817  0.3337
  545TMC3     C 8142   1.458   3.763  17.288 -0.2804 -0.1295  0.0553
  545TMC3     O 8143   1.484   3.847  17.197  0.2617  0.3452  0.6614
  545TMC3     H 8144   1.571   3.647  17.069  1.3552 -0.6494  0.0468
  545TMC3    H1 8145   1.458   3.558  17.471 -0.1308  0.2430  1.0026
  545TMC3    H2 8146   1.552   3.239  17.204  0.8710 -0.6536  3.6942
  545TMC3    C7 8147   1.483   3.308  17.459  0.6397 -0.0265 -0.0140
  545TMC3    C8 8148   1.603   3.391  16.991  0.3694  0.0574  0.4243
  545TMC3    O1 8149   1.409   3.348  17.548 -0.0220  0.1275  0.4105
  545TMC3    O2 8150   1.610   3.268  16.976 -0.0631 -0.3838 -0.0233
  546MPD2     C 8151   2.794   4.374  17.624  0.3454  0.0646  0.1006
  546MPD2    C1 8152   2.777   4.390  17.491  0.3840 -0.8248 -0.3305
  546MPD2    C2 8153   2.785   4.517  17.444  0.7297  0.2487  0.3010
  546MPD2    C3 8154   2.819   4.624  17.513 -0.5705  0.3911 -0.2891
  546MPD2    C4 8155   2.841   4.604  17.653  0.5625 -0.3246  0.3263
  546MPD2    C5 8156   2.824   4.482  17.708  0.2557  1.0459  0.0985
  546MPD2     H 8157   2.769   4.518  17.337 -0.4219  2.3147  0.4960
  546MPD2    H1 8158   2.861   4.686  17.722 -0.2501  0.6574 -0.5979
  546MPD2    H2 8159   2.791   4.273  17.661  1.0595 -0.0052 -0.0373
  546MPD2    H3 8160   2.833   4.458   0.060 -1.2373 -1.0444 -0.2408
  546MPD2     N 8161   2.853   0.020  17.463 -0.0729  0.2860 -0.6001
  546MPD2    H5 8162   2.862   0.098  17.527  0.0183 -0.9277  0.8541
  546MPD2    N1 8163   2.738   4.274  17.415  0.2071 -0.9868 -0.5682
  546MPD2    H7 8164   2.734   4.188  17.469 -1.2162  0.4435  1.6054
  547TMC3    C1 8165   2.693   4.113  17.242  0.2973  0.0527  0.0699
  547TMC3    C2 8166   2.625   4.109  17.128  0.0969 -0.6332  0.0185
  547TMC3    C3 8167   2.548   4.001  17.103  0.2557 -0.3252  0.4715
  547TMC3    C4 8168   2.677   4.015  17.339  0.4357  0.7090 -0.7972
  547TMC3    C5 8169   2.585   3.912  17.318 -0.4722  0.4129  0.3387
  547TMC3    C6 8170   2.525   3.905  17.196 -0.1557 -0.3749  0.0929
  547TMC3     C 8171   2.740   4.252  17.279  0.9179  0.1572 -0.3636
  547TMC3     O 8172   2.779   4.320  17.185 -0.1124  0.3417 -0.0588
  547TMC3     H 8173   2.643   4.186  17.053  1.6494  0.9599  2.0167
  547TMC3    H1 8174   2.707   4.032  17.442 -2.7911  1.8240 -0.0398
  547TMC3    H2 8175   2.453   3.826  17.180 -1.1042  0.4566  0.2669
  547TMC3    C7 8176   2.541   3.833  17.438  0.1289  0.3182 -0.5509
  547TMC3    C8 8177   2.488   3.997  16.975  0.5064 -0.8799  0.2370
  547TMC3    O1 8178   2.592   3.855  17.547  0.0732 -0.5785 -0.2818
  547TMC3    O2 8179   2.460   4.102  16.915 -0.0387  0.3298  0.2527
  548MPD2     C 8180   2.426   0.312  12.741 -0.1452 -0.3244 -0.5940
  548MPD2    C1 8181   2.451   0.313  12.605  0.3102  0.1206 -0.4496
  548MPD2    C2 8182   2.565   0.242  12.565  0.2943  0.3229 -0.1417
  548MPD2    C3 8183   2.639   0.161  12.649  0.1004 -0.1749 -0.3567
  548MPD2    C4 8184   2.624   0.171  12.786  0.3377  0.6122 -0.5561
  548MPD2    C5 8185   2.517   0.248  12.827 -0.1636 -0.2056 -0.2063
  548MPD2     H 8186   2.591   0.246  12.460 -0.6726  2.2298 -0.3033
  548MPD2    H1 8187   2.681   0.124  12.865 -0.4723 -0.0039 -0.3425
  548MPD2    H2 8188   2.345   0.373  12.780  1.0757 -0.6303  2.4197
  548MPD2    H3 8189   2.512   0.265  12.934  0.3506 -3.8645  0.3910
  548MPD2     N 8190   2.751   0.099  12.591  0.4667 -0.8615 -0.3775
  548MPD2    H5 8191   2.759   0.093  12.490 -0.9211  0.5939 -0.5659
  548MPD2    N1 8192   2.361   0.383  12.523 -0.1246 -0.1744  0.2689
  548MPD2    H7 8193   2.270   0.404  12.561 -1.0436 -0.5650 -1.7117
  549TMC3    C1 8194   2.260   0.460  12.326  0.2198 -0.1117 -0.2516
  549TMC3    C2 8195   2.197   0.569  12.378 -0.4437  0.0586  0.4237
  549TMC3    C3 8196   2.062   0.580  12.352 -1.0258  0.4669 -0.4351
  549TMC3    C4 8197   2.199   0.357  12.258  0.5737  0.6132  0.4177
  549TMC3    C5 8198   2.061   0.366  12.250  0.0714 -0.6130  0.1667
  549TMC3    C6 8199   1.995   0.482  12.280 -0.0324  0.4160  0.0637
  549TMC3     C 8200   2.385   0.416  12.387 -0.0188 -0.6357 -0.2561
  549TMC3     O 8201   2.474   0.369  12.322 -0.0728 -0.4250 -0.1895
  549TMC3     H 8202   2.263   0.629  12.439  0.8897 -1.5721  0.5904
  549TMC3    H1 8203   2.260   0.274  12.223 -2.4258 -0.7894 -1.4539
  549TMC3    H2 8204   1.892   0.491  12.250  0.1835  1.0166 -0.5133
  549TMC3    C7 8205   1.991   0.261  12.184 -0.2146  0.1996 -0.4602
  549TMC3    C8 8206   1.991   0.692  12.407 -0.2874  0.0889  0.1895
  549TMC3    O1 8207   1.881   0.287  12.137  0.5937 -0.7996  0.5325
  549TMC3    O2 8208   1.884   0.701  12.350 -0.0816 -0.3655 -0.3544
  550TMC3    C1 8209   1.189   3.408  12.006 -0.1811  0.0448  0.7999
  550TMC3    C2 8210   1.220   3.418  12.141 -0.5853  0.0142  0.9106
  550TMC3    C3 8211   1.299   3.531  12.173 -0.7439 -0.2827  0.4853
  550TMC3    C4 8212   1.257   3.484  11.913 -0.5298  0.0980 -0.2655
  550TMC3    C5 8213   1.337   3.591  11.951 -0.0882  0.7614 -0.5171
  550TMC3    C6 8214   1.361   3.614  12.080 -0.2387 -0.5833 -0.0607
  550TMC3     C 8215   1.131   3.282  11.969 -0.0166  0.2464  0.0786
  550TMC3     O 8216   1.141   3.180  12.035  0.0319 -0.6429  0.3938
  550TMC3     H 8217   1.163   3.354  12.207  1.3256 -1.8109  0.7595
  550TMC3    H1 8218   1.236   3.456  11.810  0.3108  0.6526 -0.5838
  550TMC3    H2 8219   1.417   3.700  12.114 -1.8064  0.2351  0.4301
  550TMC3    C7 8220   1.328   3.707  11.866  0.2930  0.2629 -0.6754
  550TMC3    C8 8221   1.270   3.589  12.302 -0.4786 -0.2904  0.0948
  550TMC3    O1 8222   1.413   3.794  11.887  0.7314 -0.2942  0.3664
  550TMC3    O2 8223   1.265   3.712  12.303 -0.3253 -0.5796 -0.1263
  551TMC3    C1 8224   3.734   0.526  13.585  0.4694 -0.6579 -0.3814
  551TMC3    C2 8225   3.838   0.437  13.548 -0.2321 -0.1433 -0.2553
  551TMC3    C3 8226   3.950   0.447  13.623 -0.2985  0.3248  0.4972
  551TMC3    C4 8227   3.730   0.603  13.693 -0.1713 -0.0976  0.4375
  551TMC3    C5 8228   3.839   0.589  13.775  1.1557 -0.1268  0.6504
  551TMC3    C6 8229   3.941   0.512  13.740 -0.4606  0.2627 -0.5236
  551TMC3     C 8230   3.623   0.520  13.496  0.3869  0.6971  0.1752
  551TMC3     O 8231   3.594   0.418  13.435  0.0210 -0.3991 -0.1037
  551TMC3     H 8232   3.848   0.393  13.450 -1.5448  0.5859 -0.6997
  551TMC3    H1 8233   3.645   0.664  13.721 -1.0206 -0.4555 -1.3769
  551TMC3    H2 8234   4.036   0.518  13.793 -0.5109  1.8040 -0.5887
  551TMC3    C7 8235   3.876   0.693  13.863 -0.3802 -0.2319 -0.3155
  551TMC3    C8 8236   4.061   0.486  13.535 -0.1170 -0.5732 -0.1459
  551TMC3    O1 8237   3.956   0.651  13.946 -0.2310  0.2063  0.1977
  551TMC3    O2 8238   4.078   0.420  13.435 -0.9279 -0.3667 -0.1684
  552MPD2     C 8239   0.680   2.858  14.215  0.2475  0.2266 -1.0313
  552MPD2    C1 8240   0.686   2.743  14.282 -0.5877 -0.3446 -0.0454
  552MPD2    C2 8241   0.783   2.730  14.383 -0.7256 -0.1989  0.4299
  552MPD2    C3 8242   0.868   2.831  14.416  0.4109 -0.2117 -0.3746
  552MPD2    C4 8243   0.862   2.947  14.344  1.4029 -0.3099  0.6943
  552MPD2    C5 8244   0.769   2.958  14.240  0.3709 -0.1474  0.5347
  552MPD2     H 8245   0.788   2.634  14.432  0.9819  0.3508  1.3109
  552MPD2    H1 8246   0.928   3.032  14.356 -0.0273  0.9774 -0.5444
  552MPD2    H2 8247   0.606   2.874  14.138  1.0030 -0.8607 -1.9706
  552MPD2    H3 8248   0.766   3.042  14.171  1.5856  0.0633  0.7395
  552MPD2     N 8249   0.963   2.818  14.522  0.6132  0.2624  0.5463
  552MPD2    H5 8250   1.035   2.889  14.524 -0.3134  1.1211  3.6030
  552MPD2    N1 8251   0.612   2.622  14.263  0.9038  0.3583 -0.1404
  552MPD2    H7 8252   0.632   2.541  14.321 -1.2745 -1.2615 -1.6745
  553TMC3    C1 8253   0.555   2.454  14.118  0.5405  0.3548 -0.4546
  553TMC3    C2 8254   0.618   2.433  13.995 -0.4996 -0.2186  0.0840
  553TMC3    C3 8255   0.716   2.341  13.990 -0.1911 -0.2168  0.0296
  553TMC3    C4 8256   0.573   2.373  14.227  0.3096  0.5574  0.5210
  553TMC3    C5 8257   0.685   2.292  14.220 -0.0731  0.4972  0.8522
  553TMC3    C6 8258   0.761   2.281  14.105 -0.2180  0.1563 -0.1065
  553TMC3     C 8259   0.542   2.593  14.147 -0.1319  0.2474  0.1961
  553TMC3     O 8260   0.527   2.671  14.052 -0.4307  0.1444  0.0912
  553TMC3     H 8261   0.602   2.508  13.918 -0.6212 -0.6038 -0.2593
  553TMC3    H1 8262   0.524   2.396  14.321  0.9596  1.4468  0.6454
  553TMC3    H2 8263   0.849   2.218  14.101  0.8167  1.5961 -0.2578
  553TMC3    C7 8264   0.758   2.295  14.343 -0.2974  0.3481 -0.1578
  553TMC3    C8 8265   0.810   2.327  13.878  0.1708  0.1120 -0.5195
  553TMC3    O1 8266   0.682   2.296  14.444 -0.3246 -0.2959 -0.0886
  553TMC3    O2 8267   0.916   2.277  13.903  0.7152 -0.5192 -0.6365
  554TMC3    C1 8268   2.590   2.006  11.557 -0.5039  0.1586 -0.0314
  554TMC3    C2 8269   2.512   2.002  11.445  0.2096  1.0073  0.2684
  554TMC3    C3 8270   2.573   2.050  11.333  0.0671 -0.3269  0.2554
  554TMC3    C4 8271   2.704   2.078  11.561 -0.0898  0.2918 -0.2666
  554TMC3    C5 8272   2.762   2.117  11.443 -0.0617  0.4433 -1.1319
  554TMC3    C6 8273   2.698   2.110  11.321 -0.0717 -0.3129 -0.1064
  554TMC3     C 8274   2.531   1.950  11.671 -0.6324 -0.8722  0.5588
  554TMC3     O 8275   2.412   1.923  11.664 -0.1071  0.2942 -0.0970
  554TMC3     H 8276   2.424   1.940  11.441 -0.1072  1.4523  0.2806
  554TMC3    H1 8277   2.750   2.080  11.659 -0.1232 -1.9122 -0.2154
  554TMC3    H2 8278   2.730   2.160  11.230  0.4587 -1.5377 -0.5924
  554TMC3    C7 8279   2.858   2.226  11.447  0.8283 -0.0052 -0.7618
  554TMC3    C8 8280   2.485   2.081  11.223 -0.2100 -0.8498  0.4795
  554TMC3    O1 8281   2.929   2.231  11.347 -0.0461 -0.1612 -0.2037
  554TMC3    O2 8282   2.538   2.130  11.125  0.3990  0.2202 -0.4095
  555TMC3    C1 8283   1.659   1.136  15.049 -0.1138 -0.0873  0.1241
  555TMC3    C2 8284   1.634   1.225  15.156  0.0639  0.2434  0.3461
  555TMC3    C3 8285   1.695   1.199  15.280 -0.0461 -0.1222 -0.3017
  555TMC3    C4 8286   1.737   1.030  15.062  0.0349 -0.7575  0.4955
  555TMC3    C5 8287   1.796   1.006  15.191  0.0775 -0.1882 -1.0367
  555TMC3    C6 8288   1.781   1.089  15.297  0.6067 -0.9785 -0.9814
  555TMC3     C 8289   1.615   1.163  14.913 -0.3177  1.1091 -0.5455
  555TMC3     O 8290   1.513   1.227  14.908 -0.4170 -0.8158  0.2348
  555TMC3     H 8291   1.563   1.305  15.142  1.5585  1.3075 -1.1838
  555TMC3    H1 8292   1.723   0.954  14.986 -0.6824 -0.1314  0.0111
  555TMC3    H2 8293   1.808   1.054  15.396 -1.9562  0.2058  0.1371
  555TMC3    C7 8294   1.845   0.878  15.218  0.1701  0.0257  0.2441
  555TMC3    C8 8295   1.689   1.301  15.390 -0.1724  1.0739  0.0501
  555TMC3    O1 8296   1.825   0.827  15.328  0.0704  0.6686  0.5903
  555TMC3    O2 8297   1.617   1.395  15.365  0.0938 -0.6090 -0.1162
  556MPD2     C 8298   0.307   3.158  10.954 -0.1871  0.4673 -0.8287
  556MPD2    C1 8299   0.178   3.122  10.970  0.4930  0.8919  0.5620
  556MPD2    C2 8300   0.135   3.012  10.893  0.4339  0.1317 -0.1442
  556MPD2    C3 8301   0.214   2.949  10.801 -0.0256  0.6509 -0.3898
  556MPD2    C4 8302   0.343   2.996  10.790 -0.3512 -0.1504  0.0711
  556MPD2    C5 8303   0.385   3.107  10.854 -0.0554 -0.3858 -0.5847
  556MPD2     H 8304   0.031   2.984  10.904  0.0282  1.4679 -0.5961
  556MPD2    H1 8305   0.411   2.950  10.720 -1.4036 -1.5186 -0.0350
  556MPD2    H2 8306   0.353   3.241  11.008  1.3336 -1.8211  1.3870
  556MPD2    H3 8307   0.488   3.137  10.836 -0.2460  0.4533 -0.2707
  556MPD2     N 8308   0.152   2.866  10.700 -0.0429 -0.0850  0.5134
  556MPD2    H5 8309   0.053   2.850  10.717 -0.0250  0.6648  1.2956
  556MPD2    N1 8310   0.093   3.179  11.070  0.2364  0.1801 -0.0796
  556MPD2    H7 8311   0.000   3.138  11.076 -0.1281  0.9097 -0.7925
  557TMC3    C1 8312   0.116   2.724  10.513 -0.1501  0.3121  0.2996
  557TMC3    C2 8313   0.125   2.714  10.377 -0.4677 -0.0993 -0.5907
  557TMC3    C3 8314   0.013   2.674  10.305 -0.6402  0.6590  0.1193
  557TMC3    C4 8315   0.005   2.674  10.583 -0.3830 -0.5104 -0.1674
  557TMC3    C5 8316   4.640   2.626  10.507  1.0793  0.2452 -0.3373
  557TMC3    C6 8317   4.640   2.627  10.371  0.5442  0.1767  0.3848
  557TMC3     C 8318   0.205   2.820  10.583  0.0491 -0.4520  0.2467
  557TMC3     O 8319   0.292   2.879  10.513  0.5459 -0.8298 -0.1425
  557TMC3     H 8320   0.208   2.758  10.323  0.9326  0.9031  2.4082
  557TMC3    H1 8321   0.011   2.662  10.691 -0.9039  0.8872  0.0234
  557TMC3    H2 8322   4.553   2.601  10.312 -0.4818 -1.5715  2.6688
  557TMC3    C7 8323   4.512   2.607  10.573  0.1116  0.1601  0.0332
  557TMC3    C8 8324   0.023   2.673  10.160 -0.2243  0.7213 -0.2249
  557TMC3    O1 8325   4.488   2.652  10.685  0.4087  0.7050  0.0486
  557TMC3    O2 8326   0.117   2.743  10.115 -0.0992  0.3961  0.3346
  558TMC3    C1 8327   2.167   0.503  10.520 -0.4416 -0.8599 -0.3167
  558TMC3    C2 8328   2.087   0.614  10.537  0.0740 -0.4161 -0.4926
  558TMC3    C3 8329   2.003   0.637  10.428 -0.2067  0.4090 -0.1770
  558TMC3    C4 8330   2.170   0.419  10.413  0.3166 -0.1908 -0.7614
  558TMC3    C5 8331   2.092   0.453  10.308 -0.5569  0.1693  0.2360
  558TMC3    C6 8332   2.004   0.558  10.315  0.2248  0.0987 -0.0103
  558TMC3     C 8333   2.293   0.511  10.597  0.0171 -0.1201 -0.1314
  558TMC3     O 8334   2.289   0.559  10.704  0.8753  0.5056  0.5317
  558TMC3     H 8335   2.106   0.670  10.628 -0.6553 -1.9174  0.5666
  558TMC3    H1 8336   2.224   0.325  10.412  0.0654 -0.3449  2.5882
  558TMC3    H2 8337   1.926   0.581  10.243 -1.1867 -0.0305  1.4658
  558TMC3    C7 8338   2.089   0.364  10.191  0.2447  0.5224 -0.3007
  558TMC3    C8 8339   1.949   0.779  10.420 -0.5487  0.1660 -0.1266
  558TMC3    O1 8340   2.138   0.252  10.203  0.3721 -0.0485 -0.4614
  558TMC3    O2 8341   1.926   0.837  10.316  0.0595 -0.8977 -0.0531
  559MPD2     C 8342   2.321   2.067  10.573  0.1023  0.3372 -0.0423
  559MPD2    C1 8343   2.247   2.004  10.671  0.5059 -0.2234  0.5326
  559MPD2    C2 8344   2.316   1.941  10.778 -0.2076 -0.3264 -0.5117
  559MPD2    C3 8345   2.455   1.947  10.790  0.8321  0.0467  0.1083
  559MPD2    C4 8346   2.525   2.020  10.690  0.5993 -0.2605  0.4458
  559MPD2    C5 8347   2.463   2.071  10.582 -0.2579 -0.2976 -0.1250
  559MPD2     H 8348   2.265   1.891  10.859 -0.4084  0.2296 -0.2965
  559MPD2    H1 8349   2.631   2.039  10.705  0.5679 -0.4931  0.9867
  559MPD2    H2 8350   2.277   2.118  10.487 -0.8250 -1.3966 -0.5958
  559MPD2    H3 8351   2.526   2.125  10.513 -0.7237 -0.4781 -0.7019
  559MPD2     N 8352   2.522   1.871  10.893 -0.0930  0.0716  0.4296
  559MPD2    H5 8353   2.454   1.828  10.955 -0.4429  2.5001  1.7619
  559MPD2    N1 8354   2.108   1.990  10.663 -0.5060 -0.0197  0.4556
  559MPD2    H7 8355   2.066   2.043  10.588  0.6164 -0.9955 -0.8492
  560TMC3    C1 8356   2.689   1.772  11.019  0.6753 -0.8161 -0.0912
  560TMC3    C2 8357   2.594   1.676  11.042  0.3674  0.4633 -0.3254
  560TMC3    C3 8358   2.625   1.578  11.135  0.1702  0.3157 -0.0672
  560TMC3    C4 8359   2.817   1.762  11.067  0.1552 -0.5178 -0.4966
  560TMC3    C5 8360   2.829   1.685  11.175  0.0736  0.1883 -0.0863
  560TMC3    C6 8361   2.736   1.588  11.212 -0.7394 -0.2092 -0.6262
  560TMC3     C 8362   2.656   1.866  10.922 -0.2377  0.6282  0.7896
  560TMC3     O 8363   2.752   1.921  10.869 -0.4237 -0.2870  0.3390
  560TMC3     H 8364   2.499   1.669  10.991  0.1380 -0.3653  0.2116
  560TMC3    H1 8365   2.880   1.848  11.048  2.1102 -1.7280  0.5073
  560TMC3    H2 8366   2.753   1.526  11.300  2.6767  1.9300  0.2307
  560TMC3    C7 8367   2.961   1.656  11.230 -0.1838 -0.5818 -0.1333
  560TMC3    C8 8368   2.526   1.470  11.168  0.2180  0.9704 -0.1509
  560TMC3    O1 8369   2.971   1.538  11.259  0.2666  0.0594  0.3328
  560TMC3    O2 8370   2.408   1.493  11.139  0.2162  0.4030 -0.5054
  561TMC3    C1 8371   0.222   0.751  11.187 -0.5269  0.3392 -0.4381
  561TMC3    C2 8372   0.131   0.670  11.250 -0.1911 -0.5959  0.0285
  561TMC3    C3 8373   0.057   0.728  11.350 -0.9757  0.1459 -0.5966
  561TMC3    C4 8374   0.236   0.889  11.209  0.0810 -0.2366  0.5014
  561TMC3    C5 8375   0.158   0.946  11.309 -0.2858  0.1942 -0.5718
  561TMC3    C6 8376   0.068   0.868  11.382 -0.0011  0.0815 -0.1999
  561TMC3     C 8377   0.328   0.670  11.124 -0.3585 -1.0048 -0.3724
  561TMC3     O 8378   0.291   0.565  11.076 -0.1371  0.3760  0.5158
  561TMC3     H 8379   0.130   0.564  11.227  2.2257 -0.1699 -2.1017
  561TMC3    H1 8380   0.308   0.947  11.152 -0.6419  1.3392  1.1959
  561TMC3    H2 8381   0.027   0.905  11.475 -0.0324 -1.4819  0.4176
  561TMC3    C7 8382   0.150   1.086  11.343  0.2394 -0.2629 -0.6411
  561TMC3    C8 8383   0.022   0.633  11.450 -0.6540 -0.3541 -0.1094
  561TMC3    O1 8384   0.073   1.125  11.434  0.1192 -0.2858 -0.3238
  561TMC3    O2 8385   0.015   0.514  11.416  0.3245 -0.1017 -0.5703
  562TMC3    C1 8386   1.715   1.532  16.484 -1.1381 -0.0896  0.4230
  562TMC3    C2 8387   1.736   1.665  16.460  0.7030 -0.0556 -0.6009
  562TMC3    C3 8388   1.748   1.708  16.331  0.3669  0.2664  0.2238
  562TMC3    C4 8389   1.734   1.444  16.373 -0.2402  0.6809  0.3066
  562TMC3    C5 8390   1.774   1.497  16.250  0.7176 -0.2456 -0.5273
  562TMC3    C6 8391   1.775   1.629  16.225  0.1247  0.1860  0.0593
  562TMC3     C 8392   1.663   1.473  16.599 -0.6681 -0.2767 -0.2564
  562TMC3     O 8393   1.670   1.349  16.608  0.5275 -0.3020  0.7305
  562TMC3     H 8394   1.717   1.730  16.545 -1.5990 -3.6151  1.5964
  562TMC3    H1 8395   1.736   1.337  16.383 -1.3350  0.5583 -0.7239
  562TMC3    H2 8396   1.794   1.655  16.121  2.5326 -0.6035  0.3013
  562TMC3    C7 8397   1.753   1.414  16.133 -0.2203  0.2783  0.2396
  562TMC3    C8 8398   1.707   1.846  16.315  1.0897  0.2392  0.2289
  562TMC3    O1 8399   1.682   1.459  16.046  0.4105 -0.0786  0.1387
  562TMC3    O2 8400   1.709   1.916  16.416 -0.6542 -0.6208  0.6950
  563MPD2     C 8401   3.980   2.766  15.453 -0.3496  0.3727  0.1550
  563MPD2    C1 8402   4.023   2.782  15.578 -0.1464  0.3412 -0.0684
  563MPD2    C2 8403   4.156   2.747  15.608  0.2522 -0.1592 -0.2925
  563MPD2    C3 8404   4.238   2.702  15.508 -0.2208 -0.0421  0.0544
  563MPD2    C4 8405   4.191   2.706  15.379  0.2454  0.5804 -0.0681
  563MPD2    C5 8406   4.060   2.726  15.348  0.3962  0.2031 -0.2655
  563MPD2     H 8407   4.193   2.745  15.709  0.0289  0.8303 -0.1899
  563MPD2    H1 8408   4.244   2.658  15.297 -2.1621  0.3475 -1.4667
  563MPD2    H2 8409   3.876   2.785  15.433 -0.8462 -1.6613  0.8350
  563MPD2    H3 8410   4.018   2.713  15.249  0.5620  2.5840 -0.6286
  563MPD2     N 8411   4.363   2.653  15.545  0.1314  0.3304 -0.4907
  563MPD2    H5 8412   4.396   2.672  15.639 -0.4197  0.4147 -0.3176
  563MPD2    N1 8413   3.933   2.832  15.679  0.2793  0.4129  0.1225
  563MPD2    H7 8414   3.834   2.819  15.661  0.7304 -1.4825 -0.9442
  564TMC3    C1 8415   3.865   2.844  15.901 -0.6914 -0.5304 -0.0643
  564TMC3    C2 8416   3.749   2.771  15.870 -0.1966  0.0230 -0.6572
  564TMC3    C3 8417   3.670   2.717  15.974  0.9213 -0.6581  0.4914
  564TMC3    C4 8418   3.899   2.867  16.022  0.2101  0.8221  0.6666
  564TMC3    C5 8419   3.831   2.804  16.131  0.0460 -0.1178 -0.1709
  564TMC3    C6 8420   3.721   2.734  16.104  0.0012  0.0652  0.2752
  564TMC3     C 8421   3.972   2.870  15.796  0.0187  0.5857  1.0242
  564TMC3     O 8422   4.072   2.931  15.834 -0.7388  0.1765 -0.4929
  564TMC3     H 8423   3.717   2.768  15.767 -2.4207 -3.3563  0.1560
  564TMC3    H1 8424   3.989   2.923  16.046  0.1580  1.3574 -0.4143
  564TMC3    H2 8425   3.663   2.702  16.190  0.0977  0.6608  0.5606
  564TMC3    C7 8426   3.920   2.710  16.206 -0.5570  0.1596  0.7259
  564TMC3    C8 8427   3.604   2.597  15.949  0.9065 -0.2413 -0.4070
  564TMC3    O1 8428   4.034   2.750  16.216  0.0164  0.1767  0.0840
  564TMC3    O2 8429   3.590   2.522  16.046 -0.6057  0.0873  0.0733
  565TMC3    C1 8430   4.141   4.297  10.285  0.4145 -0.4102  0.5887
  565TMC3    C2 8431   4.150   4.254  10.415 -0.0668 -0.5944 -0.7241
  565TMC3    C3 8432   4.057   4.168  10.457  0.2993  0.2752  0.2285
  565TMC3    C4 8433   4.030   4.263  10.210  0.6022  0.4242 -1.8203
  565TMC3    C5 8434   3.937   4.174  10.257 -0.2376 -0.3746  0.0113
  565TMC3    C6 8435   3.944   4.127  10.388 -1.1423  0.4820  0.7012
  565TMC3     C 8436   4.228   4.400  10.226 -0.0888  0.3951 -0.2792
  565TMC3     O 8437   4.187   4.435  10.118  0.2705 -0.1631 -0.7792
  565TMC3     H 8438   4.238   4.281  10.471 -1.6310  0.0950  1.3899
  565TMC3    H1 8439   4.014   4.308  10.113  1.5313 -0.1854 -2.2485
  565TMC3    H2 8440   3.882   4.045  10.423  1.6520 -1.6765  0.6560
  565TMC3    C7 8441   3.852   4.110  10.155 -0.3488  0.1476  0.0912
  565TMC3    C8 8442   4.081   4.131  10.595  0.0178 -0.3081  0.5773
  565TMC3    O1 8443   3.903   4.100  10.043  0.0847  0.6912 -0.6679
  565TMC3    O2 8444   4.198   4.130  10.625 -0.1555 -0.4147  0.2724
  566MPD2     C 8445   1.123   0.383  14.251  0.8789 -0.0114  0.6533
  566MPD2    C1 8446   1.096   0.505  14.195  0.7299  0.0933 -0.2353
  566MPD2    C2 8447   0.963   0.543  14.187  0.0187 -0.1253  0.0704
  566MPD2    C3 8448   0.861   0.448  14.208 -1.1212  0.3873  0.0182
  566MPD2    C4 8449   0.890   0.325  14.263 -0.0810 -0.2335  0.3337
  566MPD2    C5 8450   1.024   0.292  14.281  0.8039  0.6652  0.3380
  566MPD2     H 8451   0.936   0.646  14.166 -0.1402 -0.0444  0.6653
  566MPD2    H1 8452   0.813   0.253  14.287  2.0583 -2.8111 -0.5391
  566MPD2    H2 8453   1.219   0.335  14.241  0.4841 -0.4304 -1.0363
  566MPD2    H3 8454   1.061   0.196  14.315 -0.2783 -0.7547 -2.4711
  566MPD2     N 8455   0.724   0.472  14.184 -0.3431  0.8684  0.0280
  566MPD2    H5 8456   0.663   0.422  14.247  1.2791 -0.5782  0.4358
  566MPD2    N1 8457   1.205   0.593  14.175 -0.0566 -0.4690  0.0352
  566MPD2    H7 8458   1.290   0.577  14.229  0.9209  0.9003 -1.0913
  567TMC3    C1 8459   1.301   0.796  14.128  0.5730 -0.1748  0.0074
  567TMC3    C2 8460   1.340   0.856  14.012 -0.4654 -0.3579 -0.0501
  567TMC3    C3 8461   1.472   0.895  14.003 -0.1827  0.1730  0.6524
  567TMC3    C4 8462   1.375   0.800  14.240  0.1759 -0.6673  0.1203
  567TMC3    C5 8463   1.505   0.849  14.226 -0.4954  0.0905  0.2565
  567TMC3    C6 8464   1.558   0.887  14.109  0.1545  0.1684  0.4960
  567TMC3     C 8465   1.188   0.715  14.118 -0.0001  0.3359  0.1047
  567TMC3     O 8466   1.095   0.756  14.049  0.0014  0.2189  0.2870
  567TMC3     H 8467   1.280   0.841  13.923 -0.7955  1.0385 -0.0575
  567TMC3    H1 8468   1.339   0.757  14.333 -0.7850 -0.3160 -0.0939
  567TMC3    H2 8469   1.664   0.910  14.113 -0.1025  1.3157  0.7018
  567TMC3    C7 8470   1.599   0.823  14.335  0.3742  0.4505 -0.1158
  567TMC3    C8 8471   1.510   0.965  13.881  0.0106 -0.1245 -0.3207
  567TMC3    O1 8472   1.715   0.811  14.312 -0.1339  0.5030  0.7397
  567TMC3    O2 8473   1.430   0.958  13.790 -0.1845 -0.1597 -0.0705
  568MPD2     C 8474   3.446   1.081  16.190 -0.2760 -0.1170  0.6005
  568MPD2    C1 8475   3.414   1.172  16.288 -0.3486  0.2803  0.4225
  568MPD2    C2 8476   3.389   1.303  16.250 -0.1027 -0.4863 -0.2044
  568MPD2    C3 8477   3.401   1.346  16.119  0.0417 -0.4935  0.5239
  568MPD2    C4 8478   3.428   1.260  16.022 -0.2420 -0.2721 -0.4797
  568MPD2    C5 8479   3.447   1.124  16.054 -0.4623  0.1856 -0.0892
  568MPD2     H 8480   3.358   1.377  16.323 -0.5637  0.0237 -0.9228
  568MPD2    H1 8481   3.438   1.281  15.916  2.6780  1.8140  0.2309
  568MPD2    H2 8482   3.457   0.976  16.212  1.4543 -0.2350 -0.8223
  568MPD2    H3 8483   3.456   1.053  15.973  1.7297  0.4320 -0.0511
  568MPD2     N 8484   3.376   1.476  16.100 -0.2469 -1.0425 -0.0219
  568MPD2    H5 8485   3.371   1.530  16.185 -0.9940 -0.1338 -0.6454
  568MPD2    N1 8486   3.404   1.124  16.420 -0.3006 -0.5122  0.3733
  568MPD2    H7 8487   3.421   1.024  16.421 -1.1500 -0.6690 -0.0605
  569TMC3    C1 8488   3.336   1.687  15.998 -0.0810  0.2825  0.0446
  569TMC3    C2 8489   3.296   1.736  16.116 -0.3248 -0.0207  0.1096
  569TMC3    C3 8490   3.292   1.876  16.129 -0.4488 -0.1730  0.2110
  569TMC3    C4 8491   3.366   1.773  15.894  0.1983 -0.8438 -0.1445
  569TMC3    C5 8492   3.356   1.907  15.914 -0.0057 -0.2802 -0.6502
  569TMC3    C6 8493   3.326   1.963  16.038  0.4543 -0.3428 -0.7014
  569TMC3     C 8494   3.361   1.545  15.987 -0.0448  0.0513  0.1691
  569TMC3     O 8495   3.375   1.507  15.870  0.4406 -0.0228 -0.1399
  569TMC3     H 8496   3.259   1.669  16.193 -0.7099 -0.9215 -0.8613
  569TMC3    H1 8497   3.394   1.738  15.796  2.4047 -0.1437  0.2153
  569TMC3    H2 8498   3.319   2.070  16.058  2.8463 -0.2441 -0.3607
  569TMC3    C7 8499   3.373   1.997  15.800 -0.5922  0.6902 -0.0690
  569TMC3    C8 8500   3.281   1.915  16.270 -0.1975 -0.6351  0.3125
  569TMC3    O1 8501   3.347   1.959  15.688  0.5574 -0.9816 -0.1897
  569TMC3    O2 8502   3.205   1.857  16.341 -0.0297 -0.6294 -0.3066
  570TMC3    C1 8503   2.862   0.231  16.245  0.4440 -0.2178  0.2192
  570TMC3    C2 8504   2.893   0.254  16.116 -0.8021  0.2459 -0.0437
  570TMC3    C3 8505   2.962   0.364  16.080 -0.3768  0.1594  0.4086
  570TMC3    C4 8506   2.883   0.322  16.347 -0.7302 -0.4496 -0.8877
  570TMC3    C5 8507   2.948   0.438  16.309 -0.0969  0.5802 -0.1274
  570TMC3    C6 8508   2.972   0.461  16.178 -0.6924 -0.9316 -0.4814
  570TMC3     C 8509   2.783   0.111  16.271  0.0122  0.0262  0.0105
  570TMC3     O 8510   2.758   0.043  16.174  0.6299  0.1123 -0.4140
  570TMC3     H 8511   2.892   0.166  16.053  1.4237  1.5310 -1.9072
  570TMC3    H1 8512   2.862   0.297  16.450  2.3617  2.6180  0.4800
  570TMC3    H2 8513   3.040   0.541  16.150 -1.9539  0.2587 -0.0970
  570TMC3    C7 8514   2.960   0.545  16.404 -0.1062 -0.3328  0.3233
  570TMC3    C8 8515   3.028   0.363  15.955  0.1837 -0.2191 -0.3016
  570TMC3    O1 8516   2.959   0.509  16.519 -0.5898 -0.8235 -0.3407
  570TMC3    O2 8517   3.127   0.433  15.946 -0.1400 -0.1832  0.3477
  571MPD2     C 8518   0.908   2.671   0.328 -0.4817  0.2460  0.1673
  571MPD2    C1 8519   0.957   2.565   0.252 -0.2230  0.1080 -0.9752
  571MPD2    C2 8520   1.094   2.539   0.242  0.4620  0.2943  0.4443
  571MPD2    C3 8521   1.184   2.633   0.296 -0.7246  0.4524 -0.3628
  571MPD2    C4 8522   1.146   2.739   0.368 -0.3006 -0.1918 -0.5027
  571MPD2    C5 8523   1.006   2.754   0.386  0.3749 -0.3143  0.3321
  571MPD2     H 8524   1.129   2.456   0.182 -2.4712 -1.1165  0.6879
  571MPD2    H1 8525   1.217   2.807   0.413  0.6509 -0.3962 -1.6939
  571MPD2    H2 8526   0.804   2.693   0.349  0.0093  1.4784  1.3159
  571MPD2    H3 8527   0.952   2.828   0.444 -0.1524 -0.2547 -0.2405
  571MPD2     N 8528   1.323   2.631   0.267 -0.1107 -0.0776  0.3980
  571MPD2    H5 8529   1.380   2.713   0.289  2.5957 -1.8661  0.0315
  571MPD2    N1 8530   0.860   2.476   0.196 -0.3155 -0.1560 -0.1894
  571MPD2    H7 8531   0.768   2.493   0.236 -0.7829  1.7557 -2.0801
  572TMC3    C1 8532   1.491   2.564   0.108  0.1112  0.7800  0.4942
  572TMC3    C2 8533   1.597   2.474   0.116  0.0468  0.1896  0.5259
  572TMC3    C3 8534   1.664   2.438   0.004 -0.1134  1.5687  0.5731
  572TMC3    C4 8535   1.452   2.609  17.743  0.7524 -0.6816  0.3182
  572TMC3    C5 8536   1.517   2.568  17.635  0.4416  0.0676  0.4924
  572TMC3    C6 8537   1.629   2.497  17.638  0.2671  0.5133 -0.3241
  572TMC3     C 8538   1.381   2.528   0.193  0.3794 -0.2930 -0.5926
  572TMC3     O 8539   1.351   2.410   0.195 -0.0675 -0.5790  0.1116
  572TMC3     H 8540   1.608   2.431   0.215  0.3461  1.8083  1.1861
  572TMC3    H1 8541   1.351   2.638  17.714  2.6020  2.3507 -3.1665
  572TMC3    H2 8542   1.688   2.476  17.550  1.9171 -1.9023  1.3835
  572TMC3    C7 8543   1.483   2.642  17.512  0.6576  0.6623  0.7327
  572TMC3    C8 8544   1.679   2.292  17.745  0.7681  0.3905  0.0569
  572TMC3    O1 8545   1.387   2.720  17.517  0.3884 -0.3597  0.4799
  572TMC3    O2 8546   1.737   2.247  17.646  0.6373  0.3332 -0.2950
  573MPD2     C 8547   1.910   2.562   0.493 -0.5972 -0.7553 -0.2221
  573MPD2    C1 8548   2.018   2.632   0.456  0.7593 -1.5523  0.4158
  573MPD2    C2 8549   2.079   2.601   0.340 -0.0220 -0.3674  0.2329
  573MPD2    C3 8550   2.039   2.490   0.263  0.7025  0.3977  0.5178
  573MPD2    C4 8551   1.928   2.416   0.300 -0.4053 -0.3274  0.3330
  573MPD2    C5 8552   1.870   2.448   0.421 -0.9147 -0.4935 -1.2315
  573MPD2     H 8553   2.171   2.654   0.318  0.0010 -0.4373  0.1624
  573MPD2    H1 8554   1.899   2.330   0.242 -1.8333  0.5597 -0.2726
  573MPD2    H2 8555   1.848   2.586   0.579 -1.4297 -1.3390 -0.6606
  573MPD2    H3 8556   1.777   2.398   0.446  0.0846 -1.7051  0.0296
  573MPD2     N 8557   2.094   2.457   0.140 -0.0455 -0.4921  0.4570
  573MPD2    H5 8558   2.049   2.378   0.093  0.4599 -0.1834 -0.5484
  573MPD2    N1 8559   2.059   2.742   0.540  0.2649 -0.7554  0.4831
  573MPD2    H7 8560   2.004   2.755   0.625  0.8260  0.8141  0.6090
  574TMC3    C1 8561   2.162   2.532  17.686 -0.3625  0.7657  0.8544
  574TMC3    C2 8562   2.030   2.543  17.655  0.7215 -0.0708  0.4655
  574TMC3    C3 8563   1.987   2.657  17.585 -0.9288  0.0475 -0.0617
  574TMC3    C4 8564   2.257   2.616  17.617  0.4534  0.1113  0.4113
  574TMC3    C5 8565   2.208   2.706  17.519 -0.2780  0.3451  0.1548
  574TMC3    C6 8566   2.071   2.732  17.512 -0.3571 -0.5164  0.4335
  574TMC3     C 8567   2.195   2.527   0.073 -0.2271 -0.0390  0.0767
  574TMC3     O 8568   2.273   2.611   0.117 -0.4687 -0.5362  0.1349
  574TMC3     H 8569   1.954   2.489  17.709  1.1490 -0.3672  0.7717
  574TMC3    H1 8570   2.362   2.615  17.641  0.3869 -2.0858  0.6195
  574TMC3    H2 8571   2.029   2.815  17.457 -2.1900 -1.0124  1.0911
  574TMC3    C7 8572   2.301   2.802  17.458 -0.8644 -0.3269 -0.3590
  574TMC3    C8 8573   1.869   2.727  17.635  0.6862 -0.5502 -0.7032
  574TMC3    O1 8574   2.419   2.784  17.492 -0.3966 -0.0283  0.0555
  574TMC3    O2 8575   1.850   2.696   0.001 -0.1753  0.0319  0.1880
  575TMC3    C1 8576   4.287   3.609  11.275  0.0584 -1.2084 -0.1410
  575TMC3    C2 8577   4.317   3.500  11.190  0.1379 -0.3515 -0.7427
  575TMC3    C3 8578   4.327   3.534  11.057  0.8560 -0.2462  0.9679
  575TMC3    C4 8579   4.249   3.731  11.222  0.5853  0.1679 -0.2218
  575TMC3    C5 8580   4.257   3.753  11.085 -0.5415 -0.6443 -0.0306
  575TMC3    C6 8581   4.302   3.656  11.005  0.2805  0.0994 -0.8027
  575TMC3     C 8582   4.258   3.572  11.413 -0.8189 -0.3302 -0.2682
  575TMC3     O 8583   4.296   3.463  11.455 -0.2571 -0.1950 -0.2045
  575TMC3     H 8584   4.322   3.397  11.224 -1.0622  0.2929  1.3546
  575TMC3    H1 8585   4.239   3.819  11.285 -2.3145  0.5245 -1.2205
  575TMC3    H2 8586   4.344   3.680  10.908  0.3768  0.4406 -0.6766
  575TMC3    C7 8587   4.231   3.880  11.031 -0.5051 -0.2612 -0.4243
  575TMC3    C8 8588   4.334   3.426  10.962  0.2665 -0.2751 -0.1988
  575TMC3    O1 8589   4.300   3.920  10.935 -0.5169  0.5177  0.1227
  575TMC3    O2 8590   4.362   3.314  11.000 -0.8013  0.5526 -1.1872
  576MPD2     C 8591   4.300   0.505  12.846 -0.2064 -0.2530 -0.0710
  576MPD2    C1 8592   4.237   0.609  12.777 -0.2162 -0.7497  0.4723
  576MPD2    C2 8593   4.164   0.696  12.843  0.4408  0.4935 -0.1205
  576MPD2    C3 8594   4.131   0.677  12.979  0.1157 -0.2173 -0.7694
  576MPD2    C4 8595   4.179   0.565  13.041  0.3260 -0.6343 -0.3125
  576MPD2    C5 8596   4.263   0.484  12.973  0.9401 -0.0655  0.2629
  576MPD2     H 8597   4.131   0.782  12.786 -0.5214 -0.4712 -1.0008
  576MPD2    H1 8598   4.150   0.529  13.139 -2.1752 -2.7515 -1.8180
  576MPD2    H2 8599   4.365   0.430  12.803 -1.7628 -1.7292  0.1542
  576MPD2    H3 8600   4.298   0.398  13.028 -0.4833 -0.7371  0.1191
  576MPD2     N 8601   4.052   0.776  13.037  0.2610 -0.1186  0.0878
  576MPD2    H5 8602   4.017   0.849  12.977 -0.2798  0.3335  0.9537
  576MPD2    N1 8603   4.268   0.636  12.642  0.0990  0.0739  0.0412
  576MPD2    H7 8604   4.225   0.720  12.603 -0.8315 -1.0524 -1.3818
  577TMC3    C1 8605   4.388   0.641  12.442  0.2882 -0.2891  0.1990
  577TMC3    C2 8606   4.486   0.582  12.366  0.0779  0.3253 -0.8014
  577TMC3    C3 8607   4.511   0.642  12.249 -0.2274  0.8844  0.5529
  577TMC3    C4 8608   4.319   0.748  12.393 -0.5839 -0.1092 -0.2135
  577TMC3    C5 8609   4.355   0.802  12.277 -0.5541  0.1867  0.3143
  577TMC3    C6 8610   4.443   0.751  12.193 -0.4627 -0.1274  0.1746
  577TMC3     C 8611   4.361   0.577  12.566  0.0238  0.0483 -0.5005
  577TMC3     O 8612   4.428   0.480  12.601 -0.0206  0.1085  0.6754
  577TMC3     H 8613   4.544   0.497  12.400 -1.6169  0.4035  2.2380
  577TMC3    H1 8614   4.225   0.783  12.432  0.4231  3.1483 -0.6788
  577TMC3    H2 8615   4.475   0.806  12.106 -2.0731  1.0514  0.3205
  577TMC3    C7 8616   4.298   0.940  12.265  0.1095 -0.0061 -0.5741
  577TMC3    C8 8617   4.612   0.576  12.171  0.5023  0.2922  0.1924
  577TMC3    O1 8618   4.257   1.000  12.364 -0.4672  0.7556 -0.4396
  577TMC3    O2 8619   4.637   0.456  12.198  0.6195 -0.2270 -0.0370
  578MPD2     C 8620   3.575   0.607   1.085 -0.1330  0.7337  0.7516
  578MPD2    C1 8621   3.532   0.502   1.008  0.5107 -0.2156 -0.1803
  578MPD2    C2 8622   3.541   0.376   1.065 -0.1268  0.1173 -0.1155
  578MPD2    C3 8623   3.585   0.364   1.201 -0.3836  0.0108  0.1765
  578MPD2    C4 8624   3.646   0.469   1.267 -0.3555 -0.3792 -0.7433
  578MPD2    C5 8625   3.634   0.591   1.209  0.1378  0.7792  0.5155
  578MPD2     H 8626   3.505   0.285   1.019 -2.1879  1.6650 -1.5448
  578MPD2    H1 8627   3.687   0.467   1.367 -0.0598  1.0735 -0.8265
  578MPD2    H2 8628   3.582   0.709   1.048  0.5605  1.0961  1.8777
  578MPD2    H3 8629   3.685   0.678   1.249  0.2461  0.4409  1.1064
  578MPD2     N 8630   3.581   0.236   1.265  0.5079 -0.1504 -0.0041
  578MPD2    H5 8631   3.525   0.165   1.219  1.4763 -1.9351  1.5546
  578MPD2    N1 8632   3.486   0.523   0.874 -0.1146  0.5587  0.3358
  578MPD2    H7 8633   3.493   0.621   0.846 -1.5176  1.3700  2.8853
  579TMC3    C1 8634   3.628   0.063   1.415 -0.4653 -0.2980 -0.5899
  579TMC3    C2 8635   3.729   0.010   1.490 -0.7836 -0.5476 -0.3608
  579TMC3    C3 8636   3.741   4.620   1.518 -0.7247  0.2394 -0.1700
  579TMC3    C4 8637   3.538   4.717   1.350  0.1396  0.2744  0.5835
  579TMC3    C5 8638   3.556   4.582   1.372 -0.5265 -0.6245 -0.1646
  579TMC3    C6 8639   3.657   4.527   1.457 -0.2125  0.4707  0.1146
  579TMC3     C 8640   3.646   0.203   1.381 -0.2749 -0.0571  0.5170
  579TMC3     O 8641   3.733   0.260   1.446 -0.2520  0.3572  0.3848
  579TMC3     H 8642   3.765   0.072   1.571  3.2849 -1.4636 -1.4533
  579TMC3    H1 8643   3.451   0.018   1.300 -0.4282 -0.5784  0.9007
  579TMC3    H2 8644   3.664   4.420   1.474 -0.3426  0.2557 -1.1222
  579TMC3    C7 8645   3.472   4.486   1.302 -0.4827  0.4544 -0.2145
  579TMC3    C8 8646   3.878   4.580   1.545 -0.3177 -1.4412  0.1746
  579TMC3    O1 8647   3.486   4.364   1.325  0.3975 -0.1250  0.3753
  579TMC3    O2 8648   3.904   4.470   1.498  0.1310 -0.3161 -0.1057
  580TMC3    C1 8649   1.986   0.017  11.484  0.2540  0.5062  0.5273
  580TMC3    C2 8650   2.096   0.064  11.424  0.9724 -0.5880 -0.1764
  580TMC3    C3 8651   2.198   4.717  11.384  0.1819  0.3529 -0.6620
  580TMC3    C4 8652   1.977   4.626  11.504  0.0763  0.5424  0.1929
  580TMC3    C5 8653   2.079   4.539  11.470  0.7575 -0.1942 -1.3679
  580TMC3    C6 8654   2.190   4.583  11.404  0.2273 -0.3520  0.1191
  580TMC3     C 8655   1.982   0.086  11.610 -0.1641 -0.0202  0.3420
  580TMC3     O 8656   1.978   0.210  11.605 -0.2585  1.0491  0.1288
  580TMC3     H 8657   2.104   0.171  11.412 -1.2853 -0.6173 -1.9211
  580TMC3    H1 8658   1.895   4.591  11.566  0.0595  0.5085  0.1519
  580TMC3    H2 8659   2.267   4.509  11.387 -0.2959 -1.2375  1.6132
  580TMC3    C7 8660   2.097   4.422  11.555 -0.2962  0.0020  0.6744
  580TMC3    C8 8661   2.332   0.040  11.383 -0.4954 -1.2374 -0.4637
  580TMC3    O1 8662   2.060   4.431  11.670 -0.6269 -0.0020 -0.1600
  580TMC3    O2 8663   2.340   0.160  11.356 -0.8255 -0.0860 -0.1148
  581MPD2     C 8664   0.473   3.890  14.814  0.4574  0.5084 -0.8096
  581MPD2    C1 8665   0.399   3.955  14.905 -0.1997 -0.2029  0.0110
  581MPD2    C2 8666   0.304   4.041  14.867  0.5731 -0.5118  0.1764
  581MPD2    C3 8667   0.264   4.042  14.739  0.1951 -0.4968 -0.2030
  581MPD2    C4 8668   0.327   3.968  14.646 -0.3957 -1.0744 -0.2954
  581MPD2    C5 8669   0.431   3.888  14.684  0.0787  0.0485 -0.5666
  581MPD2     H 8670   0.242   4.098  14.935 -0.1115 -0.5790 -0.3991
  581MPD2    H1 8671   0.296   3.960  14.542 -0.5687  1.1497 -0.4130
  581MPD2    H2 8672   0.547   3.817  14.843 -0.4192 -0.3107 -0.6327
  581MPD2    H3 8673   0.485   3.831  14.609 -3.4656  0.8507 -3.7162
  581MPD2     N 8674   0.145   4.117  14.707 -0.0293  0.4890  0.0828
  581MPD2    H5 8675   0.108   4.172  14.784 -0.4140  0.7192 -0.2664
  581MPD2    N1 8676   0.418   3.940  15.042 -0.2309  0.0867  0.0638
  581MPD2    H7 8677   0.464   3.857  15.077  1.0779  2.2411  3.3458
  582TMC3    C1 8678   0.298   3.970  15.236 -0.2131 -0.2141  0.7780
  582TMC3    C2 8679   0.312   4.019  15.367 -0.0189  0.2003 -0.0790
  582TMC3    C3 8680   0.204   4.072  15.430  0.3223 -0.3737  0.1652
  582TMC3    C4 8681   0.173   3.966  15.189  0.3608 -0.8672  0.7403
  582TMC3    C5 8682   0.069   4.035  15.245  0.6813 -1.1375 -0.2316
  582TMC3    C6 8683   0.082   4.084  15.370  0.5640  0.4851 -0.0394
  582TMC3     C 8684   0.379   4.034  15.138 -0.3050  0.1486  0.5385
  582TMC3     O 8685   0.379   4.155  15.129  0.8610  0.0220  0.1207
  582TMC3     H 8686   0.410   4.034  15.410 -0.8677 -0.9219  2.2554
  582TMC3    H1 8687   0.164   3.925  15.090  0.2092  0.2104  0.3047
  582TMC3    H2 8688   0.009   4.136  15.431  1.4258  0.6559  0.8567
  582TMC3    C7 8689   4.693   4.075  15.161 -0.4759 -0.1342 -0.2698
  582TMC3    C8 8690   0.199   4.086  15.571 -0.1026 -0.8385  0.0353
  582TMC3    O1 8691   4.678   4.015  15.053  0.4660 -0.4615 -0.0799
  582TMC3    O2 8692   0.094   4.110  15.630  0.0167  0.3933  1.0833
  583MPD2     C 8693   0.036   1.373  16.729 -1.0283 -0.5521 -0.0274
  583MPD2    C1 8694   0.043   1.500  16.673  0.5347 -0.1048  0.1095
  583MPD2    C2 8695   0.016   1.601  16.768  0.2187 -0.4960  0.3537
  583MPD2    C3 8696   4.731   1.578  16.902 -0.2240  0.0156  0.1518
  583MPD2    C4 8697   4.735   1.446  16.951  0.5505  0.0034  0.0803
  583MPD2    C5 8698   0.019   1.347  16.860 -0.0531 -0.5595 -0.4331
  583MPD2     H 8699   0.031   1.705  16.742  1.9993 -1.5113 -2.7077
  583MPD2    H1 8700   4.729   1.418  17.055  0.5130  2.1863  0.6767
  583MPD2    H2 8701   0.053   1.285  16.669 -1.1389  0.1050 -1.0155
  583MPD2    H3 8702   0.010   1.241  16.881 -0.5861 -0.3774  0.2614
  583MPD2     N 8703   4.707   1.698  16.976 -0.3226  0.6211 -0.0415
  583MPD2    H5 8704   4.674   1.777  16.921  0.7892  0.8171 -0.4357
  583MPD2    N1 8705   0.092   1.538  16.543  0.3447  1.1156 -0.1049
  583MPD2    H7 8706   0.076   1.632  16.507 -0.5762  0.1688 -2.1787
  584TMC3    C1 8707   4.691   1.833  17.174  0.4345  0.0976 -0.2734
  584TMC3    C2 8708   0.004   1.940  17.103 -0.1204  0.3163  0.0812
  584TMC3    C3 8709   0.037   2.049  17.181  0.9422  0.4064  0.1306
  584TMC3    C4 8710   4.670   1.834  17.307  0.4693 -0.9017  0.2465
  584TMC3    C5 8711   4.705   1.951  17.378  0.0405 -0.0174  0.1059
  584TMC3    C6 8712   0.019   2.057  17.312  0.3946  0.4289 -0.3185
  584TMC3     C 8713   4.698   1.704  17.114  0.0748 -0.0393  0.1398
  584TMC3     O 8714   4.719   1.612  17.192  0.1150 -0.0846 -0.2281
  584TMC3     H 8715   0.027   1.930  16.998  0.4378  2.8179 -0.0431
  584TMC3    H1 8716   4.617   1.757  17.361 -0.8433 -0.3827 -0.2926
  584TMC3    H2 8717   0.058   2.146  17.360  1.9561 -0.3384 -0.1603
  584TMC3    C7 8718   4.651   1.969  17.513  0.1463  0.0233 -0.0574
  584TMC3    C8 8719   0.101   2.168  17.119 -0.6530 -0.0916  0.0097
  584TMC3    O1 8720   4.575   1.885  17.560  0.0643  0.4090 -0.6394
  584TMC3    O2 8721   0.066   2.208  17.011  0.9613 -0.5315 -0.3395
  585MPD2     C 8722   4.262   4.617   0.476  0.3286  0.3452 -0.0774
  585MPD2    C1 8723   4.312   4.669   0.359 -0.2908 -0.0254  0.4432
  585MPD2    C2 8724   4.257   4.635   0.235  0.0065 -0.0426 -0.1825
  585MPD2    C3 8725   4.164   4.534   0.228  0.3667 -0.1709  0.0136
  585MPD2    C4 8726   4.132   4.471   0.351  0.3276  0.3492  0.2537
  585MPD2    C5 8727   4.179   4.512   0.478 -0.4404 -0.3498 -0.4836
  585MPD2     H 8728   4.281   4.692   0.146  0.2744 -0.2596 -0.2459
  585MPD2    H1 8729   4.052   4.398   0.351  1.6936 -1.1643 -0.1480
  585MPD2    H2 8730   4.297   4.652   0.573  0.4197 -1.2706  0.4748
  585MPD2    H3 8731   4.133   4.463   0.563  0.6270  0.6807  0.6652
  585MPD2     N 8732   4.083   4.502   0.121  0.2822  0.2229  0.9905
  585MPD2    H5 8733   4.021   4.423   0.136  1.2427 -0.7662 -0.2934
  585MPD2    N1 8734   4.422   0.020   0.371 -0.1575  0.3775  0.5077
  585MPD2    H7 8735   4.432   0.056   0.466  0.8207  0.7996  0.2550
  586TMC3    C1 8736   3.979   4.509  17.660  0.2128 -0.2596  0.2227
  586TMC3    C2 8737   4.010   4.522  17.529 -0.6221  0.4434 -0.9692
  586TMC3    C3 8738   3.912   4.495  17.435 -0.3433  0.7372 -0.2897
  586TMC3    C4 8739   3.849   4.499  17.702  0.1952 -0.1976  0.1771
  586TMC3    C5 8740   3.748   4.492  17.612 -0.7445  0.3618  0.4227
  586TMC3    C6 8741   3.780   4.479  17.478  0.3194 -0.1069 -1.0489
  586TMC3     C 8742   4.083   4.553  17.747  0.8236 -0.5377  0.6024
  586TMC3     O 8743   4.176   4.620  17.701  0.4294 -0.0885  0.8479
  586TMC3     H 8744   4.111   4.534  17.493 -0.3025 -1.4812 -0.7230
  586TMC3    H1 8745   3.827   4.508   0.054 -0.4006  0.9226 -0.0323
  586TMC3    H2 8746   3.713   4.429  17.409  1.0172 -0.5245 -1.4176
  586TMC3    C7 8747   3.618   4.457  17.664 -0.3945  0.0232 -0.8760
  586TMC3    C8 8748   3.958   4.401  17.335 -0.1072 -0.1978 -0.1541
  586TMC3    O1 8749   3.609   4.384   0.010 -0.5192 -0.0830 -0.0517
  586TMC3    O2 8750   4.071   4.357  17.345  0.2906 -0.2578 -0.5168
  587TMC3    C1 8751   1.445   3.541  16.136  0.1334  0.4609  0.3464
  587TMC3    C2 8752   1.428   3.666  16.086  0.6111 -0.3542 -0.0645
  587TMC3    C3 8753   1.528   3.715  16.002 -0.0409  0.1142 -0.3095
  587TMC3    C4 8754   1.552   3.457  16.105  0.1518  0.1184  0.4018
  587TMC3    C5 8755   1.647   3.512  16.014  0.3758  0.2369 -0.0889
  587TMC3    C6 8756   1.642   3.642  15.974 -0.7832  0.2241  0.5163
  587TMC3     C 8757   1.349   3.479  16.223  0.7005  0.2729 -0.2168
  587TMC3     O 8758   1.326   3.357  16.215 -0.2617 -0.1270 -0.8153
  587TMC3     H 8759   1.342   3.723  16.119  0.1024 -1.9076  1.2924
  587TMC3    H1 8760   1.567   3.358  16.146  0.7362  1.0168  2.3730
  587TMC3    H2 8761   1.726   3.686  15.922 -0.8965  0.9934  0.9807
  587TMC3    C7 8762   1.760   3.431  15.983  0.0008  0.4032 -0.2743
  587TMC3    C8 8763   1.531   3.851  15.947  0.4913 -0.2566 -0.0659
  587TMC3    O1 8764   1.786   3.344  16.060  0.4807 -0.3762 -0.0703
  587TMC3    O2 8765   1.604   3.877  15.851  0.2096 -0.5230  0.0279
  588TMC3    C1 8766   3.788   1.787   9.924  0.1160  0.2860  0.3582
  588TMC3    C2 8767   3.703   1.683   9.953 -0.0957 -0.1332  0.3103
  588TMC3    C3 8768   3.661   1.683  10.086 -0.2256 -0.1469 -0.0380
  588TMC3    C4 8769   3.833   1.875  10.020  0.8097  0.8700 -0.7618
  588TMC3    C5 8770   3.808   1.858  10.149  0.4787 -0.3708  0.0920
  588TMC3    C6 8771   3.714   1.766  10.183 -0.2275  0.7560  0.0122
  588TMC3     C 8772   3.801   1.834   9.785 -0.0153  0.2759 -0.4334
  588TMC3     O 8773   3.808   1.750   9.695 -0.0986  0.0727 -0.0352
  588TMC3     H 8774   3.664   1.610   9.883  0.8253 -0.4709  0.1486
  588TMC3    H1 8775   3.901   1.955   9.993  1.9815 -0.1450 -0.7790
  588TMC3    H2 8776   3.687   1.757  10.288  0.8698  0.5556  0.2876
  588TMC3    C7 8777   3.846   1.966  10.249  0.0945 -0.5445  0.0592
  588TMC3    C8 8778   3.593   1.554  10.122  0.0727  0.0528  0.2646
  588TMC3    O1 8779   3.775   1.977  10.348 -0.1269 -0.0730 -0.5112
  588TMC3    O2 8780   3.518   1.493  10.049  0.4885 -0.5758  0.3818
  589TMC3    C1 8781   3.007   3.535   1.288 -0.6518  0.0984  0.0018
  589TMC3    C2 8782   3.122   3.581   1.347  0.5574  0.0488 -0.4465
  589TMC3    C3 8783   3.242   3.514   1.336  0.9778 -0.5034 -0.3125
  589TMC3    C4 8784   3.017   3.419   1.218 -0.0170  0.6303  0.4206
  589TMC3    C5 8785   3.140   3.359   1.202  0.0055  0.1008  0.3398
  589TMC3    C6 8786   3.258   3.396   1.259 -0.4526 -0.1958 -0.4828
  589TMC3     C 8787   2.925   3.630   1.219 -0.3385  0.7579 -0.6467
  589TMC3     O 8788   2.900   3.611   1.096 -0.0225  0.5850 -0.1557
  589TMC3     H 8789   3.125   3.681   1.388  1.1519  1.3993 -3.7505
  589TMC3    H1 8790   2.929   3.392   1.162  0.8381  1.7197 -1.4540
  589TMC3    H2 8791   3.345   3.332   1.263 -0.7834 -0.5687  0.6964
  589TMC3    C7 8792   3.138   3.237   1.118 -0.9036 -0.0739  0.4570
  589TMC3    C8 8793   3.357   3.574   1.413 -0.6593  0.2863  0.8022
  589TMC3    O1 8794   3.024   3.202   1.087  0.4315 -0.6326 -0.1564
  589TMC3    O2 8795   3.320   3.640   1.508  0.0893  0.1465  0.0495
  590MPD2     C 8796   2.659   1.823  16.492 -0.4664 -0.1423  0.3113
  590MPD2    C1 8797   2.626   1.891  16.377 -0.6284 -0.3219  0.4902
  590MPD2    C2 8798   2.712   1.994  16.338  0.2120 -0.0642  0.5938
  590MPD2    C3 8799   2.831   2.026  16.402  0.3302 -0.3649 -0.7691
  590MPD2    C4 8800   2.870   1.943  16.502 -0.1763 -0.1745  0.3301
  590MPD2    C5 8801   2.778   1.855  16.557 -0.4027 -0.0121  0.3779
  590MPD2     H 8802   2.673   2.056  16.259  1.2239 -0.9303 -0.5890
  590MPD2    H1 8803   2.963   1.965  16.553 -0.0657 -1.8355  0.8428
  590MPD2    H2 8804   2.603   1.738  16.528 -1.9817  0.3454 -0.9064
  590MPD2    H3 8805   2.796   1.801  16.649 -0.6915 -0.2527  0.2967
  590MPD2     N 8806   2.926   2.123  16.355  1.1005 -0.0243 -0.0005
  590MPD2    H5 8807   3.021   2.108  16.387  0.2940 -2.5411  1.2719
  590MPD2    N1 8808   2.515   1.866  16.296  0.3827 -0.1861 -0.1695
  590MPD2    H7 8809   2.498   1.937  16.225 -3.0479 -2.6073 -1.7680
  591TMC3    C1 8810   2.994   2.312  16.245 -1.1942  0.2730 -0.5346
  591TMC3    C2 8811   3.061   2.244  16.150  0.8240 -0.0815  0.0062
  591TMC3    C3 8812   3.089   2.308  16.028  0.2579  0.1973 -0.4138
  591TMC3    C4 8813   2.947   2.440  16.221  0.5150  0.1591 -0.2084
  591TMC3    C5 8814   2.989   2.502  16.111  0.1594 -0.1969 -0.7429
  591TMC3    C6 8815   3.050   2.439  16.011 -0.8653 -0.1349  0.2535
  591TMC3     C 8816   2.887   2.244  16.305  0.0563  0.0130  0.1023
  591TMC3     O 8817   2.770   2.285  16.303 -0.2501  0.3818 -0.3325
  591TMC3     H 8818   3.098   2.142  16.159 -1.8645 -0.7791  3.2119
  591TMC3    H1 8819   2.883   2.493  16.291  1.1724 -2.0817  2.0780
  591TMC3    H2 8820   3.069   2.483  15.914  1.0255  0.3357  0.8392
  591TMC3    C7 8821   2.915   2.620  16.085 -0.4209  0.5575 -0.7448
  591TMC3    C8 8822   3.072   2.212  15.915  0.1721  0.9430 -0.6091
  591TMC3    O1 8823   2.803   2.619  16.139 -0.2224 -0.0601  0.5296
  591TMC3    O2 8824   3.056   2.097  15.940  0.4178  0.5696  1.0250
  592MPD2     C 8825   3.221   4.162  11.518 -0.7565 -0.7805 -0.2246
  592MPD2    C1 8826   3.164   4.235  11.623  0.3387  0.2893 -0.4753
  592MPD2    C2 8827   3.050   4.187  11.688  0.6390  0.2488  0.0170
  592MPD2    C3 8828   2.985   4.082  11.631  0.0427 -0.5602  1.0230
  592MPD2    C4 8829   3.030   4.029  11.514  0.3653 -0.1535  0.6489
  592MPD2    C5 8830   3.143   4.071  11.456 -0.5062  0.2519 -0.5618
  592MPD2     H 8831   3.001   4.229  11.775 -1.5640 -0.5861 -0.7964
  592MPD2    H1 8832   2.979   3.944  11.469 -0.8032  0.7555  0.2691
  592MPD2    H2 8833   3.314   4.197  11.475 -0.6939 -1.6901 -0.8260
  592MPD2    H3 8834   3.172   4.026  11.361  0.0421 -1.0922  0.2397
  592MPD2     N 8835   2.890   4.014  11.716  0.7036 -0.3540  0.0684
  592MPD2    H5 8836   2.879   4.043  11.812  0.7920 -0.9672  0.2568
  592MPD2    N1 8837   3.230   4.354  11.663  0.6245  0.3234 -0.2104
  592MPD2    H7 8838   3.302   4.392  11.602  2.1600 -3.2975 -0.6780
  593TMC3    C1 8839   3.282   4.537  11.796  1.5610  0.3927  0.0047
  593TMC3    C2 8840   3.288   4.571  11.928 -0.6929 -0.3796 -0.0192
  593TMC3    C3 8841   3.390   4.653  11.973 -0.3101 -0.1743 -0.0426
  593TMC3    C4 8842   3.390   4.570  11.715 -0.1580 -0.4333 -0.2241
  593TMC3    C5 8843   3.487   4.651  11.764  0.1026  0.4459  0.7496
  593TMC3    C6 8844   3.485   4.696  11.890  0.6939 -0.1112  0.6079
  593TMC3     C 8845   3.195   4.424  11.774 -0.3099  0.3713 -0.2355
  593TMC3     O 8846   3.127   4.383  11.864 -0.1528 -0.6839 -0.5549
  593TMC3     H 8847   3.199   4.551  11.988 -0.9507 -0.4875 -0.4426
  593TMC3    H1 8848   3.380   4.551  11.609 -0.9050 -1.2364 -0.0013
  593TMC3    H2 8849   3.545   0.043  11.918  0.9974  0.3802 -1.5313
  593TMC3    C7 8850   3.561   4.726  11.667  0.4698  0.3974 -0.1344
  593TMC3    C8 8851   3.360   4.727  12.089 -0.8002  0.4422  0.0178
  593TMC3    O1 8852   3.625   0.088  11.700  0.3898 -0.2592 -0.5992
  593TMC3    O2 8853   3.241   4.729  12.127  0.4183  0.2115 -0.3000
  594MPD2     C 8854   1.508   2.865  14.248  0.7266 -0.0915  0.1558
  594MPD2    C1 8855   1.531   2.865  14.383  0.6164 -0.5636 -0.6088
  594MPD2    C2 8856   1.655   2.907  14.436  0.3047  0.0228  0.5382
  594MPD2    C3 8857   1.754   2.963  14.346  0.4507 -0.1356 -0.7043
  594MPD2    C4 8858   1.741   2.942  14.212 -0.0131 -0.5127  0.1879
  594MPD2    C5 8859   1.622   2.896  14.165 -0.3621 -0.5489  0.1891
  594MPD2     H 8860   1.667   2.923  14.543 -0.9064 -0.0006  0.6803
  594MPD2    H1 8861   1.817   2.973  14.142  0.9688 -1.1322  0.9746
  594MPD2    H2 8862   1.416   2.827  14.206  1.9927 -2.1903 -0.7747
  594MPD2    H3 8863   1.606   2.897  14.058 -1.3534  0.9115  0.3405
  594MPD2     N 8864   1.881   2.997  14.406  0.6167  0.3956 -0.8395
  594MPD2    H5 8865   1.876   3.016  14.505 -1.4207  1.9310 -1.2334
  594MPD2    N1 8866   1.423   2.829  14.465 -0.2733 -0.0424  0.1025
  594MPD2    H7 8867   1.337   2.814  14.412 -0.2677 -2.7014  0.8569
  595TMC3    C1 8868   2.333   3.116  14.422  0.0357 -0.9645 -0.2549
  595TMC3    C2 8869   2.232   3.054  14.355 -0.3335  0.0381 -0.5000
  595TMC3    C3 8870   2.111   3.078  14.404  1.0636  0.2472 -0.3439
  595TMC3    C4 8871   2.317   3.205  14.524 -0.3668  0.6284 -0.3446
  595TMC3    C5 8872   2.189   3.231  14.565 -0.5033  0.5853 -0.3622
  595TMC3    C6 8873   2.084   3.159  14.512  0.3681 -0.7647  0.0331
  595TMC3     C 8874   2.472   3.098  14.380  0.0048  0.8661  0.9472
  595TMC3     O 8875   2.551   3.122  14.471 -0.1933  0.5790 -0.0339
  595TMC3     H 8876   2.252   2.979  14.279  1.9089 -0.6924  0.8062
  595TMC3    H1 8877   2.400   3.259  14.567  0.2527 -0.4274 -0.2220
  595TMC3    H2 8878   1.982   3.179  14.541  0.6515  0.7327 -0.0008
  595TMC3    C7 8879   2.149   3.372  14.596 -0.8845  1.0999  0.0684
  595TMC3    C8 8880   2.000   3.003  14.339 -0.3288 -0.2583  0.8338
  595TMC3    O1 8881   2.034   3.381  14.635 -0.0685  0.0361  0.5816
  595TMC3    O2 8882   2.029   2.934  14.237  0.0633 -0.0582  0.0631
  596MPD2     C 8883   1.022   0.934  16.578 -0.2986 -0.1163  0.2494
  596MPD2    C1 8884   1.024   1.070  16.529 -0.5936 -0.3550 -0.0942
  596MPD2    C2 8885   1.058   1.086  16.398  0.5436  0.0784  0.3149
  596MPD2    C3 8886   1.055   0.978  16.310 -0.5910 -0.2763 -0.5765
  596MPD2    C4 8887   1.025   0.850  16.352 -0.6851  0.6914  0.0309
  596MPD2    C5 8888   1.013   0.827  16.489 -0.9135 -0.2069 -0.1886
  596MPD2     H 8889   1.069   1.186  16.359  1.6068 -0.9830 -2.1276
  596MPD2    H1 8890   1.023   0.764  16.286  2.5059  0.9786 -0.4362
  596MPD2    H2 8891   1.018   0.911  16.683  2.8502  0.9484  0.6193
  596MPD2    H3 8892   0.992   0.724  16.517 -2.3765 -0.1287 -0.9765
  596MPD2     N 8893   1.081   0.997  16.173 -0.0040 -0.3012 -0.0733
  596MPD2    H5 8894   1.096   0.912  16.119 -0.5516 -0.0455 -0.6313
  596MPD2    N1 8895   1.025   1.180  16.616  0.9367  0.1028  0.0140
  596MPD2    H7 8896   1.029   1.267  16.563  0.0201 -0.0158 -0.2577
  597TMC3    C1 8897   1.008   1.331  16.795 -0.4711 -0.3315  0.4365
  597TMC3    C2 8898   1.090   1.419  16.724 -0.3890  0.2517  0.3234
  597TMC3    C3 8899   1.070   1.545  16.765  0.7794 -1.2248 -0.2697
  597TMC3    C4 8900   0.911   1.362  16.882  0.2676  0.1830 -0.5410
  597TMC3    C5 8901   0.892   1.497  16.905 -0.2558  0.2064  0.6431
  597TMC3    C6 8902   0.980   1.589  16.851  0.2611  0.5101 -0.0021
  597TMC3     C 8903   1.006   1.189  16.751  0.1726 -0.0366 -0.4585
  597TMC3     O 8904   0.980   1.100  16.829 -0.7260  0.4033  0.1036
  597TMC3     H 8905   1.176   1.380  16.670 -0.2317  1.6309 -0.4005
  597TMC3    H1 8906   0.828   1.298  16.911  1.2708 -0.8386  0.0500
  597TMC3    H2 8907   0.979   1.697  16.865 -0.1165  0.5301 -0.1668
  597TMC3    C7 8908   0.763   1.530  16.969  0.1168 -0.0911  0.1195
  597TMC3    C8 8909   1.112   1.651  16.675 -0.3306  0.4741 -0.5558
  597TMC3    O1 8910   0.713   1.441  17.041 -0.1007 -0.7657 -0.0618
  597TMC3    O2 8911   1.055   1.757  16.662 -0.1238 -0.1182 -0.0230
  598TMC3    C1 8912   3.725   2.369  15.243 -0.0692  0.0616 -0.2024
  598TMC3    C2 8913   3.679   2.240  15.220  0.2708 -0.9643 -0.2404
  598TMC3    C3 8914   3.711   2.175  15.107  1.0809  0.0246 -0.3592
  598TMC3    C4 8915   3.806   2.423  15.145 -0.5941 -0.4155 -0.0164
  598TMC3    C5 8916   3.846   2.349  15.036  0.4409  0.0518  0.0620
  598TMC3    C6 8917   3.791   2.229  15.012 -0.4134  0.0693 -0.0608
  598TMC3     C 8918   3.743   2.419  15.381  0.6916 -0.3225 -0.2876
  598TMC3     O 8919   3.755   2.541  15.389 -0.7505 -0.5135 -1.1545
  598TMC3     H 8920   3.612   2.187  15.287 -0.7370 -0.3357 -0.7545
  598TMC3    H1 8921   3.847   2.523  15.158 -4.4228  1.0277  1.0462
  598TMC3    H2 8922   3.821   2.179  14.921  1.3632 -0.0165  0.5772
  598TMC3    C7 8923   3.895   2.423  14.919  0.4842  0.0640  0.4272
  598TMC3    C8 8924   3.680   2.033  15.086  0.1011  0.3505 -0.5023
  598TMC3    O1 8925   3.861   2.381  14.811 -0.0506 -0.1947 -0.2234
  598TMC3    O2 8926   3.757   1.973  15.017  0.0991  0.7332  0.4251
  599MPD2     C 8927   3.622   4.117  15.528 -0.4310  0.2832  0.0568
  599MPD2    C1 8928   3.668   4.204  15.625 -0.5354 -0.3362 -0.3476
  599MPD2    C2 8929   3.571   4.272  15.692  0.5204 -0.7144  0.6111
  599MPD2    C3 8930   3.433   4.242  15.684 -0.0539 -0.0122  0.2594
  599MPD2    C4 8931   3.398   4.145  15.593 -1.0075 -1.3620 -0.5149
  599MPD2    C5 8932   3.488   4.087  15.513 -0.0921  0.1205  0.4250
  599MPD2     H 8933   3.613   4.336  15.770 -2.3602  0.4438  1.2032
  599MPD2    H1 8934   3.298   4.104  15.589 -1.5161 -0.2666  1.1474
  599MPD2    H2 8935   3.701   4.078  15.465  0.0280 -2.2782  2.1933
  599MPD2    H3 8936   3.444   4.022  15.438  2.1216 -0.6999 -0.1814
  599MPD2     N 8937   3.337   4.282  15.788 -0.3892 -0.0688  0.3959
  599MPD2    H5 8938   3.239   4.256  15.785 -0.9237  1.9307  0.1550
  599MPD2    N1 8939   3.806   4.227  15.632  0.7360 -0.3713 -0.4871
  599MPD2    H7 8940   3.876   4.178  15.577  0.7701 -0.8748  0.0145
  600TMC3    C1 8941   3.247   4.428  15.954  0.4724 -0.3264 -0.1620
  600TMC3    C2 8942   3.135   4.353  15.953  0.5353 -0.0293  0.4161
  600TMC3    C3 8943   3.019   4.399  16.002  0.5541 -0.3999  0.3798
  600TMC3    C4 8944   3.257   4.551  16.013 -0.6754 -0.2966 -0.5149
  600TMC3    C5 8945   3.147   4.591  16.085 -0.4661 -0.1157 -0.3287
  600TMC3    C6 8946   3.029   4.519  16.077 -0.4635  0.4246  0.0759
  600TMC3     C 8947   3.359   4.386  15.876 -0.0765  0.6018 -0.0263
  600TMC3     O 8948   3.465   4.452  15.882  0.1490 -0.5272  0.6017
  600TMC3     H 8949   3.133   4.251  15.916 -0.1741 -0.3311  1.3158
  600TMC3    H1 8950   3.346   4.614  16.009 -0.8605  0.1218  2.1369
  600TMC3    H2 8951   2.939   4.573  16.104 -0.7546  0.0202 -0.0901
  600TMC3    C7 8952   3.147   4.712  16.165  0.6127 -0.2601  0.2404
  600TMC3    C8 8953   2.929   4.304  16.063 -0.1813  0.6644  1.3559
  600TMC3    O1 8954   3.088   4.718  16.272  0.1427 -0.2080  0.3984
  600TMC3    O2 8955   2.967   4.195  16.087  0.0153  0.3197 -0.2591
  601MPD2     C 8956   1.606   2.792  17.042 -0.2215  0.2913  0.3857
  601MPD2    C1 8957   1.511   2.846  17.124  0.7506 -0.0352  0.4278
  601MPD2    C2 8958   1.510   2.805  17.258  0.1797 -0.0112 -0.2829
  601MPD2    C3 8959   1.580   2.691  17.287 -0.2225 -0.5356 -0.0308
  601MPD2    C4 8960   1.683   2.644  17.206  0.3220 -0.6716  0.0979
  601MPD2    C5 8961   1.699   2.707  17.091  0.3000 -0.0278  0.2473
  601MPD2     H 8962   1.431   2.847  17.320 -1.7171 -1.1562 -1.9071
  601MPD2    H1 8963   1.752   2.564  17.230  0.8252  0.9830  4.0612
  601MPD2    H2 8964   1.619   2.825  16.940 -2.0804  2.2357  0.7582
  601MPD2    H3 8965   1.788   2.683  17.034  0.1725  2.3392 -0.9119
  601MPD2     N 8966   1.570   2.626  17.411  0.0698 -0.0665 -0.1024
  601MPD2    H5 8967   1.637   2.549  17.422  1.8215  1.3473 -0.8427
  601MPD2    N1 8968   1.423   2.941  17.075  0.0492 -0.0151  0.1198
  601MPD2    H7 8969   1.367   2.997  17.139 -0.0194  1.0122 -0.8243
  602TMC3    C1 8970   1.281   3.054  16.917  0.0750 -0.3772 -0.3540
  602TMC3    C2 8971   1.297   3.187  16.960  1.1566 -0.2155  0.0083
  602TMC3    C3 8972   1.194   3.268  16.927  0.5828 -1.1665 -0.6225
  602TMC3    C4 8973   1.178   3.010  16.830  0.0763  0.1324  0.0790
  602TMC3    C5 8974   1.082   3.099  16.797 -0.6288 -0.3455 -0.2223
  602TMC3    C6 8975   1.085   3.226  16.847  0.2392 -0.4676 -0.3324
  602TMC3     C 8976   1.382   2.960  16.948  0.0776  0.7176 -0.7144
  602TMC3     O 8977   1.390   2.882  16.852 -0.0383  0.3218 -0.1301
  602TMC3     H 8978   1.366   3.205  17.041 -1.3666  0.6113  1.9638
  602TMC3    H1 8979   1.171   2.908  16.793 -3.0304  0.5242 -0.3981
  602TMC3    H2 8980   1.006   3.296  16.819 -0.1885 -0.6163  0.4943
  602TMC3    C7 8981   0.946   3.042  16.761 -0.2936 -0.1416  0.1082
  602TMC3    C8 8982   1.181   3.395  16.999 -0.5112  0.4017  0.0092
  602TMC3    O1 8983   0.940   2.986  16.657  0.2294  0.0402  0.1129
  602TMC3    O2 8984   1.286   3.449  17.020  0.4087  0.4455 -0.1885
  603TMC3    C1 8985   3.878   3.743  10.891 -0.3187  0.3833  0.9534
  603TMC3    C2 8986   3.921   3.671  10.999  0.1093  0.0485 -0.4279
  603TMC3    C3 8987   3.857   3.694  11.118  0.1958  0.0868  0.2165
  603TMC3    C4 8988   3.772   3.836  10.896 -0.4435  0.1476 -0.5049
  603TMC3    C5 8989   3.723   3.853  11.024  0.3200 -0.3089 -0.7011
  603TMC3    C6 8990   3.754   3.779  11.136 -0.1435 -0.4775 -0.1957
  603TMC3     C 8991   3.962   3.733  10.774 -0.3631 -0.3130 -0.0552
  603TMC3     O 8992   4.067   3.682  10.797 -0.0680 -0.0269 -0.1980
  603TMC3     H 8993   3.993   3.590  10.996  0.5195  0.4171 -0.4246
  603TMC3    H1 8994   3.749   3.906  10.817  1.8906  0.0095 -1.3122
  603TMC3    H2 8995   3.726   3.799  11.239  1.0406 -1.4319  0.3097
  603TMC3    C7 8996   3.607   3.932  11.055  0.5002  0.2257  0.3288
  603TMC3    C8 8997   3.857   3.600  11.221  0.4745 -0.0887  0.0347
  603TMC3    O1 8998   3.586   3.956  11.178 -0.1703 -0.1158 -0.1017
  603TMC3    O2 8999   3.967   3.562  11.262  0.0453  0.2216 -0.1608
  604MPD2     C 9000   0.220   2.432  16.101  0.6083 -0.2965  0.0966
  604MPD2    C1 9001   0.124   2.341  16.073  0.0459  0.2802  0.4483
  604MPD2    C2 9002   0.143   2.256  15.961 -0.1076  0.5299  0.3835
  604MPD2    C3 9003   0.250   2.273  15.879 -0.5395 -0.4388  0.5314
  604MPD2    C4 9004   0.346   2.365  15.910 -0.7539 -0.7127 -1.2347
  604MPD2    C5 9005   0.329   2.442  16.024 -0.0072  0.3206  0.5118
  604MPD2     H 9006   0.066   2.187  15.930 -2.1323  2.6894  0.6260
  604MPD2    H1 9007   0.436   2.383  15.852 -0.6989 -1.4257 -1.3780
  604MPD2    H2 9008   0.214   2.506  16.179  2.4924 -0.1632  0.1217
  604MPD2    H3 9009   0.401   2.520  16.046  0.7147 -0.9199  2.5628
  604MPD2     N 9010   0.261   2.189  15.764 -0.7417  0.0024  0.5665
  604MPD2    H5 9011   0.182   2.131  15.737 -1.0578  0.2160  1.0395
  604MPD2    N1 9012   0.036   2.318  16.177 -0.5045  0.1317  0.1899
  604MPD2    H7 9013   0.046   2.377  16.259 -2.4699  1.3915 -0.4853
  605TMC3    C1 9014   4.621   2.226  16.308 -0.0361 -0.4378  0.2201
  605TMC3    C2 9015   4.718   2.253  16.408  0.1571  0.0517 -0.1474
  605TMC3    C3 9016   4.688   2.335  16.513  0.0116  0.5188 -0.7193
  605TMC3    C4 9017   4.493   2.273  16.313 -0.2899  0.2320  0.1547
  605TMC3    C5 9018   4.475   2.364  16.416  0.3696 -0.2145 -0.4723
  605TMC3    C6 9019   4.566   2.396  16.506 -0.2337 -0.0264 -0.3762
  605TMC3     C 9020   4.675   2.229  16.173 -0.1816 -0.2144 -0.6183
  605TMC3     O 9021   4.636   2.134  16.103  0.3226  0.3453  0.3187
  605TMC3     H 9022   0.076   2.203  16.410  0.1241 -0.0196 -0.3385
  605TMC3    H1 9023   4.438   2.262  16.220  1.7733  1.5668 -1.2142
  605TMC3    H2 9024   4.541   2.443  16.600  2.7283 -1.1933  0.9868
  605TMC3    C7 9025   4.347   2.416  16.426  0.9108  0.8135  0.2048
  605TMC3    C8 9026   0.061   2.431  16.516 -0.4638  0.6495 -0.0328
  605TMC3    O1 9027   4.329   2.534  16.456 -0.1929 -0.3848 -0.2343
  605TMC3    O2 9028   0.120   2.442  16.407 -0.1689 -0.3763 -0.1117
  606TMC3    C1 9029   1.429   0.519  16.738 -0.4978  0.4516  0.0507
  606TMC3    C2 9030   1.530   0.581  16.811 -0.4713  0.0154 -0.1415
  606TMC3    C3 9031   1.573   0.523  16.930 -0.1471  0.2181  0.2902
  606TMC3    C4 9032   1.374   0.399  16.776  0.1336 -0.1643 -0.1126
  606TMC3    C5 9033   1.420   0.346  16.892  0.4427  0.6386 -0.8068
  606TMC3    C6 9034   1.511   0.411  16.973 -0.0818 -0.4851  0.5409
  606TMC3     C 9035   1.372   0.583  16.618  0.1981 -0.1974 -0.0925
  606TMC3     O 9036   1.311   0.502  16.546  0.0203 -0.1374  0.2862
  606TMC3     H 9037   1.586   0.659  16.760  1.1251 -0.0282  1.5452
  606TMC3    H1 9038   1.305   0.343  16.715  0.4464 -0.4393 -0.2138
  606TMC3    H2 9039   1.539   0.370  17.070  2.2287 -0.5934 -0.1880
  606TMC3    C7 9040   1.343   0.257  16.963  0.2852 -0.1443  0.2634
  606TMC3    C8 9041   1.664   0.579  17.023  0.2378 -0.0801  0.8099
  606TMC3    O1 9042   1.407   0.182  17.038  0.6333  0.3272  0.3603
  606TMC3    O2 9043   1.725   0.502  17.093 -0.0795  0.4364  0.1210
  607MPD2     C 9044   3.158   3.777  11.786 -0.3814 -0.0331  0.5924
  607MPD2    C1 9045   3.189   3.836  11.906  0.6396 -0.0451  0.3943
  607MPD2    C2 9046   3.133   3.794  12.029  0.4063  0.4578  0.1046
  607MPD2    C3 9047   3.055   3.683  12.043 -0.6521 -0.2270 -0.5647
  607MPD2    C4 9048   3.026   3.623  11.921 -0.3438  0.2282  0.3987
  607MPD2    C5 9049   3.078   3.666  11.798 -0.6663 -0.2166  0.1895
  607MPD2     H 9050   3.158   3.857  12.114 -1.9977  1.8201 -0.1809
  607MPD2    H1 9051   2.959   3.539  11.909 -0.0952  0.2416 -1.1318
  607MPD2    H2 9052   3.188   3.823  11.693 -2.3049  2.1405  1.0373
  607MPD2    H3 9053   3.060   3.605  11.711 -1.9977 -0.8592  0.9192
  607MPD2     N 9054   2.985   3.656  12.163 -0.0476 -0.0750 -0.6369
  607MPD2    H5 9055   2.995   3.728  12.234 -1.9912 -0.0293 -0.4126
  607MPD2    N1 9056   3.255   3.965  11.921 -0.1603  0.0176 -0.7056
  607MPD2    H7 9057   3.253   4.016  12.008  0.2594 -1.1684  0.0008
  608TMC3    C1 9058   3.408   4.134  11.872 -0.2520 -0.0175  0.0747
  608TMC3    C2 9059   3.361   4.189  11.989  0.0419 -0.0296 -0.1251
  608TMC3    C3 9060   3.441   4.280  12.049 -0.0201  0.5188 -0.4071
  608TMC3    C4 9061   3.530   4.173  11.823  0.3641  0.0006  1.1451
  608TMC3    C5 9062   3.597   4.277  11.877 -0.3917 -0.2378  0.6271
  608TMC3    C6 9063   3.556   4.329  11.996  0.1654  0.0390 -0.1244
  608TMC3     C 9064   3.341   4.013  11.826  0.5262  0.3579 -0.1933
  608TMC3     O 9065   3.373   3.956  11.722 -0.1788 -0.5229 -0.1544
  608TMC3     H 9066   3.254   4.195  12.001 -0.0499 -1.2826 -0.2693
  608TMC3    H1 9067   3.560   4.128  11.729  1.3227  1.4759  0.7456
  608TMC3    H2 9068   3.618   4.400  12.050  3.4423 -2.9796  0.0807
  608TMC3    C7 9069   3.694   4.348  11.793 -0.4816  0.2296 -0.8343
  608TMC3    C8 9070   3.405   4.324  12.184  0.2925  0.4809 -0.0694
  608TMC3    O1 9071   3.700   4.321  11.672  0.3017  0.5793  0.1460
  608TMC3    O2 9072   3.432   4.430  12.231  0.1460  0.2817 -0.1002
  609TMC3    C1 9073   1.970   3.641   9.190  0.3168  0.3618  0.5603
  609TMC3    C2 9074   1.904   3.683   9.075  0.0041 -0.3691  0.0581
  609TMC3    C3 9075   1.954   3.639   8.955 -0.4305  0.4514 -0.3929
  609TMC3    C4 9076   2.080   3.557   9.186 -0.3377 -0.5993  0.4975
  609TMC3    C5 9077   2.120   3.517   9.066  0.2069 -0.4781  0.6386
  609TMC3    C6 9078   2.068   3.554   8.950 -0.2079 -0.2787  0.3817
  609TMC3     C 9079   1.896   3.652   9.312 -0.3449 -0.0820  0.3172
  609TMC3     O 9080   1.932   3.581   9.401 -0.5827 -0.4466 -0.2127
  609TMC3     H 9081   1.818   3.748   9.085  0.4674 -0.0391  2.0534
  609TMC3    H1 9082   2.129   3.533   9.280 -2.0841 -1.0879  1.2901
  609TMC3    H2 9083   2.108   3.526   8.854  2.3060  1.4422  0.9229
  609TMC3    C7 9084   2.220   3.413   9.069 -0.2856  0.2976  0.0123
  609TMC3    C8 9085   1.914   3.694   8.825 -0.1194 -0.5862  0.2859
  609TMC3    O1 9086   2.298   3.419   9.166  0.0477 -0.4275 -0.6693
  609TMC3    O2 9087   1.938   3.622   8.732  0.3255 -0.0651  0.3407
  610TMC3    C1 9088   3.331   3.647  13.301 -0.2001  0.7182 -0.2340
  610TMC3    C2 9089   3.242   3.689  13.205 -0.2630  0.8219 -0.4858
  610TMC3    C3 9090   3.289   3.701  13.074  0.3488  0.2103  0.5776
  610TMC3    C4 9091   3.462   3.622  13.264  0.5307 -0.3258 -0.9126
  610TMC3    C5 9092   3.496   3.615  13.135 -0.1782 -0.0496  0.5004
  610TMC3    C6 9093   3.415   3.660  13.040  0.1698 -0.4433  0.0732
  610TMC3     C 9094   3.274   3.572  13.412  0.2558  0.9181 -0.6020
  610TMC3     O 9095   3.362   3.520  13.481 -0.1604 -0.0204 -0.5368
  610TMC3     H 9096   3.144   3.725  13.232 -0.2743 -0.2226  0.8652
  610TMC3    H1 9097   3.532   3.585  13.339 -0.7973  1.1555  1.0644
  610TMC3    H2 9098   3.451   3.671  12.939 -1.7189  1.8906 -0.3344
  610TMC3    C7 9099   3.608   3.528  13.099 -0.3595  0.2235  0.6251
  610TMC3    C8 9100   3.203   3.720  12.963  0.7602 -0.4861  0.1413
  610TMC3    O1 9101   3.691   3.510  13.188  0.3180 -0.1969 -0.1469
  610TMC3    O2 9102   3.237   3.693  12.847 -0.1982  0.0101 -0.3453
  611MPD2     C 9103   2.241   4.270  10.331 -0.5439  0.3516 -0.4885
  611MPD2    C1 9104   2.337   4.185  10.279 -1.3272  0.5783  0.7641
  611MPD2    C2 9105   2.470   4.199  10.303  0.1728  0.3562 -0.1168
  611MPD2    C3 9106   2.512   4.312  10.370 -0.5750  0.7247  0.1823
  611MPD2    C4 9107   2.418   4.403  10.414 -0.2944  0.0863  0.3807
  611MPD2    C5 9108   2.281   4.387  10.387  0.2801 -0.3520  0.2553
  611MPD2     H 9109   2.539   4.128  10.260  0.9085  0.0325  1.5822
  611MPD2    H1 9110   2.453   4.478  10.484  0.4485  1.6252 -1.6300
  611MPD2    H2 9111   2.135   4.249  10.327 -0.8091  1.6572 -0.2453
  611MPD2    H3 9112   2.203   4.449  10.431  0.7948  1.1355 -0.9156
  611MPD2     N 9113   2.647   4.339  10.405 -0.5718  1.0709 -0.5374
  611MPD2    H5 9114   2.666   4.407  10.478 -0.8495  0.7224 -0.1399
  611MPD2    N1 9115   2.286   4.069  10.219 -0.3040 -0.2773  0.0764
  611MPD2    H7 9116   2.186   4.053  10.210 -0.2678 -0.9749  0.9791
  612TMC3    C1 9117   2.881   4.313  10.377 -0.8939  0.4936 -0.3990
  612TMC3    C2 9118   2.905   4.271  10.506  0.3548 -0.2414  0.3268
  612TMC3    C3 9119   3.027   4.227  10.543 -0.0532  0.4255 -0.1694
  612TMC3    C4 9120   2.980   4.317  10.284 -0.0681 -0.7284  0.5121
  612TMC3    C5 9121   3.106   4.290  10.332 -0.0511  0.2710 -0.9240
  612TMC3    C6 9122   3.135   4.236  10.457 -0.6769  0.7364  0.1945
  612TMC3     C 9123   2.747   4.285  10.323 -0.6044 -0.3049  0.2338
  612TMC3     O 9124   2.746   4.233  10.211  0.2979  0.6074  0.0361
  612TMC3     H 9125   2.828   4.233  10.571 -0.4182  1.5530  0.4591
  612TMC3    H1 9126   2.955   4.347  10.183 -0.7767  2.7208  1.7141
  612TMC3    H2 9127   3.239   4.220  10.485 -0.3043  1.6479 -0.6844
  612TMC3    C7 9128   3.199   4.261  10.227  0.2751  0.5628 -0.0303
  612TMC3    C8 9129   3.048   4.206  10.685 -0.0503  0.0579  0.0367
  612TMC3    O1 9130   3.289   4.182  10.254  0.2092 -0.1939 -0.1147
  612TMC3    O2 9131   2.983   4.277  10.759 -0.7489 -0.0814 -0.3898
  613MPD2     C 9132   2.350   1.080  16.647  0.2217  0.5523  0.2350
  613MPD2    C1 9133   2.258   1.104  16.546  0.1073  0.0473 -0.4565
  613MPD2    C2 9134   2.181   0.999  16.497 -0.2173 -0.0453 -0.3601
  613MPD2    C3 9135   2.208   0.869  16.531 -0.9660  0.2005 -0.7708
  613MPD2    C4 9136   2.309   0.849  16.625 -0.2064 -0.1100 -1.0749
  613MPD2    C5 9137   2.366   0.956  16.696 -0.1982 -0.7333  0.0129
  613MPD2     H 9138   2.106   1.024  16.423  0.7563 -1.3238 -1.7764
  613MPD2    H1 9139   2.326   0.750  16.666  1.2481  1.5917  2.3860
  613MPD2    H2 9140   2.409   1.160  16.692  0.7841 -1.5132  3.1299
  613MPD2    H3 9141   2.440   0.946  16.775 -0.2594 -0.1058  0.1489
  613MPD2     N 9142   2.142   0.759  16.478  0.1960  0.2289  0.3769
  613MPD2    H5 9143   2.179   0.666  16.497 -1.3855 -0.4902 -0.0414
  613MPD2    N1 9144   2.263   1.233  16.488  0.0213 -0.3656 -0.4048
  613MPD2    H7 9145   2.345   1.289  16.506 -1.0786  0.7191  1.2363
  614TMC3    C1 9146   2.236   1.339  16.283  0.2527 -0.0404  0.6227
  614TMC3    C2 9147   2.347   1.282  16.233  0.4082 -0.3681  0.6521
  614TMC3    C3 9148   2.375   1.281  16.100 -0.4052  0.4878 -0.2131
  614TMC3    C4 9149   2.148   1.399  16.195 -0.4447  0.4676  0.1678
  614TMC3    C5 9150   2.178   1.406  16.061 -0.2799  0.0388  0.4156
  614TMC3    C6 9151   2.285   1.341  16.005 -0.0143  0.6161 -0.7454
  614TMC3     C 9152   2.172   1.274  16.397 -0.4734  0.5034  0.5317
  614TMC3     O 9153   2.049   1.263  16.390  0.4510  0.5977 -0.1066
  614TMC3     H 9154   2.419   1.244  16.305  1.3755 -0.6077 -0.4320
  614TMC3    H1 9155   2.062   1.448  16.240  0.1214  0.3225  1.4227
  614TMC3    H2 9156   2.318   1.351  15.902 -0.9255  0.2737 -1.0723
  614TMC3    C7 9157   2.105   1.490  15.973 -0.4866 -0.7052  0.1791
  614TMC3    C8 9158   2.444   1.153  16.053  0.2823  0.0209 -0.2614
  614TMC3    O1 9159   2.067   1.600  16.010 -0.3306  0.2662 -0.2552
  614TMC3    O2 9160   2.466   1.070  16.138  0.3872 -0.3707 -0.0174
  615MPD2     C 9161   1.984   2.274  15.892 -0.4030  0.9892 -0.5023
  615MPD2    C1 9162   1.875   2.347  15.938  0.1492  0.0764 -0.9410
  615MPD2    C2 9163   1.763   2.348  15.855  0.6001 -0.3458  0.1182
  615MPD2    C3 9164   1.756   2.280  15.731  0.1298 -0.2136  0.3835
  615MPD2    C4 9165   1.866   2.204  15.697 -0.4264 -0.3964 -0.3083
  615MPD2    C5 9166   1.968   2.199  15.782 -0.6366  0.1664  0.0995
  615MPD2     H 9167   1.688   2.425  15.874  0.6721 -0.1827 -0.2550
  615MPD2    H1 9168   1.872   2.150  15.604  0.3295  0.1750 -0.5818
  615MPD2    H2 9169   2.075   2.256  15.949 -0.1886  1.6209 -0.6467
  615MPD2    H3 9170   2.049   2.134  15.750 -0.1995  1.7089 -1.8860
  615MPD2     N 9171   1.647   2.286  15.645 -0.3357 -0.5840  0.2025
  615MPD2    H5 9172   1.649   2.230  15.561  4.4887 -0.9620  0.6183
  615MPD2    N1 9173   1.865   2.423  16.058  0.0301  0.2603  0.5036
  615MPD2    H7 9174   1.777   2.467  16.080 -0.0398  0.1190  0.5063
  616TMC3    C1 9175   1.934   2.591  16.196  0.8550 -0.0323  0.5126
  616TMC3    C2 9176   2.019   2.698  16.187  0.7013 -0.0436  0.3289
  616TMC3    C3 9177   1.965   2.819  16.223 -0.8055  0.2571 -0.3918
  616TMC3    C4 9178   1.814   2.605  16.261 -0.2381 -0.7369 -0.0935
  616TMC3    C5 9179   1.767   2.724  16.303 -0.3647  0.1287  0.4821
  616TMC3    C6 9180   1.844   2.840  16.289  0.2209 -0.4808  0.9457
  616TMC3     C 9181   1.977   2.470  16.122  0.5973  0.4940  0.4172
  616TMC3     O 9182   2.098   2.456  16.092 -0.4219  1.5763  0.0220
  616TMC3     H 9183   2.114   2.690  16.135  1.2948  1.0674  1.2346
  616TMC3    H1 9184   1.757   2.513  16.268  2.0638 -2.1105  0.2796
  616TMC3    H2 9185   1.809   2.942  16.303 -0.3726 -0.7045  1.0927
  616TMC3    C7 9186   1.636   2.734  16.352  0.0075 -0.4757  0.2525
  616TMC3    C8 9187   2.031   2.945  16.181  0.0013  0.4817  0.3791
  616TMC3    O1 9188   1.557   2.650  16.310  0.2179 -0.2482  0.2023
  616TMC3    O2 9189   1.972   3.051  16.159  0.0559  0.1801  0.7883
  617MPD2     C 9190   4.455   0.804  13.785 -0.1615  0.2181  0.3176
  617MPD2    C1 9191   4.518   0.725  13.876  0.0320  0.3545  0.1674
  617MPD2    C2 9192   4.454   0.685  13.997 -0.1382 -0.0988  0.1453
  617MPD2    C3 9193   4.326   0.720  14.020 -0.0116  0.0249 -0.6509
  617MPD2    C4 9194   4.260   0.790  13.929 -0.5097  0.8022  0.9178
  617MPD2    C5 9195   4.321   0.841  13.813 -0.3736 -0.2674  0.5570
  617MPD2     H 9196   4.518   0.633  14.068  0.7535  0.3492 -0.3408
  617MPD2    H1 9197   4.154   0.808  13.948 -1.1230 -1.1033 -0.7525
  617MPD2    H2 9198   4.509   0.841  13.698  0.2473 -1.9888 -0.3881
  617MPD2    H3 9199   4.261   0.902  13.745  3.0057  0.4183 -1.8259
  617MPD2     N 9200   4.242   0.681  14.134 -0.5823 -0.2962 -0.0034
  617MPD2    H5 9201   4.143   0.703  14.130 -0.7299 -0.7646  1.3712
  617MPD2    N1 9202   4.653   0.701  13.842 -0.4712  0.0797 -0.0802
  617MPD2    H7 9203   4.679   0.741  13.752  0.1001  0.7453  0.3854
  618TMC3    C1 9204   0.132   0.608  13.835 -0.5939 -0.5204  0.5001
  618TMC3    C2 9205   0.216   0.510  13.885  0.5701  0.6651 -0.0101
  618TMC3    C3 9206   0.349   0.535  13.865 -0.1651  0.3957 -0.4537
  618TMC3    C4 9207   0.176   0.717  13.764  0.1945  0.3810 -0.0493
  618TMC3    C5 9208   0.312   0.726  13.739  0.8503  0.6038 -0.3472
  618TMC3    C6 9209   0.400   0.641  13.798  0.1897  0.2769  0.3490
  618TMC3     C 9210   0.001   0.617  13.906 -0.2486 -0.2724  0.4439
  618TMC3     O 9211   4.716   0.544  13.997  0.3658 -0.1693 -0.2122
  618TMC3     H 9212   0.178   0.428  13.945 -1.1226 -0.1318 -2.1419
  618TMC3    H1 9213   0.109   0.796  13.733 -2.8861 -1.3985  2.0308
  618TMC3    H2 9214   0.505   0.664  13.782 -0.1026 -0.5284 -2.6440
  618TMC3    C7 9215   0.355   0.853  13.681 -0.2111 -0.4399  0.5981
  618TMC3    C8 9216   0.433   0.420  13.882  0.3996 -0.6597 -0.1337
  618TMC3    O1 9217   0.306   0.960  13.721  0.3985 -0.0755  0.2433
  618TMC3    O2 9218   0.418   0.355  13.990  0.2853 -0.2481  0.0973
  619MPD2     C 9219   1.174   1.949  14.061  0.1979 -0.8248  0.1053
  619MPD2    C1 9220   1.149   1.987  13.936 -0.5326  0.4320 -0.0992
  619MPD2    C2 9221   1.026   1.959  13.873 -0.8044 -0.2205  0.2684
  619MPD2    C3 9222   0.928   1.907  13.954 -0.2285 -0.3843  0.2703
  619MPD2    C4 9223   0.957   1.865  14.082 -0.8956 -0.1378 -0.1560
  619MPD2    C5 9224   1.079   1.891  14.131  0.6788  0.3740 -0.0498
  619MPD2     H 9225   1.021   1.971  13.766  0.9514  0.5295  0.2757
  619MPD2    H1 9226   0.883   1.820  14.147  0.3740  1.8045  2.6077
  619MPD2    H2 9227   1.272   1.971  14.102 -0.3311  0.4676  0.7108
  619MPD2    H3 9228   1.110   1.863  14.231 -1.3885 -2.5457 -0.2175
  619MPD2     N 9229   0.791   1.896  13.911  0.0034  1.4227 -0.0530
  619MPD2    H5 9230   0.738   1.837  13.974  1.3534  0.2263 -0.0219
  619MPD2    N1 9231   1.251   2.045  13.847 -0.0493  0.1251  0.0571
  619MPD2    H7 9232   1.221   2.082  13.758 -0.1807 -0.6319 -0.2128
  620TMC3    C1 9233   1.434   2.169  13.777 -0.3099 -0.0013 -0.2361
  620TMC3    C2 9234   1.389   2.148  13.651 -0.0383  0.4315 -0.2516
  620TMC3    C3 9235   1.362   2.248  13.565  0.3042 -0.0508  0.0139
  620TMC3    C4 9236   1.454   2.295  13.819 -0.4555  0.6825 -0.4778
  620TMC3    C5 9237   1.432   2.399  13.735  0.0087 -0.5446  0.1352
  620TMC3    C6 9238   1.390   2.379  13.604 -0.2217 -0.5754 -0.2021
  620TMC3     C 9239   1.382   2.076  13.877  0.5223 -0.0267  0.0643
  620TMC3     O 9240   1.450   2.050  13.974 -0.0680  0.1006  0.6967
  620TMC3     H 9241   1.370   2.044  13.626 -0.3663 -0.0198  1.8909
  620TMC3    H1 9242   1.486   2.309  13.922  0.2024 -2.5131 -0.2439
  620TMC3    H2 9243   1.371   2.459  13.533 -0.1776 -1.3571 -1.0982
  620TMC3    C7 9244   1.426   2.534  13.793 -0.1843  0.6096  0.4279
  620TMC3    C8 9245   1.219   2.238  13.548  0.5585  0.3374 -0.0793
  620TMC3    O1 9246   1.453   2.540  13.912  0.7923 -0.1333 -0.0314
  620TMC3    O2 9247   1.160   2.149  13.613 -0.0094  0.1604 -0.4522
  621MPD2     C 9248   1.372   2.191  10.389  0.4629 -0.0805 -0.3195
  621MPD2    C1 9249   1.491   2.210  10.325 -0.0337  0.2934 -0.2324
  621MPD2    C2 9250   1.519   2.321  10.253  0.5315 -0.1389 -0.4211
  621MPD2    C3 9251   1.426   2.426  10.241  0.0367  0.6070  0.2161
  621MPD2    C4 9252   1.318   2.414  10.315 -0.1851  0.2958  0.1686
  621MPD2    C5 9253   1.290   2.299  10.391 -0.1359  0.2203 -0.2805
  621MPD2     H 9254   1.612   2.329  10.198 -0.8949 -1.6915 -3.0223
  621MPD2    H1 9255   1.250   2.498  10.324 -0.6393 -0.4395  3.9390
  621MPD2    H2 9256   1.334   2.109  10.449 -1.2970  0.7071 -0.3471
  621MPD2    H3 9257   1.207   2.298  10.461  0.0829  1.0991  0.0001
  621MPD2     N 9258   1.453   2.525  10.144  0.0053 -0.2194 -0.2962
  621MPD2    H5 9259   1.539   2.534  10.091  0.4095  1.0486  0.5582
  621MPD2    N1 9260   1.581   2.103  10.321  0.3019  0.4569 -0.1614
  621MPD2    H7 9261   1.650   2.116  10.248  0.3207  2.3393  0.1928
  622TMC3    C1 9262   1.682   1.890  10.339 -0.3189 -0.0197 -0.2085
  622TMC3    C2 9263   1.619   1.768  10.313  1.3512  0.3482  0.1446
  622TMC3    C3 9264   1.620   1.717  10.183  0.1309 -0.3182 -0.8672
  622TMC3    C4 9265   1.749   1.947  10.238 -0.0716 -0.4079 -0.7558
  622TMC3    C5 9266   1.758   1.894  10.114  0.2886 -0.7577 -0.0834
  622TMC3    C6 9267   1.693   1.782  10.087 -0.0074 -0.8963 -0.5907
  622TMC3     C 9268   1.587   1.989  10.394 -0.4837 -0.2245 -0.9664
  622TMC3     O 9269   1.527   1.959  10.497  0.8855  0.2795  0.3584
  622TMC3     H 9270   1.554   1.732  10.391  0.9628 -1.2370 -0.9052
  622TMC3    H1 9271   1.793   2.043  10.262 -0.1564 -0.6150  0.2157
  622TMC3    H2 9272   1.693   1.745   9.985  0.1959 -1.5450 -0.3551
  622TMC3    C7 9273   1.736   1.998  10.016 -0.3268 -0.4965  1.0403
  622TMC3    C8 9274   1.483   1.699  10.133 -0.4412  0.4300  0.0454
  622TMC3    O1 9275   1.812   2.092  10.008  0.4138  0.0327 -0.6795
  622TMC3    O2 9276   1.463   1.759  10.023  0.1551  0.2406  0.6205
  623MPD2     C 9277   0.470   2.538  15.574  0.5542  0.5155 -0.2287
  623MPD2    C1 9278   0.400   2.612  15.667  0.5876  0.1187 -0.1326
  623MPD2    C2 9279   0.459   2.670  15.776 -0.8196 -1.3412 -0.1948
  623MPD2    C3 9280   0.588   2.656  15.805 -0.5114 -0.0890 -0.0420
  623MPD2    C4 9281   0.669   2.585  15.716  0.0246 -0.2037  0.2644
  623MPD2    C5 9282   0.608   2.530  15.603 -0.5279  0.0094  0.4366
  623MPD2     H 9283   0.396   2.726  15.845  2.1072  0.5087  0.9953
  623MPD2    H1 9284   0.775   2.575  15.733  0.1848  1.1530  0.0764
  623MPD2    H2 9285   0.443   2.486  15.483  0.7030 -0.1092  0.0833
  623MPD2    H3 9286   0.670   2.487  15.525  1.0648  0.1223  1.6336
  623MPD2     N 9287   0.635   2.697  15.935 -0.3622  0.4694 -0.5664
  623MPD2    H5 9288   0.568   2.736  16.001  0.5199  0.2989  0.4225
  623MPD2    N1 9289   0.265   2.633  15.656  0.7272  0.4140 -0.5423
  623MPD2    H7 9290   0.226   2.684  15.734  1.0080 -0.0512 -0.0949
  624TMC3    C1 9291   0.898   2.627  16.321 -0.0251  0.7405 -0.4284
  624TMC3    C2 9292   0.788   2.630  16.395 -0.7746  0.0529 -0.5194
  624TMC3    C3 9293   0.664   2.646  16.332  0.0645  0.4177  0.1785
  624TMC3    C4 9294   0.893   2.650  16.186 -0.6518  0.3132  0.0242
  624TMC3    C5 9295   0.770   2.666  16.121  0.2191  0.6218 -0.2537
  624TMC3    C6 9296   0.658   2.646  16.196  0.1881  0.6326  0.2767
  624TMC3     C 9297   0.998   2.522  16.365 -0.2976 -0.4395  0.0877
  624TMC3     O 9298   1.119   2.557  16.366  0.4743  0.1402 -0.5246
  624TMC3     H 9299   0.789   2.597  16.498 -1.5396 -0.0693 -0.5508
  624TMC3    H1 9300   0.983   2.655  16.126  0.2580 -2.9330  1.0974
  624TMC3    H2 9301   0.562   2.663  16.149 -0.1516  0.6942  1.0090
  624TMC3    C7 9302   0.762   2.682  15.980 -0.1972  0.4735 -0.1551
  624TMC3    C8 9303   0.540   2.626  16.403 -0.3884 -0.5346 -0.6329
  624TMC3    O1 9304   0.866   2.681  15.912 -0.1102 -0.0244 -0.5127
  624TMC3    O2 9305   0.441   2.602  16.335 -0.1117 -0.4361  0.2298
  625MPD2     C 9306   0.739   3.491   0.118 -0.4834  0.3023  0.6352
  625MPD2    C1 9307   0.787   3.584   0.208 -0.4109  0.5635 -1.1662
  625MPD2    C2 9308   0.921   3.580   0.242 -0.2413  0.2367  0.3826
  625MPD2    C3 9309   1.002   3.481   0.204 -0.1172 -0.1317  0.0254
  625MPD2    C4 9310   0.957   3.384   0.121 -0.2816 -1.1016 -0.4280
  625MPD2    C5 9311   0.821   3.391   0.075  0.4235 -0.1586  0.0981
  625MPD2     H 9312   0.961   3.660   0.304  0.8407  1.2901 -1.6951
  625MPD2    H1 9313   1.018   3.298   0.096  0.2524 -0.5552 -1.0017
  625MPD2    H2 9314   0.635   3.488   0.088  0.0291  2.0426 -1.2429
  625MPD2    H3 9315   0.791   3.309   0.011 -1.3720 -1.4998  2.6588
  625MPD2     N 9316   1.137   3.490   0.236 -0.2314 -0.1338  0.1799
  625MPD2    H5 9317   1.173   3.572   0.283  0.3388 -0.2337 -0.0820
  625MPD2    N1 9318   0.708   3.686   0.273 -0.1385  0.2208 -0.0027
  625MPD2    H7 9319   0.755   3.746   0.339  0.1200  0.7421 -0.6608
  626TMC3    C1 9320   0.527   3.823   0.311  0.0343  0.4877  0.4003
  626TMC3    C2 9321   0.451   3.910   0.234  0.6571  0.5560 -0.1702
  626TMC3    C3 9322   0.467   4.047   0.261  0.3955  0.1263  0.3583
  626TMC3    C4 9323   0.608   3.872   0.414  0.0673 -0.3025  0.2016
  626TMC3    C5 9324   0.624   4.001   0.432  0.1093  0.0847 -0.0103
  626TMC3    C6 9325   0.559   4.095   0.359  0.5850  0.1241  0.0851
  626TMC3     C 9326   0.575   3.705   0.247 -0.3891  0.2125  0.1252
  626TMC3     O 9327   0.492   3.655   0.176 -0.4913  0.2089  0.1984
  626TMC3     H 9328   0.402   3.872   0.145  0.2341 -0.7304  0.6126
  626TMC3    H1 9329   0.652   3.811   0.492  0.1669  1.0137  1.1712
  626TMC3    H2 9330   0.580   4.201   0.361 -0.0499  0.2054  1.8726
  626TMC3    C7 9331   0.676   4.036   0.562 -0.2824  0.0404 -0.1117
  626TMC3    C8 9332   0.405   4.141   0.176 -0.0445 -0.0798  0.9606
  626TMC3    O1 9333   0.770   3.975   0.612  0.3140  0.1257  0.6186
  626TMC3    O2 9334   0.477   4.232   0.132  0.3162 -0.2498  0.0629
  627MPD2     C 9335   4.053   4.181  14.342  0.6121  0.5441 -0.5364
  627MPD2    C1 9336   4.118   4.106  14.433 -0.4549  0.8446  0.8780
  627MPD2    C2 9337   4.059   3.995  14.485 -0.1618 -0.7002 -0.1122
  627MPD2    C3 9338   3.937   3.946  14.436  0.1178  0.1043  0.1583
  627MPD2    C4 9339   3.888   4.010  14.324  0.5651 -0.3467 -0.4035
  627MPD2    C5 9340   3.946   4.128  14.285 -0.3705  0.5174 -0.3737
  627MPD2     H 9341   4.105   3.934  14.561  1.5084  1.9420  0.9935
  627MPD2    H1 9342   3.804   3.980  14.263  0.1477 -1.5044  0.7463
  627MPD2    H2 9343   4.085   4.280  14.312  0.0834  0.8167 -0.1808
  627MPD2    H3 9344   3.899   4.189  14.209  1.7775  2.2103 -0.3508
  627MPD2     N 9345   3.880   3.826  14.480  0.5092 -0.0805 -0.1750
  627MPD2    H5 9346   3.933   3.770  14.546 -2.7860  1.0252  3.3701
  627MPD2    N1 9347   4.241   4.157  14.477  0.1476 -0.2937 -0.3338
  627MPD2    H7 9348   4.274   4.241  14.430 -1.0917 -0.0970 -0.8512
  628TMC3    C1 9349   4.457   4.164  14.561 -0.1914 -0.4043  0.0200
  628TMC3    C2 9350   4.572   4.097  14.549 -0.4667  0.3910  0.0145
  628TMC3    C3 9351   4.686   4.168  14.592  0.0507  0.2296  0.0023
  628TMC3    C4 9352   4.451   4.291  14.608 -0.0349 -0.5493 -0.6864
  628TMC3    C5 9353   4.563   4.354  14.659 -0.2548  0.8589  0.4697
  628TMC3    C6 9354   4.682   4.291  14.651 -0.0847  0.9955  0.4737
  628TMC3     C 9355   4.338   4.086  14.544  0.3696  0.7872  0.2878
  628TMC3     O 9356   4.342   3.973  14.592  0.5400 -0.0517 -0.2780
  628TMC3     H 9357   4.583   4.002  14.499  1.5562  1.1710 -1.0386
  628TMC3    H1 9358   4.353   4.325  14.638 -0.3149 -1.9649 -0.0079
  628TMC3    H2 9359   0.033   4.343  14.681  0.8150 -0.2704 -0.0296
  628TMC3    C7 9360   4.574   4.497  14.696  0.2941 -0.4999  0.2701
  628TMC3    C8 9361   0.075   4.101  14.587  0.4106 -0.0981 -0.0588
  628TMC3    O1 9362   4.670   4.534  14.759 -0.1591  0.1810  0.5719
  628TMC3    O2 9363   0.083   4.014  14.500  0.2614  0.3286  0.2847
  629MPD2     C 9364   2.457   3.224  16.150  0.1650 -0.4952  0.1851
  629MPD2    C1 9365   2.485   3.101  16.209 -0.0477 -1.2584  0.4723
  629MPD2    C2 9366   2.385   3.004  16.221 -0.2699 -0.5146 -0.2366
  629MPD2    C3 9367   2.256   3.037  16.178 -0.1590  0.2959  0.5945
  629MPD2    C4 9368   2.229   3.164  16.137  0.5713 -0.2238  0.9542
  629MPD2    C5 9369   2.328   3.255  16.128  0.4383  0.3342  0.1458
  629MPD2     H 9370   2.397   2.909  16.272 -1.2927 -1.2902 -1.4292
  629MPD2    H1 9371   2.134   3.202  16.101  0.0085 -0.6155  2.0379
  629MPD2    H2 9372   2.541   3.290  16.135 -0.3435 -0.0517 -0.7263
  629MPD2    H3 9373   2.304   3.351  16.084 -0.9408  0.7101  1.7123
  629MPD2     N 9374   2.165   2.931  16.186  0.3100  0.4428 -0.2865
  629MPD2    H5 9375   2.197   2.841  16.220 -0.3090 -0.1491 -1.2715
  629MPD2    N1 9376   2.619   3.078  16.256 -0.4392  0.2049  0.9525
  629MPD2    H7 9377   2.684   3.154  16.240 -1.3457  0.2341 -2.6529
  630TMC3    C1 9378   2.803   2.968  16.355 -0.0656  1.0180  0.7867
  630TMC3    C2 9379   2.885   3.043  16.273  0.3939  0.4203 -0.6798
  630TMC3    C3 9380   3.014   3.060  16.321  0.1422  0.9062  0.2252
  630TMC3    C4 9381   2.837   2.899  16.473  0.7370 -0.5587 -0.0375
  630TMC3    C5 9382   2.962   2.931  16.521 -0.7475 -0.2632  0.2945
  630TMC3    C6 9383   3.053   2.999  16.440 -0.3116  0.6928 -0.6826
  630TMC3     C 9384   2.661   2.970  16.324 -0.1327  0.4095 -0.2652
  630TMC3     O 9385   2.596   2.872  16.360  0.1156 -0.3542 -0.2728
  630TMC3     H 9386   2.851   3.066  16.173 -1.3755 -1.8105 -0.6075
  630TMC3    H1 9387   2.763   2.851  16.536  1.3626 -2.6606 -0.9183
  630TMC3    H2 9388   3.159   2.994  16.462 -0.5665  2.6945  1.0260
  630TMC3    C7 9389   2.993   2.879  16.654 -0.1430  0.1250 -0.2158
  630TMC3    C8 9390   3.100   3.157  16.260  0.3346 -0.1801  0.2722
  630TMC3    O1 9391   2.940   2.775  16.693  0.3700  0.1555 -0.2744
  630TMC3    O2 9392   3.196   3.188  16.329 -0.0157 -0.0942 -0.1095
  631MPD2     C 9393   0.840   2.991  15.517 -0.2130  1.0008  0.6647
  631MPD2    C1 9394   0.953   3.024  15.446  0.0593  0.0354  0.2728
  631MPD2    C2 9395   1.052   2.926  15.438 -1.2823 -0.1949 -0.2367
  631MPD2    C3 9396   1.044   2.800  15.499 -0.3608  0.3990 -0.2133
  631MPD2    C4 9397   0.930   2.777  15.570  0.2648 -0.0357  0.5431
  631MPD2    C5 9398   0.832   2.874  15.584 -0.5785 -0.6280  0.4879
  631MPD2     H 9399   1.137   2.956  15.377  0.1126  0.5773  2.1057
  631MPD2    H1 9400   0.921   2.683  15.625 -0.8212  0.1555  0.6908
  631MPD2    H2 9401   0.759   3.063  15.527 -0.5712  0.8192 -0.8911
  631MPD2    H3 9402   0.751   2.871  15.656 -0.9147 -0.1873  0.1334
  631MPD2     N 9403   1.151   2.709  15.478 -0.6705 -0.1776  0.1226
  631MPD2    H5 9404   1.226   2.739  15.416 -1.3008  0.4331 -0.3408
  631MPD2    N1 9405   0.950   3.140  15.363  0.0469  0.3449 -0.0360
  631MPD2    H7 9406   0.856   3.177  15.359  0.4886  1.6955  2.1358
  632TMC3    C1 9407   1.017   3.294  15.197  0.1206 -0.0141  0.2385
  632TMC3    C2 9408   0.909   3.380  15.223  0.8996 -0.2714 -0.3503
  632TMC3    C3 9409   0.863   3.450  15.117  0.1096  0.2308 -0.3683
  632TMC3    C4 9410   1.080   3.287  15.076 -0.6452  0.3616 -0.3150
  632TMC3    C5 9411   1.038   3.375  14.979  0.1174  0.0835  0.1917
  632TMC3    C6 9412   0.925   3.453  14.994 -0.2816 -0.0453 -0.3103
  632TMC3     C 9413   1.056   3.185  15.285  0.2331 -0.3552  0.6961
  632TMC3     O 9414   1.169   3.139  15.270 -0.1253 -0.1195 -0.1196
  632TMC3     H 9415   0.856   3.373  15.317 -0.7051  0.6617 -1.1903
  632TMC3    H1 9416   1.161   3.216  15.067 -2.4748 -1.4371 -2.3633
  632TMC3    H2 9417   0.880   3.510  14.913 -1.3791 -2.5269 -1.4408
  632TMC3    C7 9418   1.101   3.374  14.846  0.1165 -0.2853  0.4235
  632TMC3    C8 9419   0.743   3.511  15.149  0.5038 -0.0023  0.0712
  632TMC3    O1 9420   1.055   3.456  14.771  0.6017  0.3392 -0.2201
  632TMC3    O2 9421   0.716   3.537  15.268  0.0747 -0.2971 -0.1690
  633MPD2     C 9422   0.257   1.080  17.182 -0.0481  0.4531  0.8113
  633MPD2    C1 9423   0.306   1.033  17.062  0.2272 -0.0476  0.5973
  633MPD2    C2 9424   0.326   0.898  17.035  0.1973 -0.5480 -0.2144
  633MPD2    C3 9425   0.312   0.819  17.142  0.2956 -0.0616 -0.2755
  633MPD2    C4 9426   0.259   0.857  17.262 -0.1176 -0.0905  0.0617
  633MPD2    C5 9427   0.217   0.988  17.276 -0.6204 -0.0733 -0.6854
  633MPD2     H 9428   0.389   0.874  16.950 -1.8859 -2.4240 -1.2494
  633MPD2    H1 9429   0.236   0.790  17.344  0.4769 -0.4578 -0.0755
  633MPD2    H2 9430   0.242   1.185  17.205  0.1858  0.5368  0.5855
  633MPD2    H3 9431   0.175   1.031  17.366  0.2590  1.7736 -1.1565
  633MPD2     N 9432   0.353   0.684  17.122 -0.6407  0.0308  0.3457
  633MPD2    H5 9433   0.381   0.652  17.030 -1.2047 -2.2777  0.9821
  633MPD2    N1 9434   0.348   1.131  16.963 -0.1799  0.2341  0.0283
  633MPD2    H7 9435   0.386   1.081  16.883 -0.6601  0.9747 -0.6669
  634TMC3    C1 9436   0.411   1.332  16.853 -0.0027 -0.4185  0.4283
  634TMC3    C2 9437   0.506   1.262  16.791  1.0082  0.3590 -0.0822
  634TMC3    C3 9438   0.576   1.317  16.686  0.3009 -0.4070  0.9269
  634TMC3    C4 9439   0.372   1.457  16.819 -0.9098  0.2986  0.1263
  634TMC3    C5 9440   0.456   1.515  16.728 -0.3358 -0.1792 -0.9172
  634TMC3    C6 9441   0.551   1.450  16.656 -0.2158  0.1245 -0.4799
  634TMC3     C 9442   0.344   1.268  16.965 -0.3387  0.5565 -0.0518
  634TMC3     O 9443   0.300   1.346  17.047  0.3900  0.0218  0.1688
  634TMC3     H 9444   0.523   1.159  16.820  0.7055  0.1125 -0.7626
  634TMC3    H1 9445   0.299   1.506  16.882 -0.7434  2.0915 -1.0512
  634TMC3    H2 9446   0.613   1.514  16.595 -0.6093  0.8116 -0.1488
  634TMC3    C7 9447   0.409   1.629  16.651  0.0392  0.5739  0.1359
  634TMC3    C8 9448   0.613   1.229  16.579  0.9648  0.1984 -0.4867
  634TMC3    O1 9449   0.436   1.632  16.534 -0.1539 -0.2318 -0.4184
  634TMC3    O2 9450   0.598   1.110  16.594 -0.6814 -0.4902 -0.0526
  635TMC3    C1 9451   0.771   2.295   0.083 -0.5158 -0.3508  0.0891
  635TMC3    C2 9452   0.800   2.176   0.021  0.2422 -0.4813  1.1324
  635TMC3    C3 9453   0.695   2.078   0.013 -0.5981 -0.3436 -0.2111
  635TMC3    C4 9454   0.655   2.305   0.156 -0.1756  0.3221  0.2462
  635TMC3    C5 9455   0.557   2.218   0.147  0.3303 -0.4613 -0.4788
  635TMC3    C6 9456   0.574   2.106   0.076  0.6657 -0.1009 -0.3573
  635TMC3     C 9457   0.884   2.375   0.109  0.0254 -0.7771 -0.1251
  635TMC3     O 9458   0.989   2.356   0.047 -0.1374 -0.0886 -0.3105
  635TMC3     H 9459   0.892   2.160  17.720 -1.0402  0.9519 -1.4662
  635TMC3    H1 9460   0.627   2.399   0.200 -2.5418  0.0159 -0.6178
  635TMC3    H2 9461   0.488   2.040   0.072 -1.4339  2.7339 -2.5498
  635TMC3    C7 9462   0.435   2.236   0.219 -0.6164 -0.0275 -0.0473
  635TMC3    C8 9463   0.726   1.964  17.683  0.4033 -0.1423  0.7474
  635TMC3    O1 9464   0.381   2.148   0.280  0.4344  0.0111 -0.2912
  635TMC3    O2 9465   0.827   1.960  17.620 -0.0544 -0.1992 -0.0175
  636MPD2     C 9466   1.751   1.190  15.931  0.3857 -0.9982 -0.0280
  636MPD2    C1 9467   1.794   1.177  16.062  0.9586 -0.1245  0.0459
  636MPD2    C2 9468   1.844   1.053  16.102 -0.3760 -0.8066  0.1528
  636MPD2    C3 9469   1.837   0.944  16.015  0.5478 -0.2322  0.2548
  636MPD2    C4 9470   1.805   0.965  15.883  0.3249 -0.2887  0.1708
  636MPD2    C5 9471   1.767   1.088  15.842  0.4136  0.0621 -0.3420
  636MPD2     H 9472   1.883   1.046  16.203 -1.3121  1.3177  0.6616
  636MPD2    H1 9473   1.818   0.888  15.808 -1.3208 -1.1352  0.7524
  636MPD2    H2 9474   1.716   1.287  15.899  0.4116 -1.8625 -2.6375
  636MPD2    H3 9475   1.750   1.111  15.737 -1.4295  0.7331  0.0952
  636MPD2     N 9476   1.882   0.820  16.066 -0.1357  0.0279 -0.1619
  636MPD2    H5 9477   1.925   0.827  16.158  1.2245  0.7385 -0.8534
  636MPD2    N1 9478   1.794   1.283  16.158 -0.4220  0.2643  0.6448
  636MPD2    H7 9479   1.832   1.275  16.252  4.2023 -0.6754 -1.2713
  637TMC3    C1 9480   1.956   0.603  16.087 -0.4461  0.0493 -0.4082
  637TMC3    C2 9481   1.939   0.643  16.222  0.3109 -0.2548  0.4082
  637TMC3    C3 9482   2.043   0.639  16.304 -0.5111  0.0992  0.1667
  637TMC3    C4 9483   2.074   0.552  16.042  0.6540  0.1389 -1.1135
  637TMC3    C5 9484   2.183   0.550  16.132  0.6575 -0.3163 -0.1170
  637TMC3    C6 9485   2.157   0.582  16.263 -0.2023 -0.2762 -0.7018
  637TMC3     C 9486   1.899   0.699  15.999  0.0230 -0.3538 -0.5698
  637TMC3     O 9487   1.872   0.673  15.882 -0.0842 -0.0478  0.3811
  637TMC3     H 9488   1.847   0.669  16.272  0.5628 -2.1405  1.8417
  637TMC3    H1 9489   2.086   0.549  15.934  1.4667  1.0933 -1.0407
  637TMC3    H2 9490   2.243   0.578  16.329 -1.0845 -2.8265  0.3106
  637TMC3    C7 9491   2.294   0.641  16.086  0.0068  0.6001 -0.0575
  637TMC3    C8 9492   2.054   0.761  16.378  0.0874  0.4975  0.1276
  637TMC3    O1 9493   2.345   0.709  16.172 -0.1739 -0.1544 -0.1384
  637TMC3    O2 9494   1.998   0.854  16.324  0.4295  0.4899  0.6526
  638MPD2     C 9495   1.608   0.253  14.896 -0.2384  0.1744  0.4555
  638MPD2    C1 9496   1.712   0.160  14.901  0.0425  0.2280 -0.6209
  638MPD2    C2 9497   1.697   0.058  14.992  0.3721  0.7285 -0.1305
  638MPD2    C3 9498   1.579   0.046  15.066 -0.0947 -0.0518  0.3348
  638MPD2    C4 9499   1.486   0.146  15.067 -0.7714 -0.5128 -0.2709
  638MPD2    C5 9500   1.501   0.250  14.983 -0.5147 -0.2214  0.4828
  638MPD2     H 9501   1.764   4.712  14.983  2.5678  2.3323  1.1990
  638MPD2    H1 9502   1.394   0.138  15.124 -0.6607 -1.7886 -0.2554
  638MPD2    H2 9503   1.614   0.338  14.828 -1.3804  1.0237  1.4201
  638MPD2    H3 9504   1.428   0.330  14.976 -0.2682 -0.1862 -1.8687
  638MPD2     N 9505   1.549   4.658  15.125 -0.3785  0.5977  0.5838
  638MPD2    H5 9506   1.606   4.580  15.095 -2.3310  0.6070 -3.2200
  638MPD2    N1 9507   1.821   0.171  14.812 -0.4452  0.1936  0.1434
  638MPD2    H7 9508   1.817   0.241  14.738 -0.6870  0.9603  0.8803
  639TMC3    C1 9509   1.435   4.480  15.227  0.6110 -0.3020  0.3487
  639TMC3    C2 9510   1.310   4.433  15.193  0.6381  0.2405 -0.2812
  639TMC3    C3 9511   1.307   4.307  15.135 -0.0425 -0.7302  0.4155
  639TMC3    C4 9512   1.549   4.420  15.198  0.7190 -0.4077  0.6837
  639TMC3    C5 9513   1.537   4.291  15.144  0.1019 -0.2642  0.0522
  639TMC3    C6 9514   1.419   4.233  15.104 -0.1974  0.0852 -0.3115
  639TMC3     C 9515   1.440   4.627  15.207  0.0298 -0.2967 -0.7333
  639TMC3     O 9516   1.333   4.687  15.207 -0.0804 -0.2527 -0.3333
  639TMC3     H 9517   1.219   4.489  15.211 -0.0189 -1.2130  0.8526
  639TMC3    H1 9518   1.648   4.459  15.220  1.1944  0.2915 -2.6528
  639TMC3    H2 9519   1.423   4.128  15.079  2.6277 -0.0788  0.8463
  639TMC3    C7 9520   1.656   4.210  15.148 -0.0445 -0.4562  0.0939
  639TMC3    C8 9521   1.188   4.258  15.084 -0.5537 -0.1742  0.0246
  639TMC3    O1 9522   1.632   4.091  15.152 -0.0386 -0.0595 -0.2287
  639TMC3    O2 9523   1.085   4.268  15.150 -0.3677  0.2907  0.4054
  640MPD2     C 9524   2.101   3.751   9.768  0.0881  0.6654  0.5238
  640MPD2    C1 9525   2.166   3.863   9.803 -0.0570 -0.1126 -0.1422
  640MPD2    C2 9526   2.098   3.968   9.865 -0.1135 -0.2337 -0.3583
  640MPD2    C3 9527   1.958   3.967   9.879 -0.0972  0.4518 -0.0583
  640MPD2    C4 9528   1.896   3.861   9.828 -0.1782 -0.1054  0.0048
  640MPD2    C5 9529   1.964   3.758   9.770 -0.6676  0.6790 -0.3391
  640MPD2     H 9530   2.152   4.056   9.897 -1.3624 -0.7080  2.9860
  640MPD2    H1 9531   1.791   3.841   9.841 -0.2617  1.4064  1.6369
  640MPD2    H2 9532   2.147   3.659   9.732 -3.8748 -0.4606 -1.6344
  640MPD2    H3 9533   1.901   3.673   9.744 -0.6693  0.0814  1.6042
  640MPD2     N 9534   1.890   4.069   9.951 -0.0810  0.2527 -0.0613
  640MPD2    H5 9535   1.791   4.048   9.967 -0.0934  1.1812  1.1365
  640MPD2    N1 9536   2.308   3.850   9.791 -0.0494 -0.1918  0.2822
  640MPD2    H7 9537   2.340   3.764   9.747  1.1988  0.9186 -0.9752
  641TMC3    C1 9538   2.536   3.926   9.780  0.2748 -0.0691 -0.3546
  641TMC3    C2 9539   2.576   3.792   9.791 -0.5848  0.0228 -0.1982
  641TMC3    C3 9540   2.696   3.762   9.742  0.1882 -0.0032 -0.5808
  641TMC3    C4 9541   2.618   4.026   9.736  0.4296 -0.5225 -0.0308
  641TMC3    C5 9542   2.736   3.987   9.676 -0.8058  0.2295 -0.1903
  641TMC3    C6 9543   2.771   3.853   9.677 -0.5602  0.2342  0.1567
  641TMC3     C 9544   2.396   3.957   9.806  0.0336 -0.0914 -0.2812
  641TMC3     O 9545   2.364   4.073   9.795  0.1037  0.2230 -0.3261
  641TMC3     H 9546   2.522   3.703   9.822 -1.7117  0.7256 -0.1585
  641TMC3    H1 9547   2.592   4.131   9.735  1.3203 -0.3040 -0.6556
  641TMC3    H2 9548   2.861   3.820   9.627 -0.7895 -1.0924  0.6302
  641TMC3    C7 9549   2.813   4.061   9.586  0.4567 -0.3262  0.3365
  641TMC3    C8 9550   2.737   3.623   9.739 -0.3210 -0.4763 -0.0845
  641TMC3    O1 9551   2.918   4.023   9.536  0.4273  0.4152 -0.2942
  641TMC3    O2 9552   2.765   3.579   9.625  0.0722  0.3395  0.2501
  642TMC3    C1 9553   2.955   4.706  12.573  0.1167  0.4196  0.2811
  642TMC3    C2 9554   3.089   4.727  12.600 -0.6482 -0.4286 -0.1070
  642TMC3    C3 9555   3.178   4.659  12.524 -1.2023 -0.2454 -0.5360
  642TMC3    C4 9556   2.919   4.608  12.483  0.1802  0.3325  0.3744
  642TMC3    C5 9557   3.015   4.536  12.418  0.6048  0.4311  0.2308
  642TMC3    C6 9558   3.146   4.562  12.433  0.5789 -0.0982  0.0231
  642TMC3     C 9559   2.853   0.026  12.661  0.4009  0.1233  0.2238
  642TMC3     O 9560   2.874   0.021  12.782 -0.0439  0.0892  0.3315
  642TMC3     H 9561   3.125   0.046  12.685 -0.4652 -1.8002  0.7509
  642TMC3    H1 9562   2.814   4.587  12.467  0.6745  0.0767 -2.6322
  642TMC3    H2 9563   3.212   4.501  12.373 -1.2500  1.0151 -3.1154
  642TMC3    C7 9564   2.976   4.415  12.351 -0.3608 -0.3394  0.6443
  642TMC3    C8 9565   3.316   4.676  12.567 -0.4993  0.1163 -0.2286
  642TMC3    O1 9566   3.026   4.386  12.238  0.2787 -0.1211  0.3311
  642TMC3    O2 9567   3.330   4.739  12.670  0.1877  0.3593  0.1373
  643TMC3    C1 9568   2.229   3.882   0.394 -0.8407  0.1104  0.0299
  643TMC3    C2 9569   2.134   3.956   0.327  0.5123 -0.1182 -0.2022
  643TMC3    C3 9570   2.065   3.905   0.225  0.3524 -0.0209 -0.5493
  643TMC3    C4 9571   2.257   3.757   0.344 -0.5158 -0.1431  0.4543
  643TMC3    C5 9572   2.193   3.708   0.234 -0.6634  0.3845 -0.5201
  643TMC3    C6 9573   2.092   3.781   0.173 -0.6291 -0.5053  0.9068
  643TMC3     C 9574   2.312   3.945   0.501 -0.2793 -0.5357 -0.6328
  643TMC3     O 9575   2.286   4.062   0.524  0.2483  0.6342  0.3397
  643TMC3     H 9576   2.105   4.052   0.368  0.1669  0.4828 -1.8926
  643TMC3    H1 9577   2.345   3.702   0.375 -0.9485 -0.3513  1.3061
  643TMC3    H2 9578   2.033   3.744   0.090 -0.5515 -2.0815  1.5575
  643TMC3    C7 9579   2.286   3.669   0.133 -0.3363 -0.6922 -0.1441
  643TMC3    C8 9580   2.018   4.001   0.126 -0.0789 -0.1507 -0.4114
  643TMC3    O1 9581   2.398   3.718   0.141  0.0906  0.7784 -0.2988
  643TMC3    O2 9582   1.964   3.953   0.031  0.4976  0.1269 -0.4742
  644MPD2     C 9583   2.527   4.327   9.996  0.2569 -0.1282 -0.5769
  644MPD2    C1 9584   2.629   4.397   9.928  0.6895 -0.1494  0.5803
  644MPD2    C2 9585   2.614   4.534   9.895 -0.5494 -0.1946 -0.5942
  644MPD2    C3 9586   2.489   4.596   9.910 -0.4730  0.5900 -0.5394
  644MPD2    C4 9587   2.400   4.526   9.989  0.2708 -0.2678 -0.4616
  644MPD2    C5 9588   2.421   4.402  10.033 -0.0188  0.3246  0.3348
  644MPD2     H 9589   2.692   4.579   9.835  0.0719 -3.3036 -2.1220
  644MPD2    H1 9590   2.322   4.588  10.032 -1.0220  0.0881 -3.3119
  644MPD2    H2 9591   2.538   4.224  10.027 -2.4024 -1.1689 -3.1603
  644MPD2    H3 9592   2.343   4.377  10.104  0.3937  1.8736  1.3289
  644MPD2     N 9593   2.466   4.726   9.857  0.2360 -0.1690 -0.4045
  644MPD2    H5 9594   2.552   0.040   9.845  0.0218  0.0199 -1.1212
  644MPD2    N1 9595   2.747   4.322   9.893  0.1080  0.4165 -0.1325
  644MPD2    H7 9596   2.757   4.224   9.918  1.5696  0.9253  1.2425
  645TMC3    C1 9597   2.350   0.182   9.803  0.2261  0.7133 -0.7813
  645TMC3    C2 9598   2.282   0.232   9.693 -0.0387  0.6436  0.1019
  645TMC3    C3 9599   2.295   0.364   9.666 -0.0012 -0.3907  0.2960
  645TMC3    C4 9600   2.431   0.256   9.879  0.4136 -0.1790 -0.4244
  645TMC3    C5 9601   2.446   0.386   9.839 -0.5599 -0.1681 -0.4322
  645TMC3    C6 9602   2.380   0.442   9.733 -0.6332 -0.1143  0.0908
  645TMC3     C 9603   2.340   0.035   9.831  0.4164 -0.5686  0.2081
  645TMC3     O 9604   2.230   4.721   9.842  0.4042  0.1940  0.1116
  645TMC3     H 9605   2.217   0.158   9.648  0.9485 -1.5431  2.2068
  645TMC3    H1 9606   2.498   0.213   9.953  1.3523  3.0659  0.5912
  645TMC3    H2 9607   2.386   0.548   9.710  2.2193 -0.4130 -0.5753
  645TMC3    C7 9608   2.553   0.465   9.902 -0.0424 -0.4332  0.1352
  645TMC3    C8 9609   2.251   0.413   9.536 -0.7322 -0.1800 -0.3150
  645TMC3    O1 9610   2.648   0.398   9.935  0.4856 -0.2363  0.4841
  645TMC3    O2 9611   2.252   0.537   9.525  0.1346 -0.2904 -0.0357
  646MPD2     C 9612   1.821   3.524  14.433 -0.1634  0.7119  0.5403
  646MPD2    C1 9613   1.726   3.513  14.533 -0.0881 -0.0928  0.0283
  646MPD2    C2 9614   1.603   3.572  14.509  0.2237 -0.0355  0.4630
  646MPD2    C3 9615   1.568   3.630  14.389  0.0744  0.5077 -0.4342
  646MPD2    C4 9616   1.660   3.613  14.284 -0.4284  0.6953 -0.0792
  646MPD2    C5 9617   1.788   3.569  14.305  0.7304  0.6371 -0.7271
  646MPD2     H 9618   1.540   3.585  14.596  0.0507  0.1774  0.3086
  646MPD2    H1 9619   1.647   3.647  14.182  2.9714 -0.5697 -0.9212
  646MPD2    H2 9620   1.922   3.486  14.443 -0.4837 -0.0507  0.9362
  646MPD2    H3 9621   1.864   3.576  14.229  3.3709 -0.5926  1.8169
  646MPD2     N 9622   1.432   3.673  14.379  0.4973  0.0785 -0.1722
  646MPD2    H5 9623   1.369   3.651  14.455 -0.0438  2.4023  0.0607
  646MPD2    N1 9624   1.764   3.457  14.659  0.1400  0.0860  0.2708
  646MPD2    H7 9625   1.863   3.433  14.662 -0.0768 -0.8736 -0.1538
  647TMC3    C1 9626   1.764   3.369  14.876  0.6142 -0.0446  0.3809
  647TMC3    C2 9627   1.697   3.261  14.918  1.2368 -0.0890 -0.9636
  647TMC3    C3 9628   1.756   3.170  15.003 -0.2229  0.4717 -0.1167
  647TMC3    C4 9629   1.898   3.391  14.900 -0.0227  0.2931 -0.3661
  647TMC3    C5 9630   1.960   3.292  14.975  0.6547  0.4597 -0.8480
  647TMC3    C6 9631   1.896   3.181  15.027  0.3610 -0.8051  0.0641
  647TMC3     C 9632   1.690   3.441  14.772  0.0664 -0.6910 -0.5107
  647TMC3     O 9633   1.569   3.456  14.783 -0.4877 -0.2549 -0.5070
  647TMC3     H 9634   1.592   3.249  14.893  1.2364 -0.9670 -0.5307
  647TMC3    H1 9635   1.934   3.492  14.882  1.4135 -0.3920 -1.3726
  647TMC3    H2 9636   1.936   3.119  15.106  0.9691  0.3505  0.6570
  647TMC3    C7 9637   2.100   3.305  15.006  0.2733  0.5482  0.2709
  647TMC3    C8 9638   1.720   3.036  14.981 -0.0627  0.2782 -0.1058
  647TMC3    O1 9639   2.137   3.228  15.094  0.7524  0.0755 -0.8238
  647TMC3    O2 9640   1.632   3.019  14.900 -0.2670  0.6379  0.1439
  648TMC3    C1 9641   1.082   1.107  15.964 -0.6685  0.3959  0.0611
  648TMC3    C2 9642   1.099   0.982  15.912 -0.1366  0.3050 -0.7502
  648TMC3    C3 9643   1.064   0.972  15.785  0.6646 -0.2025 -0.9600
  648TMC3    C4 9644   1.038   1.219  15.900 -0.0964 -0.0384  0.3643
  648TMC3    C5 9645   1.005   1.200  15.775 -0.5948 -0.1538  0.2114
  648TMC3    C6 9646   1.009   1.080  15.713 -0.9218 -0.7353  0.6135
  648TMC3     C 9647   1.081   1.119  16.109 -0.5906 -0.0541  0.1077
  648TMC3     O 9648   1.065   1.229  16.152  0.1337 -0.1737  0.2880
  648TMC3     H 9649   1.135   0.894  15.964  0.5481 -1.0854 -3.6120
  648TMC3    H1 9650   1.011   1.308  15.956 -1.9917 -1.3531  1.5283
  648TMC3    H2 9651   0.983   1.066  15.609 -0.0194  1.1959  0.1180
  648TMC3    C7 9652   0.922   1.296  15.707  0.0701 -0.3113 -0.3704
  648TMC3    C8 9653   1.062   0.840  15.724 -0.0828 -0.3629 -0.2310
  648TMC3    O1 9654   0.897   1.263  15.593 -0.3457  0.2584  0.0829
  648TMC3    O2 9655   0.966   0.831  15.655 -0.5037  0.0734 -0.0142
  649TMC3    C1 9656   4.710   2.213  13.130  0.1330  0.1154  0.3121
  649TMC3    C2 9657   0.057   2.316  13.161 -0.1895  0.1537 -0.6675
  649TMC3    C3 9658   0.038   2.377  13.281  0.5464 -0.0121 -0.3245
  649TMC3    C4 9659   4.631   2.156  13.228  0.3860 -0.2317  0.2417
  649TMC3    C5 9660   4.606   2.218  13.344  0.2991 -0.7601 -0.3852
  649TMC3    C6 9661   4.678   2.334  13.373  0.1743 -0.4690  0.7110
  649TMC3     C 9662   4.657   2.203  13.001  0.1700 -0.0973 -0.4811
  649TMC3     O 9663   4.536   2.226  13.001  0.0105  0.0642  0.4002
  649TMC3     H 9664   0.129   2.347  13.086  0.4309 -0.2918 -0.2605
  649TMC3    H1 9665   4.561   2.082  13.193 -1.2671  0.5065  1.9946
  649TMC3    H2 9666   4.661   2.384  13.467  0.2947 -2.4153  1.7612
  649TMC3    C7 9667   4.517   2.156  13.446  0.7051 -0.0173  0.3105
  649TMC3    C8 9668   0.133   2.481  13.308  0.3722  0.1579 -0.3235
  649TMC3    O1 9669   4.487   2.222  13.544  0.0501 -0.2950 -0.4371
  649TMC3    O2 9670   0.229   2.501  13.238 -0.1513 -0.2690  0.1607
  650TMC3    C1 9671   2.322   4.054  12.376  0.0598 -0.5737 -0.0824
  650TMC3    C2 9672   2.276   4.187  12.393 -0.3692 -0.0750 -0.6742
  650TMC3    C3 9673   2.216   4.246  12.286  0.8151 -1.0909  0.7300
  650TMC3    C4 9674   2.320   3.993  12.253  0.3035 -0.4104 -0.8563
  650TMC3    C5 9675   2.272   4.066  12.148 -0.3495 -0.2965  0.7039
  650TMC3    C6 9676   2.217   4.190  12.163  0.4365 -0.4563 -0.0567
  650TMC3     C 9677   2.344   3.985  12.499 -0.1197 -0.0822 -0.9055
  650TMC3     O 9678   2.347   4.054  12.602 -0.1786 -0.0825 -0.0995
  650TMC3     H 9679   2.294   4.250  12.480 -1.4867 -0.0643 -0.4555
  650TMC3    H1 9680   2.353   3.892  12.233  0.2357 -0.3463 -1.2972
  650TMC3    H2 9681   2.195   4.247  12.073 -0.4977 -0.4412  0.1840
  650TMC3    C7 9682   2.308   4.021  12.014 -0.1584  0.0607 -0.1128
  650TMC3    C8 9683   2.157   4.378  12.307  0.0635 -0.4387  0.2082
  650TMC3    O1 9684   2.405   3.947  12.002  0.1236  0.1780 -0.3940
  650TMC3    O2 9685   2.179   4.452  12.402 -0.1315 -0.6732 -0.0472
  651MPD2     C 9686   1.216   1.358  10.589  0.3847  0.4713 -0.7501
  651MPD2    C1 9687   1.185   1.477  10.649  0.3887 -0.2286 -0.4945
  651MPD2    C2 9688   1.289   1.571  10.670  0.1227 -0.1539  0.3586
  651MPD2    C3 9689   1.418   1.539  10.637 -0.7141 -0.1791  0.3612
  651MPD2    C4 9690   1.443   1.422  10.567 -0.2880 -0.2603  0.2034
  651MPD2    C5 9691   1.342   1.336  10.533  0.5156  0.1736 -0.1904
  651MPD2     H 9692   1.262   1.672  10.698  0.6242 -0.2262  1.0875
  651MPD2    H1 9693   1.543   1.404  10.527 -0.4494  0.3630 -0.4616
  651MPD2    H2 9694   1.140   1.283  10.568  0.3002  0.2327  0.4481
  651MPD2    H3 9695   1.364   1.252  10.468  1.4880 -0.6792  1.2301
  651MPD2     N 9696   1.516   1.638  10.660  0.0806 -0.5155 -0.3924
  651MPD2    H5 9697   1.477   1.723  10.700  0.4246 -1.2255  1.4359
  651MPD2    N1 9698   1.054   1.514  10.683  0.7724  0.1058  0.4584
  651MPD2    H7 9699   1.044   1.600  10.736  0.3936 -0.1031  0.7230
  652TMC3    C1 9700   1.901   1.889  10.697 -0.2724  0.2388  0.8839
  652TMC3    C2 9701   1.844   1.766  10.687 -0.4535  0.9246  0.0023
  652TMC3    C3 9702   1.712   1.743  10.708  0.7530 -0.6043 -0.0728
  652TMC3    C4 9703   1.825   1.983  10.750  0.1383  0.1402 -0.1985
  652TMC3    C5 9704   1.694   1.961  10.782 -0.4515  0.7618 -0.4653
  652TMC3    C6 9705   1.636   1.841  10.762 -0.1148 -0.6273 -0.4116
  652TMC3     C 9706   2.034   1.898  10.739  0.0271  0.3208 -0.0171
  652TMC3     O 9707   2.065   1.801  10.816  0.5139 -0.2103  0.1073
  652TMC3     H 9708   1.911   1.691  10.646 -1.7540 -0.8540  1.1354
  652TMC3    H1 9709   1.864   2.067  10.806  0.5740  0.4490 -0.9712
  652TMC3    H2 9710   1.530   1.830  10.780 -0.1903  2.1172  0.7419
  652TMC3    C7 9711   1.604   2.079  10.785 -0.9808 -0.1223 -0.4137
  652TMC3    C8 9712   1.655   1.623  10.652 -0.2635 -0.4774  0.1955
  652TMC3    O1 9713   1.485   2.051  10.797  0.7175 -0.2475 -0.0450
  652TMC3    O2 9714   1.728   1.564  10.570  0.2503  0.1650  0.3061
  653MPD2     C 9715   4.519   1.284   0.025 -0.6512 -0.4859  0.4652
  653MPD2    C1 9716   4.598   1.280  17.668 -0.6485 -0.4120 -0.0292
  653MPD2    C2 9717   4.588   1.183  17.578  0.0786  0.2039 -0.0098
  653MPD2    C3 9718   4.500   1.077  17.596 -0.0476  0.0318 -1.2510
  653MPD2    C4 9719   4.418   1.079  17.710 -0.3189 -0.3858 -0.0966
  653MPD2    C5 9720   4.438   1.182   0.045  0.1961  0.6335  0.0998
  653MPD2     H 9721   4.646   1.181  17.486  0.1611 -0.8577  0.0679
  653MPD2    H1 9722   4.339   1.007  17.732 -0.0539 -0.7430 -0.3159
  653MPD2    H2 9723   4.537   1.362   0.098 -2.0068  1.4239 -1.2314
  653MPD2    H3 9724   4.379   1.201   0.133  0.0871 -1.2514  0.4467
  653MPD2     N 9725   4.478   0.986  17.491  0.2530  0.8142 -0.0339
  653MPD2    H5 9726   4.508   1.017  17.399  0.0137 -1.6024 -0.9103
  653MPD2    N1 9727   4.676   1.396  17.643 -0.2122 -0.3012  0.3819
  653MPD2    H7 9728   4.669   1.467  17.714 -1.3246 -0.5751  0.5460
  654TMC3    C1 9729   4.383   0.806  17.377 -0.1295  0.1129 -0.2281
  654TMC3    C2 9730   4.259   0.819  17.319 -0.1182 -0.0095 -0.8400
  654TMC3    C3 9731   4.249   0.804  17.187 -0.7039  0.0045 -0.6052
  654TMC3    C4 9732   4.499   0.802  17.298 -0.4175 -0.4628  0.3792
  654TMC3    C5 9733   4.483   0.783  17.166 -0.2352  0.0842  0.0454
  654TMC3    C6 9734   4.363   0.787  17.106 -0.0604 -0.0737 -0.0662
  654TMC3     C 9735   4.407   0.871  17.503  0.6824 -0.3373 -0.2329
  654TMC3     O 9736   4.384   0.805  17.601  0.7605 -0.3375 -0.0250
  654TMC3     H 9737   4.177   0.824  17.390 -0.4116 -1.2852 -1.0984
  654TMC3    H1 9738   4.599   0.807  17.339 -1.0070  1.7469  1.5593
  654TMC3    H2 9739   4.360   0.771  16.999 -2.8376 -1.9544  0.2893
  654TMC3    C7 9740   4.589   0.717  17.087 -0.1962  0.0472  0.0109
  654TMC3    C8 9741   4.115   0.770  17.136 -0.0269  0.2287  0.0057
  654TMC3    O1 9742   4.603   0.751  16.971 -0.2478 -0.1203 -0.1044
  654TMC3    O2 9743   4.018   0.822  17.194  0.4859 -0.1154  0.2662
  655MPD2     C 9744   1.429   1.071  15.861  0.4699  0.5420  0.3925
  655MPD2    C1 9745   1.405   1.171  15.767  0.9127 -0.2552  0.3348
  655MPD2    C2 9746   1.411   1.134  15.630 -0.1961 -0.4062  0.5148
  655MPD2    C3 9747   1.417   1.004  15.587  0.0070 -0.4163 -0.5241
  655MPD2    C4 9748   1.433   0.909  15.688 -0.1789  0.6386  0.0695
  655MPD2    C5 9749   1.436   0.939  15.821 -0.6768 -0.5818  0.0754
  655MPD2     H 9750   1.397   1.213  15.557 -0.3265 -0.8333  0.0814
  655MPD2    H1 9751   1.448   0.806  15.657  1.3754  1.1944 -1.0457
  655MPD2    H2 9752   1.457   1.104  15.961  2.5640 -0.7115  0.2261
  655MPD2    H3 9753   1.461   0.856  15.887 -3.8784 -0.8709  0.9385
  655MPD2     N 9754   1.392   0.969  15.452  0.3917  0.2447  0.2477
  655MPD2    H5 9755   1.371   0.873  15.429 -0.9185  0.1835  1.6968
  655MPD2    N1 9756   1.373   1.303  15.805 -0.1037  0.7303 -0.0863
  655MPD2    H7 9757   1.334   1.349  15.724  1.7897  1.9951 -0.2516
  656TMC3    C1 9758   1.302   1.481  15.932 -0.2779  0.2269  0.6013
  656TMC3    C2 9759   1.214   1.504  16.037 -0.1572  0.3104 -0.2933
  656TMC3    C3 9760   1.136   1.613  16.018  0.4514 -0.8926  0.6570
  656TMC3    C4 9761   1.312   1.553  15.817 -0.0751 -0.0660  0.0743
  656TMC3    C5 9762   1.224   1.655  15.797  0.3519 -0.7327 -0.5065
  656TMC3    C6 9763   1.141   1.688  15.904 -1.4410 -0.5440  0.3107
  656TMC3     C 9764   1.355   1.349  15.933  0.2997  0.2022 -0.4558
  656TMC3     O 9765   1.364   1.298  16.045  0.4307  0.9166  0.2536
  656TMC3     H 9766   1.205   1.436  16.121 -4.1989  0.9004 -0.2712
  656TMC3    H1 9767   1.371   1.526  15.731  0.8246  0.7826  0.4280
  656TMC3    H2 9768   1.060   1.758  15.889 -2.2217 -2.1247 -2.8212
  656TMC3    C7 9769   1.180   1.699  15.663  0.0214  0.2782  0.5739
  656TMC3    C8 9770   1.008   1.598  16.081 -0.8209 -0.3714 -0.5933
  656TMC3    O1 9771   1.259   1.665  15.570 -0.0293  0.3125 -0.6494
  656TMC3    O2 9772   0.934   1.506  16.048 -0.4599 -0.5386 -0.1310
  657TMC3    C1 9773   0.010   0.654  15.282  0.7632 -1.3699  0.4314
  657TMC3    C2 9774   0.012   0.655  15.423  0.5974 -0.4804 -0.1113
  657TMC3    C3 9775   4.705   0.764  15.492  0.6859  0.9580  0.1717
  657TMC3    C4 9776   4.715   0.772  15.210  0.8481  0.1926 -0.5706
  657TMC3    C5 9777   4.683   0.881  15.284 -0.4699 -0.3128 -0.0591
  657TMC3    C6 9778   4.671   0.878  15.427  0.3233  0.5299  0.5324
  657TMC3     C 9779   0.015   0.528  15.211  0.4346  0.6921  0.5553
  657TMC3     O 9780   4.683   0.531  15.110 -0.1515 -0.0431 -0.0632
  657TMC3     H 9781   0.021   0.559  15.474 -1.0284 -1.3195 -1.4119
  657TMC3    H1 9782   4.715   0.777  15.102  1.4188 -0.1553 -0.5831
  657TMC3    H2 9783   4.653   0.969  15.483  0.6295  0.5637  0.5737
  657TMC3    C7 9784   4.646   1.002  15.214  0.0841  0.0168 -0.0326
  657TMC3    C8 9785   4.738   0.776  15.632  0.0219  0.2552 -0.1148
  657TMC3    O1 9786   4.584   1.087  15.281  0.2668  0.3473  0.4123
  657TMC3    O2 9787   0.077   0.684  15.664  0.0086  0.4673  0.2473
  658MPD2     C 9788   1.654   0.753  14.848  0.1856 -0.2958 -0.6846
  658MPD2    C1 9789   1.528   0.809  14.822  0.6504 -0.0924  0.2833
  658MPD2    C2 9790   1.490   0.828  14.692 -0.3043  0.9379  0.0276
  658MPD2    C3 9791   1.583   0.808  14.590  0.7219  0.5032  0.3477
  658MPD2    C4 9792   1.708   0.768  14.616  0.1822  0.9929  0.1095
  658MPD2    C5 9793   1.745   0.731  14.746  0.7656  0.0215 -0.5030
  658MPD2     H 9794   1.387   0.849  14.665 -0.5171 -1.5248 -1.0896
  658MPD2    H1 9795   1.776   0.751  14.533 -0.4826 -0.1904 -0.1986
  658MPD2    H2 9796   1.684   0.724  14.948 -0.4256  0.6681 -0.2195
  658MPD2    H3 9797   1.845   0.693  14.767 -0.5194 -2.2712  1.3571
  658MPD2     N 9798   1.536   0.838  14.457 -0.6981 -0.1526  0.1218
  658MPD2    H5 9799   1.441   0.869  14.441 -0.1286  1.5301  0.0366
  658MPD2    N1 9800   1.440   0.831  14.932 -0.7400  1.1243 -0.1388
  658MPD2    H7 9801   1.471   0.786  15.018 -1.0180  0.0593 -0.5940
  659TMC3    C1 9802   1.238   0.870  15.058 -0.4893  0.6720  0.4564
  659TMC3    C2 9803   1.315   0.897  15.164  0.0795  0.3020 -0.7507
  659TMC3    C3 9804   1.268   0.988  15.254  0.0215 -1.2212  0.1925
  659TMC3    C4 9805   1.116   0.931  15.040 -0.3601 -0.2172 -0.1451
  659TMC3    C5 9806   1.080   1.033  15.120  0.6053  0.0761  0.4654
  659TMC3    C6 9807   1.153   1.062  15.225 -0.3226 -0.4110 -0.5301
  659TMC3     C 9808   1.306   0.872  14.927 -0.0865  0.3877 -0.1939
  659TMC3     O 9809   1.260   0.931  14.832 -0.7938  0.0220  0.5149
  659TMC3     H 9810   1.413   0.853  15.182 -0.5712 -1.2748 -1.0075
  659TMC3    H1 9811   1.055   0.897  14.957 -1.4981 -0.7780  0.9225
  659TMC3    H2 9812   1.125   1.141  15.294 -1.7303 -0.6759 -0.8030
  659TMC3    C7 9813   0.941   1.069  15.131 -0.3256 -0.2288  0.5568
  659TMC3    C8 9814   1.350   1.052  15.352 -0.0056 -0.2768 -0.2047
  659TMC3    O1 9815   0.868   0.982  15.093  0.0443  0.1453  0.4709
  659TMC3    O2 9816   1.351   1.175  15.349 -0.6337 -1.0328 -0.4869
  660MPD2     C 9817   4.451   0.174  12.849 -0.3058 -0.2244 -0.0583
  660MPD2    C1 9818   4.319   0.153  12.824  0.3515 -0.1451 -0.3567
  660MPD2    C2 9819   4.245   0.065  12.908  0.0221  0.4938  0.0955
  660MPD2    C3 9820   4.303   0.005  13.018 -0.0679 -0.0356 -0.7100
  660MPD2    C4 9821   4.438   0.019  13.026  0.6314  0.2038 -0.2320
  660MPD2    C5 9822   4.517   0.102  12.948 -0.0784 -0.8419  0.6898
  660MPD2     H 9823   4.140   0.044  12.889  0.2469  1.2043 -1.9154
  660MPD2    H1 9824   4.484   4.712  13.113  0.8695  0.4655 -0.2220
  660MPD2    H2 9825   4.516   0.229  12.782  0.1619 -0.8998 -0.1702
  660MPD2    H3 9826   4.622   0.122  12.965 -0.0191  1.7398 -2.7032
  660MPD2     N 9827   4.238   4.645  13.095  0.4528 -0.5923 -0.6642
  660MPD2    H5 9828   4.300   4.579  13.141  1.8669  0.8534 -0.5154
  660MPD2    N1 9829   4.265   0.225  12.716  0.4345 -0.5487 -0.4059
  660MPD2    H7 9830   4.332   0.281  12.662 -1.6176  0.9942 -1.3565
  661TMC3    C1 9831   4.097   0.320  12.590  0.3636 -0.0465 -0.0687
  661TMC3    C2 9832   4.166   0.304  12.475 -0.5012 -0.2960  0.2633
  661TMC3    C3 9833   4.118   0.366  12.362 -0.5077  0.5244 -0.6310
  661TMC3    C4 9834   3.983   0.386  12.595 -0.4417 -0.6841 -0.4727
  661TMC3    C5 9835   3.935   0.454  12.484  0.1317 -0.4037  0.1313
  661TMC3    C6 9836   4.002   0.442  12.369  0.4443 -0.0956 -0.5461
  661TMC3     C 9837   4.132   0.234  12.692  0.2088 -0.3677  0.4597
  661TMC3     O 9838   4.041   0.178  12.746  0.4765  0.3286  0.1044
  661TMC3     H 9839   4.260   0.249  12.477 -0.2785  0.1741  2.7769
  661TMC3    H1 9840   3.929   0.381  12.689 -0.6289 -0.4060 -0.5665
  661TMC3    H2 9841   3.966   0.486  12.277  0.8983  1.4072 -0.0057
  661TMC3    C7 9842   3.791   0.451  12.474 -0.1412 -0.0981 -0.7153
  661TMC3    C8 9843   4.201   0.341  12.242 -0.4663 -0.2242 -0.7766
  661TMC3    O1 9844   3.714   0.515  12.543 -0.3951 -0.3269  0.5118
  661TMC3    O2 9845   4.289   0.255  12.250  0.3465 -0.0559  0.0263
  662MPD2     C 9846   3.908   4.161  16.888 -0.4598 -0.0279 -0.0741
  662MPD2    C1 9847   3.992   4.137  16.993 -0.6813 -0.0639  0.2254
  662MPD2    C2 9848   3.986   4.208  17.112 -0.4611  0.4600 -0.3303
  662MPD2    C3 9849   3.883   4.294  17.130  0.0509 -0.2704  0.4420
  662MPD2    C4 9850   3.795   4.314  17.024  0.7683 -0.3127 -0.0585
  662MPD2    C5 9851   3.808   4.245  16.910 -0.7370 -0.1886 -0.2610
  662MPD2     H 9852   4.050   4.191  17.197 -0.3796 -1.0070 -0.6920
  662MPD2    H1 9853   3.713   4.385  17.036  1.3159  0.5124 -1.1418
  662MPD2    H2 9854   3.920   4.126  16.787  0.0420 -2.3363  0.7939
  662MPD2    H3 9855   3.732   4.263  16.835 -1.1372  2.2695  0.7259
  662MPD2     N 9856   3.862   4.376  17.244  0.7458 -0.2272 -0.8496
  662MPD2    H5 9857   3.781   4.436  17.248  0.3727 -0.6755 -1.6142
  662MPD2    N1 9858   4.112   4.053  16.982 -0.4976  0.2959 -0.1845
  662MPD2    H7 9859   4.149   4.017  17.069  0.0472 -0.6695 -0.8155
  663TMC3    C1 9860   4.249   3.900  16.884 -0.7053 -0.3305  0.5031
  663TMC3    C2 9861   4.332   3.885  16.989  0.3389 -0.2168 -0.2353
  663TMC3    C3 9862   4.432   3.797  16.983  0.3105  0.7720 -0.2829
  663TMC3    C4 9863   4.251   3.815  16.782 -0.5810 -0.5207 -0.5209
  663TMC3    C5 9864   4.345   3.718  16.779 -0.0973 -0.5948 -0.3211
  663TMC3    C6 9865   4.439   3.709  16.876  0.0197  0.4689  0.0935
  663TMC3     C 9866   4.156   4.003  16.864  0.1202 -0.0495  0.2435
  663TMC3     O 9867   4.129   4.030  16.747 -0.1548  0.5512  0.0631
  663TMC3     H 9868   4.348   3.968  17.058 -1.8940  0.3597 -0.4233
  663TMC3    H1 9869   4.187   3.810  16.694  2.2983  0.2865 -2.6494
  663TMC3    H2 9870   4.532   3.656  16.858  1.1309  2.5270 -0.3421
  663TMC3    C7 9871   4.337   3.612  16.678  0.7104  0.1553  0.5936
  663TMC3    C8 9872   4.467   3.722  17.098  0.2971 -0.4590 -0.1634
  663TMC3    O1 9873   4.275   3.632  16.574  0.1677 -0.3288 -0.1490
  663TMC3    O2 9874   4.542   3.627  17.076  0.1890  0.1160  0.1573
  664MPD2     C 9875   2.554   2.204  17.521 -0.0420  0.1869  0.1547
  664MPD2    C1 9876   2.568   2.337  17.549  0.6449 -0.3268 -0.0247
  664MPD2    C2 9877   2.524   2.388  17.668 -0.1333  0.7039 -0.6298
  664MPD2    C3 9878   2.482   2.311   0.014  0.6178 -0.3400 -0.3916
  664MPD2    C4 9879   2.475   2.174  17.743 -0.1763  0.4450  0.3147
  664MPD2    C5 9880   2.505   2.123  17.618  0.5555 -0.0139  0.4098
  664MPD2     H 9881   2.538   2.492  17.694  1.0405  0.4674 -0.3000
  664MPD2    H1 9882   2.456   2.102   0.068 -2.5418  0.9280  0.1580
  664MPD2    H2 9883   2.586   2.165  17.425  0.2969 -1.3376  0.8930
  664MPD2    H3 9884   2.501   2.015  17.608  3.8407 -0.1683  0.4857
  664MPD2     N 9885   2.463   2.372   0.139  0.1979  0.4432  0.1450
  664MPD2    H5 9886   2.480   2.471   0.152  1.0347 -0.2293  4.0845
  664MPD2    N1 9887   2.621   2.428  17.452  0.1708  0.2712  0.0715
  664MPD2    H7 9888   2.612   2.524  17.482  1.2801 -0.3237  2.2555
  665TMC3    C1 9889   2.420   2.403   0.370  0.7376  0.0502 -0.8591
  665TMC3    C2 9890   2.328   2.367   0.460  0.2084  0.2179  0.8261
  665TMC3    C3 9891   2.315   2.463   0.553  0.3222 -0.3618  0.1255
  665TMC3    C4 9892   2.508   2.511   0.375  0.1337  0.3264 -0.2864
  665TMC3    C5 9893   2.497   2.598   0.475  0.3863 -0.1733  0.0242
  665TMC3    C6 9894   2.398   2.571   0.565 -0.2267 -0.2888 -0.1914
  665TMC3     C 9895   2.423   2.305   0.256 -1.1837 -1.3189  0.6899
  665TMC3     O 9896   2.365   2.200   0.266 -0.3728 -0.3786  0.0540
  665TMC3     H 9897   2.244   2.303   0.436  0.0856  0.8149 -0.3119
  665TMC3    H1 9898   2.578   2.523   0.293  0.6613  1.2537  0.3026
  665TMC3    H2 9899   2.379   2.651   0.636 -1.0226  1.8934 -2.8436
  665TMC3    C7 9900   2.615   2.686   0.500  0.0138 -0.2518 -0.4859
  665TMC3    C8 9901   2.217   2.447   0.660 -0.0834  0.1424  0.2913
  665TMC3    O1 9902   2.691   2.699   0.404 -0.0640 -0.6587 -0.5446
  665TMC3    O2 9903   2.228   2.525   0.751  0.2517  0.0514 -0.1294
  666TMC3    C1 9904   1.414   2.716  10.018  0.1580 -0.1664  0.1332
  666TMC3    C2 9905   1.474   2.662   9.901  0.6664  0.1759 -0.0405
  666TMC3    C3 9906   1.526   2.745   9.804 -0.3876  0.2892  0.8197
  666TMC3    C4 9907   1.412   2.847  10.036 -0.2443 -0.4909  0.0385
  666TMC3    C5 9908   1.459   2.922   9.933  0.2267  0.0093 -0.0568
  666TMC3    C6 9909   1.509   2.873   9.814 -0.1203  0.1808 -0.7363
  666TMC3     C 9910   1.369   2.631  10.123  0.1397 -0.1065  0.7424
  666TMC3     O 9911   1.287   2.677  10.194  0.4407  0.1843  0.0704
  666TMC3     H 9912   1.470   2.555   9.889  0.9891  0.4178 -2.2584
  666TMC3    H1 9913   1.364   2.897  10.119  0.6318 -0.4342  0.5107
  666TMC3    H2 9914   1.542   2.931   9.729  1.2184  2.3906  1.2691
  666TMC3    C7 9915   1.483   3.062   9.969  0.0708 -0.4891  0.1162
  666TMC3    C8 9916   1.613   2.683   9.707  0.3690 -0.8040  0.6245
  666TMC3    O1 9917   1.428   3.103  10.070 -0.3777 -0.8729 -0.2846
  666TMC3    O2 9918   1.556   2.596   9.648 -0.0398 -0.0950  0.2940
  667MPD2     C 9919   3.553   2.284  14.746  0.1099 -1.4402  0.2556
  667MPD2    C1 9920   3.465   2.331  14.842 -0.3300 -0.4674 -0.4127
  667MPD2    C2 9921   3.361   2.239  14.869  0.7293  0.5783  0.2037
  667MPD2    C3 9922   3.351   2.109  14.810  0.1554  0.2834 -0.7357
  667MPD2    C4 9923   3.460   2.071  14.728 -0.0889  0.5625 -0.1075
  667MPD2    C5 9924   3.557   2.156  14.693 -0.3625 -0.8256  0.0104
  667MPD2     H 9925   3.280   2.268  14.934  1.7433  0.9270  1.3076
  667MPD2    H1 9926   3.481   1.975  14.684  1.3825  0.2594  1.2668
  667MPD2    H2 9927   3.637   2.338  14.704 -0.3907  0.5604  1.8463
  667MPD2    H3 9928   3.638   2.126  14.627 -2.1413  1.1405 -3.0508
  667MPD2     N 9929   3.241   2.020  14.822  0.0475 -0.2441  0.4547
  667MPD2    H5 9930   3.239   1.943  14.756 -1.0787  0.7403 -0.6485
  667MPD2    N1 9931   3.472   2.459  14.913 -0.3434 -0.1283 -0.1922
  667MPD2    H7 9932   3.412   2.461  14.995 -1.8419 -0.4981 -1.2736
  668TMC3    C1 9933   3.536   2.680  14.977  0.5239  0.2296  0.7365
  668TMC3    C2 9934   3.638   2.772  14.985  0.3710 -0.3337 -0.3350
  668TMC3    C3 9935   3.657   2.847  15.094  0.7359 -1.2132 -0.8287
  668TMC3    C4 9936   3.439   2.681  15.071  0.0780  0.2076 -0.0311
  668TMC3    C5 9937   3.446   2.772  15.171  0.1361 -0.9043 -0.2263
  668TMC3    C6 9938   3.558   2.850  15.191 -0.8088  0.2798  0.3206
  668TMC3     C 9939   3.559   2.567  14.886  0.3061  0.1645 -0.2512
  668TMC3     O 9940   3.637   2.584  14.795  0.2057  0.0541 -0.2582
  668TMC3     H 9941   3.720   2.781  14.914  1.5644 -0.9267  0.9727
  668TMC3    H1 9942   3.348   2.624  15.052 -0.8920  1.6519  0.3232
  668TMC3    H2 9943   3.581   2.909  15.278  0.7465  0.2659 -0.0870
  668TMC3    C7 9944   3.354   2.754  15.281 -0.6936 -0.2111 -0.5427
  668TMC3    C8 9945   3.750   2.961  15.089  0.6357  0.3814  0.1366
  668TMC3    O1 9946   3.409   2.756  15.393  0.0808 -0.1868  0.4196
  668TMC3    O2 9947   3.803   2.999  15.191 -0.7327 -0.5391  0.1623
  669TMC3    C1 9948   1.221   2.649  14.860 -0.3285 -0.2093 -0.2064
  669TMC3    C2 9949   1.096   2.669  14.806 -0.4501 -0.2601 -0.6338
  669TMC3    C3 9950   1.096   2.736  14.686  0.0515 -0.3488 -0.1443
  669TMC3    C4 9951   1.336   2.693  14.799  0.7909 -0.4547  0.5187
  669TMC3    C5 9952   1.328   2.749  14.676 -0.5186  0.7684 -0.2231
  669TMC3    C6 9953   1.206   2.768  14.620 -0.2842  0.2719  0.3841
  669TMC3     C 9954   1.221   2.528  14.946  0.4304 -0.1324 -0.8467
  669TMC3     O 9955   1.131   2.515  15.029  0.1118  0.1658  0.0370
  669TMC3     H 9956   0.999   2.643  14.848  0.1654 -0.4872  0.6421
  669TMC3    H1 9957   1.433   2.694  14.849 -0.3697  1.5050  2.7031
  669TMC3    H2 9958   1.194   2.830  14.531 -0.3265 -0.0101  0.1927
  669TMC3    C7 9959   1.440   2.789  14.600  0.0790 -0.4536  0.0249
  669TMC3    C8 9960   0.969   2.721  14.616  0.2730  0.0391 -0.0346
  669TMC3    O1 9961   1.548   2.762  14.650 -0.5635 -0.0607  0.2444
  669TMC3    O2 9962   0.887   2.638  14.647 -0.1255  0.7129  0.2065
  670MPD2     C 9963   4.432   0.268  13.582  0.7757  0.1006 -0.3743
  670MPD2    C1 9964   4.557   0.272  13.633  0.2254 -0.1985  0.0794
  670MPD2    C2 9965   4.574   0.316  13.763 -0.2371  0.2294  0.1991
  670MPD2    C3 9966   4.465   0.341  13.840 -0.9345  0.2616  0.7396
  670MPD2    C4 9967   4.339   0.340  13.783  0.3479  1.4037 -0.3816
  670MPD2    C5 9968   4.322   0.305  13.655  0.2866  0.9616  0.9181
  670MPD2     H 9969   4.672   0.335  13.805  0.1339  1.4812 -1.2360
  670MPD2    H1 9970   4.243   0.357  13.831 -0.3749  1.4063 -1.8431
  670MPD2    H2 9971   4.413   0.230  13.482 -0.0429 -1.3993  0.3489
  670MPD2    H3 9972   4.226   0.309  13.605  1.2911  1.4975 -1.0089
  670MPD2     N 9973   4.478   0.349  13.977  0.0951  0.2926  0.1829
  670MPD2    H5 9974   4.574   0.364  14.006  0.3305 -1.2668  0.2197
  670MPD2    N1 9975   4.668   0.229  13.568  0.2490 -0.4660 -0.0837
  670MPD2    H7 9976   0.011   0.234  13.628  2.3924 -3.5347 -2.7446
  671TMC3    C1 9977   4.439   0.297  14.203 -0.7001 -0.1831 -0.0058
  671TMC3    C2 9978   4.579   0.308  14.216  0.2572  0.2195  0.4855
  671TMC3    C3 9979   4.640   0.209  14.280  0.0772 -0.1788 -0.6527
  671TMC3    C4 9980   4.377   0.186  14.259 -0.1817  0.2213 -0.0469
  671TMC3    C5 9981   4.452   0.085  14.317  1.0918  0.9056  0.5440
  671TMC3    C6 9982   4.584   0.094  14.332  0.4943  0.5250  0.6324
  671TMC3     C 9983   4.381   0.334  14.075 -0.3646  0.3640 -0.8205
  671TMC3     O 9984   4.264   0.329  14.053  0.4254  0.5150  0.1931
  671TMC3     H 9985   4.642   0.382  14.166 -0.3916  0.2725 -0.2591
  671TMC3    H1 9986   4.277   0.155  14.234 -0.7415  1.5612  0.5333
  671TMC3    H2 9987   4.646   0.008  14.358  0.7476 -0.3822 -2.9299
  671TMC3    C7 9988   4.403   4.690  14.284 -0.0290 -0.2177 -0.7345
  671TMC3    C8 9989   0.035   0.199  14.232  0.0354  0.0482 -0.0379
  671TMC3    O1 9990   4.481   4.606  14.251  0.2066 -0.2688 -0.0008
  671TMC3    O2 9991   0.059   0.219  14.112  0.3048 -0.4734 -0.4481
  672MPD2     C 9992   4.641   1.348   0.365 -0.0829 -0.2055  0.7177
  672MPD2    C1 9993   4.705   1.227   0.338 -0.6499 -0.5895  0.0462
  672MPD2    C2 9994   0.084   1.229   0.265  0.2108 -0.3300  0.2920
  672MPD2    C3 9995   0.153   1.341   0.232 -0.5642 -0.2814 -0.7583
  672MPD2    C4 9996   0.091   1.455   0.269 -0.0542  0.6686  0.3396
  672MPD2    C5 9997   4.701   1.459   0.329  0.9915 -0.3167 -0.4540
  672MPD2     H 9998   0.113   1.133   0.225  1.9401 -0.5125  1.9948
  672MPD2    H1 9999   0.144   1.547   0.247 -1.4496  1.0307 -1.5066
  672MPD2    H210000   4.548   1.356   0.420  1.0595 -1.9621  2.8811
  672MPD2    H310001   4.662   1.556   0.357 -0.3088 -1.0207  0.1635
  672MPD2     N10002   0.284   1.342   0.193 -0.9078 -0.8153  0.1363
  672MPD2    H510003   0.326   1.434   0.199 -0.5486 -1.1837  3.6322
  672MPD2    N110004   4.641   1.100   0.361  0.8503  0.5590  0.3656
  672MPD2    H710005   4.694   1.014   0.349  1.9972  1.0658  1.8742
  673TMC3    C110006   4.492   0.938   0.460  0.1846  0.0962  0.6835
  673TMC3    C210007   4.600   0.883   0.519  0.1712 -0.2092 -0.3487
  673TMC3    C310008   4.578   0.824   0.639 -0.4875  0.7494 -0.0712
  673TMC3    C410009   4.363   0.923   0.510  0.2452 -0.3725  0.2164
  673TMC3    C510010   4.360   0.888   0.639  0.2604  0.0021  0.1334
  673TMC3    C610011   4.467   0.846   0.714 -0.3717  0.5599 -0.5526
  673TMC3     C10012   4.514   1.072   0.402 -0.5009  0.0730 -0.1538
  673TMC3     O10013   4.425   1.151   0.411 -0.2763 -0.1637 -0.7053
  673TMC3     H10014   4.704   0.898   0.490  0.2598 -1.5022 -0.7048
  673TMC3    H110015   4.280   0.970   0.458  0.3476  0.8164  1.1357
  673TMC3    H210016   4.453   0.816   0.817 -1.3647 -0.9306 -1.1152
  673TMC3    C710017   4.273   0.967   0.721 -0.4399 -0.4514  0.6994
  673TMC3    C810018   4.635   0.693   0.657 -0.3139 -0.0666  0.1264
  673TMC3    O110019   4.233   0.940   0.833 -0.0220 -0.1724  0.0451
  673TMC3    O210020   4.603   0.635   0.758  0.1883 -0.4148  0.5996
  674MPD2     C10021   4.463   4.721  17.348 -0.7699  0.9364  0.1115
  674MPD2    C110022   4.435   4.667  17.466  0.2865  0.0963  0.2975
  674MPD2    C210023   4.446   0.010  17.576  0.5221  0.2474  0.0020
  674MPD2    C310024   4.488   0.142  17.568 -0.1982  0.1254 -0.3559
  674MPD2    C410025   4.525   0.191  17.447  0.3808  0.3020 -0.0125
  674MPD2    C510026   4.513   0.111  17.338 -0.0240  0.0050  0.3951
  674MPD2     H10027   4.419   4.729  17.679  2.0433  1.1225  0.5694
  674MPD2    H110028   4.560   0.291  17.427 -0.2161  0.4270 -0.4394
  674MPD2    H210029   4.462   4.656  17.261  0.0667 -0.5014  1.1771
  674MPD2    H310030   4.555   0.141  17.243 -0.6674  1.2824  0.5121
  674MPD2     N10031   4.508   0.207  17.688  0.0048  0.3944  0.2879
  674MPD2    H510032   4.501   0.149   0.017  1.4228  0.6817  0.6199
  674MPD2    N110033   4.413   4.529  17.476  0.4923  0.6981  0.2219
  674MPD2    H710034   4.392   4.479  17.391 -3.0582  0.5546  1.1641
  675TMC3    C110035   4.494   4.479  17.707  0.0299 -0.2097 -0.2193
  675TMC3    C210036   4.465   4.416   0.074 -0.2252 -0.6383 -0.4781
  675TMC3    C310037   4.561   4.429   0.170  0.6321 -0.0566 -0.6017
  675TMC3    C410038   4.621   4.534  17.683 -0.8923  0.8208 -0.0924
  675TMC3    C510039   4.712   4.542   0.028 -0.3984  0.4642  0.3932
  675TMC3    C610040   4.684   4.491   0.154  0.1922 -0.8212  0.3267
  675TMC3     C10041   4.401   4.453  17.592  0.5305 -0.0138  0.7787
  675TMC3     O10042   4.354   4.343  17.605 -0.7549  0.2911 -0.4685
  675TMC3     H10043   4.371   4.363   0.089  0.1535 -0.8824  1.0412
  675TMC3    H110044   4.643   4.580  17.587 -0.1724 -1.0449 -0.8358
  675TMC3    H210045   0.024   4.486   0.229 -1.4714  1.3790  2.2024
  675TMC3    C710046   0.093   4.615   0.012  0.0101 -0.2323  0.1683
  675TMC3    C810047   4.524   4.400   0.308 -0.7649 -0.0294  0.3489
  675TMC3    O110048   0.191   4.584   0.083  0.1867 -0.5761 -0.5114
  675TMC3    O210049   4.434   4.324   0.338  0.2183 -0.1010 -0.2190
  676MPD2     C10050   2.534   3.697  10.812  0.6053 -0.2229  0.0430
  676MPD2    C110051   2.428   3.643  10.880 -0.1195 -0.0186  0.0110
  676MPD2    C210052   2.424   3.512  10.917  0.9074  0.4995  0.1855
  676MPD2    C310053   2.517   3.427  10.874  0.1612  0.0508 -0.5959
  676MPD2    C410054   2.616   3.475  10.788  0.0137  0.0393  0.5220
  676MPD2    C510055   2.624   3.606  10.765  0.4016  0.0034  0.8491
  676MPD2     H10056   2.344   3.473  10.979  1.3029  0.2258  0.5248
  676MPD2    H110057   2.686   3.406  10.742 -0.0421 -1.1114  2.1837
  676MPD2    H210058   2.547   3.800  10.781 -0.5381 -0.2560 -0.5213
  676MPD2    H310059   2.703   3.639  10.699 -1.0774 -0.7213 -1.2953
  676MPD2     N10060   2.501   3.291  10.918  0.3121  0.1693 -0.5075
  676MPD2    H510061   2.411   3.272  10.961 -0.0193 -0.4044 -1.4660
  676MPD2    N110062   2.327   3.724  10.934 -0.6812  0.2719  0.5805
  676MPD2    H710063   2.258   3.676  10.991 -0.0777  0.7336  1.6921
  677TMC3    C110064   2.209   3.926  10.996 -0.0723 -0.2032 -0.3354
  677TMC3    C210065   2.156   3.857  11.096  0.1541 -0.2859 -0.7193
  677TMC3    C310066   2.120   3.920  11.212 -0.2803  0.2027 -0.3193
  677TMC3    C410067   2.239   4.059  10.998  0.1474 -0.3865 -0.4302
  677TMC3    C510068   2.211   4.116  11.117 -0.0953  0.2232 -0.0594
  677TMC3    C610069   2.148   4.051  11.217  0.2156 -0.0388  0.4178
  677TMC3     C10070   2.304   3.858  10.906  0.8899  0.3258  0.3078
  677TMC3     O10071   2.351   3.918  10.810  0.2786  0.1155  0.2365
  677TMC3     H10072   2.143   3.750  11.086 -0.0800 -0.3787  0.5452
  677TMC3    H110073   2.289   4.107  10.915  1.2346  0.1579  0.5542
  677TMC3    H210074   2.140   4.098  11.314 -0.4460 -0.2478  0.4673
  677TMC3    C710075   2.269   4.246  11.139 -0.6532 -0.0346  0.5083
  677TMC3    C810076   2.145   3.839  11.334 -0.9108 -0.0429  0.3955
  677TMC3    O110077   2.216   4.315  11.225  1.0586 -0.2200 -0.6773
  677TMC3    O210078   2.211   3.737  11.318  0.0507  0.3379 -0.1356
  678MPD2     C10079   3.835   3.727   1.472  0.0923 -0.8481 -0.4632
  678MPD2    C110080   3.835   3.638   1.365 -0.4064 -0.3413 -0.0307
  678MPD2    C210081   3.708   3.584   1.333 -0.1453 -0.0681  0.1712
  678MPD2    C310082   3.595   3.612   1.406  0.6172 -0.5769  0.2610
  678MPD2    C410083   3.611   3.684   1.523 -0.7020 -0.8272 -0.4195
  678MPD2    C510084   3.729   3.747   1.556  0.3233  0.4269  0.8320
  678MPD2     H10085   3.688   3.525   1.244  1.2742 -1.1225  0.5583
  678MPD2    H110086   3.526   3.712   1.585 -0.2118  0.5873 -0.3936
  678MPD2    H210087   3.923   3.783   1.500 -0.9391  1.5236 -2.0020
  678MPD2    H310088   3.738   3.808   1.645 -0.0868  0.0601  1.1188
  678MPD2     N10089   3.475   3.552   1.356  0.1905 -0.3536 -0.1589
  678MPD2    H510090   3.479   3.496   1.271 -0.2817  0.3071 -0.6194
  678MPD2    N110091   3.943   3.613   1.281  0.0744  0.1348  0.4726
  678MPD2    H710092   3.938   3.549   1.203 -2.8621 -0.4969  1.1502
  679TMC3    C110093   4.343   3.739   1.058  1.1283  0.2737  0.2548
  679TMC3    C210094   4.266   3.738   1.167 -0.3039 -0.2397  0.9540
  679TMC3    C310095   4.148   3.667   1.174 -0.3624  0.1266 -0.3500
  679TMC3    C410096   4.300   3.686   0.936 -0.3212  0.0183 -0.2410
  679TMC3    C510097   4.185   3.603   0.947  0.2312 -1.0557 -0.4150
  679TMC3    C610098   4.111   3.590   1.065  0.4673  0.1619  0.2454
  679TMC3     C10099   4.447   3.841   1.045 -0.4339 -0.2962  0.3917
  679TMC3     O10100   4.543   3.813   0.974  0.0005 -0.7928 -0.1197
  679TMC3     H10101   4.297   3.801   1.250 -2.2251  1.0529  0.6883
  679TMC3    H110102   4.351   3.700   0.841  0.2211 -3.7077 -0.4959
  679TMC3    H210103   4.025   3.523   1.064 -0.7288  1.6945  0.7771
  679TMC3    C710104   4.141   3.545   0.827 -0.1617  0.4479  0.1638
  679TMC3    C810105   4.054   3.689   1.289  0.4628  0.5699 -0.2094
  679TMC3    O110106   4.018   3.532   0.811 -0.2778 -0.3049 -0.1161
  679TMC3    O210107   4.100   3.762   1.372  0.2729  0.0875  0.0725
  680MPD2     C10108   3.851   2.443  13.878 -0.3640  0.1573 -0.3612
  680MPD2    C110109   3.956   2.359  13.915  0.8807  0.7076 -0.4742
  680MPD2    C210110   4.083   2.413  13.946 -0.0268  0.1808  0.6365
  680MPD2    C310111   4.103   2.552  13.946 -0.1391 -0.8585 -0.6853
  680MPD2    C410112   3.994   2.630  13.905  1.3921 -0.0806 -0.5553
  680MPD2    C510113   3.870   2.580  13.871 -0.0468 -0.4703 -0.6636
  680MPD2     H10114   4.167   2.350  13.971 -0.2603 -0.2548  0.3200
  680MPD2    H110115   3.996   2.739  13.902  1.3382 -0.0766 -0.4660
  680MPD2    H210116   3.757   2.406  13.838 -0.3717 -0.9596  0.6932
  680MPD2    H310117   3.793   2.640  13.825  0.1667  0.6846  0.4744
  680MPD2     N10118   4.226   2.612  13.990 -0.3354  0.0993  0.5560
  680MPD2    H510119   4.220   2.713  13.982  1.0931  0.0841 -0.5339
  680MPD2    N110120   3.948   2.216  13.915  0.7831  0.1866  0.0544
  680MPD2    H710121   4.032   2.158  13.917  0.4612 -0.2777  0.0612
  681TMC3    C110122   3.856   2.001  13.935 -0.2413  0.3732  0.6774
  681TMC3    C210123   3.809   1.967  14.060 -0.0728 -0.0720 -0.2929
  681TMC3    C310124   3.902   1.908  14.140 -0.4638  0.2618 -0.4261
  681TMC3    C410125   3.984   1.959  13.891 -0.9237  0.1487  0.3964
  681TMC3    C510126   4.066   1.896  13.982  0.3896 -0.1389 -0.0276
  681TMC3    C610127   4.031   1.879  14.110  0.1096  0.2039 -0.3861
  681TMC3     C10128   3.834   2.143  13.909 -0.4326 -0.3226  0.4032
  681TMC3     O10129   3.722   2.194  13.917 -0.5427  0.3480 -0.1481
  681TMC3     H10130   3.733   2.018  14.118  1.9359  0.9537  1.4284
  681TMC3    H110131   4.011   1.976  13.787 -0.8031  1.9206  0.7188
  681TMC3    H210132   4.096   1.815  14.169 -0.7713  0.6849  1.0925
  681TMC3    C710133   4.198   1.854  13.941 -0.1858 -0.3198 -0.3647
  681TMC3    C810134   3.884   1.934  14.278  0.0977  1.4244 -0.4598
  681TMC3    O110135   4.259   1.765  14.000  0.5289  0.0348  0.2554
  681TMC3    O210136   3.774   1.904  14.320  0.1176  0.4656  0.0063
  682MPD2     C10137   1.685   4.254  10.648  1.5248 -0.5317 -0.3651
  682MPD2    C110138   1.607   4.149  10.685 -0.1955 -0.2201  0.5024
  682MPD2    C210139   1.540   4.150  10.803  0.0099  0.1074  0.1405
  682MPD2    C310140   1.540   4.259  10.888 -0.6158 -0.6321 -0.3352
  682MPD2    C410141   1.629   4.360  10.855  0.0243  0.1500  0.1064
  682MPD2    C510142   1.696   4.360  10.731  0.4754 -0.0602  0.1283
  682MPD2     H10143   1.467   4.070  10.816 -0.3918 -0.0507 -3.0049
  682MPD2    H110144   1.648   4.441  10.925  0.0280  1.6246 -1.6043
  682MPD2    H210145   1.738   4.254  10.553 -0.2220  0.7506 -1.3255
  682MPD2    H310146   1.760   4.446  10.713  0.6333  0.1821  1.8135
  682MPD2     N10147   1.460   4.268  11.008 -0.4576 -0.1492 -0.8877
  682MPD2    H510148   1.463   4.361  11.050  2.1684  0.0181 -1.4965
  682MPD2    N110149   1.589   4.036  10.609  0.7324 -0.6178 -0.3580
  682MPD2    H710150   1.536   3.965  10.660 -0.9830  0.2938 -0.8688
  683TMC3    C110151   1.280   4.373  11.350  0.1765  0.6885 -0.2696
  683TMC3    C210152   1.145   4.345  11.353 -0.3938  0.1307  0.0473
  683TMC3    C310153   1.088   4.250  11.267 -0.2313  0.4162  0.2257
  683TMC3    C410154   1.350   4.318  11.246  0.0050  0.2635  0.5622
  683TMC3    C510155   1.289   4.222  11.161 -0.5168 -0.0740  0.3697
  683TMC3    C610156   1.158   4.187  11.168  0.1405  0.0850  0.2442
  683TMC3     C10157   1.350   4.349  11.473  0.1335  0.4105 -0.2377
  683TMC3     O10158   1.430   4.255  11.466 -0.3262  0.5954  0.0436
  683TMC3     H10159   1.093   4.385  11.439  1.5581  0.8625  0.8924
  683TMC3    H110160   1.458   4.326  11.252  0.1530 -0.2994 -1.4176
  683TMC3    H210161   1.113   4.118  11.096  1.3048 -0.7633  0.3371
  683TMC3    C710162   1.360   4.179  11.046 -0.6873  0.1494 -0.5401
  683TMC3    C810163   0.944   4.247  11.273 -0.5466 -0.5512  0.0014
  683TMC3    O110164   1.334   4.068  11.001  0.1856 -0.0035  0.6752
  683TMC3    O210165   0.885   4.354  11.301 -0.4073  0.0740  0.3183
  684MPD2     C10166   4.502   2.694  16.153  0.0032 -1.1100 -0.2597
  684MPD2    C110167   4.603   2.735  16.063 -0.2177 -0.1822 -0.4864
  684MPD2    C210168   4.627   2.870  16.059 -0.5274 -0.0853  0.1030
  684MPD2    C310169   4.562   2.959  16.142  0.6030  0.6872  0.3226
  684MPD2    C410170   4.463   2.915  16.229 -0.4420 -0.9457  0.7180
  684MPD2    C510171   4.434   2.785  16.235 -1.0079  0.5052  0.3070
  684MPD2     H10172   4.691   2.902  15.977 -0.9194  0.9787  0.2102
  684MPD2    H110173   4.393   2.981  16.280 -1.8649 -1.3315 -0.7145
  684MPD2    H210174   4.481   2.589  16.170  1.1918 -1.2370  0.3865
  684MPD2    H310175   4.354   2.743  16.295 -0.2122 -0.9015  0.3920
  684MPD2     N10176   4.585   3.099  16.135 -0.3162  0.3620 -0.8205
  684MPD2    H510177   4.550   3.161  16.208 -0.9168 -0.5822 -0.3025
  684MPD2    N110178   4.650   2.654  15.958 -0.4468 -0.4636  0.3903
  684MPD2    H710179   4.715   2.704  15.898 -0.4668  1.4889  1.9759
  685TMC3    C110180   4.638   2.504  15.779  0.4600 -0.8462 -0.0591
  685TMC3    C210181   4.534   2.514  15.693 -0.4109  0.5273  0.3148
  685TMC3    C310182   4.562   2.539  15.558  0.4722  0.4930 -0.5091
  685TMC3    C410183   0.030   2.533  15.741 -0.1228  0.0242  0.4239
  685TMC3    C510184   0.048   2.563  15.610 -0.4333  0.0455  0.5966
  685TMC3    C610185   4.688   2.563  15.517  0.1336  0.7244  0.0663
  685TMC3     C10186   4.603   2.537  15.915  0.2482  1.0239  0.5446
  685TMC3     O10187   4.504   2.479  15.960 -0.4402  0.4481  0.0336
  685TMC3     H10188   4.436   2.476  15.720 -0.5633  0.4859 -0.3041
  685TMC3    H110189   0.109   2.517  15.814  0.4116 -0.3990 -0.2523
  685TMC3    H210190   4.719   2.574  15.414 -0.8842  1.1029 -0.1979
  685TMC3    C710191   0.184   2.580  15.560  0.6458  1.1244  1.1645
  685TMC3    C810192   4.454   2.578  15.470 -0.8665 -0.3425 -0.3933
  685TMC3    O110193   0.211   2.515  15.456  0.2807 -0.6046 -0.0023
  685TMC3    O210194   4.437   2.535  15.356  0.1564 -0.3907 -0.1119
  686MPD2     C10195   1.439   3.029  15.327 -0.1743  0.0135  0.0898
  686MPD2    C110196   1.486   2.932  15.413 -0.1691  0.0798  0.3646
  686MPD2    C210197   1.524   2.811  15.364 -0.7262  0.1238  0.3401
  686MPD2    C310198   1.506   2.782  15.233  0.4735 -0.5326  0.0434
  686MPD2    C410199   1.469   2.881  15.145  0.7070  0.3822 -1.0152
  686MPD2    C510200   1.435   3.000  15.194  0.5757 -0.5041  0.2259
  686MPD2     H10201   1.541   2.726  15.429 -1.7797 -0.6644 -0.4170
  686MPD2    H110202   1.455   2.862  15.039  0.9371 -0.0982 -0.9556
  686MPD2    H210203   1.409   3.126  15.364  1.1416  1.0891 -1.6687
  686MPD2    H310204   1.399   3.071  15.120  1.9608  1.3559  1.3322
  686MPD2     N10205   1.542   2.657  15.175 -0.6040 -0.0898 -0.1615
  686MPD2    H510206   1.577   2.673  15.081 -0.7606 -3.2697 -0.7456
  686MPD2    N110207   1.475   2.964  15.549  0.1067  0.1152  0.3425
  686MPD2    H710208   1.434   3.053  15.577  1.7983  0.8392  0.5286
  687TMC3    C110209   1.465   2.503  15.348  0.1087 -0.8241 -0.0743
  687TMC3    C210210   1.338   2.550  15.362  0.0482 -0.1770 -0.1410
  687TMC3    C310211   1.269   2.507  15.480  0.0771  0.1594  0.1990
  687TMC3    C410212   1.523   2.406  15.435  0.7557 -0.4240 -0.3930
  687TMC3    C510213   1.455   2.372  15.547 -0.9783 -0.3069 -0.4013
  687TMC3    C610214   1.325   2.421  15.572 -0.2051  0.1193 -0.2805
  687TMC3     C10215   1.559   2.535  15.238  0.2101  0.7087 -0.8093
  687TMC3     O10216   1.643   2.452  15.212  0.0502 -0.4854 -0.3460
  687TMC3     H10217   1.296   2.611  15.283  0.4711  2.1772  1.4642
  687TMC3    H110218   1.623   2.367  15.421  0.5668 -1.5759  1.3943
  687TMC3    H210219   1.283   2.403  15.670  1.8492  0.7439  0.7329
  687TMC3    C710220   1.531   2.353  15.670  0.2535  0.2005  0.3338
  687TMC3    C810221   1.158   2.584  15.531 -0.0137  0.1202 -1.0526
  687TMC3    O110222   1.479   2.394  15.776 -0.8982 -0.2371 -0.7659
  687TMC3    O210223   1.104   2.538  15.636 -0.3900 -0.1033  0.2717
  688MPD2     C10224   0.421   1.882  17.092  0.2863  0.0933  0.1198
  688MPD2    C110225   0.432   1.754  17.131  0.4842  0.1658  0.0609
  688MPD2    C210226   0.531   1.678  17.073  0.0202 -0.5402 -0.9531
  688MPD2    C310227   0.620   1.728  16.982 -0.1530  0.2127 -0.0256
  688MPD2    C410228   0.604   1.863  16.946 -0.8255 -0.5770  0.3461
  688MPD2    C510229   0.500   1.930  16.993 -0.2780 -0.2000  0.3894
  688MPD2     H10230   0.538   1.576  17.110 -1.1829  0.6266  2.5299
  688MPD2    H110231   0.676   1.916  16.884 -0.2685  0.8888  2.2556
  688MPD2    H210232   0.339   1.944  17.128 -0.5121 -0.7651 -0.2023
  688MPD2    H310233   0.498   2.035  16.966  1.1987 -0.2272  0.1970
  688MPD2     N10234   0.733   1.661  16.937 -0.4506  0.3562 -0.3233
  688MPD2    H510235   0.794   1.711  16.874  0.3877  0.8481  0.8967
  688MPD2    N110236   0.346   1.694  17.225 -0.3182  0.0302 -0.1170
  688MPD2    H710237   0.360   1.597  17.250  1.3720  0.4011  0.4423
  689TMC3    C110238   0.239   1.698  17.441 -0.3594  0.0487 -0.5335
  689TMC3    C210239   0.239   1.779  17.551 -0.0739 -0.6019  0.0594
  689TMC3    C310240   0.165   1.739  17.667  0.3905 -0.7622 -0.4751
  689TMC3    C410241   0.168   1.578  17.438  0.3031  0.0158 -0.3694
  689TMC3    C510242   0.107   1.538  17.558  0.4460  0.1125 -0.2788
  689TMC3    C610243   0.095   1.620  17.668 -0.2249 -0.0678  0.2092
  689TMC3     C10244   0.280   1.774  17.322 -0.6388  0.6591  0.8900
  689TMC3     O10245   0.270   1.898  17.326 -0.7656  0.7284  0.1386
  689TMC3     H10246   0.302   1.867  17.548  1.3410 -1.7139 -3.1223
  689TMC3    H110247   0.163   1.527  17.342  1.5391 -1.3904  0.3154
  689TMC3    H210248   0.051   1.582   0.007 -0.6479 -0.3103 -0.0881
  689TMC3    C710249   0.032   1.412  17.543 -0.5098  0.3474  0.3058
  689TMC3    C810250   0.187   1.806   0.038 -0.0513  0.2726  0.7282
  689TMC3    O110251   0.063   1.335  17.456  0.2173  0.4323 -0.1864
  689TMC3    O210252   0.294   1.861   0.050  0.2689  0.0009  0.5466
  690MPD2     C10253   1.946   3.671  15.124  0.7736 -0.4420  0.2461
  690MPD2    C110254   2.022   3.581  15.192 -0.8060 -0.3293 -1.1113
  690MPD2    C210255   2.160   3.607  15.195  0.3165 -0.2435  0.0861
  690MPD2    C310256   2.209   3.719  15.137 -0.9707 -0.1363 -0.0504
  690MPD2    C410257   2.128   3.795  15.054  0.2863  0.2141  0.2120
  690MPD2    C510258   1.997   3.770  15.046 -0.2417 -0.0194 -0.1073
  690MPD2     H10259   2.221   3.541  15.255  1.0828  0.2974 -0.0876
  690MPD2    H110260   2.163   3.885  15.005 -2.2072  0.2731 -1.4136
  690MPD2    H210261   1.838   3.674  15.132  0.5974  0.2628 -2.5036
  690MPD2    H310262   1.921   3.829  14.996 -1.5055 -1.3085  0.2749
  690MPD2     N10263   2.349   3.752  15.165  0.3825  0.4327 -0.8118
  690MPD2    H510264   2.396   3.701  15.239 -1.5135 -3.5951 -2.4049
  690MPD2    N110265   1.958   3.482  15.277  0.0984 -0.0037 -0.1151
  690MPD2    H710266   2.008   3.427  15.346  1.0434 -3.6651 -3.7061
  691TMC3    C110267   1.794   3.347  15.383 -0.4342  0.1393 -0.2539
  691TMC3    C210268   1.710   3.375  15.482 -0.2256 -0.0810  0.0590
  691TMC3    C310269   1.685   3.280  15.582  0.0809  0.1162 -0.4884
  691TMC3    C410270   1.875   3.235  15.381  0.2910 -0.2811  0.1867
  691TMC3    C510271   1.848   3.140  15.481 -0.5512 -0.1001  0.1584
  691TMC3    C610272   1.755   3.158  15.579  0.4490  0.3147 -0.4827
  691TMC3     C10273   1.822   3.463  15.291 -0.2829  0.5160 -0.0798
  691TMC3     O10274   1.735   3.540  15.266 -0.2672  0.2047 -0.0390
  691TMC3     H10275   1.649   3.462  15.462  0.6571  0.8474  1.3872
  691TMC3    H110276   1.944   3.229  15.298  0.3517 -0.4912  0.2500
  691TMC3    H210277   1.742   3.097  15.668  0.3193 -0.4900 -1.0494
  691TMC3    C710278   1.941   3.033  15.478 -0.4571 -0.3172  0.6988
  691TMC3    C810279   1.571   3.291  15.678  0.3828  0.6647 -0.5277
  691TMC3    O110280   2.006   3.030  15.376 -0.1891  0.2016 -0.2667
  691TMC3    O210281   1.556   3.202  15.760 -0.1709  0.5833  0.1004
  692TMC3    C110282   4.003   4.285  15.731 -0.6833  0.3869 -0.0150
  692TMC3    C210283   4.077   4.396  15.765 -0.1757 -0.1311  0.2379
  692TMC3    C310284   4.203   4.384  15.812  0.0771 -0.6060 -0.8233
  692TMC3    C410285   4.044   4.156  15.745 -0.0129 -0.3480 -0.3504
  692TMC3    C510286   4.164   4.149  15.799 -0.2284 -0.1969 -0.7678
  692TMC3    C610287   4.247   4.259  15.826 -0.1102  0.3395 -0.3472
  692TMC3     C10288   3.866   4.309  15.716 -0.3179 -0.8540 -0.4203
  692TMC3     O10289   3.835   4.402  15.784 -0.3107  0.6041 -0.1909
  692TMC3     H10290   4.042   4.486  15.715 -1.0246 -0.3745  0.3868
  692TMC3    H110291   3.974   4.074  15.735 -0.5744  0.0898 -0.0498
  692TMC3    H210292   4.339   4.238  15.880 -0.3034 -0.3488 -0.2903
  692TMC3    C710293   4.228   4.012  15.799  0.2282  0.4134 -0.8509
  692TMC3    C810294   4.237   4.485  15.913  0.6840 -0.5470 -0.0336
  692TMC3    O110295   4.334   4.007  15.857  0.2627  0.6057 -0.8192
  692TMC3    O210296   4.343   4.474  15.975  0.6494  0.6887  0.2536
  693MPD2     C10297   3.454   3.248  11.115 -0.7967 -0.9510 -0.6585
  693MPD2    C110298   3.432   3.129  11.050 -0.4379  0.7890 -0.2944
  693MPD2    C210299   3.535   3.043  11.030  0.3720  0.0242  0.1919
  693MPD2    C310300   3.665   3.066  11.080 -0.5445 -0.2711 -0.5702
  693MPD2    C410301   3.688   3.192  11.129 -0.6860  0.2819  0.4483
  693MPD2    C510302   3.584   3.276  11.150 -1.0245 -0.3841  0.6102
  693MPD2     H10303   3.510   2.943  10.998 -0.4160  0.0455  0.7242
  693MPD2    H110304   3.784   3.222  11.167 -0.0811 -3.3963  1.8432
  693MPD2    H210305   3.380   3.326  11.117  0.4221  0.1985 -0.3590
  693MPD2    H310306   3.598   3.380  11.178 -0.8755  0.2520 -1.8240
  693MPD2     N10307   3.771   2.968  11.087 -1.0293  0.0963  0.2753
  693MPD2    H510308   3.855   2.993  11.136 -0.1399 -1.3027 -0.5412
  693MPD2    N110309   3.302   3.088  11.032  0.2786  0.2704 -0.6150
  693MPD2    H710310   3.236   3.154  11.072  1.1602  1.0194 -0.3947
  694TMC3    C110311   3.112   2.960  10.990  0.1942  0.1926 -0.3039
  694TMC3    C210312   3.032   2.904  10.892  0.6457  0.1249 -0.2465
  694TMC3    C310313   2.920   2.832  10.926 -0.2537  0.4169  0.3796
  694TMC3    C410314   3.077   2.953  11.124  0.7474 -0.5539 -0.0264
  694TMC3    C510315   2.961   2.889  11.152 -0.5360  0.3816 -0.1019
  694TMC3    C610316   2.888   2.816  11.059  0.6845 -0.4619 -0.0255
  694TMC3     C10317   3.252   2.982  10.967  0.1769  0.2108 -0.5454
  694TMC3     O10318   3.304   2.917  10.873 -0.1424  0.0407  0.1421
  694TMC3     H10319   3.061   2.896  10.788 -1.2145 -0.1445 -0.7362
  694TMC3    H110320   3.144   2.984  11.203  0.0257  0.0558  0.3570
  694TMC3    H210321   2.786   2.791  11.085 -0.1857  1.5115 -1.5261
  694TMC3    C710322   2.946   2.855  11.296  1.4985 -0.0126 -0.7764
  694TMC3    C810323   2.817   2.801  10.824 -0.2713  0.4496 -0.0300
  694TMC3    O110324   2.964   2.943  11.374  0.3604 -0.4374 -0.4313
  694TMC3    O210325   2.741   2.712  10.865  0.4911 -0.6570  0.0512
  695MPD2     C10326   0.260   4.554  13.314 -0.4115 -0.3553  0.0366
  695MPD2    C110327   0.242   4.554  13.455  0.0493  0.4012  0.2205
  695MPD2    C210328   0.115   4.540  13.507  0.4393 -0.1033 -0.1936
  695MPD2    C310329   0.003   4.528  13.424  0.2269  0.1251  0.0896
  695MPD2    C410330   0.022   4.517  13.284  0.3518  0.3680 -0.0433
  695MPD2    C510331   0.154   4.526  13.229  0.1709 -0.7198  0.0627
  695MPD2     H10332   0.096   4.556  13.613  0.5522  0.7590 -0.2999
  695MPD2    H110333   4.679   4.493  13.218 -0.5704 -0.2263  1.3218
  695MPD2    H210334   0.356   4.551  13.264 -0.2336 -0.9023  0.4077
  695MPD2    H310335   0.183   4.522  13.124  2.3237 -2.8285  0.7468
  695MPD2     N10336   4.617   4.521  13.490 -0.1877 -0.0679  0.3432
  695MPD2    H510337   4.606   4.538  13.589  0.4101 -2.8096  0.8851
  695MPD2    N110338   0.351   4.577  13.542  0.1414 -0.5084  0.5060
  695MPD2    H710339   0.325   4.580  13.640 -0.9549 -0.7247  0.2221
  696TMC3    C110340   4.388   4.540  13.520 -0.4179  0.5331 -0.4432
  696TMC3    C210341   4.386   4.463  13.630  0.2629  0.4799  0.1233
  696TMC3    C310342   4.268   4.437  13.693  0.2197 -1.2770 -0.8369
  696TMC3    C410343   4.276   4.603  13.477  0.1637 -0.3961 -0.2863
  696TMC3    C510344   4.158   4.580  13.535 -0.4192  0.5185 -0.2608
  696TMC3    C610345   4.158   4.509  13.652 -0.2951  0.5912  0.5339
  696TMC3     C10346   4.496   4.542  13.425 -0.4152 -0.2287  0.6768
  696TMC3     O10347   4.472   4.527  13.311  0.0560 -0.6282  0.1154
  696TMC3     H10348   4.477   4.411  13.659 -0.0954  0.5896  1.4530
  696TMC3    H110349   4.271   4.691  13.414  0.3666  0.5578  1.0294
  696TMC3    H210350   4.055   4.487  13.678  0.4194 -3.0351  0.3090
  696TMC3    C710351   4.064   4.685  13.539 -0.2418 -0.0019 -0.7064
  696TMC3    C810352   4.285   4.417  13.835  0.8906 -0.0779  0.0274
  696TMC3    O110353   3.980   4.699  13.452 -0.1930  0.0919 -0.3466
  696TMC3    O210354   4.393   4.411  13.887 -0.2959 -0.2975 -0.6905
  697MPD2     C10355   3.297   1.414  15.537  0.8817 -0.4108  0.8213
  697MPD2    C110356   3.390   1.340  15.463  0.6452 -0.3481 -0.5137
  697MPD2    C210357   3.513   1.393  15.423 -0.3001  0.1498  0.2440
  697MPD2    C310358   3.552   1.515  15.459  0.7965  0.4289 -1.5661
  697MPD2    C410359   3.464   1.597  15.529  0.2737  0.4907 -0.1041
  697MPD2    C510360   3.336   1.546  15.567  0.6006 -0.7915 -0.4020
  697MPD2     H10361   3.583   1.330  15.370  0.6992 -1.9095  4.0264
  697MPD2    H110362   3.495   1.696  15.561 -0.6848  0.1183  2.0278
  697MPD2    H210363   3.203   1.376  15.575  0.7794  0.5123  1.4892
  697MPD2    H310364   3.265   1.611  15.617 -2.5486 -3.5219 -1.2302
  697MPD2     N10365   3.677   1.566  15.424 -0.8778 -0.6064 -0.6735
  697MPD2    H510366   3.739   1.509  15.367 -0.4199 -1.5078  0.7262
  697MPD2    N110367   3.373   1.198  15.433 -0.6295  0.2524 -0.6325
  697MPD2    H710368   3.447   1.151  15.383 -2.0480 -0.1805 -2.3525
  698TMC3    C110369   3.886   1.679  15.418  0.9692  0.7641  0.1132
  698TMC3    C210370   3.974   1.762  15.478  0.3617 -0.2710 -0.5215
  698TMC3    C310371   4.095   1.787  15.409 -0.0406 -0.3070 -0.1376
  698TMC3    C410372   3.906   1.627  15.295  0.2049  0.6825 -0.0356
  698TMC3    C510373   4.025   1.653  15.227 -0.2423  0.8885  0.3603
  698TMC3    C610374   4.119   1.725  15.290 -0.1508 -0.6372  0.4589
  698TMC3     C10375   3.746   1.683  15.459  0.5770  0.0127  0.1386
  698TMC3     O10376   3.707   1.778  15.527  0.1699  0.1644 -0.2834
  698TMC3     H10377   3.953   1.805  15.575 -1.8327 -0.6657 -0.8185
  698TMC3    H110378   3.837   1.559  15.245 -1.0905 -0.2556  3.0619
  698TMC3    H210379   4.210   1.742  15.233  0.6560 -0.0162  1.9257
  698TMC3    C710380   4.019   1.635  15.079  0.1889  0.1836  0.1781
  698TMC3    C810381   4.181   1.873  15.489  0.4041  0.3634  0.6064
  698TMC3    O110382   3.914   1.589  15.036 -0.4059  0.2241  0.0358
  698TMC3    O210383   4.161   1.884  15.611  0.4233  0.4175  0.3681
  699TMC3    C110384   4.045   4.516  13.157 -0.9867 -0.3303 -0.3124
  699TMC3    C210385   4.132   4.426  13.219  0.4028  0.4805 -0.4358
  699TMC3    C310386   4.077   4.310  13.267 -0.3434 -0.0357 -0.8211
  699TMC3    C410387   3.904   4.499  13.148  0.2304 -0.2646  0.3722
  699TMC3    C510388   3.858   4.381  13.204  0.3496 -0.0556  0.5296
  699TMC3    C610389   3.941   4.285  13.258 -0.0876 -0.1605  0.0573
  699TMC3     C10390   4.105   4.640  13.099  0.1666 -0.4030 -0.0205
  699TMC3     O10391   4.029   4.730  13.068  0.4468  0.0187 -0.8874
  699TMC3     H10392   4.233   4.459  13.240  0.8013 -0.2307 -1.2201
  699TMC3    H110393   3.843   4.577  13.104  1.7442  0.2915 -0.7219
  699TMC3    H210394   3.899   4.192  13.296 -0.0481 -1.1311 -2.2423
  699TMC3    C710395   3.726   4.353  13.186 -0.2864  0.2249 -0.0925
  699TMC3    C810396   4.154   4.247  13.376  0.7088  0.2364 -0.4334
  699TMC3    O110397   3.677   4.269  13.263 -0.1516 -0.0140  0.7071
  699TMC3    O210398   4.275   4.261  13.374  0.1642  0.1860 -0.2875
  700TMC3    C110399   2.928   1.939  17.175  0.3261 -0.6266  0.8547
  700TMC3    C210400   2.980   1.812  17.185  0.0942  0.2468  0.1390
  700TMC3    C310401   3.071   1.777  17.283 -0.1274 -0.4922  0.8442
  700TMC3    C410402   2.975   2.041  17.261 -0.3554  0.3111  0.7218
  700TMC3    C510403   3.080   2.011  17.341  0.1139  0.2598  0.4203
  700TMC3    C610404   3.118   1.877  17.360  0.1473 -0.7225  0.1491
  700TMC3     C10405   2.863   1.973  17.050  0.5080 -0.2675 -0.0409
  700TMC3     O10406   2.799   1.889  16.991  0.0223  0.5762 -0.2345
  700TMC3     H10407   2.941   1.737  17.118 -1.4696 -0.5386  1.9251
  700TMC3    H110408   2.941   2.144  17.248 -0.1524  0.2257 -0.4809
  700TMC3    H210409   3.188   1.847  17.437  2.0000  0.3497 -1.1291
  700TMC3    C710410   3.138   2.101  17.445 -0.5683 -0.9628 -1.1508
  700TMC3    C810411   3.139   1.657  17.268 -0.2234 -0.0630  0.1863
  700TMC3    O110412   3.249   2.079  17.490 -0.6889  0.3932  0.2840
  700TMC3    O210413   3.086   1.575  17.194  0.3501  0.9223  0.1670
  701TMC3    C110414   2.688   0.478  15.635 -0.1072  0.5581  0.1471
  701TMC3    C210415   2.694   0.369  15.555  0.6552  0.3619  0.0565
  701TMC3    C310416   2.717   0.388  15.414  0.3871 -0.2252  0.0861
  701TMC3    C410417   2.735   0.594  15.588  0.5048 -0.0445  0.3107
  701TMC3    C510418   2.763   0.615  15.455  0.1426  0.3300  0.3003
  701TMC3    C610419   2.738   0.512  15.365  0.3383 -0.0486 -0.3945
  701TMC3     C10420   2.644   0.474  15.775 -0.2152 -0.4515  0.3440
  701TMC3     O10421   2.694   0.547  15.860 -0.3734 -0.2383 -0.2167
  701TMC3     H10422   2.665   0.276  15.601 -0.2867  0.7650  0.2843
  701TMC3    H110423   2.740   0.675  15.661 -2.4409  0.1723  0.2543
  701TMC3    H210424   2.754   0.522  15.258  1.3566  0.9528 -0.1569
  701TMC3    C710425   2.803   0.748  15.418 -0.7635 -0.0467 -0.3492
  701TMC3    C810426   2.730   0.263  15.337 -0.3463 -0.6101 -0.1593
  701TMC3    O110427   2.795   0.841  15.499 -0.0407  0.1475 -0.6043
  701TMC3    O210428   2.685   0.166  15.395  0.9068 -1.1663 -0.2073
  702MPD2     C10429   2.299   2.988  10.236  0.2573  0.3731  0.2399
  702MPD2    C110430   2.355   3.082  10.318 -0.6054  0.3861  0.1946
  702MPD2    C210431   2.383   3.204  10.267  0.1225  0.8649 -0.1955
  702MPD2    C310432   2.348   3.240  10.137  0.0109  0.0913 -0.6531
  702MPD2    C410433   2.297   3.138  10.052 -0.8871  0.3500  0.3443
  702MPD2    C510434   2.281   3.014  10.101 -0.5049  0.6293 -0.1405
  702MPD2     H10435   2.416   3.282  10.335  0.9326  1.1190 -0.8778
  702MPD2    H110436   2.266   3.160   9.951 -3.5199 -0.7258  0.9403
  702MPD2    H210437   2.287   2.885  10.266  3.0346 -0.1982 -0.5505
  702MPD2    H310438   2.244   2.932  10.041  0.1631  0.6676 -0.6073
  702MPD2     N10439   2.333   3.371  10.092  0.0238  0.8378  0.0279
  702MPD2    H510440   2.274   3.379  10.010 -1.6140  3.1742  1.4576
  702MPD2    N110441   2.362   3.076  10.457  0.0547  0.0099  0.3305
  702MPD2    H710442   2.401   3.154  10.508 -1.4797  0.0416  1.4640
  703TMC3    C110443   2.310   3.614  10.108  0.5336  1.1158 -0.3247
  703TMC3    C210444   2.175   3.603  10.088  0.0800  0.3623  0.2340
  703TMC3    C310445   2.104   3.710  10.141 -0.4392  0.3794  0.7657
  703TMC3    C410446   2.369   3.728  10.129  0.4162  0.0825  0.2334
  703TMC3    C510447   2.292   3.842  10.153  0.2108  0.4522 -0.9365
  703TMC3    C610448   2.156   3.836  10.150 -0.5948  0.5521 -0.5483
  703TMC3     C10449   2.383   3.491  10.143 -0.9344 -0.0686 -0.3564
  703TMC3     O10450   2.467   3.509  10.231  0.2814 -0.1690 -0.0800
  703TMC3     H10451   2.128   3.507  10.068 -0.1203  0.5293 -0.0889
  703TMC3    H110452   2.477   3.728  10.131  0.4028  0.5169  0.8453
  703TMC3    H210453   2.095   3.925  10.152 -0.5444  0.5843 -0.4608
  703TMC3    C710454   2.364   3.963  10.180  0.1953  0.2814 -0.0938
  703TMC3    C810455   2.039   3.656  10.257 -0.5456 -0.4561 -0.2531
  703TMC3    O110456   2.486   3.943  10.178 -0.2213  0.3554  0.1743
  703TMC3    O210457   2.002   3.542  10.240  0.6820 -0.2351 -0.0756
  704TMC3    C110458   0.413   1.489  12.893 -0.9425  0.1867 -0.2037
  704TMC3    C210459   0.463   1.460  12.770 -0.4302 -0.5735 -0.2841
  704TMC3    C310460   0.573   1.384  12.755 -0.5648  0.3565 -0.6801
  704TMC3    C410461   0.472   1.440  13.004  0.2212 -0.2809  1.5946
  704TMC3    C510462   0.586   1.366  12.984  0.2664  0.2452 -0.7111
  704TMC3    C610463   0.631   1.332  12.859 -0.3461  0.5135 -0.0586
  704TMC3     C10464   0.268   1.520  12.898  0.3716 -0.3938  0.1715
  704TMC3     O10465   0.213   1.509  13.004  0.1570  0.5723 -0.1424
  704TMC3     H10466   0.426   1.503  12.677  1.7973 -1.1548 -1.4398
  704TMC3    H110467   0.435   1.474  13.100 -0.0585 -1.4438  1.9006
  704TMC3    H210468   0.717   1.267  12.854  2.0216  3.5172  1.6701
  704TMC3    C710469   0.597   1.248  13.069 -0.6113  0.6419  0.1429
  704TMC3    C810470   0.562   1.313  12.638 -0.2351  0.0344  0.5260
  704TMC3    O110471   0.618   1.144  13.004  0.1119  0.4687 -0.3663
  704TMC3    O210472   0.446   1.291  12.598  0.0235  0.0782 -0.2422
  705MPD2     C10473   4.645   4.202  16.938 -0.1468 -0.0752  0.3050
  705MPD2    C110474   4.593   4.231  16.815 -0.6278  0.3168 -0.0500
  705MPD2    C210475   4.464   4.274  16.805  0.4319 -0.0576  0.2208
  705MPD2    C310476   4.387   4.305  16.916 -0.1124  0.3718 -0.6463
  705MPD2    C410477   4.439   4.287  17.045  0.1393 -0.1588 -0.2306
  705MPD2    C510478   4.562   4.224  17.053  0.0747  0.5126  0.7720
  705MPD2     H10479   4.427   4.287  16.704 -0.0990 -1.4612  0.2266
  705MPD2    H110480   4.383   4.323  17.130  0.5706 -0.7794  0.3063
  705MPD2    H210481   0.007   4.167  16.954 -2.0142 -5.2327  0.8648
  705MPD2    H310482   4.616   4.222  17.147 -0.7645 -1.0700  1.2355
  705MPD2     N10483   4.261   4.374  16.904 -0.2521 -0.7041 -0.2456
  705MPD2    H510484   4.222   4.403  16.993  0.0853 -0.5132 -0.1578
  705MPD2    N110485   4.668   4.227  16.695  0.1393  0.4112 -0.5241
  705MPD2    H710486   4.610   4.250  16.615 -0.3534 -0.1563 -0.3305
  706TMC3    C110487   0.150   4.154  16.313  0.8426  0.3801 -0.1580
  706TMC3    C210488   0.090   4.262  16.260 -0.2061 -0.6772 -0.3185
  706TMC3    C310489   0.030   4.351  16.342 -0.2910  0.3691  0.4955
  706TMC3    C410490   0.152   4.135  16.454  0.1540  0.7673  0.1696
  706TMC3    C510491   0.094   4.227  16.530  0.5030 -0.6212  0.4707
  706TMC3    C610492   0.034   4.337  16.479 -0.9077 -0.1710 -0.1604
  706TMC3     C10493   0.229   4.061  16.230 -0.1799 -0.4684 -0.2872
  706TMC3     O10494   0.326   4.026  16.295 -1.0475  0.4736  0.2570
  706TMC3     H10495   0.109   4.287  16.156 -0.1250  2.7074  0.5081
  706TMC3    H110496   0.202   4.053  16.503  0.3505  0.3984 -0.6419
  706TMC3    H210497   0.000   4.418  16.543  1.4233 -0.8442  1.9260
  706TMC3    C710498   0.064   4.190  16.662 -0.1395  0.5727 -0.6785
  706TMC3    C810499   4.720   4.471  16.277 -0.1596 -0.3963  0.1902
  706TMC3    O110500   0.152   4.143  16.735 -0.3963 -0.2300 -0.5969
  706TMC3    O210501   4.702   4.474  16.157 -0.2613  0.7787  0.3001
  707TMC3    C110502   2.078   3.795   0.801 -0.1480  0.2946  0.2389
  707TMC3    C210503   1.968   3.721   0.830  0.1213  0.4820  0.4751
  707TMC3    C310504   1.846   3.784   0.805  0.4190  0.7133  0.2426
  707TMC3    C410505   2.076   3.925   0.764  0.0347 -0.5884  0.6036
  707TMC3    C510506   1.948   3.973   0.730  0.2138 -0.1503 -0.2473
  707TMC3    C610507   1.831   3.912   0.758  0.0839  0.2729 -0.3973
  707TMC3     C10508   2.195   3.714   0.762 -0.2685 -0.3277 -0.5621
  707TMC3     O10509   2.195   3.649   0.659  0.7294  0.1788 -0.3654
  707TMC3     H10510   1.992   3.616   0.839 -0.8735  0.1259 -1.1114
  707TMC3    H110511   2.168   3.976   0.741  0.5511 -1.5796  0.4606
  707TMC3    H210512   1.734   3.951   0.730  0.0967 -0.1453 -1.0456
  707TMC3    C710513   1.942   4.085   0.641  0.4359 -0.4445  0.0181
  707TMC3    C810514   1.722   3.710   0.792 -0.2475  0.6138 -0.4331
  707TMC3    O110515   2.025   4.173   0.667 -0.6033  0.2411  0.5737
  707TMC3    O210516   1.655   3.728   0.688 -0.1570 -0.4085 -0.2331
  708MPD2     C10517   3.543   2.652  13.617  0.1566 -0.1011 -0.5872
  708MPD2    C110518   3.422   2.718  13.627 -0.7984  0.1079  0.7756
  708MPD2    C210519   3.324   2.651  13.704  0.3126 -1.0814 -0.1048
  708MPD2    C310520   3.345   2.530  13.769  0.4656  0.2038  0.7497
  708MPD2    C410521   3.471   2.474  13.771  0.1375 -0.6401  0.2543
  708MPD2    C510522   3.562   2.540  13.687 -0.2806 -0.2716  0.4326
  708MPD2     H10523   3.226   2.697  13.713  0.9668  0.5625 -1.6130
  708MPD2    H110524   3.491   2.374  13.809  1.6466 -1.4580 -2.6568
  708MPD2    H210525   3.619   2.699  13.556  1.4341  1.3871  2.1759
  708MPD2    H310526   3.661   2.500  13.670  0.4576  1.3846  0.8671
  708MPD2     N10527   3.239   2.458  13.832  0.3744 -0.2452 -0.5178
  708MPD2    H510528   3.260   2.384  13.899 -0.6673 -0.8433 -0.8452
  708MPD2    N110529   3.402   2.828  13.538  0.1768  0.0807 -0.1234
  708MPD2    H710530   3.471   2.844  13.465  0.9200  1.4022  0.8571
  709TMC3    C110531   3.271   3.000  13.434  0.1354 -0.3980  0.0346
  709TMC3    C210532   3.312   2.957  13.305 -0.4441  0.0325  1.1995
  709TMC3    C310533   3.225   2.988  13.200 -0.3548  0.3533  0.1933
  709TMC3    C410534   3.157   3.076  13.450 -0.6763 -0.2339  0.1662
  709TMC3    C510535   3.064   3.090  13.352  0.0115 -0.1104  0.6469
  709TMC3    C610536   3.099   3.053  13.226  0.1600 -0.1842  0.0793
  709TMC3     C10537   3.293   2.916  13.551  0.2542  0.1731  0.1928
  709TMC3     O10538   3.202   2.908  13.631 -0.6560 -0.0983  0.4902
  709TMC3     H10539   3.396   2.894  13.277 -0.8430  0.2046 -0.3848
  709TMC3    H110540   3.133   3.115  13.548  3.0597  1.1139  0.5685
  709TMC3    H210541   3.026   3.065  13.146  0.1278  0.1729  0.1637
  709TMC3    C710542   2.935   3.055  13.400 -0.5106 -0.1313  0.6137
  709TMC3    C810543   3.261   2.930  13.071  0.3747  0.2216  0.0785
  709TMC3    O110544   2.835   3.078  13.334 -0.7972  0.5129 -0.3337
  709TMC3    O210545   3.362   2.862  13.058 -0.2020  0.4406  0.1674
  710TMC3    C110546   3.753   3.758   0.094 -0.1428 -0.6774  0.1540
  710TMC3    C210547   3.823   3.751  17.732  0.1008  0.8265 -0.6595
  710TMC3    C310548   3.943   3.682  17.736  0.1747 -0.2747 -0.0879
  710TMC3    C410549   3.790   3.685   0.203 -0.1064 -0.8429 -0.2276
  710TMC3    C510550   3.902   3.604   0.198 -0.1136 -0.6039 -0.5275
  710TMC3    C610551   3.973   3.595   0.078  0.4070  0.0601  0.7294
  710TMC3     C10552   3.640   3.848   0.106  0.3336  0.1978  0.1977
  710TMC3     O10553   3.587   3.891   0.002  0.0655 -0.3238  0.5356
  710TMC3     H10554   3.797   3.822  17.654 -0.2184 -0.0167 -1.3259
  710TMC3    H110555   3.731   3.690   0.293  1.6780 -0.4209  0.9119
  710TMC3    H210556   4.068   3.544   0.070 -1.3398 -3.1098  0.4530
  710TMC3    C710557   3.952   3.549   0.324  0.3799 -0.5607  0.8567
  710TMC3    C810558   4.024   3.686  17.613 -0.4156  0.7679  0.5219
  710TMC3    O110559   3.879   3.563   0.425 -0.6868 -0.3047  0.4805
  710TMC3    O210560   4.001   3.785  17.553  0.0061 -0.3224 -0.0535
  711TMC3    C110561   3.300   4.590  15.292  0.0271  0.1936  0.1817
  711TMC3    C210562   3.405   4.530  15.354  0.7380 -0.4107  0.3162
  711TMC3    C310563   3.500   4.595  15.428  0.0075 -0.4046 -0.2499
  711TMC3    C410564   3.282   4.725  15.321 -0.2606  0.3182  0.3174
  711TMC3    C510565   3.379   0.052  15.398 -0.1001 -0.4386 -0.5013
  711TMC3    C610566   3.489   4.729  15.457  0.5338  0.8814 -0.3771
  711TMC3     C10567   3.291   4.570  15.151 -0.4323 -0.4110 -0.6150
  711TMC3     O10568   3.298   4.456  15.113  0.2381 -0.4364  0.7919
  711TMC3     H10569   3.417   4.423  15.343  0.2096 -0.2042 -2.1973
  711TMC3    H110570   3.189   0.028  15.283 -0.7356 -2.0679 -1.1809
  711TMC3    H210571   3.567   0.049  15.504  2.5714 -1.3827 -0.9417
  711TMC3    C710572   3.409   0.188  15.348  0.1643  0.1858 -0.7708
  711TMC3    C810573   3.632   4.544  15.408  0.6381 -0.6497 -0.1196
  711TMC3    O110574   3.331   0.229  15.258  0.2262 -0.4928 -0.2226
  711TMC3    O210575   3.650   4.472  15.309 -0.0710  0.4830  0.0177
  712MPD2     C10576   4.684   1.433  14.015  0.3187  0.0394  0.0791
  712MPD2    C110577   0.066   1.388  13.973 -0.4260  0.0536  0.6473
  712MPD2    C210578   0.155   1.482  13.924 -0.4053 -0.0994  0.0399
  712MPD2    C310579   0.118   1.617  13.923 -0.5000  0.2193 -0.3960
  712MPD2    C410580   4.733   1.657  13.967  0.7580 -0.5300  0.9394
  712MPD2    C510581   4.644   1.563  14.003 -0.0715 -0.5334  0.0449
  712MPD2     H10582   0.251   1.452  13.883 -0.3964 -0.7000  0.5152
  712MPD2    H110583   4.700   1.760  13.953  2.2116 -0.1072  0.5921
  712MPD2    H210584   4.608   1.360  14.041 -0.8334  1.8244  1.6988
  712MPD2    H310585   4.541   1.594  14.013 -0.2999  0.1529 -4.4641
  712MPD2     N10586   0.193   1.722  13.870  0.0604 -0.4426 -0.2964
  712MPD2    H510587   0.140   1.807  13.850  1.8877  1.3817  2.6933
  712MPD2    N110588   0.096   1.252  13.967 -0.1830  0.8919  0.0008
  712MPD2    H710589   0.170   1.217  13.907 -0.7984 -0.1020 -0.1697
  713TMC3    C110590   0.401   1.856  13.853  0.1720  0.0235  0.7007
  713TMC3    C210591   0.534   1.841  13.836  0.1182  0.2227  0.4841
  713TMC3    C310592   0.600   1.956  13.801  0.0062  0.8375  0.2227
  713TMC3    C410593   0.322   1.970  13.822  0.4328 -0.1124  0.3469
  713TMC3    C510594   0.398   2.073  13.785  0.4674 -0.3250  0.1133
  713TMC3    C610595   0.529   2.069  13.770  0.5840  0.1274 -0.3060
  713TMC3     C10596   0.332   1.727  13.875 -0.1499  0.0426  0.0096
  713TMC3     O10597   0.399   1.630  13.915 -0.0130 -0.1569 -0.5477
  713TMC3     H10598   0.587   1.747  13.824  1.0986  0.6395  1.5524
  713TMC3    H110599   0.225   1.985  13.867 -1.0686 -0.9078 -2.5714
  713TMC3    H210600   0.586   2.150  13.726  1.2374 -0.5290 -0.6573
  713TMC3    C710601   0.341   2.207  13.764 -0.8279  0.2297 -0.0499
  713TMC3    C810602   0.739   1.965  13.806  0.3501  0.2093 -0.6043
  713TMC3    O110603   0.414   2.303  13.782  0.4238  0.2426  0.4460
  713TMC3    O210604   0.793   2.031  13.720  0.0973  0.4159 -0.3763
  714MPD2     C10605   2.854   0.140   1.056  0.8937  0.6275 -0.1117
  714MPD2    C110606   2.788   0.023   1.091 -0.2637 -0.0194  0.1774
  714MPD2    C210607   2.666   0.001   1.025 -0.8818  0.1582  0.0827
  714MPD2    C310608   2.609   0.085   0.933  0.1013  0.2073  0.1625
  714MPD2    C410609   2.677   0.199   0.890  0.4516  0.3589 -0.2968
  714MPD2    C510610   2.802   0.220   0.951 -0.2971  0.0382 -0.0516
  714MPD2     H10611   2.614   4.645   1.034 -0.6400 -0.1283 -1.5759
  714MPD2    H110612   2.643   0.267   0.812 -0.7654 -0.6663 -0.6476
  714MPD2    H210613   2.951   0.165   1.096  0.8175 -0.4758  0.7555
  714MPD2    H310614   2.865   0.302   0.919 -0.7926  0.6191  0.4676
  714MPD2     N10615   2.482   0.052   0.877  0.0351 -0.2854 -0.5694
  714MPD2    H510616   2.431   4.717   0.925 -0.3735 -0.5311 -1.3879
  714MPD2    N110617   2.856   4.675   1.182  0.5129 -0.2436  0.4873
  714MPD2    H710618   2.951   4.700   1.210  1.0796 -0.5466 -1.2105
  715TMC3    C110619   2.916   4.470   1.274  0.0812  0.1744 -0.0828
  715TMC3    C210620   2.914   4.335   1.257 -0.6695  0.0436  0.3698
  715TMC3    C310621   2.993   4.256   1.335  0.5296 -0.3874 -0.1648
  715TMC3    C410622   2.994   4.524   1.371  0.8234  0.2182  0.3497
  715TMC3    C510623   3.067   4.440   1.454  0.1391  0.2039  0.6083
  715TMC3    C610624   3.073   4.308   1.441  0.4704 -0.2305  0.2203
  715TMC3     C10625   2.817   4.543   1.205  0.2229  0.1373  1.0135
  715TMC3     O10626   2.729   4.484   1.150 -0.2418  0.1485 -0.2915
  715TMC3     H10627   2.874   4.297   1.164 -0.7045 -1.8623  1.1671
  715TMC3    H110628   2.982   4.630   1.393  1.1051  0.5812 -1.2888
  715TMC3    H210629   3.127   4.248   1.513 -2.2979 -0.1556  2.3753
  715TMC3    C710630   3.165   4.491   1.547  0.7449 -0.7934 -0.2785
  715TMC3    C810631   3.037   4.128   1.278 -0.6832  0.2991 -0.4453
  715TMC3    O110632   3.214   4.417   1.625  0.0160  0.2390 -0.1439
  715TMC3    O210633   2.981   4.100   1.172 -0.4357  0.2080  0.1120
  716MPD2     C10634   2.723   3.371   9.999  0.1635  0.4878 -0.0224
  716MPD2    C110635   2.759   3.417   9.878 -0.0444  0.0118  0.0822
  716MPD2    C210636   2.775   3.330   9.774 -0.0833 -0.6756  0.2772
  716MPD2    C310637   2.781   3.195   9.798  0.4609  0.2446 -0.7943
  716MPD2    C410638   2.752   3.147   9.926 -0.5118 -0.0666 -0.0368
  716MPD2    C510639   2.728   3.232  10.021 -0.0744  0.0530 -0.0566
  716MPD2     H10640   2.804   3.368   9.677 -1.9923 -0.2337 -0.1129
  716MPD2    H110641   2.747   3.041   9.950  1.0673 -0.5025 -1.6574
  716MPD2    H210642   2.709   3.440  10.082 -0.8695  0.2363  0.0154
  716MPD2    H310643   2.714   3.181  10.115  0.0831 -1.1225 -0.6790
  716MPD2     N10644   2.805   3.111   9.682  0.2438 -0.0862 -0.4336
  716MPD2    H510645   2.826   3.152   9.592  1.1167 -0.1833 -0.2745
  716MPD2    N110646   2.731   3.554   9.855 -0.1482 -0.5371  0.2619
  716MPD2    H710647   2.716   3.611   9.938  2.2896 -0.1662  0.4430
  717TMC3    C110648   2.749   2.922   9.555 -0.5317  0.4406  0.5595
  717TMC3    C210649   2.685   3.000   9.462 -0.4155  0.3581 -0.0466
  717TMC3    C310650   2.602   2.937   9.374  0.1533  0.0896  0.4897
  717TMC3    C410651   2.742   2.790   9.552 -0.1224  0.6079  0.0367
  717TMC3    C510652   2.660   2.726   9.459 -0.2130  0.1323 -0.7821
  717TMC3    C610653   2.589   2.799   9.364  0.1324 -0.5536 -0.7848
  717TMC3     C10654   2.768   2.976   9.684 -0.2119  0.4165 -0.5265
  717TMC3     O10655   2.747   2.899   9.774  0.3241  0.1889 -0.6282
  717TMC3     H10656   2.680   3.107   9.481  1.5285  0.6358 -1.0942
  717TMC3    H110657   2.810   2.736   9.617 -1.5225  0.1445  1.1116
  717TMC3    H210658   2.521   2.756   9.291  0.5998 -1.8808 -0.4267
  717TMC3    C710659   2.667   2.583   9.453  0.8770  0.2102  0.1498
  717TMC3    C810660   2.524   3.014   9.280 -0.1213  0.4742 -0.9280
  717TMC3    O110661   2.649   2.545   9.335 -0.0448 -0.0823 -0.0645
  717TMC3    O210662   2.524   3.133   9.300 -1.0535 -0.0694 -0.1933
  718MPD2     C10663   1.637   2.316  12.476 -0.6730 -1.0849  0.0509
  718MPD2    C110664   1.643   2.175  12.488 -0.4635 -0.5093 -0.0805
  718MPD2    C210665   1.622   2.123  12.613 -0.0657 -0.0150 -0.5288
  718MPD2    C310666   1.584   2.199  12.721  0.2084  0.0494  0.5584
  718MPD2    C410667   1.579   2.335  12.707  0.2561 -0.2649  0.0601
  718MPD2    C510668   1.607   2.394  12.585 -0.2382 -0.2185 -0.4204
  718MPD2     H10669   1.612   2.016  12.626  0.9084  0.0482  0.8198
  718MPD2    H110670   1.557   2.403  12.789  0.3415 -1.5705  1.1644
  718MPD2    H210671   1.651   2.364  12.380 -1.3069 -4.5157 -1.7327
  718MPD2    H310672   1.607   2.501  12.573  2.1603 -0.1252  0.3487
  718MPD2     N10673   1.572   2.129  12.839 -0.0273 -0.3093  0.3514
  718MPD2    H510674   1.558   2.029  12.828 -1.0265 -0.3341  1.7383
  718MPD2    N110675   1.694   2.106  12.377 -0.8683  0.1169  0.4399
  718MPD2    H710676   1.720   2.158  12.294 -0.2657 -0.4010  0.3023
  719TMC3    C110677   1.812   1.939  12.270 -0.0834  0.1411 -0.3022
  719TMC3    C210678   1.828   1.803  12.283 -0.8239 -0.1567 -0.1264
  719TMC3    C310679   1.950   1.749  12.283 -0.3506  0.0755  0.3384
  719TMC3    C410680   1.926   2.020  12.274 -0.3362  0.6140  0.1915
  719TMC3    C510681   2.048   1.959  12.247  1.0682 -0.1769  0.7502
  719TMC3    C610682   2.059   1.829  12.263 -0.2717 -0.1985 -0.6510
  719TMC3     C10683   1.722   1.973  12.370 -0.3963  0.2004  0.2331
  719TMC3     O10684   1.708   1.890  12.456 -0.0249  0.2503 -0.0899
  719TMC3     H10685   1.739   1.741  12.288  0.8219 -2.5670 -0.5986
  719TMC3    H110686   1.913   2.127  12.286 -0.8661  0.5199  0.5126
  719TMC3    H210687   2.152   1.777  12.244  0.1764  0.0155  0.9408
  719TMC3    C710688   2.175   2.027  12.258 -0.4740 -0.6531  0.4646
  719TMC3    C810689   1.968   1.651  12.390 -0.1643  0.3033 -0.2178
  719TMC3    O110690   2.282   1.966  12.237  0.1857 -0.7045 -0.4676
  719TMC3    O210691   2.063   1.576  12.380 -0.4391  0.5578 -0.6569
  720MPD2     C10692   0.518   3.134  13.729  0.0722  0.0820 -0.4378
  720MPD2    C110693   0.542   3.271  13.705 -0.0986  0.0431  0.5469
  720MPD2    C210694   0.656   3.326  13.755 -0.1956 -0.6358  0.2559
  720MPD2    C310695   0.745   3.246  13.833  0.6360 -1.0356 -0.2615
  720MPD2    C410696   0.713   3.114  13.860 -0.3586 -0.2994 -0.0630
  720MPD2    C510697   0.601   3.061  13.805 -0.3507  0.0742  1.0871
  720MPD2     H10698   0.685   3.427  13.726  0.5574 -0.6984  0.7647
  720MPD2    H110699   0.772   3.052  13.925 -0.0116  1.0603  0.9255
  720MPD2    H210700   0.424   3.094  13.692 -0.0527 -1.1330  1.2330
  720MPD2    H310701   0.568   2.959  13.825 -1.4293  0.3370  0.6269
  720MPD2     N10702   0.868   3.302  13.875 -0.2705  0.2824 -0.5369
  720MPD2    H510703   0.885   3.400  13.857 -1.2511  0.8620  1.7645
  720MPD2    N110704   0.454   3.351  13.631  0.0850 -0.3940  0.2701
  720MPD2    H710705   0.477   3.450  13.630 -1.9299  0.0683  0.9228
  721TMC3    C110706   1.054   3.345  13.997 -0.5554 -0.5080  0.6688
  721TMC3    C210707   1.113   3.314  14.116  1.0932  0.7120 -0.7667
  721TMC3    C310708   1.234   3.362  14.132  0.3998  0.1529 -0.6824
  721TMC3    C410709   1.112   3.429  13.902 -0.5842  0.1670  0.3038
  721TMC3    C510710   1.241   3.466  13.932 -0.1482 -0.2997 -0.0281
  721TMC3    C610711   1.304   3.435  14.041 -0.1220 -0.2871  0.0520
  721TMC3     C10712   0.954   3.247  13.963 -0.0272  0.9807  0.2154
  721TMC3     O10713   0.950   3.139  14.021  0.0748 -0.0651 -0.1302
  721TMC3     H10714   1.059   3.253  14.187 -1.2143  3.1238 -0.4230
  721TMC3    H110715   1.075   3.442  13.801 -0.3372  2.7923  0.5512
  721TMC3    H210716   1.410   3.455  14.057 -0.1453  0.1011 -0.2895
  721TMC3    C710717   1.337   3.507  13.826 -0.0141 -0.0613  0.7701
  721TMC3    C810718   1.316   3.303  14.238  0.7575 -1.0187  0.5553
  721TMC3    O110719   1.450   3.462  13.842  0.1474 -0.1089 -0.4584
  721TMC3    O210720   1.431   3.265  14.210  0.1850  0.4052 -0.5060
  722MPD2     C10721   3.952   1.993  13.519  0.7319  0.7517 -0.0704
  722MPD2    C110722   3.889   2.116  13.506 -0.1202 -0.6570  0.2474
  722MPD2    C210723   3.775   2.133  13.431  0.2180  0.3018 -0.0145
  722MPD2    C310724   3.718   2.022  13.373 -0.4356 -0.6304 -0.2670
  722MPD2    C410725   3.761   1.894  13.404 -0.2927  0.2006 -0.0561
  722MPD2    C510726   3.879   1.884  13.472  0.3675 -0.3401  0.1096
  722MPD2     H10727   3.737   2.233  13.414 -1.2982 -0.6167 -1.9681
  722MPD2    H110728   3.713   1.802  13.373  0.4289 -0.2586  0.1817
  722MPD2    H210729   4.047   1.975  13.570 -0.3093  0.3133  1.7374
  722MPD2    H310730   3.913   1.785  13.500  1.1672  0.0932  0.6639
  722MPD2     N10731   3.607   2.050  13.292 -0.0054 -0.3586  0.0175
  722MPD2    H510732   3.574   2.144  13.274 -3.0704 -1.3257  0.4540
  722MPD2    N110733   3.955   2.236  13.541  0.8153 -0.1867 -1.0245
  722MPD2    H710734   3.913   2.325  13.514  2.3996  0.9613  0.3940
  723TMC3    C110735   3.419   1.995  13.160  0.3329 -0.4215 -0.1598
  723TMC3    C210736   3.288   1.945  13.165 -0.3203  0.0805 -0.1378
  723TMC3    C310737   3.194   2.025  13.106  0.2840 -0.0637  0.3977
  723TMC3    C410738   3.443   2.121  13.101  0.3569  0.2425  0.6548
  723TMC3    C510739   3.345   2.191  13.043  0.0272  0.2535 -0.2759
  723TMC3    C610740   3.219   2.144  13.043 -0.3676 -0.7609  0.6131
  723TMC3     C10741   3.526   1.949  13.241  0.5051  0.2475  0.2775
  723TMC3     O10742   3.510   1.836  13.284 -0.2081  0.4012 -0.2811
  723TMC3     H10743   3.264   1.858  13.224  1.2886 -0.3043 -0.0675
  723TMC3    H110744   3.542   2.160  13.078  0.7622 -0.4665  1.1859
  723TMC3    H210745   3.145   2.190  12.979 -0.1961 -0.8516  0.3521
  723TMC3    C710746   3.388   2.265  12.925  1.1548 -0.0541 -0.6030
  723TMC3    C810747   3.060   1.969  13.088  0.6613 -0.4718  0.4899
  723TMC3    O110748   3.340   2.237  12.819 -0.1763  0.2023  0.1018
  723TMC3    O210749   2.962   2.044  13.095  0.0374 -0.3697  0.2933
  724TMC3    C110750   4.337   0.407  10.534 -0.4123  0.2330  0.1153
  724TMC3    C210751   4.272   0.355  10.423  0.2330 -0.0345  0.7290
  724TMC3    C310752   4.305   0.399  10.296 -0.3358 -0.2490  0.2981
  724TMC3    C410753   4.451   0.485  10.515 -0.3215  0.0999 -0.0285
  724TMC3    C510754   4.489   0.516  10.390  0.2744  0.2853 -0.1664
  724TMC3    C610755   4.422   0.471  10.275  0.7106  0.0095 -0.4339
  724TMC3     C10756   4.340   0.327  10.656  0.3071  0.0726  0.2244
  724TMC3     O10757   4.423   0.364  10.734 -0.4585 -0.4673 -0.0972
  724TMC3     H10758   4.177   0.304  10.438  1.0133 -2.6333 -3.2971
  724TMC3    H110759   4.517   0.499  10.600 -1.0450 -2.8626  1.0232
  724TMC3    H210760   4.446   0.508  10.176 -2.6273  1.5948 -0.6329
  724TMC3    C710761   4.620   0.571  10.357 -0.1730  0.2628 -0.0411
  724TMC3    C810762   4.188   0.442  10.219  0.1709  0.1276 -0.1372
  724TMC3    O110763   4.663   0.548  10.248  0.3402 -0.0020  0.0625
  724TMC3    O210764   4.084   0.383  10.242 -0.4645  0.0223 -0.3155
  725TMC3    C110765   1.127   4.225  12.615 -1.0107  0.3907  1.0743
  725TMC3    C210766   1.027   4.316  12.607  0.5444  0.2513 -0.3137
  725TMC3    C310767   0.899   4.263  12.607 -0.7671 -0.4998 -0.5618
  725TMC3    C410768   1.114   4.094  12.642 -0.1983 -0.2580 -0.8108
  725TMC3    C510769   0.986   4.047  12.651  0.7408 -0.1680  0.0439
  725TMC3    C610770   0.879   4.124  12.610 -0.4372  0.6772  0.3436
  725TMC3     C10771   1.254   4.281  12.572  0.1669  0.1153 -0.1446
  725TMC3     O10772   1.291   4.381  12.634  0.0229 -0.2240 -0.4111
  725TMC3     H10773   1.053   4.421  12.602 -0.3260  0.4370 -0.8575
  725TMC3    H110774   1.200   4.029  12.656 -0.9508 -0.4462  3.0196
  725TMC3    H210775   0.780   4.082  12.626  0.8423 -0.9793  3.7968
  725TMC3    C710776   0.975   3.916  12.592 -0.4129  0.2006 -0.0817
  725TMC3    C810777   0.786   4.349  12.587 -0.8065 -0.5274 -0.4155
  725TMC3    O110778   0.964   3.908  12.469  0.7134 -0.1393  0.5567
  725TMC3    O210779   0.680   4.305  12.624 -0.5343  0.1666  0.2889
  726MPD2     C10780   3.182   1.240  10.781  0.2723  0.3073 -0.8350
  726MPD2    C110781   3.308   1.233  10.731  0.5949 -0.0921  0.3935
  726MPD2    C210782   3.380   1.121  10.764  0.3480 -0.3249  0.6731
  726MPD2    C310783   3.336   1.020  10.844  0.8461  0.1424  1.3149
  726MPD2    C410784   3.211   1.037  10.901 -0.5777  0.4356  0.0521
  726MPD2    C510785   3.129   1.149  10.872  0.5654  0.0719 -0.5841
  726MPD2     H10786   3.479   1.115  10.721 -0.2065 -1.3592 -0.4729
  726MPD2    H110787   3.163   0.967  10.969 -0.4411  0.4427  0.1546
  726MPD2    H210788   3.118   1.324  10.756 -0.7111 -0.9080 -2.4501
  726MPD2    H310789   3.029   1.158  10.911  0.2611 -0.0260 -1.3388
  726MPD2     N10790   3.405   0.899  10.847  0.2405  0.6358  0.1247
  726MPD2    H510791   3.367   0.827  10.907  1.8178 -0.5884 -0.3126
  726MPD2    N110792   3.373   1.329  10.653 -0.0434  0.4014 -0.4050
  726MPD2    H710793   3.471   1.309  10.633  0.1911  0.4515  0.6968
  727TMC3    C110794   3.390   1.539  10.542  0.0260  0.6318 -0.0387
  727TMC3    C210795   3.524   1.542  10.565  0.0517  1.1306  0.3914
  727TMC3    C310796   3.591   1.661  10.557  0.5962 -0.2566  0.3518
  727TMC3    C410797   3.328   1.650  10.502 -0.2102  0.0375  0.0741
  727TMC3    C510798   3.396   1.769  10.484 -0.7413  0.8509 -0.5399
  727TMC3    C610799   3.528   1.777  10.515  0.3220 -0.0318  0.0617
  727TMC3     C10800   3.305   1.432  10.587 -0.9452  0.7199 -0.3304
  727TMC3     O10801   3.182   1.447  10.581 -0.0795 -0.6157  0.0845
  727TMC3     H10802   3.572   1.446  10.581 -0.0769  1.4482  2.7164
  727TMC3    H110803   3.220   1.646  10.491 -0.1159  1.1567 -1.2440
  727TMC3    H210804   3.586   1.867  10.495  1.5427 -1.2474 -1.8979
  727TMC3    C710805   3.331   1.884  10.428  0.1123 -0.2184 -0.0380
  727TMC3    C810806   3.729   1.647  10.591 -0.2206  0.3640  0.1649
  727TMC3    O110807   3.379   1.997  10.444  0.1686 -0.2184  0.3407
  727TMC3    O210808   3.764   1.537  10.634  0.4461  0.7031  0.2622
  728TMC3    C110809   2.547   3.866  15.150 -0.0843  0.0695 -0.0398
  728TMC3    C210810   2.551   3.882  15.287  0.3425  0.2803 -0.1568
  728TMC3    C310811   2.674   3.902  15.342 -0.2911 -0.5178  0.5025
  728TMC3    C410812   2.654   3.880  15.064 -0.0511 -0.6697  0.2282
  728TMC3    C510813   2.772   3.909  15.128 -0.5046  0.0861  0.4827
  728TMC3    C610814   2.784   3.918  15.268 -0.2932 -0.2377 -0.0410
  728TMC3     C10815   2.425   3.839  15.093 -0.1824 -0.7360 -0.2229
  728TMC3     O10816   2.400   3.898  14.990 -0.4854 -0.1628  0.5132
  728TMC3     H10817   2.467   3.858  15.351  0.5510 -0.3664 -0.1209
  728TMC3    H110818   2.650   3.870  14.956 -0.6936 -0.2038  0.2016
  728TMC3    H210819   2.879   3.938  15.316 -0.4232 -1.1416  0.5974
  728TMC3    C710820   2.893   3.913  15.059  1.1368  0.1165 -0.4838
  728TMC3    C810821   2.688   3.853  15.478 -0.2009  0.2791  0.1562
  728TMC3    O110822   2.990   3.905  15.131 -0.2951  0.2396 -0.5524
  728TMC3    O210823   2.797   3.816  15.516  0.4893  0.4718 -0.0348
  729MPD2     C10824   0.271   0.545  16.344  0.4644 -0.5148  0.4783
  729MPD2    C110825   0.396   0.500  16.383  0.0571 -0.0151 -0.2795
  729MPD2    C210826   0.413   0.449  16.517 -1.0222  0.1166  0.4719
  729MPD2    C310827   0.297   0.451  16.603 -0.3737 -0.7123 -0.1118
  729MPD2    C410828   0.175   0.504  16.566  0.4845  0.6584  0.3543
  729MPD2    C510829   0.161   0.544  16.428  0.7827  0.0179 -0.7386
  729MPD2     H10830   0.508   0.416  16.556 -0.7561  0.0764 -0.2162
  729MPD2    H110831   0.093   0.522  16.635 -1.2798 -0.9538 -1.3379
  729MPD2    H210832   0.253   0.572  16.240  3.5508 -3.9020 -0.9558
  729MPD2    H310833   0.062   0.562  16.387  0.7023 -2.5863 -1.6495
  729MPD2     N10834   0.302   0.413  16.739  0.5886 -0.7554 -0.0641
  729MPD2    H510835   0.226   0.443  16.799 -0.6309 -2.2362 -0.8563
  729MPD2    N110836   0.500   0.506  16.290  0.7184  0.2290 -0.0856
  729MPD2    H710837   0.469   0.518  16.194  0.8163 -0.9816 -0.2652
  730TMC3    C110838   0.402   0.335  16.942 -0.3359  1.2042 -0.2956
  730TMC3    C210839   0.505   0.263  17.000 -0.1853 -0.5581  1.0223
  730TMC3    C310840   0.531   0.277  17.132 -0.2351  1.0836  0.5255
  730TMC3    C410841   0.338   0.435  17.017 -0.2917  0.2364  0.4663
  730TMC3    C510842   0.383   0.453  17.150 -0.0580  0.2758 -0.3842
  730TMC3    C610843   0.472   0.376  17.209  0.2410 -0.1179  0.7216
  730TMC3     C10844   0.409   0.344  16.799 -0.1427 -0.0973 -0.4532
  730TMC3     O10845   0.498   0.278  16.741  0.3457  0.1755  0.0999
  730TMC3     H10846   0.562   0.194  16.939 -1.2750 -2.9200  2.7013
  730TMC3    H110847   0.263   0.499  16.972  0.5292  1.4040  0.7481
  730TMC3    H210848   0.509   0.395  17.309  1.6515  0.4313  0.0976
  730TMC3    C710849   0.350   0.578  17.210  0.2105  0.5586  0.4351
  730TMC3    C810850   0.653   0.224  17.181  0.0018 -0.1245 -0.0909
  730TMC3    O110851   0.348   0.581  17.336  0.4778  0.6949 -0.4468
  730TMC3    O210852   0.662   0.194  17.298  0.1259 -0.3971  0.5635
  731MPD2     C10853   0.886   3.943  11.963  0.4614 -0.1988  1.0659
  731MPD2    C110854   0.751   3.919  11.988 -0.8156  0.2968 -0.7796
  731MPD2    C210855   0.719   3.830  12.088  0.2927  0.5100 -0.4134
  731MPD2    C310856   0.813   3.771  12.168  0.2320  0.1765 -0.1818
  731MPD2    C410857   0.946   3.795  12.141 -0.6562 -0.4806 -0.0800
  731MPD2    C510858   0.981   3.880  12.041  0.4750  1.3666 -0.2423
  731MPD2     H10859   0.616   3.804  12.109  1.2174 -1.3443  1.9070
  731MPD2    H110860   1.024   3.747  12.198  1.2825 -0.9383 -3.1365
  731MPD2    H210861   0.913   4.005  11.878 -1.3004  0.9120  1.3172
  731MPD2    H310862   1.087   3.894  12.021  0.2776  0.5350 -1.8342
  731MPD2     N10863   0.778   3.676  12.275  0.3146 -0.0534  0.1921
  731MPD2    H510864   0.683   3.677  12.312  0.8214 -2.0540  1.5737
  731MPD2    N110865   0.651   3.974  11.908 -0.1498 -0.3660 -0.2217
  731MPD2    H710866   0.681   4.037  11.834  1.4273  0.9616  1.5649
  732TMC3    C110867   0.456   3.963  11.786 -0.2893  0.4970 -0.2991
  732TMC3    C210868   0.408   3.838  11.743 -0.1258  0.0453  0.0466
  732TMC3    C310869   0.456   3.791  11.625  0.0712  0.2457 -0.4412
  732TMC3    C410870   0.537   4.037  11.706 -0.0249 -0.2977  0.1798
  732TMC3    C510871   0.593   3.988  11.588 -0.6589 -0.9075  0.5917
  732TMC3    C610872   0.552   3.856  11.545  0.1551  0.5055 -0.3353
  732TMC3     C10873   0.515   3.950  11.916 -0.0673  0.0019  0.0982
  732TMC3     O10874   0.451   3.881  11.993  0.7907 -0.1399  0.1868
  732TMC3     H10875   0.329   3.791  11.801 -0.5446  1.5742  0.7031
  732TMC3    H110876   0.570   4.134  11.741 -0.6959  0.6313 -1.7591
  732TMC3    H210877   0.591   3.810  11.455  0.3701 -0.4815  0.2724
  732TMC3    C710878   0.735   4.023  11.578 -0.6625  0.4978  0.5181
  732TMC3    C810879   0.392   3.680  11.553  0.4989 -0.1740  0.5692
  732TMC3    O110880   0.763   4.136  11.621 -0.5007 -0.2058  0.0966
  732TMC3    O210881   0.398   3.668  11.430  0.4247  0.8050 -0.2602
  733TMC3    C110882   1.516   1.965  13.264 -0.4610  0.1209 -0.4223
  733TMC3    C210883   1.503   2.071  13.175 -0.0321  0.1420  0.2607
  733TMC3    C310884   1.573   2.063  13.060 -0.9401  0.0041 -0.0868
  733TMC3    C410885   1.595   1.853  13.233 -0.6735  0.5624 -0.4643
  733TMC3    C510886   1.669   1.856  13.117 -0.1763  0.3028  0.3518
  733TMC3    C610887   1.651   1.956  13.026 -0.1382 -0.3701  0.7702
  733TMC3     C10888   1.414   1.953  13.363  0.2909 -0.2684 -0.1486
  733TMC3     O10889   1.299   1.995  13.343  0.1510  0.4194 -0.6289
  733TMC3     H10890   1.438   2.154  13.202 -0.1334  0.5534 -1.2667
  733TMC3    H110891   1.583   1.759  13.285 -0.8451  0.5492 -0.5262
  733TMC3    H210892   1.730   1.977  12.955 -1.5535 -0.6239 -0.8585
  733TMC3    C710893   1.725   1.729  13.078 -0.4022  0.4525  0.4808
  733TMC3    C810894   1.574   2.177  12.970 -0.5494  0.1282 -0.7007
  733TMC3    O110895   1.792   1.675  13.158 -0.2461 -0.0366 -0.5890
  733TMC3    O210896   1.557   2.290  13.013  0.4663 -0.0749 -0.3345
  734MPD2     C10897   3.246   4.108  12.636 -0.1868 -0.8929 -0.5455
  734MPD2    C110898   3.202   4.025  12.531  0.5310 -0.2387  0.0617
  734MPD2    C210899   3.240   4.070  12.401  0.7520  0.0272  0.4642
  734MPD2    C310900   3.296   4.196  12.376  0.7925  0.0188  0.0821
  734MPD2    C410901   3.322   4.274  12.485 -0.5476 -0.5244  0.7963
  734MPD2    C510902   3.311   4.225  12.613 -0.2541 -0.0716 -0.0653
  734MPD2     H10903   3.205   4.013  12.316  3.2966 -1.0647  0.1518
  734MPD2    H110904   3.385   4.362  12.483 -1.8204  0.4176  2.0059
  734MPD2    H210905   3.223   4.090  12.741  1.5721 -2.3486 -0.4239
  734MPD2    H310906   3.352   4.290  12.690  0.9982 -0.3470 -0.5090
  734MPD2     N10907   3.343   4.215  12.246 -0.0998  0.8872 -0.2671
  734MPD2    H510908   3.347   4.131  12.189 -1.4376  0.7692 -0.2072
  734MPD2    N110909   3.117   3.916  12.553  0.1039 -0.0673  0.1741
  734MPD2    H710910   3.094   3.878  12.644  0.1054 -1.4119 -0.3832
  735TMC3    C110911   2.991   3.731  12.480 -0.9175 -0.3311 -0.2252
  735TMC3    C210912   2.901   3.684  12.394 -0.6646 -0.0287  0.1098
  735TMC3    C310913   2.905   3.556  12.345  0.1042  0.0845 -0.1010
  735TMC3    C410914   3.080   3.643  12.530 -0.6158  0.7347  0.3365
  735TMC3    C510915   3.079   3.514  12.497  0.0975 -0.2194  0.3012
  735TMC3    C610916   2.996   3.467  12.404 -0.2905 -0.5501  0.1348
  735TMC3     C10917   3.042   3.858  12.448 -0.0093  0.0166 -0.2142
  735TMC3     O10918   3.029   3.882  12.328  0.1328 -0.5562 -0.2651
  735TMC3     H10919   2.831   3.749  12.342  0.6627  2.0773  0.9750
  735TMC3    H110920   3.162   3.687  12.586 -1.2085  2.6163 -0.2530
  735TMC3    H210921   3.010   3.365  12.370 -3.1997 -0.8906  0.0151
  735TMC3    C710922   3.214   3.459  12.477  0.5942  0.3758 -0.0039
  735TMC3    C810923   2.911   3.546  12.203  0.3135  0.1613  0.2432
  735TMC3    O110924   3.307   3.541  12.481 -0.3634  0.0244 -0.1842
  735TMC3    O210925   2.923   3.434  12.151 -0.2388 -0.8146  0.1355
  736MPD2     C10926   3.326   3.117  12.525 -0.0104  0.5919 -0.7665
  736MPD2    C110927   3.336   3.247  12.487 -0.2504 -0.2537 -0.2229
  736MPD2    C210928   3.453   3.298  12.428 -0.4012 -0.2822  0.9139
  736MPD2    C310929   3.553   3.210  12.398  0.0265  0.3075 -0.3747
  736MPD2    C410930   3.533   3.076  12.433 -0.2468 -0.3287  0.0838
  736MPD2    C510931   3.426   3.026  12.489 -0.2087 -0.2085  0.0136
  736MPD2     H10932   3.469   3.401  12.398  1.3774 -1.0644 -0.7705
  736MPD2    H110933   3.604   2.995  12.416 -0.4164 -0.2249 -1.1511
  736MPD2    H210934   3.238   3.078  12.574  0.3872  1.5715  0.7262
  736MPD2    H310935   3.413   2.920  12.506  0.9516 -0.5523 -1.2432
  736MPD2     N10936   3.664   3.243  12.317 -0.0131 -0.4523  0.2891
  736MPD2    H510937   3.693   3.157  12.271  0.7676  1.9709 -3.8161
  736MPD2    N110938   3.218   3.325  12.514 -0.6781 -0.2247  0.1297
  736MPD2    H710939   3.134   3.283  12.553  0.8742 -3.3234  0.0778
  737TMC3    C110940   3.798   3.381  12.175 -0.2453  1.0651 -0.0421
  737TMC3    C210941   3.791   3.490  12.085 -0.0156  0.1391 -0.7002
  737TMC3    C310942   3.841   3.480  11.962 -0.0979 -0.5797 -0.5583
  737TMC3    C410943   3.855   3.263  12.139  0.1991  0.2234 -0.3344
  737TMC3    C510944   3.910   3.260  12.009 -0.5976 -0.2112  0.1769
  737TMC3    C610945   3.903   3.363  11.918 -0.0866 -0.2865 -0.2644
  737TMC3     C10946   3.719   3.371  12.291  0.8467 -0.2407  0.7315
  737TMC3     O10947   3.704   3.482  12.342  0.0489 -0.4869  0.1198
  737TMC3     H10948   3.737   3.580  12.108  1.3200  0.5845  0.7001
  737TMC3    H110949   3.879   3.184  12.209  2.1626 -0.1897 -1.4473
  737TMC3    H210950   3.936   3.350  11.815  1.9054  1.3375  0.1712
  737TMC3    C710951   3.995   3.148  11.985 -0.4861 -0.4673  0.5325
  737TMC3    C810952   3.764   3.550  11.868  0.0861 -0.2698 -0.3337
  737TMC3    O110953   3.990   3.054  12.064  0.2936 -0.3867  0.6925
  737TMC3    O210954   3.669   3.613  11.906  0.6129 -1.0760  0.1094
  738MPD2     C10955   4.397   2.062  15.603 -0.4336  0.3306 -0.2891
  738MPD2    C110956   4.382   2.022  15.470  0.6036 -1.1545  0.4360
  738MPD2    C210957   4.480   2.073  15.378 -0.6446 -0.1576  0.3475
  738MPD2    C310958   4.569   2.169  15.414  0.0504 -0.1686  0.6856
  738MPD2    C410959   4.579   2.202  15.548 -0.1156  0.4191  0.1190
  738MPD2    C510960   4.493   2.152  15.638 -0.3135  0.1379 -0.3723
  738MPD2     H10961   4.472   2.048  15.273 -1.0400 -0.6942  0.5035
  738MPD2    H110962   4.653   2.275  15.579  3.0145 -1.9053 -1.9824
  738MPD2    H210963   4.336   2.019  15.681 -2.8037  1.4142 -1.5472
  738MPD2    H310964   4.520   2.178  15.740  0.4854  2.3249 -1.1263
  738MPD2     N10965   4.667   2.232  15.334 -0.2591  0.4970 -0.1957
  738MPD2    H510966   4.728   2.299  15.381  1.1302 -0.6367 -0.3738
  738MPD2    N110967   4.282   1.933  15.420 -0.3119 -0.2177  0.3077
  738MPD2    H710968   4.291   1.913  15.321  1.6671  1.0990  0.2133
  739TMC3    C110969   0.017   2.331  15.142 -0.2511 -0.1721 -0.3450
  739TMC3    C210970   4.718   2.414  15.038  0.3241  0.4592  0.4842
  739TMC3    C310971   0.071   2.504  14.989 -0.3176 -0.1530 -0.0801
  739TMC3    C410972   0.136   2.343  15.204  0.6375 -0.9849 -0.0572
  739TMC3    C510973   0.219   2.441  15.163  0.3896 -0.1987  0.1399
  739TMC3    C610974   0.192   2.522  15.060  0.8303  1.2809 -0.0903
  739TMC3     C10975   4.654   2.236  15.197 -0.5189  0.5240 -0.0708
  739TMC3     O10976   4.557   2.207  15.126 -0.2645  0.0589 -0.1531
  739TMC3     H10977   4.627   2.396  14.981  2.1774 -2.1906 -1.6369
  739TMC3    H110978   0.168   2.271  15.280 -1.4338 -2.2184 -0.3599
  739TMC3    H210979   0.275   2.586  15.033  1.2495  0.5205 -0.6035
  739TMC3    C710980   0.351   2.421  15.215 -0.2564 -0.4084 -0.4753
  739TMC3    C810981   0.040   2.580  14.872  0.4142  1.1661  0.3134
  739TMC3    O110982   0.389   2.311  15.248 -0.2157 -0.4070 -0.3749
  739TMC3    O210983   4.685   2.540  14.802  0.1061 -0.0066  0.0955
  740TMC3    C110984   0.147   3.716  14.263  0.3592 -0.8408 -0.2779
  740TMC3    C210985   0.204   3.649  14.374 -0.1746  0.6231  0.0087
  740TMC3    C310986   0.337   3.628  14.362  0.9288  0.5784 -0.1379
  740TMC3    C410987   0.212   3.743  14.150  0.4878  0.8727 -0.0805
  740TMC3    C510988   0.341   3.710  14.141 -1.0162  0.1514 -0.6922
  740TMC3    C610989   0.406   3.649  14.248 -0.1327 -0.1738  0.0559
  740TMC3     C10990   0.006   3.751  14.261 -0.3304  0.1373 -0.5257
  740TMC3     O10991   4.704   3.824  14.168  0.6721  0.5389  0.1546
  740TMC3     H10992   0.153   3.644  14.470 -0.7647  0.2967 -0.3201
  740TMC3    H110993   0.166   3.777  14.058 -1.8736 -1.1693  0.3540
  740TMC3    H210994   0.507   3.610  14.249  1.0554  2.8730 -3.2012
  740TMC3    C710995   0.396   3.683  14.008  0.3722  0.9828  0.6728
  740TMC3    C810996   0.391   3.524  14.448  0.2020  0.1180 -0.2605
  740TMC3    O110997   0.474   3.590  13.996  0.0547 -0.1968  0.0271
  740TMC3    O210998   0.510   3.491  14.445  0.1840  0.2439 -0.3062
  741TMC3    C110999   4.581   3.211  14.448  0.2774 -0.1178 -0.0872
  741TMC3    C211000   4.494   3.122  14.385  0.8120 -0.2655 -0.0647
  741TMC3    C311001   4.425   3.035  14.467 -0.2140 -0.0865  0.6891
  741TMC3    C411002   4.611   3.184  14.574  0.6237  0.2576 -0.5623
  741TMC3    C511003   4.554   3.087  14.648 -0.5553 -0.3250 -0.6145
  741TMC3    C611004   4.454   3.010  14.594 -0.0049 -0.2153  0.0526
  741TMC3     C11005   4.685   3.291  14.377  0.2039  0.3128 -0.5858
  741TMC3     O11006   0.048   3.319  14.443  0.5157 -0.6425 -0.1979
  741TMC3     H11007   4.482   3.129  14.277 -0.4556 -0.0337  0.0902
  741TMC3    H111008   4.694   3.234  14.623  0.9149 -1.1386  0.3654
  741TMC3    H211009   4.401   2.939  14.656  0.9908 -0.1999  0.9123
  741TMC3    C711010   4.589   3.078  14.795  0.1249 -0.0570 -0.6305
  741TMC3    C811011   4.344   2.932  14.403 -0.6662 -0.5901 -0.0821
  741TMC3    O111012   4.645   3.178  14.839 -0.5048  0.0138  0.2996
  741TMC3    O211013   4.284   2.959  14.301  0.2135 -0.2836  0.1365
  742TMC3    C111014   4.101   1.466  15.766  0.1358 -0.1389  0.1892
  742TMC3    C211015   4.012   1.421  15.673  0.1204 -0.1971  0.1241
  742TMC3    C311016   4.058   1.345  15.566  0.1297  0.3101 -0.2834
  742TMC3    C411017   4.232   1.428  15.754  0.8843 -0.6789  0.0948
  742TMC3    C511018   4.277   1.354  15.644 -0.6318  0.2297  0.4636
  742TMC3    C611019   4.191   1.315  15.548  0.4084 -0.2587 -0.4149
  742TMC3     C11020   4.056   1.491  15.903 -0.2779  0.3156 -0.2299
  742TMC3     O11021   3.958   1.421  15.930 -0.3357  0.5268  0.3278
  742TMC3     H11022   3.917   1.472  15.676 -0.0931 -0.6149  0.5075
  742TMC3    H111023   4.298   1.466  15.831  0.5893 -1.0541  0.5317
  742TMC3    H211024   4.228   1.268  15.458 -1.4568  1.7116 -2.1988
  742TMC3    C711025   4.409   1.309  15.633 -0.8817 -0.3400  0.0092
  742TMC3    C811026   3.957   1.316  15.465  0.4366  0.3570  0.0405
  742TMC3    O111027   4.444   1.247  15.532 -0.4618 -0.3753 -0.7443
  742TMC3    O211028   3.841   1.348  15.493 -0.1263 -0.2418  0.0798
  743MPD2     C11029   1.910   2.973   1.677  0.6885 -0.0916  0.1918
  743MPD2    C111030   1.957   2.869   1.595  0.4154 -0.0623 -0.0539
  743MPD2    C211031   2.040   2.762   1.639  0.0644 -0.1594  0.5172
  743MPD2    C311032   2.067   2.760   1.781  0.5098  0.6988 -0.2773
  743MPD2    C411033   1.998   2.846   1.859  0.6000  0.0104 -0.3978
  743MPD2    C511034   1.917   2.945   1.808 -0.1844 -0.4096  0.2430
  743MPD2     H11035   2.094   2.698   1.569  0.0263  0.1968  0.1601
  743MPD2    H111036   1.999   2.836   1.967 -2.0789 -4.1471 -0.7579
  743MPD2    H211037   1.848   3.056   1.645 -0.0777 -0.4602  0.7447
  743MPD2    H311038   1.864   3.012   1.874  1.6391  2.0167 -0.7792
  743MPD2     N11039   2.157   2.654   1.819  0.0286 -0.7744  0.4146
  743MPD2    H511040   2.192   2.592   1.748 -1.7015  1.4401 -2.3853
  743MPD2    N111041   1.930   2.887   1.454  0.1492  0.1407 -0.2304
  743MPD2    H711042   1.878   2.968   1.423  1.3828  1.3732  0.9177
  744TMC3    C111043   1.896   2.820   1.234  0.0191 -0.4098 -0.1209
  744TMC3    C211044   1.863   2.947   1.196  0.3272 -0.0543  0.1382
  744TMC3    C311045   1.809   2.972   1.073  0.3422 -0.2234  0.8098
  744TMC3    C411046   1.868   2.718   1.147  0.7688  0.5529 -1.3980
  744TMC3    C511047   1.809   2.749   1.029  0.4112 -0.7031  0.1507
  744TMC3    C611048   1.790   2.870   0.986  0.1594  0.0312  0.5210
  744TMC3     C11049   1.951   2.784   1.360 -0.2912 -0.4729  0.1163
  744TMC3     O11050   1.980   2.664   1.375  0.1625 -0.7605  0.2915
  744TMC3     H11051   1.872   3.034   1.261  0.3426 -0.7963  1.1365
  744TMC3    H111052   1.891   2.615   1.171  1.1727  0.6121 -1.5381
  744TMC3    H211053   1.746   2.882   0.887  1.1503  0.4242  0.1242
  744TMC3    C711054   1.828   2.657   0.912  0.0446  0.2631  0.1980
  744TMC3    C811055   1.771   3.113   1.047 -0.2339  0.3387  0.0755
  744TMC3    O111056   1.840   2.700   0.802  0.4100  0.4527 -0.3563
  744TMC3    O211057   1.819   3.197   1.119  0.0754  0.5281  0.5150
  745TMC3    C111058   4.700   1.065  13.937  0.4739 -0.4737  0.2222
  745TMC3    C211059   4.572   1.053  13.988  0.0102  0.1315  0.4109
  745TMC3    C311060   4.471   1.106  13.910 -0.5090 -0.8390 -0.1489
  745TMC3    C411061   4.720   1.106  13.805 -0.1813 -0.4252 -0.5528
  745TMC3    C511062   4.611   1.141  13.735  0.7772  0.6108 -0.0381
  745TMC3    C611063   4.482   1.150  13.783 -0.1682 -0.1839  0.5479
  745TMC3     C11064   0.024   1.155  14.029 -0.2936 -0.5635  0.0401
  745TMC3     O11065   4.713   1.172  14.139 -0.7571 -0.2928  0.1105
  745TMC3     H11066   4.551   1.003  14.082  0.5051 -1.3144 -0.2478
  745TMC3    H111067   0.074   1.099  13.750 -0.2933 -1.0019 -0.6690
  745TMC3    H211068   4.398   1.192  13.728  0.0523 -0.2801  0.1353
  745TMC3    C711069   4.633   1.220  13.609  0.2735  0.6587 -0.2578
  745TMC3    C811070   4.389   1.199  13.988  0.6871 -0.0562 -1.0406
  745TMC3    O111071   4.557   1.195  13.517 -0.2829 -0.5362 -0.4323
  745TMC3    O211072   4.309   1.265  13.922 -0.4153 -0.3832 -1.3482
  746TMC3    C111073   2.499   3.070  10.843 -0.8941 -0.7131 -0.5402
  746TMC3    C211074   2.470   3.057  10.712 -0.1863 -0.0142 -0.2094
  746TMC3    C311075   2.371   2.977  10.673  0.3749 -0.3956 -0.1023
  746TMC3    C411076   2.408   3.025  10.945 -1.0323 -0.4688  0.3879
  746TMC3    C511077   2.297   2.964  10.895  0.2130  0.1068  0.2689
  746TMC3    C611078   2.287   2.923  10.768 -0.1865  0.5906  0.5073
  746TMC3     C11079   2.575   3.188  10.873  0.0514  0.5226  0.3713
  746TMC3     O11080   2.678   3.197  10.809 -0.1930  0.7318 -0.1992
  746TMC3     H11081   2.528   3.119  10.644 -0.1872 -0.2767 -0.4535
  746TMC3    H111082   2.436   3.039  11.048 -3.5975  1.8796  0.7430
  746TMC3    H211083   2.205   2.860  10.738 -0.5437  0.9465  0.7376
  746TMC3    C711084   2.171   2.966  10.975 -0.2494 -0.7405 -0.0743
  746TMC3    C811085   2.320   2.974  10.536  0.2530  0.3728 -0.2138
  746TMC3    O111086   2.066   2.953  10.916 -0.3946  0.2291 -0.3979
  746TMC3    O211087   2.234   2.890  10.510  0.2363  0.0574  0.0393
  747TMC3    C111088   0.002   3.325  11.233  0.0947 -0.7435  0.3581
  747TMC3    C211089   4.680   3.228  11.301 -0.0686 -0.0298 -0.2907
  747TMC3    C311090   4.605   3.257  11.413 -0.5389 -0.0896 -0.5849
  747TMC3    C411091   0.008   3.451  11.280 -0.0750 -0.1781  0.0485
  747TMC3    C511092   4.678   3.480  11.401 -0.0829 -0.2862  0.2866
  747TMC3    C611093   4.623   3.379  11.471 -0.0095  0.5730 -0.2817
  747TMC3     C11094   0.113   3.294  11.148 -0.0418 -0.6218 -0.0640
  747TMC3     O11095   0.208   3.368  11.155 -0.6701 -0.5482 -0.3664
  747TMC3     H11096   4.682   3.125  11.267  0.4612  0.1761 -0.8832
  747TMC3    H111097   0.050   3.525  11.212  2.2287 -1.4212  0.1303
  747TMC3    H211098   4.574   3.403  11.565  2.3015 -2.4653  1.6567
  747TMC3    C711099   4.632   3.616  11.432 -0.4412  0.0191  0.0331
  747TMC3    C811100   4.534   3.151  11.487 -0.9743 -0.2681  0.7664
  747TMC3    O111101   4.591   3.638  11.547 -0.4528 -0.2276  0.3176
  747TMC3    O211102   4.551   3.033  11.454 -0.4372 -0.0105  0.2451
  748MPD2     C11103   1.470   3.860   1.100 -0.4516 -0.1216  0.3805
  748MPD2    C111104   1.568   3.782   1.157  0.1467 -0.1962 -0.5371
  748MPD2    C211105   1.698   3.832   1.160 -0.3384  0.5219 -0.5505
  748MPD2    C311106   1.724   3.954   1.107 -0.5935  0.3096  0.0714
  748MPD2    C411107   1.621   4.034   1.067 -0.2907  0.7681  0.2404
  748MPD2    C511108   1.494   3.988   1.067  0.3662  0.2107  0.1218
  748MPD2     H11109   1.770   3.772   1.214 -0.6478 -0.1338 -0.8604
  748MPD2    H111110   1.640   4.134   1.031 -2.4337  0.9436 -0.3688
  748MPD2    H211111   1.369   3.821   1.093 -1.0462  1.2462  1.2887
  748MPD2    H311112   1.414   4.046   1.022  1.1949  1.4425  0.2240
  748MPD2     N11113   1.849   4.008   1.120 -0.0427  0.5671 -0.6726
  748MPD2    H511114   1.913   3.952   1.175 -0.1581  2.3213  1.2311
  748MPD2    N111115   1.531   3.654   1.189 -0.2810 -0.0368  0.0540
  748MPD2    H711116   1.432   3.631   1.188  0.0660 -1.5749  1.0245
  749TMC3    C111117   2.037   4.136   1.083 -0.3286  0.1994 -0.0602
  749TMC3    C211118   2.096   4.057   1.173  0.2187  0.1006  0.7390
  749TMC3    C311119   2.234   4.037   1.165 -0.4539 -0.1625 -0.6135
  749TMC3    C411120   2.109   4.199   0.979 -0.0829  0.0321  0.2195
  749TMC3    C511121   2.244   4.180   0.973  0.3478 -0.4151 -0.0158
  749TMC3    C611122   2.307   4.092   1.058  0.2187 -0.0184  0.1378
  749TMC3     C11123   1.895   4.125   1.058  0.3222 -0.2683 -0.3266
  749TMC3     O11124   1.859   4.183   0.955  0.0817 -0.1863  0.4317
  749TMC3     H11125   2.055   4.010   1.262  2.2427 -0.2889  1.4567
  749TMC3    H111126   2.071   4.272   0.909 -2.3526  0.8526  2.3045
  749TMC3    H211127   2.413   4.068   1.053  0.9599  3.9112 -2.7506
  749TMC3    C711128   2.323   4.261   0.886  0.1276  0.6459 -0.0168
  749TMC3    C811129   2.289   3.914   1.228 -0.1888 -0.1261  0.1865
  749TMC3    O111130   2.437   4.283   0.930  0.2932  0.1904  0.8135
  749TMC3    O211131   2.307   3.821   1.156 -0.0913  0.1065 -0.3813
  750MPD2     C11132   2.939   0.514  11.491  0.3420  0.9572  0.4681
  750MPD2    C111133   2.803   0.519  11.488  0.0392  0.2802 -0.6350
  750MPD2    C211134   2.731   0.472  11.374 -0.0701  0.1022 -0.4497
  750MPD2    C311135   2.802   0.424  11.265 -0.0483  0.1082  0.1429
  750MPD2    C411136   2.938   0.415  11.272 -0.1768 -0.0608 -0.6092
  750MPD2    C511137   3.004   0.466  11.382 -1.1523 -0.4250 -0.1834
  750MPD2     H11138   2.623   0.474  11.379  0.1159  2.5523  2.8005
  750MPD2    H111139   3.007   0.381  11.195  1.0420  0.0786  0.4278
  750MPD2    H211140   2.991   0.542  11.581 -1.9231  1.0119  1.7505
  750MPD2    H311141   3.112   0.472  11.378 -1.0669  0.8751  3.7809
  750MPD2     N11142   2.751   0.374  11.144  0.2738  0.1188 -0.4692
  750MPD2    H511143   2.815   0.336  11.076 -0.0538  1.6606 -1.6467
  750MPD2    N111144   2.731   0.545  11.605 -0.5249  0.3376 -0.0114
  750MPD2    H711145   2.791   0.530  11.685  0.7810  1.0824 -0.8530
  751TMC3    C111146   2.570   0.332  10.982 -0.0238 -0.0725 -0.5270
  751TMC3    C211147   2.434   0.309  10.971 -0.5244 -0.5037 -0.4306
  751TMC3    C311148   2.390   0.230  10.873  0.0838 -0.1966  0.0958
  751TMC3    C411149   2.657   0.272  10.890 -0.0401 -0.2977 -0.0654
  751TMC3    C511150   2.613   0.194  10.787  0.1502  0.2414  0.3065
  751TMC3    C611151   2.478   0.166  10.784  0.0402  0.6422 -0.3931
  751TMC3     C11152   2.618   0.399  11.103 -0.5913 -0.2927  0.2084
  751TMC3     O11153   2.537   0.462  11.171 -0.1689 -0.1501 -0.1515
  751TMC3     H11154   2.367   0.337  11.051 -1.8241 -2.2253 -0.9313
  751TMC3    H111155   2.762   0.299  10.893 -0.1560  0.2033 -0.5942
  751TMC3    H211156   2.444   0.081  10.726  0.2133  0.7165 -0.6030
  751TMC3    C711157   2.707   0.134  10.698 -0.5028  0.3821 -0.4705
  751TMC3    C811158   2.274   0.157  10.891 -0.0735 -0.8405 -0.6825
  751TMC3    O111159   2.825   0.155  10.722  0.1038 -0.9780 -0.3285
  751TMC3    O211160   2.266   0.047  10.844 -0.1362 -0.2499 -0.4743
  752TMC3    C111161   1.510   4.654  16.342  0.0041  0.8938  0.8501
  752TMC3    C211162   1.547   4.540  16.289 -0.8078 -0.1256 -0.3906
  752TMC3    C311163   1.521   4.425  16.361 -0.3479 -0.2705 -0.4385
  752TMC3    C411164   1.461   4.665  16.469  0.5105 -0.7763  0.7241
  752TMC3    C511165   1.454   4.553  16.544 -0.4874  0.6862  0.0775
  752TMC3    C611166   1.484   4.427  16.488 -0.1290 -0.0028 -0.2877
  752TMC3     C11167   1.529   0.028  16.264  0.2223 -0.2837 -0.2684
  752TMC3     O11168   1.633   0.045  16.202 -0.2697 -0.2795 -0.6167
  752TMC3     H11169   1.589   4.543  16.189  0.3309  0.3169  0.1057
  752TMC3    H111170   1.437   0.030  16.491 -1.2821 -1.0617  0.1398
  752TMC3    H211171   1.444   4.336  16.532  3.2741 -1.5470 -0.4149
  752TMC3    C711172   1.364   4.549  16.652 -0.4137 -0.1661 -0.0590
  752TMC3    C811173   1.574   4.300  16.313 -0.0349 -0.5730  0.4463
  752TMC3    O111174   1.297   4.649  16.660 -0.2289  0.8440 -0.0707
  752TMC3    O211175   1.611   4.324  16.197 -0.4249  0.4735  0.0233
  753TMC3    C111176   3.122   1.469  13.413  0.4727 -0.2331 -0.2618
  753TMC3    C211177   3.217   1.399  13.483 -0.0182 -0.2500 -0.2906
  753TMC3    C311178   3.204   1.263  13.499 -0.3447  0.3932 -0.3832
  753TMC3    C411179   3.016   1.401  13.359  0.2479 -0.4462  0.3111
  753TMC3    C511180   3.015   1.264  13.380  0.0757 -0.3654 -0.6432
  753TMC3    C611181   3.105   1.196  13.443  0.0788  0.6177 -0.1884
  753TMC3     C11182   3.110   1.608  13.432  0.2987  0.5855  0.2695
  753TMC3     O11183   3.204   1.668  13.477 -0.2304 -0.5368 -0.3063
  753TMC3     H11184   3.295   1.455  13.533  0.2651  1.0267 -2.1603
  753TMC3    H111185   2.948   1.439  13.284  1.4992 -1.2874 -1.2463
  753TMC3    H211186   3.078   1.098  13.481 -0.6853  0.7739 -0.3147
  753TMC3    C711187   2.915   1.191  13.315 -0.0875 -0.2586  0.0114
  753TMC3    C811188   3.286   1.180  13.588  0.8821  0.6888  0.5774
  753TMC3    O111189   2.810   1.244  13.294 -0.2253 -0.3382  1.1295
  753TMC3    O211190   3.285   1.057  13.568 -0.3520 -0.3228 -0.2493
  754MPD2     C11191   2.597   4.517  12.751 -0.1769  0.8056 -0.4074
  754MPD2    C111192   2.511   4.556  12.854  0.3975 -0.3714  0.3877
  754MPD2    C211193   2.381   4.589  12.828  0.1594 -0.4487  0.7730
  754MPD2    C311194   2.336   4.572  12.697 -0.1817  0.4003  0.4219
  754MPD2    C411195   2.417   4.526  12.596 -0.0848  0.3897  0.4876
  754MPD2    C511196   2.547   4.498  12.628 -0.2960  0.6572  0.2309
  754MPD2     H11197   2.317   4.618  12.910 -2.0110 -1.6876 -0.4755
  754MPD2    H111198   2.382   4.507  12.496  0.0028 -0.8295  0.6804
  754MPD2    H211199   2.704   4.510  12.767 -1.2428 -0.1338  6.4814
  754MPD2    H311200   2.606   4.462  12.544  0.6407  2.3756  0.1594
  754MPD2     N11201   2.203   4.607  12.651  0.0542 -0.2215 -0.1189
  754MPD2    H511202   2.182   4.568  12.560 -0.1356 -1.4443  0.4401
  754MPD2    N111203   2.569   4.559  12.983 -0.0562 -0.1045 -0.3989
  754MPD2    H711204   2.668   4.536  12.986  0.1522  0.6095 -1.8610
  755MPD2     C11205   1.292   0.459  12.799  0.7690  0.0041 -0.0598
  755MPD2    C111206   1.385   0.396  12.879  0.0721 -0.1192  0.7268
  755MPD2    C211207   1.504   0.350  12.832 -0.1154  0.0406  0.4086
  755MPD2    C311208   1.536   0.359  12.697 -0.1844 -0.7138  0.1722
  755MPD2    C411209   1.452   0.426  12.611 -0.5988 -0.3267 -0.0962
  755MPD2    C511210   1.338   0.483  12.665 -0.0016  0.0848 -0.2333
  755MPD2     H11211   1.563   0.293  12.904  2.9402 -0.9844 -2.8694
  755MPD2    H111212   1.478   0.437  12.506 -1.2089 -1.7146 -0.3894
  755MPD2    H211213   1.200   0.510  12.828  1.8223  1.8555  0.0557
  755MPD2    H311214   1.271   0.547  12.609 -2.2286 -1.5233  0.6158
  755MPD2     N11215   1.645   0.289  12.634  0.2843 -0.0395  0.6347
  755MPD2    H511216   1.651   0.287  12.533  0.9425  0.1346  0.6702
  755MPD2    N111217   1.346   0.366  13.016 -0.2991  0.2924  0.1242
  755MPD2    H711218   1.415   0.315  13.070 -1.4513  0.9828  2.2367
  756MPD2     C11219   1.991   0.214   9.952  0.0778 -0.2153  0.4680
  756MPD2    C111220   2.011   0.353   9.963 -0.2435  0.6062 -0.8669
  756MPD2    C211221   1.981   0.427   9.856  0.2816  0.4518  0.2622
  756MPD2    C311222   1.944   0.372   9.728 -0.4889 -0.1109  0.0847
  756MPD2    C411223   1.940   0.226   9.718 -0.2580  0.4186  0.6162
  756MPD2    C511224   1.960   0.161   9.835  0.0147  0.0785  0.0090
  756MPD2     H11225   1.995   0.534   9.863  2.1633  0.3256 -1.4513
  756MPD2    H111226   1.912   0.169   9.631  4.0175  0.7648 -0.9854
  756MPD2    H211227   2.018   0.149  10.035 -4.0694  1.4128  3.1302
  756MPD2    H311228   1.961   0.053   9.825 -0.9145  0.1703 -1.0740
  756MPD2     N11229   1.916   0.454   9.613 -0.4520  0.3882  0.6637
  756MPD2    H511230   1.937   0.552   9.628  0.1853 -0.0184  2.4767
  756MPD2    N111231   2.042   0.423  10.077  0.0529  0.3178  0.4128
  756MPD2    H711232   2.031   0.523  10.082  3.4275  0.7280 -0.2058
  757MPD2     C11233   1.087   0.480   9.139  0.2223  0.2664  1.0939
  757MPD2    C111234   1.134   0.443   9.258  0.1264  0.2501 -0.1165
  757MPD2    C211235   1.262   0.478   9.292 -0.1346 -0.1850 -0.8504
  757MPD2    C311236   1.341   0.554   9.207  0.3636  0.2832  0.2264
  757MPD2    C411237   1.285   0.605   9.092 -0.4004 -0.6087  0.0587
  757MPD2    C511238   1.158   0.560   9.056  0.7389 -0.1466  0.5338
  757MPD2     H11239   1.315   0.455   9.384 -0.9741  1.3266  0.0060
  757MPD2    H111240   1.334   0.681   9.032 -1.7170 -0.8427 -1.3376
  757MPD2    H211241   0.984   0.454   9.122  0.0429  1.2555  0.6682
  757MPD2    H311242   1.102   0.589   8.967 -0.0342  1.5876  1.5617
  757MPD2     N11243   1.474   0.580   9.248 -0.1046 -0.2285 -0.1422
  757MPD2    H511244   1.490   0.554   9.345  0.4085  2.2859  0.4318
  757MPD2    N111245   1.054   0.358   9.340 -0.0668  0.7376  0.0025
  757MPD2    H711246   0.967   0.322   9.303 -0.0788 -0.5975  1.3279
  758MPD2     C11247   2.279   4.281  15.749  0.0846  0.3371  0.4721
  758MPD2    C111248   2.327   4.210  15.852  0.3191  0.1592 -0.2940
  758MPD2    C211249   2.242   4.185  15.958 -0.2504  0.0997  0.4237
  758MPD2    C311250   2.116   4.252  15.967 -0.5371  0.5867  0.1760
  758MPD2    C411251   2.077   4.331  15.861 -0.2287  0.0835  0.5018
  758MPD2    C511252   2.151   4.334  15.741 -0.2475  0.2954  0.0480
  758MPD2     H11253   2.265   4.111  16.034  0.9154 -0.1387 -0.1724
  758MPD2    H111254   1.980   4.380  15.862 -1.1526 -1.7629  0.6799
  758MPD2    H211255   2.339   4.309  15.663 -0.0899  2.0071  0.9003
  758MPD2    H311256   2.113   4.404  15.668 -0.5340 -2.2464 -2.2499
  758MPD2     N11257   2.028   4.235  16.072  0.5547  0.1588  0.0991
  758MPD2    H511258   1.943   4.292  16.074  1.0649  0.9713 -1.8552
  758MPD2    N111259   2.463   4.166  15.849  0.5754  0.6899  0.1411
  758MPD2    H711260   2.514   4.204  15.769 -0.7945  0.4121 -0.8504
  759MPD2     C11261   1.147   2.753   9.677 -0.1212 -0.4450 -0.6834
  759MPD2    C111262   1.136   2.785   9.815  0.2776  0.5726 -0.0886
  759MPD2    C211263   1.132   2.919   9.856 -0.6219 -0.2111  0.2549
  759MPD2    C311264   1.167   3.022   9.767  0.3127 -0.2778  0.3286
  759MPD2    C411265   1.191   2.985   9.638 -0.1747  0.3731  0.3053
  759MPD2    C511266   1.178   2.853   9.589 -0.2717  0.7521 -0.4993
  759MPD2     H11267   1.123   2.952   9.959  1.3092  1.9614 -0.2625
  759MPD2    H111268   1.215   3.054   9.558  0.1220 -0.7854 -0.6038
  759MPD2    H211269   1.155   2.649   9.647  2.4712 -0.8682  1.5118
  759MPD2    H311270   1.199   2.839   9.483 -0.4704 -0.1230 -0.4258
  759MPD2     N11271   1.190   3.156   9.813 -1.3771  0.4280 -0.3106
  759MPD2    H511272   1.188   3.172   9.913 -0.7023  1.3102 -0.4369
  759MPD2    N111273   1.122   2.690   9.918  0.3292  0.2361 -0.0544
  759MPD2    H711274   1.107   2.728  10.011  1.0152  0.1897  0.0706
  760MPD2     C11275   0.459   0.660  11.469  0.3363  0.0330 -0.0758
  760MPD2    C111276   0.585   0.696  11.513 -0.2572 -0.1667  0.2311
  760MPD2    C211277   0.669   0.608  11.577 -0.2587  0.0686  0.3319
  760MPD2    C311278   0.624   0.484  11.596  0.1541  0.8568  0.8666
  760MPD2    C411279   0.495   0.445  11.568 -0.5456  0.3541  0.3138
  760MPD2    C511280   0.419   0.532  11.500  0.3702 -0.3718  0.0754
  760MPD2     H11281   0.769   0.636  11.609 -1.2098 -0.2998  3.6827
  760MPD2    H111282   0.455   0.347  11.592  1.1989 -0.1526  1.2022
  760MPD2    H211283   0.389   0.728  11.424  1.7939  0.0209 -2.3921
  760MPD2    H311284   0.320   0.501  11.470  0.8773  0.5731 -2.6557
  760MPD2     N11285   0.712   0.403  11.671 -0.4321  0.4878 -0.6412
  760MPD2    H511286   0.809   0.431  11.674 -0.1458 -0.4596 -1.0910
  760MPD2    N111287   0.639   0.825  11.511 -0.2816 -0.0808  0.4214
  760MPD2    H711288   0.726   0.837  11.563 -1.1793  4.9822  0.7910
  761MPD2     C11289   1.853   0.011  11.168 -0.4787  0.0563  0.4683
  761MPD2    C111290   1.943   4.668  11.097 -0.3658  0.1116  0.8264
  761MPD2    C211291   2.049   4.735  11.030 -0.0589  0.2555  0.7711
  761MPD2    C311292   2.071   0.135  11.044 -0.3445  0.3323 -0.1655
  761MPD2    C411293   1.992   0.202  11.131  0.1442  0.1859 -0.0315
  761MPD2    C511294   1.878   0.144  11.188  0.1898  0.0613 -0.5436
  761MPD2     H11295   2.119   4.676  10.972  0.0427  1.5701 -0.4273
  761MPD2    H111296   2.012   0.306  11.150  0.4061  0.3944 -1.4440
  761MPD2    H211297   1.759   4.710  11.203 -0.1508 -0.5093  0.7104
  761MPD2    H311298   1.813   0.205  11.249  0.0819 -0.1545 -0.4449
  761MPD2     N11299   2.185   0.208  10.985  0.2105 -0.1947  0.3079
  761MPD2    H511300   2.203   0.304  11.015 -0.5435  0.5644 -1.6305
  761MPD2    N111301   1.909   4.535  11.082  0.0022 -0.5121 -0.4375
  761MPD2    H711302   1.832   4.502  11.141 -0.3985 -0.6167 -1.0204
  762MPD2     C11303   1.831   3.663  10.721  0.6128  0.5326  0.0272
  762MPD2    C111304   1.889   3.786  10.698 -0.3272  0.2601 -0.4114
  762MPD2    C211305   1.955   3.805  10.578 -0.3073 -0.6145 -0.4842
  762MPD2    C311306   1.966   3.705  10.485  0.0032 -0.1042  0.1403
  762MPD2    C411307   1.905   3.583  10.511 -0.0035  0.5395  0.3802
  762MPD2    C511308   1.834   3.568  10.625 -0.7693 -0.1700 -0.5040
  762MPD2     H11309   1.998   3.900  10.550 -1.1654 -0.3673 -0.9434
  762MPD2    H111310   1.919   3.500  10.442  1.0582  1.4339 -0.4911
  762MPD2    H211311   1.775   3.650  10.813 -1.0567  1.0079 -0.9161
  762MPD2    H311312   1.799   3.470  10.656  0.8879  0.4176  3.1471
  762MPD2     N11313   2.033   3.734  10.365 -0.8766  0.2729 -0.5419
  762MPD2    H511314   2.077   3.825  10.363 -0.2430  0.0164  1.7305
  762MPD2    N111315   1.877   3.888  10.798  0.1368  0.7760  0.2063
  762MPD2    H711316   1.838   3.863  10.888  1.5777  0.6123  0.7836
  763MPD2     C11317   3.994   4.149  16.093 -0.5795  0.5720  0.1138
  763MPD2    C111318   3.859   4.118  16.068  0.5338 -0.1953 -0.9473
  763MPD2    C211319   3.764   4.219  16.100 -0.3104  0.0276  0.5905
  763MPD2    C311320   3.807   4.342  16.164  0.4698  0.6762 -0.8167
  763MPD2    C411321   3.935   4.373  16.159 -0.8474 -0.0249  0.0481
  763MPD2    C511322   4.027   4.281  16.134 -0.8307 -0.1702  0.1977
  763MPD2     H11323   3.663   4.185  16.080 -0.5149 -0.7282  2.9313
  763MPD2    H111324   3.976   4.466  16.197  1.3772  0.0686 -2.6197
  763MPD2    H211325   4.080   4.084  16.084  1.1631  2.7303  1.2263
  763MPD2    H311326   4.131   4.298  16.160 -0.6680 -1.1061  0.1768
  763MPD2     N11327   3.719   4.440  16.210 -0.3648  0.2276  0.0867
  763MPD2    H511328   3.765   4.527  16.236  1.6971 -0.6903 -0.4908
  763MPD2    N111329   3.813   3.993  16.016 -0.1755  0.2296 -0.2772
  763MPD2    H711330   3.720   3.983  15.976 -0.6149  2.9926  0.0669
  764MPD2     C11331   2.429   1.422   0.015  0.3085  0.1191 -0.4630
  764MPD2    C111332   2.322   1.416  17.681 -0.1584 -0.0967  0.3963
  764MPD2    C211333   2.252   1.296  17.673  0.2918  0.1634 -0.6885
  764MPD2    C311334   2.276   1.186   0.004  0.5650  0.5575  0.2200
  764MPD2    C411335   2.386   1.192   0.088  0.5153 -0.6862  0.1830
  764MPD2    C511336   2.456   1.312   0.098 -0.0913 -0.1330 -0.2118
  764MPD2     H11337   2.168   1.287  17.605  0.0960 -0.9101 -0.3095
  764MPD2    H111338   2.410   1.116   0.162 -2.5836  0.6537  2.5249
  764MPD2    H211339   2.488   1.512   0.031 -0.4458  0.6093 -0.4418
  764MPD2    H311340   2.536   1.326   0.169  1.2856  0.5373 -1.9011
  764MPD2     N11341   2.212   1.062  17.735  0.6368  0.4341  0.2488
  764MPD2    H511342   2.133   1.058  17.672 -1.5691  0.5619  2.9957
  764MPD2    N111343   2.275   1.529  17.606  0.3899 -0.6823 -0.0471
  764MPD2    H711344   2.192   1.526  17.549 -0.6226 -0.1383  1.3965
  765MPD2     C11345   1.157   3.516  15.862 -0.4278  0.5401  0.0681
  765MPD2    C111346   1.216   3.600  15.776 -0.7966  0.1363  0.3429
  765MPD2    C211347   1.331   3.559  15.718  0.0522  0.3136  0.2055
  765MPD2    C311348   1.396   3.442  15.753 -0.1748 -0.0404  0.6299
  765MPD2    C411349   1.336   3.361  15.838 -0.3132  0.6807  0.3810
  765MPD2    C511350   1.218   3.398  15.893 -0.1780  0.2218 -0.1327
  765MPD2     H11351   1.378   3.625  15.647 -1.0401  2.1810  1.2078
  765MPD2    H111352   1.372   3.263  15.867 -0.9710  0.4873  0.5565
  765MPD2    H211353   1.073   3.551  15.922 -0.8371  0.4310 -0.4449
  765MPD2    H311354   1.168   3.335  15.966 -0.2865  2.4738  1.7224
  765MPD2     N11355   1.511   3.414  15.677  0.7518  0.4045 -0.0351
  765MPD2    H511356   1.545   3.487  15.616  1.4751 -0.3542 -0.5447
  765MPD2    N111357   1.152   3.727  15.751  0.7770 -0.4293 -0.6379
  765MPD2    H711358   1.057   3.743  15.781  0.0785 -0.6037 -2.7484
  766MPD2     C11359   0.927   3.843  15.077 -0.2581  0.5297  0.1140
  766MPD2    C111360   1.050   3.878  15.126 -0.6163  0.2563 -0.6707
  766MPD2    C211361   1.171   3.861  15.052  0.1279  0.1555  0.3062
  766MPD2    C311362   1.166   3.798  14.930 -0.3185 -0.0677 -0.6308
  766MPD2    C411363   1.042   3.754  14.879  0.8354 -0.1915  0.2029
  766MPD2    C511364   0.925   3.781  14.951  0.3058 -0.3589 -0.6600
  766MPD2     H11365   1.257   3.898  15.106  0.3962  1.6794 -1.1629
  766MPD2    H111366   1.039   3.709  14.781  1.4488  1.6906 -0.6752
  766MPD2    H211367   0.838   3.846  15.139 -0.5931 -0.0830 -0.3307
  766MPD2    H311368   0.833   3.750  14.903 -0.1237  2.8527 -1.9189
  766MPD2     N11369   1.277   3.787  14.848  0.4335 -0.8015  0.6037
  766MPD2    H511370   1.258   3.755  14.754  0.2981  0.2574  0.2602
  766MPD2    N111371   1.055   3.941  15.250  0.5899 -0.4165 -0.4958
  766MPD2    H711372   1.146   3.977  15.277  0.3371  0.1633 -0.4016
  767MPD2     C11373   0.969   4.152  14.908 -0.1607 -0.2672  0.5088
  767MPD2    C111374   1.099   4.177  14.863  0.1975  0.3648 -0.4301
  767MPD2    C211375   1.146   4.130  14.742  0.6219  0.2208  0.1428
  767MPD2    C311376   1.053   4.073  14.654 -0.4056 -0.4408  0.1513
  767MPD2    C411377   0.920   4.052  14.699  0.6267  0.4084 -0.5862
  767MPD2    C511378   0.885   4.089  14.823  0.2528 -0.0031  0.1000
  767MPD2     H11379   1.249   4.147  14.716  0.7549 -0.9490 -0.1027
  767MPD2    H111380   0.841   4.009  14.637  0.9315 -0.6242 -0.2651
  767MPD2    H211381   0.930   4.178  15.006 -0.3284 -2.0799  0.9352
  767MPD2    H311382   0.781   4.083  14.850  0.7186  1.0263  2.1810
  767MPD2     N11383   1.101   4.032  14.524  0.2651 -0.2420  0.0125
  767MPD2    H511384   1.196   4.062  14.501  0.0445  2.4527  2.5755
  767MPD2    N111385   1.202   4.219  14.949  0.0427  0.9976 -0.3462
  767MPD2    H711386   1.296   4.216  14.910  0.0553 -1.0059 -0.1711
  768MPD2     C11387   1.770   2.662  10.959 -0.1819  0.3449 -0.7265
  768MPD2    C111388   1.773   2.697  11.091  0.1433 -0.3453  0.3451
  768MPD2    C211389   1.888   2.672  11.166 -0.0340 -0.4335 -0.5583
  768MPD2    C311390   2.000   2.615  11.109 -0.2072 -0.0779  0.2775
  768MPD2    C411391   2.002   2.592  10.974 -0.0927  0.1878  0.8620
  768MPD2    C511392   1.887   2.621  10.899 -0.2117 -0.8127 -1.3164
  768MPD2     H11393   1.888   2.701  11.270  1.8706 -0.8997 -0.4363
  768MPD2    H111394   2.087   2.542  10.928 -2.2597 -1.2343 -1.6504
  768MPD2    H211395   1.687   2.691  10.896  0.7541  3.2658 -0.6334
  768MPD2    H311396   1.886   2.598  10.793 -1.9237 -0.2600 -1.4296
  768MPD2     N11397   2.116   2.600  11.184 -0.0415  0.0831  0.0710
  768MPD2    H511398   2.203   2.574  11.139  0.0648  0.5786 -0.0100
  768MPD2    N111399   1.677   2.774  11.148  0.0274 -0.4244  0.4956
  768MPD2    H711400   1.707   2.828  11.228  1.1247  0.9181 -0.8360
  769MPD2     C11401   2.961   4.695  15.001  0.4805 -0.4934  0.5954
  769MPD2    C111402   2.979   0.082  14.952  0.0945 -0.0357 -0.9565
  769MPD2    C211403   2.912   0.190  15.018 -0.3165 -0.0582  0.4032
  769MPD2    C311404   2.846   0.164  15.136 -0.6488  0.2479  0.2071
  769MPD2    C411405   2.827   0.034  15.177  0.0046  0.0450  0.2491
  769MPD2    C511406   2.896   4.677  15.116  0.5333  0.5906 -0.1885
  769MPD2     H11407   2.929   0.290  14.982  0.1857  0.3590  1.7723
  769MPD2    H111408   2.765   0.005  15.261 -2.0250 -0.2293 -1.3707
  769MPD2    H211409   3.018   4.616  14.953  1.8351  0.7658  0.1279
  769MPD2    H311410   2.892   4.579  15.164 -1.0964  1.2615  1.0375
  769MPD2     N11411   2.797   0.269  15.214  0.4494 -0.0199  0.2170
  769MPD2    H511412   2.819   0.359  15.172  2.8308 -0.5373  0.3193
  769MPD2    N111413   3.054   0.107  14.831 -0.3064  0.0048 -0.0774
  769MPD2    H711414   3.063   0.022  14.777  0.8220 -0.1851  0.3958
  770MPD2     C11415   2.583   0.239  14.945  0.1245  0.3352 -0.8523
  770MPD2    C111416   2.618   0.155  14.846 -0.8978 -0.0707 -0.8449
  770MPD2    C211417   2.672   0.205  14.728 -0.5672  0.5431 -0.1996
  770MPD2    C311418   2.713   0.337  14.719  1.0333  0.0144 -0.2906
  770MPD2    C411419   2.688   0.420  14.825  0.2379  0.5879  0.7047
  770MPD2    C511420   2.623   0.372  14.938 -0.1145 -0.2656 -0.1984
  770MPD2     H11421   2.704   0.137  14.650 -3.2162  0.4123 -1.1644
  770MPD2    H111422   2.714   0.525  14.823 -0.9356  0.8732  0.6797
  770MPD2    H211423   2.532   0.211  15.036  0.5774  2.1969 -0.0143
  770MPD2    H311424   2.595   0.444  15.013  0.3781  0.7170 -0.9563
  770MPD2     N11425   2.799   0.382  14.615  0.3169  0.2681  0.1049
  770MPD2    H511426   2.848   0.471  14.619  1.4874 -0.3841  0.4005
  770MPD2    N111427   2.595   0.019  14.861  0.4731  0.1406 -0.1511
  770MPD2    H711428   2.620   4.709  14.776 -0.3686  1.3943 -1.1231
  771MPD2     C11429   3.974   3.310  13.701  0.0544 -0.3495 -0.1499
  771MPD2    C111430   3.838   3.351  13.696  0.1895 -0.1558  0.3219
  771MPD2    C211431   3.767   3.317  13.580  0.2232 -0.1295  0.8375
  771MPD2    C311432   3.828   3.239  13.484 -0.9486 -0.3802  1.0112
  771MPD2    C411433   3.959   3.208  13.493  0.1019 -0.2245 -0.0305
  771MPD2    C511434   4.035   3.245  13.598 -0.1415 -0.0525 -0.0534
  771MPD2     H11435   3.662   3.341  13.570  0.4823  0.7270  0.1238
  771MPD2    H111436   4.010   3.147  13.418 -0.0415 -1.2508  0.7087
  771MPD2    H211437   4.040   3.339  13.782 -1.3306  0.8850  0.5416
  771MPD2    H311438   4.139   3.217  13.595 -0.5337 -1.6195  0.7746
  771MPD2     N11439   3.740   3.191  13.380  0.2416 -0.6214  0.3595
  771MPD2    H511440   3.649   3.236  13.386  1.3101  1.4416  1.2223
  771MPD2    N111441   3.783   3.440  13.790  0.9069  0.8110 -0.2613
  771MPD2    H711442   3.694   3.483  13.768  0.0191 -0.7394  0.3463
  772MPD2     C11443   3.257   3.795  13.755 -0.1364 -0.0436  0.8376
  772MPD2    C111444   3.277   3.726  13.868 -0.0594 -0.1515  0.2843
  772MPD2    C211445   3.172   3.656  13.925 -0.2514 -0.5666  0.0315
  772MPD2    C311446   3.041   3.665  13.869  0.3195 -0.0434  0.2807
  772MPD2    C411447   3.023   3.730  13.745  0.2220  0.2252 -0.5195
  772MPD2    C511448   3.128   3.796  13.696 -0.0930 -0.0539 -0.0141
  772MPD2     H11449   3.196   3.594  14.011  0.5589  1.7038  1.4366
  772MPD2    H111450   2.937   3.731  13.679  1.5098  2.6447 -2.1638
  772MPD2    H211451   3.337   3.844  13.700 -0.5045 -1.9738 -1.4649
  772MPD2    H311452   3.117   3.849  13.602 -2.3035 -2.4555 -1.1212
  772MPD2     N11453   2.932   3.586  13.912 -0.1862 -0.0753  0.1602
  772MPD2    H511454   2.847   3.599  13.859 -0.9496 -0.4577  1.2846
  772MPD2    N111455   3.407   3.733  13.926 -0.0847  0.3501  0.2703
  772MPD2    H711456   3.422   3.678  14.010  0.1567 -0.3034 -0.1918
  773MPD2     C11457   2.854   4.735   0.249 -0.1723 -0.7007 -0.6327
  773MPD2    C111458   2.746   4.651   0.239 -0.1435 -0.0015 -0.2587
  773MPD2    C211459   2.757   4.524   0.299  0.3181 -0.4610 -0.4449
  773MPD2    C311460   2.871   4.492   0.370 -0.4691  0.5433  0.0759
  773MPD2    C411461   2.979   4.580   0.367 -0.0760  0.1872 -0.1794
  773MPD2    C511462   2.967   4.704   0.314  0.4189 -0.3480  0.2720
  773MPD2     H11463   2.674   4.455   0.288  1.6088 -2.2494  1.0500
  773MPD2    H111464   3.069   4.561   0.424 -0.2756  1.3934  0.5465
  773MPD2    H211465   2.849   0.103   0.231  0.6735 -0.8461 -1.7608
  773MPD2    H311466   3.040   0.043   0.330 -0.2184 -0.3030  2.8584
  773MPD2     N11467   2.874   4.359   0.419 -0.5724 -0.1815  0.1274
  773MPD2    H511468   2.784   4.314   0.427 -0.1953 -0.9822 -0.1104
  773MPD2    N111469   2.628   4.687   0.174 -0.3844 -0.3006  0.0168
  773MPD2    H711470   2.554   4.618   0.176  0.8917 -1.6559 -0.3455
  774MPD2     C11471   2.515   3.650  13.142 -0.0736 -0.7378 -0.0218
  774MPD2    C111472   2.385   3.700  13.147 -0.5419  0.5245  0.2042
  774MPD2    C211473   2.374   3.844  13.158 -0.0145  0.5189  0.2532
  774MPD2    C311474   2.488   3.923  13.176 -0.1221  0.4433  0.3553
  774MPD2    C411475   2.613   3.857  13.173 -0.0507 -0.9529  0.7206
  774MPD2    C511476   2.624   3.721  13.160  0.2402 -0.4987  0.5690
  774MPD2     H11477   2.280   3.898  13.161 -0.6777 -0.7336  3.0612
  774MPD2    H111478   2.705   3.913  13.159 -0.2191 -0.1017  2.9678
  774MPD2    H211479   2.520   3.542  13.134 -1.2268 -0.7954  0.0848
  774MPD2    H311480   2.723   3.677  13.170 -0.6152 -2.0104  2.2899
  774MPD2     N11481   2.474   4.063  13.196  0.6798  0.4532  0.1359
  774MPD2    H511482   2.379   4.097  13.207  0.0170 -1.1497 -0.6195
  774MPD2    N111483   2.276   3.611  13.139 -0.5997 -0.6358 -0.7902
  774MPD2    H711484   2.295   3.512  13.152  2.5219  0.0887  0.2119
  775MPD2     C11485   2.968   0.201  15.629  0.1627  0.0749  0.5960
  775MPD2    C111486   3.006   0.305  15.714 -0.0908  0.2560  0.4604
  775MPD2    C211487   3.062   0.422  15.664  0.4408  0.1069  0.0070
  775MPD2    C311488   3.096   0.433  15.529  0.4259  0.1993 -0.1466
  775MPD2    C411489   3.072   0.317  15.448 -0.0411  0.4613 -0.0812
  775MPD2    C511490   3.012   0.202  15.499 -0.1532  0.3679  0.1350
  775MPD2     H11491   3.079   0.503  15.733 -0.0848 -0.2727  0.5828
  775MPD2    H111492   3.131   0.317  15.357  1.3953  1.1509  0.8565
  775MPD2    H211493   2.919   0.110  15.659 -1.1290  0.3697 -0.6302
  775MPD2    H311494   2.993   0.120  15.430  0.1402 -1.0875  1.7720
  775MPD2     N11495   3.145   0.544  15.461  0.0610 -0.6813 -0.0960
  775MPD2    H511496   3.161   0.542  15.361  2.2773 -0.2802  0.2461
  775MPD2    N111497   2.969   0.288  15.853 -0.3797 -0.1365  0.4653
  775MPD2    H711498   2.912   0.211  15.885  0.4974 -0.7588  0.5215
  776MPD2     C11499   1.937   0.857  11.757  0.2374 -0.2369  0.9275
  776MPD2    C111500   2.064   0.900  11.780  0.2989  0.3406  0.5700
  776MPD2    C211501   2.096   1.030  11.740 -0.4783 -0.1304 -0.5669
  776MPD2    C311502   2.009   1.128  11.691  0.4772  0.6715  0.1107
  776MPD2    C411503   1.882   1.082  11.680  0.2027  0.1117  0.0353
  776MPD2    C511504   1.848   0.948  11.705 -0.0832  0.1785  0.0271
  776MPD2     H11505   2.203   1.048  11.732 -0.2587 -0.4521  1.3872
  776MPD2    H111506   1.816   1.146  11.623 -2.9397 -2.6705  0.6015
  776MPD2    H211507   1.904   0.755  11.772 -2.6229  1.0582  3.3548
  776MPD2    H311508   1.746   0.915  11.689  0.1435 -0.4979 -0.0029
  776MPD2     N11509   2.047   1.264  11.660  0.1305  0.7290 -0.4646
  776MPD2    H511510   1.975   1.329  11.629 -0.5675 -0.2353 -0.8624
  776MPD2    N111511   2.158   0.802  11.826  0.3301 -0.0871  0.1409
  776MPD2    H711512   2.122   0.708  11.837 -1.7385  0.8109  1.0218
  777MPD2     C11513   2.909   2.988   0.783  0.9317  0.0880 -0.1032
  777MPD2    C111514   2.790   2.977   0.850  0.0384 -0.3904  1.2748
  777MPD2    C211515   2.693   2.897   0.792  0.1525 -0.6405 -0.2078
  777MPD2    C311516   2.714   2.832   0.673 -0.2836  0.6783  0.3530
  777MPD2    C411517   2.836   2.847   0.611 -0.1422 -0.3601  0.1021
  777MPD2    C511518   2.939   2.921   0.672  0.3433  0.5546 -0.4813
  777MPD2     H11519   2.591   2.884   0.827  0.7397 -5.1855 -0.1584
  777MPD2    H111520   2.852   2.806   0.513  1.1869 -0.1134  0.2136
  777MPD2    H211521   2.980   3.060   0.822  0.9531  0.9418 -1.7140
  777MPD2    H311522   3.038   2.937   0.629 -1.0792  2.8243 -2.9394
  777MPD2     N11523   2.606   2.752   0.622  0.1929  0.0567 -0.3362
  777MPD2    H511524   2.537   2.722   0.690  0.9981  0.6078  0.7260
  777MPD2    N111525   2.777   3.054   0.970  0.1124 -0.1984 -0.0962
  777MPD2    H711526   2.865   3.095   0.999 -0.2195  0.3406  0.1524
  778MPD2     C11527   3.884   3.218  14.997 -0.0924 -0.8955  0.0745
  778MPD2    C111528   3.821   3.124  14.914 -0.2199 -0.3360  0.0538
  778MPD2    C211529   3.826   3.133  14.780 -0.2250  0.3662  0.2438
  778MPD2    C311530   3.892   3.240  14.718 -0.1032 -0.8519  0.2217
  778MPD2    C411531   3.943   3.345  14.803  0.3843 -0.4568 -0.2361
  778MPD2    C511532   3.941   3.330  14.937 -0.3556 -0.0283 -0.6091
  778MPD2     H11533   3.783   3.059  14.713 -1.0088  0.6383  0.4469
  778MPD2    H111534   3.988   3.438  14.769 -0.1378 -0.7775 -1.8432
  778MPD2    H211535   3.881   3.203  15.104 -1.1311  1.4967  0.3680
  778MPD2    H311536   3.990   3.406  14.998 -1.7509  0.5314 -0.1874
  778MPD2     N11537   3.913   3.238  14.573 -0.0481  0.2962 -0.4880
  778MPD2    H511538   3.898   3.152  14.522  0.1622 -0.3457  0.5216
  778MPD2    N111539   3.749   3.012  14.964  0.4729 -0.6775  0.0277
  778MPD2    H711540   3.697   2.958  14.896 -0.4987 -0.1933  0.3896
  779MPD2     C11541   3.338   2.065  14.446 -0.1034  0.7457 -0.0536
  779MPD2    C111542   3.463   2.032  14.402 -0.1116  0.3000  0.2057
  779MPD2    C211543   3.534   2.129  14.334 -0.0372  0.2062 -0.0803
  779MPD2    C311544   3.482   2.257  14.320  0.4736  0.2821 -0.2046
  779MPD2    C411545   3.354   2.291  14.368 -0.0719 -0.4347 -0.2383
  779MPD2    C511546   3.292   2.189  14.433 -0.0218 -0.3102 -0.1296
  779MPD2     H11547   3.630   2.102  14.291 -0.9575 -1.2733 -1.1755
  779MPD2    H111548   3.305   2.387  14.367 -0.8686 -0.8476 -0.7161
  779MPD2    H211549   3.284   2.002  14.516 -0.7375  1.2752 -0.0631
  779MPD2    H311550   3.198   2.209  14.483  0.5716  2.7568 -0.1931
  779MPD2     N11551   3.553   2.349  14.245 -0.1495  0.1190  0.4059
  779MPD2    H511552   3.651   2.330  14.229 -0.0329  1.5958 -0.6073
  779MPD2    N111553   3.523   1.906  14.415 -0.8361  0.0679 -0.5258
  779MPD2    H711554   3.622   1.895  14.396 -0.2068 -0.5464  3.2313
  780MPD2     C11555   3.522   1.867   0.891 -0.3395  0.5028 -0.0233
  780MPD2    C111556   3.386   1.846   0.912  0.3920 -0.0677  0.3519
  780MPD2    C211557   3.290   1.904   0.827 -0.4661 -0.2729 -0.0350
  780MPD2    C311558   3.332   1.989   0.729 -0.1332  0.0152  0.0644
  780MPD2    C411559   3.471   2.017   0.712 -0.1357 -0.1075 -0.7300
  780MPD2    C511560   3.567   1.948   0.790 -0.8754 -0.3563 -0.1223
  780MPD2     H11561   3.183   1.883   0.832  0.0097 -2.7854 -0.3363
  780MPD2    H111562   3.512   2.066   0.624 -0.0468  1.5470  0.2231
  780MPD2    H211563   3.590   1.835   0.969  2.4968  2.5196 -1.6791
  780MPD2    H311564   3.673   1.965   0.772 -0.8201 -2.0372 -1.3901
  780MPD2     N11565   3.240   2.046   0.640  0.2677  0.6715 -0.4512
  780MPD2    H511566   3.145   2.010   0.630  0.9353 -1.1213 -0.2070
  780MPD2    N111567   3.337   1.761   1.019  0.1334  0.1638 -0.1370
  780MPD2    H711568   3.237   1.767   1.035  0.4310  1.9642  1.0244
  781MPD2     C11569   3.871   3.998  12.154  0.4253 -0.1486 -0.2944
  781MPD2    C111570   3.999   4.043  12.185  0.2148  0.0488  0.0463
  781MPD2    C211571   4.069   4.123  12.091 -0.2928 -0.1231 -0.1065
  781MPD2    C311572   4.018   4.169  11.970 -0.1164 -0.0394  0.7410
  781MPD2    C411573   3.898   4.109  11.938  0.4652  0.6506  0.1447
  781MPD2    C511574   3.825   4.030  12.026  0.1415 -0.4736  0.3074
  781MPD2     H11575   4.167   4.156  12.125 -0.5983  0.0979  0.5584
  781MPD2    H111576   3.855   4.129  11.840  0.3965  2.8810  0.6258
  781MPD2    H211577   3.822   3.926  12.218  0.8239 -0.4154 -0.2884
  781MPD2    H311578   3.736   3.981  11.989 -0.6765  0.7738  0.6209
  781MPD2     N11579   4.096   4.236  11.874  0.4626  0.9120 -0.5701
  781MPD2    H511580   4.057   4.242  11.781 -1.1209 -0.4396 -0.0061
  781MPD2    N111581   4.036   4.020  12.320 -0.1930 -0.3359  0.0610
  781MPD2    H711582   3.979   3.953  12.370  0.1411  0.3070  1.3116
  782MPD2     C11583   3.567   0.316  10.118  0.3774  0.0202 -0.4983
  782MPD2    C111584   3.573   0.234  10.227  0.0348 -0.3401  0.4786
  782MPD2    C211585   3.584   0.293  10.352  0.0582 -0.1421  0.5963
  782MPD2    C311586   3.599   0.432  10.371  0.2435  0.9438 -0.1121
  782MPD2    C411587   3.594   0.510  10.258  0.1601  1.0883  0.1231
  782MPD2    C511588   3.570   0.452  10.134  0.0745 -1.0569 -0.0250
  782MPD2     H11589   3.583   0.229  10.439  0.4830  0.7081  1.2332
  782MPD2    H111590   3.621   0.614  10.249 -0.1238  1.2054  0.6256
  782MPD2    H211591   3.557   0.284  10.015 -0.7777  1.2397 -0.7798
  782MPD2    H311592   3.562   0.508  10.041  1.6067  0.1713  0.6000
  782MPD2     N11593   3.611   0.499  10.493  0.3016  0.2789 -0.5028
  782MPD2    H511594   3.602   0.599  10.484  0.5062  0.4570  1.1893
  782MPD2    N111595   3.545   0.101  10.225 -0.1507  0.6360 -0.4010
  782MPD2    H711596   3.540   0.043  10.309 -1.0834  0.2211 -0.7407
  783MPD2     C11597   2.625   4.728  10.376 -0.9504  0.6532  1.0413
  783MPD2    C111598   2.709   0.016  10.482 -0.4248 -0.6175 -0.6360
  783MPD2    C211599   2.837   4.723  10.470 -0.0650 -0.0319  0.0986
  783MPD2    C311600   2.891   4.660  10.358  0.2656  0.8729 -0.5630
  783MPD2    C411601   2.803   4.629  10.250 -0.0420  0.4419  0.0226
  783MPD2    C511602   2.668   4.660  10.269  0.2361 -0.9642 -0.3354
  783MPD2     H11603   2.907   0.004  10.550  1.2602 -3.4519 -0.2123
  783MPD2    H111604   2.838   4.589  10.155 -2.5220  0.9030 -1.0763
  783MPD2    H211605   2.517   4.737  10.368 -0.9176  2.3916  2.3118
  783MPD2    H311606   2.596   4.640  10.190  0.5509  2.1357 -1.3783
  783MPD2     N11607   3.029   4.643  10.352  0.2590 -0.3253 -0.0797
  783MPD2    H511608   3.086   4.677  10.429  2.5285 -1.8105 -1.0750
  783MPD2    N111609   2.645   0.080  10.589  0.4495  0.0847 -0.2103
  783MPD2    H711610   2.544   0.091  10.590  0.4628  0.2163 -0.4516
  784MPD2     C11611   0.078   0.249   0.468  0.2166  0.0760 -0.4903
  784MPD2    C111612   0.129   0.349   0.394  0.0996  0.0381 -0.1849
  784MPD2    C211613   0.075   0.477   0.412  0.4074  0.3954  0.3074
  784MPD2    C311614   4.726   0.508   0.518  0.3298 -0.3578  0.2629
  784MPD2    C411615   4.692   0.409   0.604  0.5936  0.5775  0.4135
  784MPD2    C511616   4.734   0.285   0.570 -0.9147  0.1264  0.8726
  784MPD2     H11617   0.106   0.560   0.350 -0.4882  0.6299  0.1768
  784MPD2    H111618   4.622   0.417   0.686 -0.2782 -0.8009 -0.2061
  784MPD2    H211619   0.097   0.143   0.458 -0.5107  0.0609 -1.7035
  784MPD2    H311620   4.697   0.201   0.628 -1.0513  0.9346  1.9731
  784MPD2     N11621   4.693   0.640   0.545  0.6873  0.4989 -0.6861
  784MPD2    H511622   4.726   0.694   0.465  0.1870  0.8328 -0.6647
  784MPD2    N111623   0.230   0.327   0.292 -0.3893  0.0448 -0.1105
  784MPD2    H711624   0.280   0.407   0.255 -1.1902  1.0194  0.9463
  785MPD2     C11625   0.864   3.258  10.489 -0.1800  0.0819 -0.0953
  785MPD2    C111626   0.846   3.359  10.577 -0.0334 -0.0889 -0.1877
  785MPD2    C211627   0.711   3.386  10.613 -0.4222 -0.0514 -1.1592
  785MPD2    C311628   0.609   3.306  10.571  0.2633  0.0962 -0.1970
  785MPD2    C411629   0.630   3.198  10.487  0.4564  0.2360  0.2585
  785MPD2    C511630   0.761   3.168  10.452  0.0211 -0.3252 -0.2980
  785MPD2     H11631   0.678   3.467  10.677  1.4108  0.4394 -0.8586
  785MPD2    H111632   0.549   3.142  10.440  3.2899 -2.8307 -1.0137
  785MPD2    H211633   0.960   3.235  10.445  0.0106  0.9343 -0.1186
  785MPD2    H311634   0.772   3.084  10.383  0.1276 -1.0581  0.6128
  785MPD2     N11635   0.483   3.343  10.616  0.3585 -0.1502 -0.2718
  785MPD2    H511636   0.481   3.413  10.689 -1.1351 -1.5253  0.9980
  785MPD2    N111637   0.952   3.435  10.632 -0.4464 -0.6478  0.1602
  785MPD2    H711638   1.030   3.450  10.569  0.0233  0.5758  1.0247
  786MPD2     C11639   3.767   1.215  15.013 -0.6658 -0.3112  0.8834
  786MPD2    C111640   3.902   1.238  14.998 -0.8496 -0.3160  0.6512
  786MPD2    C211641   3.982   1.254  15.114 -0.7779 -0.7041 -0.3062
  786MPD2    C311642   3.925   1.252  15.237  0.0817 -0.3530  0.5608
  786MPD2    C411643   3.790   1.233  15.247  0.1402 -1.2938 -0.0215
  786MPD2    C511644   3.712   1.217  15.142 -0.2426 -0.1893 -0.1130
  786MPD2     H11645   4.090   1.253  15.108 -0.8875 -2.7196 -1.8483
  786MPD2    H111646   3.749   1.208  15.345 -2.2815 -1.1233 -0.9995
  786MPD2    H211647   3.692   1.205  14.935  1.1002  1.6563 -1.0983
  786MPD2    H311648   3.608   1.192  15.160  0.1022 -1.1647  0.4966
  786MPD2     N11649   4.008   1.294  15.344  0.7278 -0.4536  0.4131
  786MPD2    H511650   4.108   1.290  15.331  0.9918 -0.4897  2.6225
  786MPD2    N111651   3.959   1.233  14.872  0.3789 -0.7805  0.4989
  786MPD2    H711652   4.060   1.241  14.866  0.3241 -1.7286 -1.8186
  787MPD2     C11653   4.414   0.788  14.850 -0.4612  0.0803 -0.0802
  787MPD2    C111654   4.368   0.805  14.721 -0.4641 -0.8809  0.2734
  787MPD2    C211655   4.408   0.725  14.625  1.4126  0.2611 -0.9385
  787MPD2    C311656   4.494   0.616  14.642 -0.0393 -0.0352  0.0386
  787MPD2    C411657   4.537   0.594  14.774  0.0042  0.3071 -0.0067
  787MPD2    C511658   4.495   0.676  14.874 -0.0553  0.4235 -0.1780
  787MPD2     H11659   4.385   0.735  14.520  1.4524 -1.2616 -1.0832
  787MPD2    H111660   4.612   0.519  14.798  1.3755  1.1480 -1.6594
  787MPD2    H211661   4.400   0.849  14.939  0.9170  1.0371 -0.5209
  787MPD2    H311662   4.535   0.649  14.971  0.9125 -0.4169 -0.8145
  787MPD2     N11663   4.557   0.564  14.525 -0.1772 -0.9045 -0.0791
  787MPD2    H511664   4.526   0.604  14.437 -1.0970 -1.9305 -0.2106
  787MPD2    N111665   4.277   0.908  14.693 -0.3045  0.3021  0.4151
  787MPD2    H711666   4.243   0.966  14.770 -1.4811  0.0880  0.0617
  788MPD2     C11667   1.412   3.995   0.617 -0.2040  0.4455 -0.2749
  788MPD2    C111668   1.405   3.984   0.481  0.5593 -1.1010  0.6157
  788MPD2    C211669   1.388   4.110   0.426 -0.2561  0.2592  0.1324
  788MPD2    C311670   1.408   4.228   0.492  1.0697 -0.2181 -0.4172
  788MPD2    C411671   1.451   4.229   0.626 -0.2686  0.5276  0.1205
  788MPD2    C511672   1.436   4.110   0.688 -0.5358 -0.2119 -0.6253
  788MPD2     H11673   1.389   4.110   0.317  1.2435  0.7770  0.1371
  788MPD2    H111674   1.469   4.321   0.680  1.0525  1.4073 -1.8259
  788MPD2    H211675   1.421   3.903   0.673  0.1497  1.7980  1.8558
  788MPD2    H311676   1.441   4.115   0.797 -0.5881 -0.6964 -0.6019
  788MPD2     N11677   1.393   4.347   0.425  0.0355 -0.1592 -0.3172
  788MPD2    H511678   1.417   4.435   0.469 -1.7818 -1.2941  2.9220
  788MPD2    N111679   1.415   3.865   0.412 -0.3762  0.3871 -0.2339
  788MPD2    H711680   1.409   3.871   0.311  0.7453 -1.2296 -0.4014
  789MPD2     C11681   1.465   4.139  15.898 -0.0741  0.1893 -0.4363
  789MPD2    C111682   1.406   4.062  15.998  0.1925 -0.3829  0.0845
  789MPD2    C211683   1.320   4.120  16.089 -0.2600 -0.7347  0.3779
  789MPD2    C311684   1.293   4.255  16.089  0.3386 -0.2613 -0.6893
  789MPD2    C411685   1.343   4.325  15.983 -0.0344  0.0209 -0.4753
  789MPD2    C511686   1.436   4.274  15.894 -0.7127 -0.3760  0.0691
  789MPD2     H11687   1.288   4.054  16.169 -0.6964  0.2930  1.0466
  789MPD2    H111688   1.303   4.426  15.980  0.0615 -0.0032 -2.4954
  789MPD2    H211689   1.534   4.081  15.837 -1.3554 -1.6552 -0.1497
  789MPD2    H311690   1.484   4.343  15.826 -0.5633 -0.6760 -0.1291
  789MPD2     N11691   1.210   4.313  16.194  0.0944 -0.4886 -0.1851
  789MPD2    H511692   1.188   4.411  16.182 -3.8797 -1.4910 -1.2178
  789MPD2    N111693   1.441   3.929  16.017  0.3242  0.7918  0.2372
  789MPD2    H711694   1.393   3.890  16.098  2.0061 -0.0684  0.8052
  790MPD2     C11695   2.549   1.025  13.613  0.2343 -0.4164 -0.0311
  790MPD2    C111696   2.568   0.907  13.538  0.9560 -0.0591 -0.1018
  790MPD2    C211697   2.468   0.873  13.456  0.2963  0.7609  0.0604
  790MPD2    C311698   2.349   0.953  13.445 -0.3789  0.6281 -0.2868
  790MPD2    C411699   2.336   1.068  13.516  0.2346  0.6260  0.0668
  790MPD2    C511700   2.436   1.107  13.605 -0.4644 -0.3145  0.3140
  790MPD2     H11701   2.482   0.782  13.399 -1.9911  1.3620 -1.4645
  790MPD2    H111702   2.247   1.130  13.513  1.5080  2.4056 -1.1498
  790MPD2    H211703   2.622   1.056  13.687 -2.1009 -0.1532  2.1547
  790MPD2    H311704   2.429   1.197  13.664  2.2963  0.3016 -0.3126
  790MPD2     N11705   2.268   0.919  13.336  0.4532 -0.0485 -0.0969
  790MPD2    H511706   2.294   0.834  13.287  2.5141  0.1244  0.6827
  790MPD2    N111707   2.696   0.845  13.542 -0.3351  0.4178  0.7273
  790MPD2    H711708   2.769   0.892  13.596  0.1643  1.4153 -0.8172
  791MPD2     C11709   1.651   1.282  12.926 -0.5256  0.2050  0.1397
  791MPD2    C111710   1.677   1.155  12.894 -0.3798  0.9995 -0.0061
  791MPD2    C211711   1.577   1.091  12.818  0.5399 -1.0480 -0.2315
  791MPD2    C311712   1.464   1.157  12.773 -0.3119 -0.2314  0.4091
  791MPD2    C411713   1.447   1.290  12.802  0.1040 -0.4179  0.3906
  791MPD2    C511714   1.540   1.354  12.876 -1.0908 -0.0674  0.4149
  791MPD2     H11715   1.589   0.984  12.807 -0.4754 -1.2421  0.5198
  791MPD2    H111716   1.373   1.351  12.753  0.4907 -0.9436 -0.8622
  791MPD2    H211717   1.722   1.335  12.989 -1.4623  2.8208 -1.0191
  791MPD2    H311718   1.532   1.459  12.899 -2.3577  0.6121 -3.1623
  791MPD2     N11719   1.373   1.078  12.700 -0.2605  0.5865  0.0879
  791MPD2    H511720   1.395   0.980  12.687  1.0160  1.2318 -2.6002
  791MPD2    N111721   1.785   1.088  12.965  0.2794  0.4738 -0.3142
  791MPD2    H711722   1.836   1.142  13.034  0.7113 -0.5991  0.2033
  792MPD2     C11723   2.587   1.172  11.364  0.3281  0.3446  0.2578
  792MPD2    C111724   2.513   1.269  11.299  0.4700 -0.5704 -0.6583
  792MPD2    C211725   2.381   1.269  11.310  0.0273  0.8074  0.6037
  792MPD2    C311726   2.314   1.166  11.372 -0.3891 -0.6103 -0.2403
  792MPD2    C411727   2.388   1.065  11.428 -0.0273  0.0258 -0.3710
  792MPD2    C511728   2.526   1.067  11.425 -0.0033  0.0460  0.4119
  792MPD2     H11729   2.327   1.359  11.279 -1.3035 -0.7759 -1.6910
  792MPD2    H111730   2.343   0.980  11.476  1.4095  0.0998  1.1335
  792MPD2    H211731   2.695   1.166  11.357  0.4649  1.7406  1.1346
  792MPD2    H311732   2.580   0.980  11.460  2.9387  2.0237  0.8202
  792MPD2     N11733   2.174   1.147  11.366 -0.3001  0.1440 -0.9815
  792MPD2    H511734   2.136   1.055  11.385  0.1389 -0.2329 -1.9097
  792MPD2    N111735   2.585   1.373  11.234 -0.0227  0.2767  0.7563
  792MPD2    H711736   2.686   1.368  11.229  0.0185 -0.1599  1.8702
  793MPD2     C11737   1.824   1.048  10.500 -0.4471 -0.0160  0.5140
  793MPD2    C111738   1.862   0.952  10.588 -0.1173 -0.3326 -0.6904
  793MPD2    C211739   1.853   0.977  10.724 -0.2105  0.8112  0.4847
  793MPD2    C311740   1.810   1.104  10.765 -0.0946 -0.0782 -0.5940
  793MPD2    C411741   1.768   1.205  10.679  0.2551 -0.0418 -0.2504
  793MPD2    C511742   1.777   1.169  10.550 -0.0151 -0.5767 -0.0287
  793MPD2     H11743   1.863   0.888  10.785 -1.2213  0.8716  0.7279
  793MPD2    H111744   1.737   1.305  10.706 -1.4305 -0.7832  0.5663
  793MPD2    H211745   1.842   1.042  10.394  1.2257  2.2699  0.6736
  793MPD2    H311746   1.761   1.250  10.478 -1.3671  0.9568  1.9997
  793MPD2     N11747   1.806   1.125  10.905 -0.5128  1.0763  0.1829
  793MPD2    H511748   1.832   1.044  10.961  0.5084  0.7297 -0.7926
  793MPD2    N111749   1.918   0.822  10.550 -0.1486  0.1592 -0.0369
  793MPD2    H711750   1.928   0.756  10.627  3.2296  1.9828  1.0725
  794MPD2     C11751   2.370   0.651  17.516  0.2669 -0.8111 -0.2568
  794MPD2    C111752   2.318   0.547  17.450 -0.7226  0.1387  0.2723
  794MPD2    C211753   2.279   0.572  17.324  1.0638  0.8591 -0.0566
  794MPD2    C311754   2.289   0.696  17.263 -0.5085  0.5438 -0.3579
  794MPD2    C411755   2.343   0.797  17.331  0.6197 -0.3482 -0.1254
  794MPD2    C511756   2.387   0.772  17.458  0.1060 -0.3494 -0.0769
  794MPD2     H11757   2.238   0.490  17.267  0.1550  1.5273 -0.3800
  794MPD2    H111758   2.347   0.897  17.289 -2.8179  1.5222  3.9918
  794MPD2    H211759   2.397   0.658  17.621 -4.0276 -0.5298  0.8336
  794MPD2    H311760   2.415   0.855  17.522 -2.4847  0.3617  0.1001
  794MPD2     N11761   2.245   0.733  17.138  0.0654 -0.1824 -0.5549
  794MPD2    H511762   2.273   0.825  17.105  2.8834 -0.4849  0.9826
  794MPD2    N111763   2.310   0.418  17.505  0.3132 -0.6516 -0.5722
  794MPD2    H711764   2.279   0.340  17.448 -1.4605 -1.9844  2.1641
  795MPD2     C11765   4.703   2.560  13.798  0.3144 -0.7862  0.0589
  795MPD2    C111766   4.643   2.447  13.753  0.3373  0.0023 -0.2636
  795MPD2    C211767   4.730   2.339  13.733  0.4867  0.1408  0.2370
  795MPD2    C311768   0.132   2.341  13.761 -0.2832  0.7037 -0.4846
  795MPD2    C411769   0.178   2.444  13.839  0.4222  0.7268 -0.2971
  795MPD2    C511770   0.095   2.554  13.851 -0.6846  0.6386  0.7095
  795MPD2     H11771   4.698   2.241  13.698  0.2423 -0.0829  1.0947
  795MPD2    H111772   0.276   2.458  13.881 -0.1925 -0.0016  1.3806
  795MPD2    H211773   4.656   2.656  13.812  0.2786 -1.1217  2.3000
  795MPD2    H311774   0.126   2.641  13.908 -0.3754 -0.4213  2.1394
  795MPD2     N11775   0.204   2.217  13.748  0.0353  0.2487 -0.0243
  795MPD2    H511776   0.151   2.133  13.728  0.8572 -0.4883  0.9219
  795MPD2    N111777   4.501   2.441  13.719  0.2472  0.2501  0.2004
  795MPD2    H711778   4.467   2.360  13.668 -0.1185 -0.2306  1.2018
  796MPD2     C11779   4.374   3.587  15.589  0.3755  0.1016  0.5315
  796MPD2    C111780   4.382   3.634  15.715 -0.4204  0.6588  0.3268
  796MPD2    C211781   4.319   3.750  15.747 -0.0205 -0.3840  0.1805
  796MPD2    C311782   4.250   3.822  15.657 -0.3931 -0.0149 -0.3037
  796MPD2    C411783   4.228   3.769  15.532  0.1518 -0.9915  0.0870
  796MPD2    C511784   4.292   3.652  15.493  0.2192 -0.3392  0.3961
  796MPD2     H11785   4.321   3.777  15.852  0.9545 -2.0451  0.5824
  796MPD2    H111786   4.162   3.816  15.460  1.0619  3.0903  1.9053
  796MPD2    H211787   4.418   3.490  15.571  1.2838  0.7439 -0.7989
  796MPD2    H311788   4.280   3.614  15.392  0.5191  2.2659 -0.6254
  796MPD2     N11789   4.183   3.936  15.692  0.2257  0.1386 -0.9452
  796MPD2    H511790   4.115   3.976  15.627 -1.5508  3.5072  3.0129
  796MPD2    N111791   4.466   3.564  15.806 -0.1110 -0.3978 -0.2407
  796MPD2    H711792   4.517   3.494  15.754 -1.4141 -1.7932  0.3639
  797MPD2     C11793   0.640   3.021  16.723  0.1200 -0.2730  0.1718
  797MPD2    C111794   0.705   3.093  16.825 -0.1410  0.2844  0.3618
  797MPD2    C211795   0.626   3.180  16.900 -0.3461 -0.6704  0.0565
  797MPD2    C311796   0.499   3.210  16.859  1.0585 -1.0472 -0.5934
  797MPD2    C411797   0.434   3.134  16.763  0.8223  0.1998 -0.5202
  797MPD2    C511798   0.504   3.035  16.697 -0.1931 -0.1431  0.0679
  797MPD2     H11799   0.683   3.251  16.960 -1.4505  1.4203 -1.3664
  797MPD2    H111800   0.331   3.160  16.742  0.2732 -1.6296 -0.1110
  797MPD2    H211801   0.700   2.946  16.673  0.7586  1.6824 -1.9760
  797MPD2    H311802   0.461   2.968  16.624  0.7951 -0.2576 -0.4090
  797MPD2     N11803   0.419   3.314  16.924 -0.2812 -0.0764  1.1986
  797MPD2    H511804   0.337   3.354  16.880 -1.5495 -1.6147  2.1759
  797MPD2    N111805   0.846   3.098  16.843 -0.0151  0.0264 -0.0163
  797MPD2    H711806   0.872   3.148  16.928 -0.2981 -2.5228  1.5512
  798MPD2     C11807   0.876   3.772  17.207  0.6095  0.2142  0.0162
  798MPD2    C111808   0.799   3.672  17.147 -0.0639 -0.0842  0.0496
  798MPD2    C211809   0.861   3.560  17.088 -0.6515 -0.1072  0.0121
  798MPD2    C311810   1.000   3.544  17.087  0.0252 -0.6167  0.2738
  798MPD2    C411811   1.077   3.639  17.148  0.3391  0.3437  0.3551
  798MPD2    C511812   1.014   3.746  17.211 -0.1171 -0.6586  0.0401
  798MPD2     H11813   0.796   3.494  17.032 -0.3108 -0.2019 -0.2775
  798MPD2    H111814   1.183   3.616  17.148  0.0347 -1.0689  0.8570
  798MPD2    H211815   0.834   3.855  17.263  1.1609 -0.3128  1.2167
  798MPD2    H311816   1.072   3.802  17.283 -0.6060  0.2545 -0.2821
  798MPD2     N11817   1.046   3.428  17.022  0.2530  0.0661 -0.1006
  798MPD2    H511818   0.995   3.344  16.998 -1.2448  0.8002  0.5087
  798MPD2    N111819   0.658   3.670  17.143 -0.4970  0.4566 -0.8900
  798MPD2    H711820   0.614   3.591  17.096  1.4151 -1.3548  0.3734
  799MPD2     C11821   4.526   0.029  14.807  0.0274  0.2797  0.2509
  799MPD2    C111822   4.448   4.704  14.710  0.0553  0.0630 -0.4053
  799MPD2    C211823   4.358   0.039  14.634  0.3759  0.3113 -0.3889
  799MPD2    C311824   4.351   0.178  14.653  0.3696  0.4363  0.4933
  799MPD2    C411825   4.440   0.237  14.731  0.4557 -0.0560  0.1335
  799MPD2    C511826   4.526   0.169  14.813  0.0611  0.4840  0.1689
  799MPD2     H11827   4.288   4.723  14.572 -0.0162 -1.3503  1.5462
  799MPD2    H111828   4.437   0.345  14.739 -0.3275  0.0375 -1.5121
  799MPD2    H211829   4.600   4.719  14.869 -0.4494 -0.8225 -0.0482
  799MPD2    H311830   4.581   0.234  14.880  1.9956 -0.1212 -0.8325
  799MPD2     N11831   4.257   0.264  14.584 -0.2541 -1.5395 -0.3176
  799MPD2    H511832   4.271   0.361  14.611 -2.3054 -1.5631  0.8427
  799MPD2    N111833   4.463   4.571  14.674 -0.4981  0.7327 -0.5368
  799MPD2    H711834   4.381   4.531  14.628 -2.2313  2.0297  1.4107
  800MPD2     C11835   4.364   1.531  14.365  0.8580  0.0892  0.2991
  800MPD2    C111836   4.473   1.457  14.379 -0.3844  1.0785  0.8093
  800MPD2    C211837   4.483   1.340  14.313 -0.5123 -0.2330  0.0302
  800MPD2    C311838   4.391   1.304  14.222  0.0649 -0.2902 -0.7326
  800MPD2    C411839   4.280   1.377  14.207 -0.5612  0.8560 -0.2753
  800MPD2    C511840   4.264   1.492  14.278  0.0342 -0.0607  0.6410
  800MPD2     H11841   4.576   1.284  14.316  0.6496  1.5367 -2.7740
  800MPD2    H111842   4.205   1.346  14.136 -0.3198 -1.9413  0.6786
  800MPD2    H211843   4.361   1.630  14.411 -1.2717 -0.4436  1.3289
  800MPD2    H311844   4.177   1.552  14.253  0.4699  1.8212  3.7666
  800MPD2     N11845   4.416   1.202  14.128  0.4633 -0.0830 -0.1463
  800MPD2    H511846   4.505   1.155  14.146 -0.4033 -1.3052  0.9652
  800MPD2    N111847   4.589   1.522  14.434 -0.0722 -0.1732 -0.0584
  800MPD2    H711848   4.585   1.623  14.438  1.6115 -0.1512  1.1861
  801MPD2     C11849   0.141   2.112  14.135 -0.0558  0.0483 -0.7269
  801MPD2    C111850   0.070   2.051  14.230 -0.3781 -0.0312 -0.4920
  801MPD2    C211851   4.718   2.119  14.309  0.2408 -0.1718  0.2548
  801MPD2    C311852   4.710   2.258  14.306  0.4735 -0.5539 -0.0885
  801MPD2    C411853   0.059   2.324  14.218  0.2393  0.3275  0.1506
  801MPD2    C511854   0.136   2.249  14.128 -0.4403 -0.0348 -0.1258
  801MPD2     H11855   4.651   2.064  14.373  0.1857 -1.4159 -0.8768
  801MPD2    H111856   0.060   2.432  14.213 -1.9644  0.4594  2.7079
  801MPD2    H211857   0.213   2.066  14.069 -0.2622 -1.3714  0.0509
  801MPD2    H311858   0.199   2.290  14.050 -2.7262  1.0902 -1.4056
  801MPD2     N11859   4.630   2.342  14.389 -0.3776  0.4661 -0.4859
  801MPD2    H511860   4.650   2.441  14.389  2.3116 -0.1033  4.5342
  801MPD2    N111861   0.079   1.911  14.250 -0.4190 -0.2336  0.3850
  801MPD2    H711862   0.003   1.874  14.307  0.5980 -2.3481  0.3504
  802MPD2     C11863   4.396   2.761   0.251  0.1171  0.1124  0.2323
  802MPD2    C111864   4.271   2.712   0.243 -0.4819  0.3112 -0.1570
  802MPD2    C211865   4.254   2.589   0.178 -0.3708 -0.1588 -0.3212
  802MPD2    C311866   4.370   2.539   0.115 -0.4744  0.2506  0.0373
  802MPD2    C411867   4.493   2.597   0.128 -1.2119  0.2602 -0.0349
  802MPD2    C511868   4.511   2.708   0.205  0.4375  0.6140  0.1490
  802MPD2     H11869   4.161   2.535   0.179  0.1918 -1.1115  0.2833
  802MPD2    H111870   4.588   2.554   0.098 -0.8956  2.1756 -1.7550
  802MPD2    H211871   4.424   2.854   0.300  1.6067  0.3159 -1.0006
  802MPD2    H311872   4.612   2.744   0.224  0.6646  0.0243  0.0484
  802MPD2     N11873   4.350   2.427   0.026  0.4701  0.0027 -0.3455
  802MPD2    H511874   4.256   2.390   0.022  0.7021 -0.5956 -0.1405
  802MPD2    N111875   4.161   2.780   0.299  0.6386  0.0166 -0.4287
  802MPD2    H711876   4.076   2.725   0.304  0.6239  0.0220 -0.6174
  803MPD2     C11877   4.611   0.976  12.421  0.2514 -0.3345  0.5793
  803MPD2    C111878   4.718   0.891  12.411 -0.3261 -0.0175 -0.2545
  803MPD2    C211879   0.017   0.810  12.514 -0.4394 -0.1389 -0.5122
  803MPD2    C311880   4.690   0.817  12.635 -0.7519  0.3272 -0.6867
  803MPD2    C411881   4.570   0.886  12.629  0.8893 -0.3245 -0.0372
  803MPD2    C511882   4.531   0.966  12.526 -0.2625  0.2166 -0.0622
  803MPD2     H11883   0.107   0.751  12.498 -0.1864  0.0502  0.2235
  803MPD2    H111884   4.501   0.887  12.712 -0.2338 -2.0402 -0.9439
  803MPD2    H211885   4.578   1.046  12.344  0.6366  1.3755  1.9820
  803MPD2    H311886   4.445   1.032  12.529 -0.8648 -0.5297 -0.7587
  803MPD2     N11887   4.737   0.754  12.752  0.4995 -0.6356 -0.0878
  803MPD2    H511888   4.677   0.759  12.834  4.1283  1.2820  2.4668
  803MPD2    N111889   0.059   0.900  12.298 -0.2445  0.4761 -0.4602
  803MPD2    H711890   0.152   0.858  12.301 -0.1565  0.6701 -0.4593
  804MPD2     C11891   0.177   2.433  17.158 -0.1245  0.0671  0.2581
  804MPD2    C111892   0.255   2.327  17.206  0.2172  0.1437 -0.0015
  804MPD2    C211893   0.372   2.357  17.274 -0.3089 -0.9811  0.0404
  804MPD2    C311894   0.401   2.487  17.309 -0.7504  0.0703  0.2358
  804MPD2    C411895   0.318   2.586  17.263  0.1198 -0.0334 -0.3780
  804MPD2    C511896   0.208   2.559  17.186 -0.6216 -0.3176 -0.3378
  804MPD2     H11897   0.444   2.278  17.292  0.5108  0.0424  1.2312
  804MPD2    H111898   0.331   2.690  17.289  1.0301 -0.0688 -0.6988
  804MPD2    H211899   0.083   2.423  17.105 -0.5159 -0.3376  1.0179
  804MPD2    H311900   0.142   2.642  17.161 -1.0982 -0.5342  0.2179
  804MPD2     N11901   0.520   2.510  17.384  0.0621 -0.1596  0.1347
  804MPD2    H511902   0.566   2.424  17.413 -2.2260 -2.1532 -2.0939
  804MPD2    N111903   0.219   2.193  17.185 -0.0497 -0.0457 -0.2501
  804MPD2    H711904   0.249   2.129  17.257  0.7971  0.4523 -0.1560
  805MPD2     C11905   3.921   4.551  15.392 -0.8760  0.6334 -0.1747
  805MPD2    C111906   3.848   4.637  15.473 -0.1558  0.3368  0.5991
  805MPD2    C211907   3.920   4.723  15.560  0.2513 -0.8006 -0.5907
  805MPD2    C311908   4.056   4.716  15.571 -0.7884 -0.3724  0.1660
  805MPD2    C411909   4.130   4.631  15.489  0.8757  0.2663  0.8350
  805MPD2    C511910   4.056   4.558  15.398  0.1324  0.7930  0.2780
  805MPD2     H11911   3.857   0.055  15.611 -0.3318 -2.2927  0.7838
  805MPD2    H111912   4.238   4.627  15.490  0.8132 -2.1418 -1.5206
  805MPD2    H211913   3.873   4.482  15.323  0.3192 -0.0915 -0.2764
  805MPD2    H311914   4.112   4.485  15.342 -0.4417 -1.5796  2.7543
  805MPD2     N11915   4.110   0.065  15.667  0.8081  0.0694  0.3654
  805MPD2    H511916   4.048   0.130  15.714 -4.7717 -2.5875 -3.2552
  805MPD2    N111917   3.709   4.612  15.492 -0.4419  0.0558  0.4538
  805MPD2    H711918   3.671   4.662  15.572  1.8218  1.0539  0.9180
  806MPD2     C11919   4.545   4.509   0.805  0.2815 -1.2064 -0.6391
  806MPD2    C111920   4.649   4.577   0.748 -0.0552 -0.0210  0.5618
  806MPD2    C211921   4.659   4.568   0.609  0.2457 -0.4064  0.6090
  806MPD2    C311922   4.573   4.491   0.538  0.1338 -0.6252  0.2071
  806MPD2    C411923   4.476   4.418   0.604 -0.1934 -0.8449 -0.2760
  806MPD2    C511924   4.464   4.428   0.735  0.0018  0.0843  0.2241
  806MPD2     H11925   4.735   4.632   0.564  0.9382  0.0661  2.4398
  806MPD2    H111926   4.402   4.363   0.547 -2.5607  0.8536  1.1342
  806MPD2    H211927   4.530   4.507   0.912  0.0822 -1.5860 -0.6753
  806MPD2    H311928   4.387   4.374   0.789 -0.6045 -1.4899 -2.2015
  806MPD2     N11929   4.595   4.477   0.400 -0.1032 -0.6781  0.2544
  806MPD2    H511930   4.664   4.543   0.364  0.3472 -0.5956  1.2692
  806MPD2    N111931   4.730   4.659   0.828 -0.2379 -0.4191 -0.3835
  806MPD2    H711932   4.699   4.680   0.922 -0.6157  1.1123 -0.8465
  807MPD2     C11933   4.707   4.544   1.470  0.2016  0.0851  0.5973
  807MPD2    C111934   0.054   4.491   1.373  0.6932 -0.0128 -0.5106
  807MPD2    C211935   0.069   4.350   1.368 -0.2323 -0.4413  0.6786
  807MPD2    C311936   4.734   4.267   1.447 -0.5565 -0.2185  0.4895
  807MPD2    C411937   4.651   4.324   1.545 -0.2522 -0.0428  0.2020
  807MPD2    C511938   4.640   4.460   1.557  0.1789 -0.0131  0.9936
  807MPD2     H11939   0.145   4.318   1.297  0.5419 -1.1451  1.8204
  807MPD2    H111940   4.596   4.264   1.617  0.6332  1.5300  2.1996
  807MPD2    H211941   4.688   4.650   1.477  0.0665  0.0334  1.0380
  807MPD2    H311942   4.582   4.493   1.643 -1.2295  2.3472 -0.8579
  807MPD2     N11943   0.018   4.128   1.427  0.2554 -0.0737  0.0143
  807MPD2    H511944   0.075   4.109   1.345 -0.4229  1.6009 -0.8300
  807MPD2    N111945   0.124   4.568   1.270 -0.2339  0.0318  0.3305
  807MPD2    H711946   0.168   4.509   1.200 -0.2117  0.1639  0.2339
  808MPD2     C11947   4.579   1.607   9.585  0.1545  0.0784  0.6776
  808MPD2    C111948   4.563   1.630   9.719  0.1618 -0.3959 -0.0161
  808MPD2    C211949   4.632   1.738   9.775 -0.0478 -0.4051  0.3434
  808MPD2    C311950   4.687   1.837   9.695 -0.8140 -0.5024  0.1813
  808MPD2    C411951   4.702   1.802   9.561  0.3951 -0.2611 -0.0411
  808MPD2    C511952   4.653   1.689   9.502 -0.3172 -0.2543 -0.4608
  808MPD2     H11953   4.634   1.755   9.882 -1.4625 -0.3526  0.3656
  808MPD2    H111954   0.015   1.872   9.496 -0.3972  1.4569  1.1842
  808MPD2    H211955   4.519   1.531   9.538  1.5380 -0.5914  0.0151
  808MPD2    H311956   4.669   1.661   9.398 -0.4644  1.4705 -0.9556
  808MPD2     N11957   0.002   1.959   9.740  0.1681  0.1145 -0.4706
  808MPD2    H511958   0.019   2.024   9.664  0.3052  2.3719  1.5000
  808MPD2    N111959   4.491   1.543   9.798 -0.2541 -0.4058 -0.0369
  808MPD2    H711960   4.506   1.561   9.897  0.3008 -2.1183  0.1888
  809MPD2     C11961   0.810   2.518   9.649  0.4881  0.1839 -0.7349
  809MPD2    C111962   0.758   2.392   9.623  0.1544  0.1620  0.5767
  809MPD2    C211963   0.625   2.357   9.642  0.0345  0.4179  0.3119
  809MPD2    C311964   0.550   2.451   9.714  0.3038 -0.1087  0.9072
  809MPD2    C411965   0.606   2.576   9.744 -0.5657 -0.5473  0.1022
  809MPD2    C511966   0.733   2.616   9.716  0.3164  0.0648  1.2472
  809MPD2     H11967   0.579   2.263   9.615 -0.1582  0.0572  1.8730
  809MPD2    H111968   0.548   2.655   9.790 -0.5188 -1.1903  1.2466
  809MPD2    H211969   0.916   2.539   9.641  0.6298 -0.3360 -0.2423
  809MPD2    H311970   0.771   2.708   9.759  0.5341 -0.5620  2.3809
  809MPD2     N11971   0.420   2.419   9.759 -0.0262  0.0002 -0.4173
  809MPD2    H511972   0.384   2.499   9.810 -3.5304 -1.6179 -0.3239
  809MPD2    N111973   0.844   2.295   9.565 -0.6585  0.2728  0.7201
  809MPD2    H711974   0.943   2.309   9.580  0.1761 -3.8171 -0.8571
  810MPD2     C11975   4.562   0.924  10.252 -0.0265  0.0590  0.1917
  810MPD2    C111976   4.487   1.020  10.317  0.2373 -0.4977  0.0457
  810MPD2    C211977   4.544   1.139  10.352 -0.2368  0.2662  0.0496
  810MPD2    C311978   4.679   1.161  10.333  0.0875 -0.1668  0.4570
  810MPD2    C411979   0.008   1.073  10.255 -0.1089  0.6189 -0.4460
  810MPD2    C511980   4.690   0.954  10.213  0.3376  0.5305 -0.1263
  810MPD2     H11981   4.483   1.216  10.398 -1.9235 -1.0207 -0.0395
  810MPD2    H111982   0.106   1.096  10.215  0.1956 -0.6518 -0.4478
  810MPD2    H211983   4.532   0.825  10.219  3.2895 -0.2241 -2.0268
  810MPD2    H311984   0.010   0.883  10.157  1.1776  0.5439  0.7184
  810MPD2     N11985   0.021   1.271  10.382 -0.2925  0.4785 -0.2473
  810MPD2    H511986   0.118   1.262  10.354 -0.2152 -1.6716  0.7390
  810MPD2    N111987   4.344   1.000  10.342 -0.6542 -0.1522  0.4331
  810MPD2    H711988   4.306   1.084  10.385 -2.6579 -1.8578  1.9722
  811MPD2     C11989   3.509   1.127  10.395 -0.4024  0.2639 -0.9665
  811MPD2    C111990   3.639   1.179  10.427  0.3436  0.0282 -0.1762
  811MPD2    C211991   3.675   1.306  10.377  0.4085  0.9734  0.0935
  811MPD2    C311992   3.588   1.373  10.293  0.0576  0.3088 -0.7152
  811MPD2    C411993   3.461   1.319  10.266  0.0124  0.3629  0.0866
  811MPD2    C511994   3.419   1.202  10.323 -0.4767  0.7142  0.5317
  811MPD2     H11995   3.775   1.345  10.392  0.3644  1.2137 -0.2375
  811MPD2    H111996   3.386   1.378  10.214 -1.4782 -2.2941 -0.7591
  811MPD2    H211997   3.477   1.039  10.449 -0.2371 -0.8921 -2.7759
  811MPD2    H311998   3.318   1.168  10.304 -0.2701  0.6075 -0.4113
  811MPD2     N11999   3.642   1.490  10.236 -0.2273  0.5211  0.0532
  811MPD2    H512000   3.733   1.515  10.275 -0.2944 -0.1376  0.6218
  811MPD2    N112001   3.739   1.081  10.463  0.0845 -0.1630 -0.5326
  811MPD2    H712002   3.696   0.992  10.489 -1.6004  0.9684  0.5583
  812MPD2     C12003   2.850   0.758  12.140  0.6985  0.2419  0.0296
  812MPD2    C112004   2.915   0.846  12.218 -1.1723  0.2700  0.3724
  812MPD2    C212005   2.953   0.802  12.348  0.4922 -0.6479 -0.8238
  812MPD2    C312006   2.938   0.669  12.386 -0.6057 -0.2532 -1.3489
  812MPD2    C412007   2.867   0.583  12.301 -0.4585 -0.0101 -0.2309
  812MPD2    C512008   2.838   0.627  12.174 -0.0986  1.0621  0.0309
  812MPD2     H12009   3.003   0.874  12.412 -0.9866 -0.9571  0.6655
  812MPD2    H112010   2.843   0.478  12.319  0.5617 -0.2208 -0.0804
  812MPD2    H212011   2.814   0.795  12.045  0.1453 -0.6860 -0.1196
  812MPD2    H312012   2.806   0.557  12.098 -1.1108 -0.1874  1.6189
  812MPD2     N12013   2.974   0.624  12.522 -0.7054 -0.0596  0.2636
  812MPD2    H512014   3.008   0.700  12.581  2.5553 -0.9130 -0.4769
  812MPD2    N112015   2.933   0.973  12.170  0.0498  0.7759  0.1307
  812MPD2    H712016   2.884   1.005  12.087  3.1742  0.6258 -1.7752
  813MPD2     C12017   2.544   2.601  12.818 -0.5333  0.4357  0.1291
  813MPD2    C112018   2.484   2.718  12.804  0.3677 -0.1579  0.4740
  813MPD2    C212019   2.408   2.764  12.909  0.2716  0.1208  0.4706
  813MPD2    C312020   2.391   2.692  13.030 -0.1029 -0.1939 -0.3920
  813MPD2    C412021   2.447   2.564  13.038  0.4782  1.0366  0.7734
  813MPD2    C512022   2.534   2.529  12.937 -0.4069 -0.2637  0.9403
  813MPD2     H12023   2.357   2.860  12.902 -0.2792 -0.1213  1.1210
  813MPD2    H112024   2.458   2.517  13.135 -0.3208 -0.3276  0.2091
  813MPD2    H212025   2.619   2.572  12.746 -1.3622 -1.5584  0.0634
  813MPD2    H312026   2.596   2.442  12.948  0.3230 -0.0842 -1.7378
  813MPD2     N12027   2.302   2.745  13.128  0.0509  0.0730  0.0962
  813MPD2    H512028   2.261   2.834  13.101  0.2921  0.1286 -0.0872
  813MPD2    N112029   2.527   2.795  12.693  0.3529 -0.4184 -0.2902
  813MPD2    H712030   2.608   2.757  12.645 -0.2324 -1.1358 -0.7182
  814MPD2     C12031   2.700   3.967  12.404  0.0257 -0.0896  0.1052
  814MPD2    C112032   2.750   4.022  12.289  0.4133 -0.5718 -0.2491
  814MPD2    C212033   2.809   4.147  12.291  0.1058  0.4144  0.1293
  814MPD2    C312034   2.822   4.215  12.416 -0.0330  0.5988 -0.0661
  814MPD2    C412035   2.760   4.158  12.523 -1.0388  0.1187  0.5832
  814MPD2    C512036   2.703   4.039  12.523  0.0142 -0.4874 -0.0703
  814MPD2     H12037   2.842   4.199  12.202  0.8715 -0.2605  0.0179
  814MPD2    H112038   2.759   4.207  12.620 -0.8986  2.8953 -0.8210
  814MPD2    H212039   2.646   3.873  12.407  0.0617 -0.1906 -1.9459
  814MPD2    H312040   2.673   3.998  12.619 -0.1116  1.4552  0.7168
  814MPD2     N12041   2.892   4.343  12.433 -0.0522 -0.4332 -0.2400
  814MPD2    H512042   2.895   4.371  12.530 -0.7012  0.8625 -0.5976
  814MPD2    N112043   2.732   3.963  12.160  0.3203 -0.3168 -0.8907
  814MPD2    H712044   2.746   4.022  12.078 -2.4458 -0.2175 -1.2950
  815MPD2     C12045   3.371   2.792  11.743 -0.4727 -0.5309  0.1093
  815MPD2    C112046   3.404   2.656  11.735  0.1875 -0.5107 -0.3289
  815MPD2    C212047   3.350   2.566  11.825 -0.0003 -0.3465  0.0788
  815MPD2    C312048   3.243   2.612  11.903  1.2804  0.8407  0.7304
  815MPD2    C412049   3.211   2.745  11.904 -0.4490  0.2609 -0.2571
  815MPD2    C512050   3.278   2.835  11.827  0.8023 -0.7315  0.2070
  815MPD2     H12051   3.379   2.461  11.829  0.6561 -0.1588  0.1704
  815MPD2    H112052   3.150   2.782  11.986  1.1050  1.8998  0.1546
  815MPD2    H212053   3.411   2.864  11.673  0.6515 -1.9246 -0.6710
  815MPD2    H312054   3.254   2.941  11.831  0.7057 -0.7066 -1.1602
  815MPD2     N12055   3.174   2.513  11.974  1.0179  0.3090  0.0498
  815MPD2    H512056   3.205   2.417  11.966 -1.7641 -0.5670 -0.4707
  815MPD2    N112057   3.511   2.623  11.648  0.6076  0.6762 -0.0256
  815MPD2    H712058   3.554   2.690  11.585 -1.6494  0.1846 -2.0679
  816MPD2     C12059   3.501   1.601  17.318  0.3906 -0.2042  0.5366
  816MPD2    C112060   3.372   1.575  17.276 -0.3024 -0.6834 -0.7434
  816MPD2    C212061   3.354   1.477  17.173 -0.1704  0.3072  0.4476
  816MPD2    C312062   3.462   1.400  17.131  0.6122 -0.3979  0.1240
  816MPD2    C412063   3.587   1.424  17.184  0.1612  0.3402  0.7474
  816MPD2    C512064   3.605   1.525  17.273 -0.0178 -0.7073  0.4955
  816MPD2     H12065   3.256   1.450  17.136 -0.5040  0.4552  1.2283
  816MPD2    H112066   3.676   1.367  17.156  1.0426  2.2127 -0.2479
  816MPD2    H212067   3.509   1.694  17.372 -0.6012 -0.0872  0.4829
  816MPD2    H312068   3.703   1.551  17.314  0.6028  1.0763 -2.1541
  816MPD2     N12069   3.442   1.311  17.026 -0.9689  0.1038 -0.2287
  816MPD2    H512070   3.348   1.312  16.989 -0.8614  1.6856 -0.4285
  816MPD2    N112071   3.268   1.656  17.323 -0.2592  0.1402 -0.9631
  816MPD2    H712072   3.289   1.726  17.393 -0.2359  1.9949 -2.8289
  817MPD2     C12073   3.105   3.440  10.061  0.0367  0.3859  0.3532
  817MPD2    C112074   3.123   3.467   9.925 -0.2740  0.0642 -0.7483
  817MPD2    C212075   3.121   3.595   9.873 -0.0167  0.1798 -0.1828
  817MPD2    C312076   3.106   3.695   9.963 -0.2538  0.1378  0.2393
  817MPD2    C412077   3.085   3.672  10.098  1.3150 -0.0973  0.5980
  817MPD2    C512078   3.089   3.544  10.146  0.5795  0.5768 -0.7827
  817MPD2     H12079   3.125   3.614   9.766 -1.1123  0.1711 -0.2306
  817MPD2    H112080   3.055   3.753  10.163 -0.5662  1.4265 -2.1735
  817MPD2    H212081   3.090   3.337  10.091  2.5927  0.4419  1.7801
  817MPD2    H312082   3.075   3.519  10.250  1.5175  1.1582 -0.5136
  817MPD2     N12083   3.094   3.829   9.911  0.2036  0.0355 -0.2650
  817MPD2    H512084   3.115   3.840   9.812 -0.5367  3.3517 -0.0513
  817MPD2    N112085   3.130   3.371   9.826 -0.1915 -0.0584  0.0885
  817MPD2    H712086   3.131   3.408   9.732  0.5877  3.2477  1.3847
  818MPD2     C12087   1.783   3.477   9.936 -0.2027 -0.2431  0.5382
  818MPD2    C112088   1.704   3.436  10.036  0.9942 -0.7847 -0.2710
  818MPD2    C212089   1.635   3.320  10.022 -0.6388  0.3709  0.8033
  818MPD2    C312090   1.651   3.245   9.912  0.4518 -0.1560 -0.2880
  818MPD2    C412091   1.736   3.278   9.806  1.0687 -0.6719 -0.3994
  818MPD2    C512092   1.793   3.404   9.823 -0.0119  0.2844  0.0996
  818MPD2     H12093   1.565   3.290  10.099 -1.0006 -0.2879  0.2201
  818MPD2    H112094   1.764   3.209   9.727  2.2497  0.3454 -0.8494
  818MPD2    H212095   1.834   3.572   9.944  0.5209 -0.4461 -1.6300
  818MPD2    H312096   1.863   3.438   9.749  0.4403  0.2463  0.5106
  818MPD2     N12097   1.583   3.118   9.893 -0.0833  0.0916  0.2028
  818MPD2    H512098   1.614   3.075   9.806 -0.2864 -1.1937  0.7677
  818MPD2    N112099   1.672   3.510  10.150  0.3370  0.2170  1.0321
  818MPD2    H712100   1.621   3.465  10.225 -0.7418  0.1246  0.2406
  819MPD2     C12101   4.506   0.509  15.682  0.4883 -0.2832 -0.3544
  819MPD2    C112102   4.538   0.386  15.629 -0.4280  0.3492  0.7950
  819MPD2    C212103   4.637   0.307  15.687  0.6833 -0.1154 -0.2635
  819MPD2    C312104   4.693   0.344  15.809 -0.0392  0.0637  0.4361
  819MPD2    C412105   4.659   0.467  15.860  0.1694  0.2068  0.1449
  819MPD2    C512106   4.569   0.545  15.795  0.5571  0.0609 -0.3920
  819MPD2     H12107   4.663   0.209  15.650 -1.0514 -1.1531  1.2365
  819MPD2    H112108   4.680   0.503  15.959 -1.5759  1.9149 -0.1100
  819MPD2    H212109   4.424   0.565  15.639  1.4882  0.5111 -1.2201
  819MPD2    H312110   4.543   0.642  15.836  0.7130 -0.1796  0.2613
  819MPD2     N12111   0.033   0.253  15.882  0.2220  0.0664  0.3702
  819MPD2    H512112   0.046   0.163  15.838 -2.0383 -0.2747  0.3888
  819MPD2    N112113   4.478   0.337  15.512 -0.0267  0.2371 -0.0129
  819MPD2    H712114   4.413   0.406  15.475  0.6833 -0.0594 -1.7820
  820MPD2     C12115   3.565   0.345  15.131 -0.4341 -0.0012  0.0704
  820MPD2    C112116   3.617   0.290  15.253 -0.3871 -0.1868  0.0522
  820MPD2    C212117   3.753   0.283  15.267  0.4188 -1.0232  0.0612
  820MPD2    C312118   3.839   0.319  15.167  0.3176  0.4618 -0.0591
  820MPD2    C412119   3.784   0.364  15.047 -0.6578 -0.3261  0.4391
  820MPD2    C512120   3.654   0.390  15.036  0.5317  0.0227  0.3304
  820MPD2     H12121   3.783   0.243  15.363 -1.1496  0.6252  1.2323
  820MPD2    H112122   3.844   0.393  14.962 -1.6656 -2.0578 -0.8488
  820MPD2    H212123   3.462   0.335  15.098  0.2787 -0.7842 -1.8781
  820MPD2    H312124   3.611   0.437  14.949  1.7895  0.8835  0.1795
  820MPD2     N12125   3.982   0.297  15.174  0.5668  0.4230 -0.1654
  820MPD2    H512126   4.030   0.312  15.086  1.0656 -1.9698 -0.2828
  820MPD2    N112127   3.543   0.221  15.351  0.0605  0.3084 -0.0715
  820MPD2    H712128   3.596   0.190  15.432 -0.3688 -1.5946 -0.5024
  821MPD2     C12129   4.704   1.435  13.418  0.5553 -0.3000 -0.4106
  821MPD2    C112130   0.046   1.406  13.523  0.7997  0.3835 -0.3186
  821MPD2    C212131   0.164   1.465  13.528  0.7221 -0.1780 -0.7570
  821MPD2    C312132   0.205   1.560  13.432 -0.6147  0.1368  0.2229
  821MPD2    C412133   0.120   1.594  13.326  0.1111 -0.7340 -0.2543
  821MPD2    C512134   4.738   1.526  13.323  0.1750 -0.5211  0.3262
  821MPD2     H12135   0.219   1.438  13.617 -1.4559 -0.6522  0.4249
  821MPD2    H112136   0.146   1.659  13.242 -1.5868  0.3797  0.0791
  821MPD2    H212137   4.605   1.394  13.404 -0.5241  1.8190  0.9933
  821MPD2    H312138   4.668   1.547  13.243  1.9925  1.6500 -0.6970
  821MPD2     N12139   0.329   1.631  13.426  0.0573  0.3506 -0.0927
  821MPD2    H512140   0.355   1.685  13.343  3.8694 -0.2310  0.7161
  821MPD2    N112141   0.003   1.306  13.618  0.0459  0.1457  0.3315
  821MPD2    H712142   0.055   1.301  13.705  0.5038  0.6760  0.0890
  822MPD2     C12143   0.722   1.481  15.584  0.7408 -0.0509 -0.6663
  822MPD2    C112144   0.780   1.498  15.707 -0.6408  0.4246 -0.6585
  822MPD2    C212145   0.733   1.601  15.786  0.0441 -0.0601 -0.1790
  822MPD2    C312146   0.628   1.685  15.744  0.2023  1.0245 -0.0244
  822MPD2    C412147   0.565   1.656  15.627 -0.4762  0.8643  0.8649
  822MPD2    C512148   0.616   1.554  15.545 -0.5708 -0.0147  0.2421
  822MPD2     H12149   0.783   1.634  15.877 -1.2264  1.9767 -0.2172
  822MPD2    H112150   0.479   1.707  15.585 -0.2696 -0.1044 -0.7529
  822MPD2    H212151   0.760   1.412  15.510  1.8890 -0.3927  0.2499
  822MPD2    H312152   0.569   1.547  15.447 -0.0245  1.5128 -0.1376
  822MPD2     N12153   0.588   1.797  15.820  0.1889 -0.0387  0.0311
  822MPD2    H512154   0.644   1.837  15.895 -0.0119  0.6235 -0.1745
  822MPD2    N112155   0.881   1.414  15.764  0.3500  0.4484 -0.6503
  822MPD2    H712156   0.920   1.438  15.855 -0.3710  0.9488 -0.4742
  823MPD2     C12157   0.235   2.095  16.595 -0.1590 -0.1468 -0.2133
  823MPD2    C112158   0.265   2.003  16.496 -0.6778 -0.7279 -0.0227
  823MPD2    C212159   0.299   1.873  16.535 -0.0924 -0.3460  0.1284
  823MPD2    C312160   0.285   1.837  16.672 -0.2614  0.1883 -0.5309
  823MPD2    C412161   0.230   1.923  16.763 -0.6848  0.0641 -0.5820
  823MPD2    C512162   0.217   2.054  16.728 -0.3324 -0.0807  0.1440
  823MPD2     H12163   0.338   1.807  16.458  2.5724 -0.1200  1.2820
  823MPD2    H112164   0.239   1.891  16.866  0.7073  2.5905  0.0720
  823MPD2    H212165   0.233   2.200  16.568  0.3316  0.4235  1.9386
  823MPD2    H312166   0.186   2.119  16.809 -0.1802 -3.6083  3.0142
  823MPD2     N12167   0.333   1.714  16.724  0.1797  0.4486  0.2332
  823MPD2    H512168   0.333   1.696  16.824  1.0042  0.9853  0.3330
  823MPD2    N112169   0.294   2.049  16.360  1.0045  1.2157 -0.6680
  823MPD2    H712170   0.303   2.148  16.344  1.4908  0.9797 -1.8819
  824MPD2     C12171   1.053   0.537  15.699 -0.2643  0.0114 -0.2912
  824MPD2    C112172   1.168   0.614  15.735  0.0657  0.0376  0.7612
  824MPD2    C212173   1.287   0.549  15.745  0.5867 -0.3750  0.5726
  824MPD2    C312174   1.297   0.415  15.709  0.6129  0.2378 -0.2038
  824MPD2    C412175   1.186   0.348  15.662  0.5231 -0.4422  0.3523
  824MPD2    C512176   1.065   0.411  15.656  0.3670  0.1388  0.2258
  824MPD2     H12177   1.375   0.603  15.777  0.4837  0.2350 -0.1691
  824MPD2    H112178   1.187   0.252  15.610  1.5542 -0.7429  0.9413
  824MPD2    H212179   0.956   0.583  15.686 -0.2495  0.2281  0.3750
  824MPD2    H312180   0.977   0.361  15.617  0.7980 -0.2727 -0.2212
  824MPD2     N12181   1.427   0.362  15.698  0.2348  0.0266  0.2813
  824MPD2    H512182   1.506   0.421  15.723  0.1028  1.2338 -2.1488
  824MPD2    N112183   1.165   0.754  15.763  0.1999 -0.0315  0.3276
  824MPD2    H712184   1.246   0.800  15.803 -0.2350  0.3604  0.7573
  825MPD2     C12185   1.971   0.413  15.053  0.2380 -0.0704  0.3954
  825MPD2    C112186   1.887   0.453  15.152 -0.5802 -0.4196 -0.3385
  825MPD2    C212187   1.881   0.588  15.177  0.5649 -0.1651 -0.4578
  825MPD2    C312188   1.940   0.685  15.098 -0.2325 -0.3157 -0.0537
  825MPD2    C412189   2.017   0.640  14.994 -0.2251 -0.0485  0.3883
  825MPD2    C512190   2.032   0.510  14.977  0.5962 -0.6133  0.2222
  825MPD2     H12191   1.815   0.626  15.255  2.5700 -1.0112  1.6441
  825MPD2    H112192   2.066   0.701  14.918  0.8843 -0.4033  0.8190
  825MPD2    H212193   1.999   0.309  15.042  0.6690  0.0597  0.2451
  825MPD2    H312194   2.088   0.473  14.891  1.4953  0.3799  0.3832
  825MPD2     N12195   1.903   0.819  15.108 -0.0485  0.0120  0.6557
  825MPD2    H512196   1.925   0.878  15.028  0.9704  0.2515  1.1116
  825MPD2    N112197   1.827   0.350  15.234  0.0159  0.1549  0.1078
  825MPD2    H712198   1.838   0.253  15.204 -0.6973  0.2810 -0.5773
  826MPD2     C12199   1.371   0.140  13.748 -0.0534 -0.0858  0.3054
  826MPD2    C112200   1.371   0.271  13.689 -0.2949  0.5111 -0.1680
  826MPD2    C212201   1.259   0.352  13.707  0.7935  0.3711  0.0710
  826MPD2    C312202   1.164   0.322  13.800  0.5046  0.2104  0.0663
  826MPD2    C412203   1.169   0.203  13.864  0.2565  1.0677  0.3360
  826MPD2    C512204   1.268   0.106  13.832 -0.1121 -0.7495  0.2985
  826MPD2     H12205   1.257   0.446  13.654  0.9685  1.0903  1.3661
  826MPD2    H112206   1.082   0.178  13.923 -0.1172  1.4013 -0.0725
  826MPD2    H212207   1.439   0.061  13.720 -2.9922 -2.0943 -1.0989
  826MPD2    H312208   1.275   0.007  13.877 -0.7138 -1.1285 -0.4537
  826MPD2     N12209   1.056   0.412  13.836  0.8923 -0.0611  0.2552
  826MPD2    H512210   0.997   0.394  13.916 -1.6480  0.4191 -1.5215
  826MPD2    N112211   1.483   0.292  13.614 -0.0926  0.4955 -0.5623
  826MPD2    H712212   1.557   0.230  13.644 -0.5482  0.5472  0.6519
  827MPD2     C12213   2.095   2.590   9.984  1.3394  0.1885 -0.0443
  827MPD2    C112214   2.060   2.481  10.054  0.0952  0.6256 -0.2629
  827MPD2    C212215   1.990   2.388   9.987  0.3181  0.4245 -0.4059
  827MPD2    C312216   1.968   2.393   9.845 -0.1389  0.1719 -0.1184
  827MPD2    C412217   2.005   2.504   9.776 -0.2389 -0.2129  0.3807
  827MPD2    C512218   2.073   2.596   9.851 -0.0342 -0.3521  0.3564
  827MPD2     H12219   1.941   2.307  10.041  1.3459  0.9610  1.3576
  827MPD2    H112220   1.999   2.522   9.669 -1.5767  1.2884  0.7133
  827MPD2    H212221   2.152   2.669  10.033 -1.4524  0.3054  2.9746
  827MPD2    H312222   2.087   2.688   9.795 -0.4267 -0.0092  0.8124
  827MPD2     N12223   1.893   2.291   9.786  0.6160  0.5777 -0.1806
  827MPD2    H512224   1.879   2.208   9.843  2.7378  1.1419  1.1696
  827MPD2    N112225   2.094   2.473  10.191  0.2138  0.6615 -0.4975
  827MPD2    H712226   2.127   2.562  10.228 -2.2759  1.5599 -0.4744
  828MPD2     C12227   0.587   1.753  12.826  0.4222  0.3862  0.0368
  828MPD2    C112228   0.519   1.769  12.706  0.2931 -0.3154 -0.1426
  828MPD2    C212229   0.584   1.729  12.589 -0.1571 -0.4312  1.1043
  828MPD2    C312230   0.710   1.668  12.593  0.3162  0.6632  0.7072
  828MPD2    C412231   0.778   1.667  12.715 -0.8794 -0.5512  1.4452
  828MPD2    C512232   0.714   1.711  12.833 -0.0100 -0.1356 -0.2892
  828MPD2     H12233   0.529   1.738  12.497 -0.1828  0.0363  1.1637
  828MPD2    H112234   0.879   1.630  12.721 -0.0404  1.1086 -2.5602
  828MPD2    H212235   0.545   1.767  12.925  1.6011 -0.6598  0.6944
  828MPD2    H312236   0.766   1.701  12.927  2.2706 -1.2830 -1.6748
  828MPD2     N12237   0.764   1.604  12.483 -0.5467  0.5520  0.3109
  828MPD2    H512238   0.858   1.570  12.499 -0.9219 -0.3321  0.6358
  828MPD2    N112239   0.384   1.808  12.700 -0.2553 -0.0739  0.8913
  828MPD2    H712240   0.332   1.802  12.613  0.5668 -1.7268  0.5030
  829MPD2     C12241   4.659   1.925  12.015 -0.0929  1.3041 -0.0221
  829MPD2    C112242   4.563   1.959  12.108  0.0923  0.2930  0.0003
  829MPD2    C212243   4.587   1.958  12.247  0.2944  0.3301  0.3332
  829MPD2    C312244   4.714   1.906  12.283 -0.2034 -0.2611 -0.1383
  829MPD2    C412245   0.065   1.854  12.194 -0.0691 -1.2958 -0.1009
  829MPD2    C512246   0.033   1.871  12.057  0.0555 -0.6099 -0.0430
  829MPD2     H12247   4.512   1.994  12.318 -0.8666 -0.3644 -0.5431
  829MPD2    H112248   0.160   1.814  12.228 -1.2043 -2.1277  2.0779
  829MPD2    H212249   4.649   1.944  11.908 -0.6398 -0.8561 -0.3577
  829MPD2    H312250   0.117   1.845  11.993  0.7838  0.3080  0.5512
  829MPD2     N12251   0.009   1.892  12.415 -0.4388  0.4249 -0.3408
  829MPD2    H512252   0.100   1.852  12.430 -0.1694  1.1249 -0.0961
  829MPD2    N112253   4.442   2.011  12.056 -0.0460 -0.0301 -0.3290
  829MPD2    H712254   4.444   2.018  11.954  0.7075  1.1115 -0.2361
  830MPD2     C12255   0.454   4.302  16.082 -0.1847  0.0834 -0.6553
  830MPD2    C112256   0.370   4.382  16.007 -0.7124  0.5834 -0.1303
  830MPD2    C212257   0.389   4.393  15.870  0.7626  0.5655  0.5249
  830MPD2    C312258   0.493   4.330  15.818  0.0014  0.7982 -0.3445
  830MPD2    C412259   0.578   4.253  15.901  0.4295 -0.1596  0.4487
  830MPD2    C512260   0.553   4.232  16.032 -0.0167 -0.2461  0.3351
  830MPD2     H12261   0.333   4.471  15.818  0.5816 -0.9149 -1.4802
  830MPD2    H112262   0.654   4.191  15.854 -1.0321 -0.5233 -1.4506
  830MPD2    H212263   0.443   4.291  16.189 -1.0108  0.5129 -0.6972
  830MPD2    H312264   0.609   4.159  16.089 -1.5323 -2.4707 -1.0447
  830MPD2     N12265   0.534   4.361  15.688 -0.2058  0.1895  0.2082
  830MPD2    H512266   0.630   4.333  15.670 -1.2750 -2.6028 -1.2818
  830MPD2    N112267   0.292   4.471  16.084 -0.3549 -0.4288  0.1512
  830MPD2    H712268   0.310   4.470  16.184  0.7014 -1.1173 -0.0417
  831MPD2     C12269   0.868   1.856  16.282 -0.5630 -0.0771  0.0875
  831MPD2    C112270   0.856   1.752  16.197 -0.4410  0.2592 -0.0830
  831MPD2    C212271   0.726   1.703  16.166 -0.1733 -0.3406  0.6414
  831MPD2    C312272   0.609   1.737  16.228 -0.3947  0.2700  0.5543
  831MPD2    C412273   0.631   1.838  16.327  0.0135  0.2471 -0.5447
  831MPD2    C512274   0.754   1.891  16.351  0.0552 -0.7362 -0.1602
  831MPD2     H12275   0.722   1.624  16.091 -0.0910 -0.3235  0.6193
  831MPD2    H112276   0.554   1.866  16.398 -1.7157  1.1803 -2.8086
  831MPD2    H212277   0.956   1.914  16.307  0.4705 -0.7010 -2.1441
  831MPD2    H312278   0.761   1.972  16.423  0.0756 -0.5469 -0.3787
  831MPD2     N12279   0.485   1.670  16.220  0.3274  0.4124  0.8995
  831MPD2    H512280   0.413   1.692  16.288  0.7677  1.0335  1.1638
  831MPD2    N112281   0.980   1.710  16.148  0.1802 -0.4603 -0.8214
  831MPD2    H712282   1.062   1.767  16.166  1.4665 -2.9329  1.0112
  832MPD2     C12283   3.974   2.415  17.120  0.2340 -0.0549  0.3274
  832MPD2    C112284   3.979   2.535  17.058 -0.1145  0.5273  0.0082
  832MPD2    C212285   3.866   2.578  16.993 -0.3273  0.6248 -0.2560
  832MPD2    C312286   3.753   2.504  17.002 -0.1625  0.2165  0.2133
  832MPD2    C412287   3.748   2.383  17.070  0.2015 -0.3893 -0.3124
  832MPD2    C512288   3.865   2.342  17.127 -0.3813  0.0764  0.4829
  832MPD2     H12289   3.865   2.674  16.941  2.4001  0.5700 -0.4014
  832MPD2    H112290   3.659   2.322  17.074  0.0470 -0.1265  0.3186
  832MPD2    H212291   4.063   2.375  17.167 -0.4086  1.0462  2.4671
  832MPD2    H312292   3.875   2.241  17.166 -0.2462  0.0669  0.4236
  832MPD2     N12293   3.633   2.536  16.939  0.8698  0.7199 -0.2504
  832MPD2    H512294   3.560   2.466  16.944  1.9174 -0.4085 -0.4886
  832MPD2    N112295   4.095   2.612  17.064 -0.5282  0.1213 -0.1279
  832MPD2    H712296   4.159   2.572  17.132 -1.6487  1.2290  1.5832
  833MPD2     C12297   0.820   4.697  12.827  0.4346 -0.7241 -0.3402
  833MPD2    C112298   0.828   0.080  12.752  0.0521 -0.0632 -0.5874
  833MPD2    C212299   0.945   0.106  12.678 -0.6616  0.3638  0.0607
  833MPD2    C312300   1.052   0.015  12.672 -0.4954  0.4920  0.2677
  833MPD2    C412301   1.038   4.630  12.734 -0.3712 -1.3413 -0.5583
  833MPD2    C512302   0.928   4.613  12.816 -0.3279 -0.0291  0.0308
  833MPD2     H12303   0.956   0.198  12.623  2.6880  0.2104  0.4808
  833MPD2    H112304   1.117   4.556  12.742 -2.2614 -3.3146 -0.2013
  833MPD2    H212305   0.740   4.675  12.897 -1.2103 -0.7276 -2.2440
  833MPD2    H312306   0.923   4.528  12.882  0.4329 -0.6994 -0.7693
  833MPD2     N12307   1.162   0.033  12.588 -0.0073 -0.5958 -0.0512
  833MPD2    H512308   1.236   4.704  12.601  0.5461  0.2533  1.1572
  833MPD2    N112309   0.715   0.159  12.751 -0.2912  0.0702  0.7695
  833MPD2    H712310   0.641   0.140  12.818 -1.9336 -0.2964 -1.1466
  834MPD2     C12311   1.371   4.282  11.757  0.2446  0.1889 -0.1788
  834MPD2    C112312   1.351   4.406  11.709 -0.1589 -0.0365 -0.0132
  834MPD2    C212313   1.369   4.515  11.795  0.9631 -0.2587  0.1212
  834MPD2    C312314   1.366   4.501  11.931  1.0945 -0.1725  0.0762
  834MPD2    C412315   1.399   4.375  11.983 -0.3964  0.1820 -0.1308
  834MPD2    C512316   1.398   4.267  11.896  0.1968 -0.8186  0.4839
  834MPD2     H12317   1.363   4.614  11.752 -2.3772 -0.4615  0.1455
  834MPD2    H112318   1.433   4.364  12.086 -1.6432 -0.3836  0.2238
  834MPD2    H212319   1.361   4.189  11.703  0.9977 -0.6896  1.1751
  834MPD2    H312320   1.420   4.166  11.929 -3.4377 -1.9087 -0.4803
  834MPD2     N12321   1.359   4.616  12.019  0.1632  0.2974 -0.3443
  834MPD2    H512322   1.355   4.705  11.972  1.2910  0.7248  0.3525
  834MPD2    N112323   1.314   4.434  11.575 -0.2021  0.1578 -0.0354
  834MPD2    H712324   1.283   4.529  11.556 -1.5592 -0.1200  0.8004
  835MPD2     C12325   1.585   2.414  11.182 -0.1050 -0.4063 -0.8859
  835MPD2    C112326   1.462   2.359  11.205  1.0449 -0.1015  0.0006
  835MPD2    C212327   1.446   2.267  11.306 -0.4544  0.7992  0.0764
  835MPD2    C312328   1.552   2.224  11.387  0.4959 -0.0309  0.0905
  835MPD2    C412329   1.684   2.264  11.353 -0.1883 -0.2466  0.3187
  835MPD2    C512330   1.698   2.359  11.248  0.2935 -0.0971 -0.2619
  835MPD2     H12331   1.347   2.227  11.324 -0.6728  1.4491  0.3210
  835MPD2    H112332   1.775   2.227  11.399  1.1520  1.8356 -0.6882
  835MPD2    H212333   1.596   2.497  11.114  2.2165 -1.1179 -1.3737
  835MPD2    H312334   1.796   2.403  11.233  1.1995 -1.7524  0.7507
  835MPD2     N12335   1.541   2.132  11.499  0.5040 -0.1679  0.3163
  835MPD2    H512336   1.627   2.120  11.551  0.7584  0.8135  0.1263
  835MPD2    N112337   1.354   2.420  11.141 -0.0022 -0.0213 -0.3850
  835MPD2    H712338   1.382   2.493  11.076 -0.5741 -2.0657 -2.9657
  836MPD2     C12339   0.907   1.748  11.842 -0.3414  0.0951 -0.8773
  836MPD2    C112340   0.987   1.823  11.921  0.8754 -0.1205  0.6875
  836MPD2    C212341   0.934   1.876  12.037 -0.4979  0.4339 -0.3384
  836MPD2    C312342   0.801   1.851  12.076 -0.5125 -0.8285  0.5593
  836MPD2    C412343   0.723   1.775  11.995 -0.1529  0.8037  0.1676
  836MPD2    C512344   0.784   1.719  11.886 -0.1599  0.4103 -0.2958
  836MPD2     H12345   0.999   1.937  12.099  1.5279  0.3162 -2.3427
  836MPD2    H112346   0.616   1.760  12.006 -0.1914  3.6686  3.7907
  836MPD2    H212347   0.938   1.712  11.745 -0.5715 -0.7575 -0.6331
  836MPD2    H312348   0.715   1.654  11.833 -1.6251  0.3238  1.7405
  836MPD2     N12349   0.728   1.920  12.182  0.2343  0.0268  0.3752
  836MPD2    H512350   0.628   1.907  12.187  0.2548 -0.2406  0.0480
  836MPD2    N112351   1.122   1.853  11.877  0.4446  0.1696 -0.1986
  836MPD2    H712352   1.136   1.828  11.780 -1.4220 -0.2050 -0.3753
  837MPD2     C12353   3.911   2.236  10.337  0.4145 -0.2024  0.2514
  837MPD2    C112354   3.985   2.165  10.245  0.5079 -0.9001 -0.3237
  837MPD2    C212355   4.081   2.232  10.174 -0.3804 -0.4906 -0.5291
  837MPD2    C312356   4.103   2.372  10.192 -0.9292 -0.8435  0.4147
  837MPD2    C412357   4.032   2.439  10.283  0.1390  0.0776 -0.1497
  837MPD2    C512358   3.928   2.370  10.343 -0.5425  0.3929 -0.0265
  837MPD2     H12359   4.141   2.174  10.104 -0.5259 -0.9584 -0.2638
  837MPD2    H112360   4.029   2.546  10.297 -0.3019 -0.0195  0.5092
  837MPD2    H212361   3.833   2.189  10.397  0.8499  1.8126  2.3852
  837MPD2    H312362   3.869   2.425  10.416 -2.0237 -0.3271 -0.6857
  837MPD2     N12363   4.191   2.425  10.101 -0.4338 -0.4072 -0.0453
  837MPD2    H512364   4.230   2.364  10.030  0.0353 -1.9075  1.5152
  837MPD2    N112365   3.958   2.038  10.208  0.3414  1.0251 -0.4461
  837MPD2    H712366   4.021   1.990  10.143  0.8753  0.5665  0.4102
  838MPD2     C12367   2.850   0.032  11.408  0.3557  0.2645  0.5836
  838MPD2    C112368   2.808   4.643  11.420 -0.6761  0.0177  0.7241
  838MPD2    C212369   2.672   4.620  11.424  0.6638 -0.2510  0.0763
  838MPD2    C312370   2.576   4.720  11.414  0.4641  0.7376 -0.4652
  838MPD2    C412371   2.623   0.110  11.416 -0.0968  0.1008  0.4226
  838MPD2    C512372   2.757   0.132  11.407 -0.1459  0.6281  0.8387
  838MPD2     H12373   2.638   4.519  11.436  0.1800  0.0591  1.2181
  838MPD2    H112374   2.556   0.195  11.415  0.4885  0.5275 -1.4133
  838MPD2    H212375   2.954   0.061  11.399 -0.0555  1.1982 -1.0968
  838MPD2    H312376   2.802   0.230  11.411 -1.6039  1.2287  2.5246
  838MPD2     N12377   2.435   4.691  11.411  0.0989  1.0305 -0.2523
  838MPD2    H512378   2.408   4.595  11.431  3.1224 -0.1742 -1.8675
  838MPD2    N112379   2.897   4.534  11.409 -0.1605  0.1184  0.4079
  838MPD2    H712380   2.854   4.443  11.393 -3.3167  1.9836 -1.7617
  839MPD2     C12381   2.385   4.513  11.099 -0.2128  0.3371  0.2265
  839MPD2    C112382   2.444   4.397  11.082  0.1313  0.2708  0.1683
  839MPD2    C212383   2.577   4.395  11.060  0.4008  0.7732  0.2751
  839MPD2    C312384   2.654   4.511  11.072  0.1542  0.4350 -0.7172
  839MPD2    C412385   2.585   4.634  11.083 -0.3203  0.0332 -0.0954
  839MPD2    C512386   2.452   4.630  11.091 -0.2462  0.8321  0.8630
  839MPD2     H12387   2.620   4.300  11.032 -0.7162  0.8332 -1.6380
  839MPD2    H112388   2.635   4.730  11.083  0.1053 -0.1881  1.5718
  839MPD2    H212389   2.277   4.512  11.090 -0.1134  0.1543 -0.9807
  839MPD2    H312390   2.402   4.726  11.091 -1.0447  0.4327 -0.5945
  839MPD2     N12391   2.794   4.506  11.065  0.0216 -0.3245  0.3692
  839MPD2    H512392   2.849   4.590  11.067 -3.1083  1.8202 -2.6336
  839MPD2    N112393   2.382   4.272  11.072  0.3458  0.1118 -0.1730
  839MPD2    H712394   2.426   4.186  11.041 -1.3429 -0.0089 -2.2655
  840MPD2     C12395   2.625   2.792  10.344 -0.0402  0.0833 -0.4519
  840MPD2    C112396   2.568   2.744  10.463  0.5313  0.6954 -0.3018
  840MPD2    C212397   2.644   2.756  10.582 -0.2096 -0.8705  0.9143
  840MPD2    C312398   2.760   2.836  10.589 -0.0469  0.5882  0.2514
  840MPD2    C412399   2.794   2.902  10.475 -0.1243 -0.6135  0.2766
  840MPD2    C512400   2.729   2.878  10.357  0.0602 -0.5932  0.2832
  840MPD2     H12401   2.622   2.704  10.675  3.6344 -0.8888  1.7890
  840MPD2    H112402   2.884   2.961  10.483 -2.1963  2.3918  1.1614
  840MPD2    H212403   2.581   2.785  10.245 -1.0209 -1.4618  0.0970
  840MPD2    H312404   2.766   2.926  10.268  0.5047  1.6489  1.6841
  840MPD2     N12405   2.834   2.865  10.706 -0.9526 -0.0212  0.3247
  840MPD2    H512406   2.910   2.930  10.689 -1.0097  0.1436  0.7111
  840MPD2    N112407   2.447   2.670  10.463  0.1902 -0.8047  0.2450
  840MPD2    H712408   2.394   2.664  10.376  0.5032 -1.0095  0.0713
  841MPD2     C12409   2.657   1.389  14.369  0.8691 -0.2317 -0.0571
  841MPD2    C112410   2.571   1.492  14.402 -0.2012  0.3828  0.2203
  841MPD2    C212411   2.613   1.591  14.486 -0.0275  0.1037  0.5614
  841MPD2    C312412   2.747   1.601  14.520 -0.5180 -0.6426  0.1591
  841MPD2    C412413   2.840   1.501  14.476  1.0945  0.7956 -0.1652
  841MPD2    C512414   2.793   1.401  14.398 -0.3809  0.3645 -0.2812
  841MPD2     H12415   2.551   1.672  14.525 -0.4112 -1.4687  3.2602
  841MPD2    H112416   2.944   1.511  14.504  1.3167  0.1670 -0.7743
  841MPD2    H212417   2.626   1.316  14.295  1.6326 -1.1786  0.5644
  841MPD2    H312418   2.868   1.329  14.369  0.1850  1.4140 -1.4178
  841MPD2     N12419   2.776   1.697  14.617 -0.7401  0.2268 -0.5368
  841MPD2    H512420   2.701   1.750  14.659 -1.6799 -0.9947 -0.6645
  841MPD2    N112421   2.436   1.488  14.371  0.4327  0.2097 -0.2299
  841MPD2    H712422   2.369   1.548  14.419  1.3475  2.5067 -1.8323
  842MPD2     C12423   3.297   2.942  16.845  0.3691  0.3625  0.5085
  842MPD2    C112424   3.171   2.893  16.820  0.5405 -0.1801 -0.2873
  842MPD2    C212425   3.111   2.807  16.917 -0.6067  0.0950 -0.0129
  842MPD2    C312426   3.187   2.768  17.026  0.1979  0.1636  0.9542
  842MPD2    C412427   3.305   2.832  17.053 -0.1774  0.0058  0.1896
  842MPD2    C512428   3.366   2.909  16.959  0.1914  0.6095 -0.6249
  842MPD2     H12429   3.006   2.779  16.910 -0.3596 -0.7597 -0.3153
  842MPD2    H112430   3.369   2.824  17.141 -0.0084  1.5522  0.2008
  842MPD2    H212431   3.344   3.015  16.780  1.7259 -3.4397 -2.8000
  842MPD2    H312432   3.466   2.948  16.971 -0.1861  1.8231 -1.3733
  842MPD2     N12433   3.133   2.685  17.131 -0.3957 -0.0946  0.3623
  842MPD2    H512434   3.169   2.681  17.226  2.3576  0.9696 -0.6304
  842MPD2    N112435   3.108   2.937  16.706  0.0288 -0.0806  0.7666
  842MPD2    H712436   3.155   3.010  16.654  2.0097 -1.8333  0.0692
  843MPD2     C12437   4.566   3.866  17.458 -0.7848  0.0862 -0.0334
  843MPD2    C112438   4.624   3.822  17.567  0.0342  0.1500  1.0067
  843MPD2    C212439   0.019   3.847  17.592 -0.2909  1.0560  0.6157
  843MPD2    C312440   0.097   3.900  17.492  0.0412 -0.1007 -0.1430
  843MPD2    C412441   0.040   3.943  17.373  0.0846 -0.6025 -0.2069
  843MPD2    C512442   4.642   3.925  17.359 -0.2406  0.4662  0.0766
  843MPD2     H12443   0.062   3.812  17.685  0.1717  1.0526  0.3975
  843MPD2    H112444   0.101   3.987  17.295 -0.7291  0.0236 -0.4902
  843MPD2    H212445   4.461   3.848  17.441 -1.2687 -0.6827  3.7857
  843MPD2    H312446   4.594   3.950  17.265 -1.0581 -0.7593  0.1783
  843MPD2     N12447   0.234   3.924  17.508 -0.1826 -0.4116 -0.3970
  843MPD2    H512448   0.285   3.977  17.438 -0.7309  2.1749  1.1554
  843MPD2    N112449   4.539   3.744  17.652  0.1886 -0.8657  0.4457
  843MPD2    H712450   4.444   3.744  17.618  0.9826  1.1299 -1.7264
  844MPD2     C12451   3.404   1.941  16.531 -0.5847  0.1068  0.5168
  844MPD2    C112452   3.429   2.032  16.429 -0.2794 -0.5345 -0.1446
  844MPD2    C212453   3.518   2.127  16.459  0.0960  0.1882  0.6021
  844MPD2    C312454   3.556   2.159  16.588 -0.1806 -1.2773 -0.8817
  844MPD2    C412455   3.506   2.088  16.687 -0.0411  0.0599  0.4286
  844MPD2    C512456   3.450   1.967  16.657 -0.1355 -0.1706  0.6398
  844MPD2     H12457   3.557   2.191  16.381  2.2385 -2.1384 -0.2775
  844MPD2    H112458   3.532   2.113  16.789 -0.8684  1.7849  0.2110
  844MPD2    H212459   3.335   1.858  16.523 -0.2425 -0.1817  0.5783
  844MPD2    H312460   3.432   1.900  16.740 -1.1933  0.7866  1.1852
  844MPD2     N12461   3.644   2.266  16.624 -0.3424  0.1630  0.2431
  844MPD2    H512462   3.674   2.269  16.720  1.9374  0.2858 -0.4826
  844MPD2    N112463   3.383   2.007  16.303  0.0375  0.2613  0.5215
  844MPD2    H712464   3.427   2.057  16.226 -0.9034 -0.5675 -0.5477
  845MPD2     C12465   4.037   3.276  16.669  0.4258 -0.7108  0.2618
  845MPD2    C112466   4.046   3.208  16.786 -0.2223  0.4753 -0.1322
  845MPD2    C212467   4.034   3.070  16.775  0.5755  0.4931 -0.0676
  845MPD2    C312468   3.969   3.009  16.669  0.5243  0.2891  0.8736
  845MPD2    C412469   3.929   3.089  16.565  0.2275  0.9986  0.3698
  845MPD2    C512470   3.970   3.220  16.560  0.2359  0.2680  0.5605
  845MPD2     H12471   4.063   3.007  16.858 -0.8827  2.6053  2.0637
  845MPD2    H112472   3.886   3.057  16.470  1.4693  2.4743 -0.6838
  845MPD2    H212473   4.063   3.381  16.663  0.7660 -0.8117 -0.0012
  845MPD2    H312474   3.953   3.278  16.469 -1.7427  0.6751  1.1767
  845MPD2     N12475   3.944   2.874  16.676  0.3634 -0.1987  0.1679
  845MPD2    H512476   3.993   2.824  16.749 -1.1481  0.4331  1.6210
  845MPD2    N112477   4.085   3.277  16.899  0.1531  0.3237  0.1058
  845MPD2    H712478   4.111   3.375  16.889  1.7421  0.0034  1.1616
  846MPD2     C12479   0.500   3.806  13.524  0.8742 -0.1819 -0.5872
  846MPD2    C112480   0.414   3.900  13.577  0.1351 -0.0984 -0.6978
  846MPD2    C212481   0.380   3.902  13.709 -0.4882  0.1302 -0.0538
  846MPD2    C312482   0.412   3.797  13.793  0.2462 -0.7477  0.8566
  846MPD2    C412483   0.495   3.697  13.733 -0.7907  0.0116  0.2643
  846MPD2    C512484   0.525   3.699  13.599  0.3702  0.2056 -0.1924
  846MPD2     H12485   0.325   3.990  13.741  3.3562  2.2971  0.6446
  846MPD2    H112486   0.539   3.620  13.795  0.9407  1.3443  0.7056
  846MPD2    H212487   0.544   3.813  13.425 -0.1189 -1.9174 -1.1613
  846MPD2    H312488   0.589   3.618  13.565  0.4632 -0.2099  0.9803
  846MPD2     N12489   0.366   3.787  13.925  0.5643  1.0359 -0.2108
  846MPD2    H512490   0.307   3.860  13.964 -1.3118 -1.8466  2.3437
  846MPD2    N112491   0.368   4.016  13.504 -0.0347  0.0504 -0.1642
  846MPD2    H712492   0.324   4.090  13.558 -2.6082 -1.3236 -0.3522
  847MPD2     C12493   0.283   4.697  14.815  0.3920 -0.6132  0.6373
  847MPD2    C112494   0.385   0.050  14.832  0.3031 -0.2103  0.1595
  847MPD2    C212495   0.519   0.013  14.831  0.4367  0.8694 -0.4201
  847MPD2    C312496   0.553   4.622  14.807 -0.1457 -0.1630  0.0377
  847MPD2    C412497   0.451   4.528  14.779 -0.3633  0.4115  0.0256
  847MPD2    C512498   0.322   4.569  14.791  0.4744  0.1036  0.4817
  847MPD2     H12499   0.593   0.089  14.855  0.7636  0.0510  1.1589
  847MPD2    H112500   0.463   4.421  14.768  2.2084  0.5771  1.2234
  847MPD2    H212501   0.178   4.721  14.826  0.6193  0.3493  0.7862
  847MPD2    H312502   0.238   4.509  14.758 -0.1781  1.7215 -0.8267
  847MPD2     N12503   0.688   4.593  14.830  0.2098  0.7072  0.0139
  847MPD2    H512504   0.744   4.669  14.866 -0.5987  1.3129 -0.0239
  847MPD2    N112505   0.372   0.187  14.868 -0.4494  0.2176  0.1811
  847MPD2    H712506   0.459   0.238  14.883 -0.3443  0.1342 -0.1313
  848MPD2     C12507   3.367   2.889  16.196 -0.3699 -0.1401 -0.3795
  848MPD2    C112508   3.449   2.918  16.307 -0.6561  0.2892 -0.1616
  848MPD2    C212509   3.542   3.023  16.296 -0.6030 -0.2884 -0.4825
  848MPD2    C312510   3.550   3.090  16.174 -0.4496 -0.5797  0.3835
  848MPD2    C412511   3.481   3.053  16.063  0.2926  0.3798 -0.2035
  848MPD2    C512512   3.389   2.951  16.076 -0.5209  0.8012 -0.2158
  848MPD2     H12513   3.599   3.045  16.385 -2.8709  0.4261  0.7899
  848MPD2    H112514   3.476   3.114  15.973  0.7185 -0.0243 -0.5041
  848MPD2    H212515   3.289   2.815  16.203  0.9565 -1.4528  0.5213
  848MPD2    H312516   3.326   2.935  15.989  0.7717 -1.0897 -0.8117
  848MPD2     N12517   3.631   3.202  16.150 -0.4196  0.2159  0.3139
  848MPD2    H512518   3.642   3.229  16.053 -0.9932  1.4708  0.5997
  848MPD2    N112519   3.436   2.861  16.426 -0.1322 -0.3633  0.1999
  848MPD2    H712520   3.485   2.910  16.500 -0.4985 -0.9493  0.8330
  849MPD2     C12521   2.687   2.962  13.536 -0.0764 -1.3332 -0.7682
  849MPD2    C112522   2.817   2.937  13.579 -0.2918  0.2628  0.4906
  849MPD2    C212523   2.840   2.843  13.672  0.0324 -0.6877  0.1001
  849MPD2    C312524   2.738   2.764  13.720  0.1930 -0.0463 -0.3336
  849MPD2    C412525   2.608   2.783  13.680 -0.2995  1.4843 -0.1152
  849MPD2    C512526   2.584   2.885  13.588  0.5251  0.1618 -0.4018
  849MPD2     H12527   2.943   2.821  13.699  0.2459  0.8831  0.5220
  849MPD2    H112528   2.525   2.723  13.715  0.9105 -1.0880 -1.6314
  849MPD2    H212529   2.656   3.035  13.462 -2.2313 -2.7069 -1.1885
  849MPD2    H312530   2.482   2.894  13.553  0.6519  0.3194 -0.7260
  849MPD2     N12531   2.783   2.650  13.796  0.1985  0.2369 -0.0226
  849MPD2    H512532   2.884   2.641  13.796 -0.0161 -1.9658 -0.5786
  849MPD2    N112533   2.932   2.978  13.512  0.1956  0.1249  0.3077
  849MPD2    H712534   3.022   2.955  13.551 -0.2157 -0.5690  0.8353
  850MPD2     C12535   0.546   1.387  15.185 -0.4802  0.8821 -0.1569
  850MPD2    C112536   0.560   1.248  15.191 -0.8139  0.1631  0.3959
  850MPD2    C212537   0.684   1.193  15.174 -0.0487  0.1310  0.4991
  850MPD2    C312538   0.796   1.270  15.172 -0.0244  0.2924  0.3044
  850MPD2    C412539   0.789   1.408  15.169 -0.8957 -1.1817 -0.3982
  850MPD2    C512540   0.662   1.469  15.168 -1.2160 -0.1350 -0.0212
  850MPD2     H12541   0.686   1.085  15.189  1.1355 -0.0486 -1.0105
  850MPD2    H112542   0.879   1.468  15.173 -2.1413  0.7809 -2.2580
  850MPD2    H212543   0.448   1.430  15.202 -0.6860  0.5187 -0.4130
  850MPD2    H312544   0.646   1.577  15.171 -0.3826 -0.0264  0.7295
  850MPD2     N12545   0.922   1.205  15.167 -0.0637 -0.5144  0.2570
  850MPD2    H512546   1.000   1.268  15.152 -0.9492  1.1886  2.8132
  850MPD2    N112547   0.449   1.165  15.230 -0.4087 -0.1411 -0.4323
  850MPD2    H712548   0.365   1.220  15.248  0.8768  2.0684 -1.2043
  851MPD2     C12549   0.645   0.567  15.711 -1.0425  0.1268  0.3263
  851MPD2    C112550   0.571   0.534  15.605 -0.6355  0.0627 -0.1158
  851MPD2    C212551   0.580   0.407  15.546  0.2464  0.3180  0.4726
  851MPD2    C312552   0.668   0.317  15.603  0.6058  0.3004 -0.2239
  851MPD2    C412553   0.737   0.343  15.718 -0.2592  0.1456 -0.5632
  851MPD2    C512554   0.719   0.470  15.778  0.0724  0.3890 -0.1883
  851MPD2     H12555   0.516   0.385  15.462 -1.7844  2.0457  1.5701
  851MPD2    H112556   0.803   0.274  15.769 -0.7694 -0.3024 -0.5033
  851MPD2    H212557   0.624   0.660  15.762 -0.9612  0.0810  0.4414
  851MPD2    H312558   0.769   0.496  15.870 -1.6819  0.9421  0.6016
  851MPD2     N12559   0.676   0.197  15.529 -0.1872  0.1368  0.8924
  851MPD2    H512560   0.630   0.194  15.439  2.3046 -1.6968 -0.3183
  851MPD2    N112561   0.490   0.640  15.564  0.3439 -0.4514  0.0096
  851MPD2    H712562   0.517   0.730  15.601 -0.6190 -0.9760  1.9924
  852MPD2     C12563   0.049   3.521  10.057  0.6134  0.6829 -0.4200
  852MPD2    C112564   0.136   3.586  10.141  0.0866 -0.4242 -0.2037
  852MPD2    C212565   0.247   3.649  10.094 -0.5866  0.6478  0.0748
  852MPD2    C312566   0.277   3.647   9.957  0.1685 -0.0677 -0.1528
  852MPD2    C412567   0.196   3.577   9.875  0.0173  0.0739  0.8764
  852MPD2    C512568   0.077   3.519   9.926 -0.2875  0.3299 -0.1500
  852MPD2     H12569   0.322   3.691  10.160 -1.9732 -0.7827  2.5462
  852MPD2    H112570   0.221   3.556   9.771 -2.0728 -0.2183  0.4519
  852MPD2    H212571   4.691   3.482  10.085  1.2777 -0.6546  0.0296
  852MPD2    H312572   0.002   3.470   9.865 -1.0067  0.5622  0.5498
  852MPD2     N12573   0.401   3.698   9.913 -0.6922 -0.3337  0.3501
  852MPD2    H512574   0.461   3.736   9.985  0.9368 -0.5105 -0.9003
  852MPD2    N112575   0.098   3.573  10.274  0.4400 -0.1959  0.6539
  852MPD2    H712576   0.026   3.505  10.298 -0.4752 -0.0419 -1.6555
  853MPD2     C12577   2.138   3.158  12.377 -0.6563  0.0599 -0.3741
  853MPD2    C112578   2.112   3.280  12.349 -0.5197  0.3372  0.1988
  853MPD2    C212579   2.112   3.322  12.218 -0.1069 -0.0452 -0.5602
  853MPD2    C312580   2.137   3.236  12.116  0.7745  0.2386  0.6050
  853MPD2    C412581   2.164   3.102  12.150 -0.2002  0.5716  0.1691
  853MPD2    C512582   2.162   3.064  12.281 -0.0563  0.2616 -0.0170
  853MPD2     H12583   2.090   3.424  12.190  2.2846  0.1018 -1.8734
  853MPD2    H112584   2.179   3.029  12.071  0.7659  1.5722 -0.5895
  853MPD2    H212585   2.166   3.134  12.478  3.6925 -1.3626 -1.9054
  853MPD2    H312586   2.192   2.965  12.315 -0.6415 -0.3379 -1.2248
  853MPD2     N12587   2.152   3.275  11.977 -0.0669 -0.7247  0.7218
  853MPD2    H512588   2.190   3.208  11.912 -1.1336 -0.6704  0.0456
  853MPD2    N112589   2.082   3.371  12.455 -0.3387  0.1072 -0.1037
  853MPD2    H712590   2.090   3.338  12.551 -0.8575 -4.8170 -1.7484
  854MPD2     C12591   3.638   3.358  12.779 -0.4565  0.1933 -0.3517
  854MPD2    C112592   3.681   3.390  12.904 -0.0132  0.0498 -0.2737
  854MPD2    C212593   3.803   3.342  12.953 -0.2569  0.2156 -0.2374
  854MPD2    C312594   3.874   3.260  12.870  0.6131  0.6694  0.8388
  854MPD2    C412595   3.829   3.236  12.745  0.0968 -0.1018  0.4438
  854MPD2    C512596   3.713   3.283  12.698 -0.0239  0.3580  0.0864
  854MPD2     H12597   3.823   3.359  13.058 -1.5416 -3.1516  0.5594
  854MPD2    H112598   3.889   3.180  12.674 -1.0456  0.0369 -0.6265
  854MPD2    H212599   3.542   3.388  12.738  0.0117  2.1305 -0.0624
  854MPD2    H312600   3.688   3.262  12.595  0.0962  0.6419  0.0005
  854MPD2     N12601   3.998   3.204  12.914  0.4526  0.0898 -0.4552
  854MPD2    H512602   4.048   3.139  12.854  1.6855 -1.2931  2.0171
  854MPD2    N112603   3.598   3.485  12.970 -0.1589 -0.1351  0.2906
  854MPD2    H712604   3.515   3.520  12.924  1.2524  0.0820 -2.0871
  855MPD2     C12605   4.455   3.218  13.793  0.4959  0.2043  0.1494
  855MPD2    C112606   4.439   3.083  13.751  0.3760 -0.2862  0.0017
  855MPD2    C212607   4.396   3.068  13.618 -0.1277  0.6422 -0.4057
  855MPD2    C312608   4.395   3.174  13.534 -0.9630 -0.0526 -0.7124
  855MPD2    C412609   4.419   3.299  13.580 -0.5245  0.7446 -1.1682
  855MPD2    C512610   4.437   3.325  13.711  0.1774  0.0393 -0.6599
  855MPD2     H12611   4.363   2.970  13.586  1.0737 -0.2108  0.9818
  855MPD2    H112612   4.407   3.380  13.509 -0.1616 -2.5974 -5.0013
  855MPD2    H212613   4.479   3.239  13.897 -0.7499  2.2809  0.0179
  855MPD2    H312614   4.447   3.428  13.745  1.0446 -0.8097  1.6238
  855MPD2     N12615   4.367   3.155  13.401  0.4459 -0.0711 -0.5860
  855MPD2    H512616   4.351   3.243  13.352  2.3108 -0.0978 -1.2414
  855MPD2    N112617   4.457   2.976  13.840  0.2067 -0.2330 -0.7273
  855MPD2    H712618   4.430   2.882  13.815 -0.5545 -0.2802  0.2915
  856MPD2     C12619   1.807   3.936  13.597  0.0573 -0.4380 -0.0962
  856MPD2    C112620   1.748   3.899  13.719 -0.4843  0.0241  0.0466
  856MPD2    C212621   1.624   3.956  13.756  0.5688 -0.5846 -0.0770
  856MPD2    C312622   1.558   4.045  13.671  0.0607 -0.4695 -0.0006
  856MPD2    C412623   1.618   4.074  13.551  0.1734  0.4480 -0.1181
  856MPD2    C512624   1.738   4.017  13.512 -0.5914  0.0385 -0.8440
  856MPD2     H12625   1.598   3.944  13.861 -0.6359 -0.1984 -0.3272
  856MPD2    H112626   1.572   4.139  13.478 -0.3707  1.0401  0.7502
  856MPD2    H212627   1.906   3.903  13.566 -0.5095 -2.1285 -0.1058
  856MPD2    H312628   1.785   4.039  13.417 -2.7787  0.2554 -1.8900
  856MPD2     N12629   1.440   4.113  13.706 -0.4411  0.2191  0.1571
  856MPD2    H512630   1.407   4.183  13.641  1.9112 -1.1394 -2.5286
  856MPD2    N112631   1.814   3.821  13.821 -0.1450 -0.8095  0.2440
  856MPD2    H712632   1.762   3.800  13.906 -2.1990 -0.6957 -0.9917
  857MPD2     C12633   2.775   1.531  13.008 -0.2181 -0.6177 -0.2370
  857MPD2    C112634   2.912   1.506  12.999  0.5326 -0.0903  0.2330
  857MPD2    C212635   3.001   1.607  13.010  0.6314  0.0641  0.3768
  857MPD2    C312636   2.965   1.741  13.022  0.1678 -0.2602  0.4217
  857MPD2    C412637   2.832   1.764  13.030  0.3186 -0.0532  0.0024
  857MPD2    C512638   2.741   1.660  13.017  0.4074 -0.4599  0.5008
  857MPD2     H12639   3.107   1.593  12.992  0.6805 -1.5190  1.8495
  857MPD2    H112640   2.792   1.864  13.041  1.6598  0.5605 -0.8171
  857MPD2    H212641   2.706   1.448  12.994 -0.4282 -0.5123  0.1936
  857MPD2    H312642   2.636   1.687  13.016  1.1533  2.3792 -0.5936
  857MPD2     N12643   3.067   1.830  13.051  0.7456 -0.5992 -0.7809
  857MPD2    H512644   3.161   1.793  13.044  0.7074 -0.4326 -2.1955
  857MPD2    N112645   2.953   1.370  12.978 -0.4290  0.0283 -0.1140
  857MPD2    H712646   2.885   1.312  12.929 -0.0720 -0.1355 -0.4228
  858MPD2     C12647   3.275   0.074  16.734 -0.0040 -0.0490  0.1422
  858MPD2    C112648   3.395   0.111  16.684  0.0333 -0.0009  0.3399
  858MPD2    C212649   3.474   0.200  16.757  0.9386 -0.2334  0.9113
  858MPD2    C312650   3.425   0.262  16.874 -0.4692 -0.2538  0.9172
  858MPD2    C412651   3.295   0.229  16.914  0.3270 -0.0300  0.5467
  858MPD2    C512652   3.226   0.133  16.850 -0.0649  0.1453 -0.1428
  858MPD2     H12653   3.577   0.220  16.730  0.4478 -1.0927 -1.5897
  858MPD2    H112654   3.249   0.280  16.998 -0.5605 -0.9460  0.6140
  858MPD2    H212655   3.210   0.006  16.680  0.7918 -2.0700  1.7387
  858MPD2    H312656   3.129   0.099  16.883 -0.2212  0.9502  0.2182
  858MPD2     N12657   3.506   0.336  16.963 -0.4827 -0.7567 -0.2470
  858MPD2    H512658   3.462   0.383  17.042  0.6532 -0.2540  0.0880
  858MPD2    N112659   3.433   0.041  16.566 -0.1703  0.1779  0.9858
  858MPD2    H712660   3.373   4.708  16.526  1.1838 -1.3010  1.6516
  859MPD2     C12661   2.471   2.973  15.683 -0.6444  0.7173  0.4535
  859MPD2    C112662   2.601   2.935  15.667 -0.4387  1.0480 -0.0292
  859MPD2    C212663   2.636   2.819  15.739  0.1356 -0.9196 -0.1840
  859MPD2    C312664   2.538   2.747  15.810 -0.5852 -0.4337  0.0170
  859MPD2    C412665   2.410   2.792  15.822  0.0152 -0.4193  0.2183
  859MPD2    C512666   2.382   2.909  15.757 -0.7020 -0.6871  0.1140
  859MPD2     H12667   2.742   2.797  15.743  0.1226 -0.9252  0.1341
  859MPD2    H112668   2.344   2.738  15.888 -0.0005 -0.4531  0.1749
  859MPD2    H212669   2.435   3.064  15.635 -1.9662  0.3379  0.7212
  859MPD2    H312670   2.289   2.957  15.784 -1.3277 -2.5449  1.3388
  859MPD2     N12671   2.568   2.621  15.867  0.3280 -0.7415 -0.5068
  859MPD2    H512672   2.493   2.582  15.923 -0.9148  1.3030 -0.7851
  859MPD2    N112673   2.701   2.994  15.573  0.3039  0.3721 -0.3422
  859MPD2    H712674   2.795   2.957  15.582  0.4333  0.8447  0.2922
  860MPD2     C12675   0.313   3.393  11.516  0.0220  0.0476 -0.0438
  860MPD2    C112676   0.270   3.470  11.621  0.7399  0.0516  0.0549
  860MPD2    C212677   0.183   3.413  11.716  0.1651 -0.5820  0.4490
  860MPD2    C312678   0.134   3.286  11.713 -0.0570  0.1293  0.0613
  860MPD2    C412679   0.172   3.217  11.603 -0.3854 -0.3303 -0.4147
  860MPD2    C512680   0.252   3.269  11.504  0.3973 -0.5579  0.0033
  860MPD2     H12681   0.164   3.476  11.802 -0.8508  0.6898 -0.7047
  860MPD2    H112682   0.128   3.119  11.594  2.3655 -1.5445 -0.4562
  860MPD2    H212683   0.380   3.431  11.440 -1.3802  1.2436 -0.7075
  860MPD2    H312684   0.275   3.210  11.416  0.9777 -1.4252  0.7270
  860MPD2     N12685   0.044   3.240  11.813  0.0902  0.2601 -0.6126
  860MPD2    H512686   0.025   3.308  11.886  2.2931  0.9003 -0.6311
  860MPD2    N112687   0.334   3.592  11.645  1.0202  0.5683  0.3992
  860MPD2    H712688   0.323   3.623  11.741  2.6900  1.2583  0.3631
  861MPD2     C12689   3.619   1.196  11.229 -0.4839 -0.1309  0.5321
  861MPD2    C112690   3.682   1.313  11.200 -0.1433 -0.9153  0.1261
  861MPD2    C212691   3.631   1.402  11.110  0.2327  0.2672  0.4304
  861MPD2    C312692   3.508   1.378  11.047 -0.2218 -0.0464  0.0780
  861MPD2    C412693   3.440   1.265  11.084 -0.2382  0.0877 -0.0737
  861MPD2    C512694   3.491   1.180  11.174 -0.7920 -0.2520  0.3998
  861MPD2     H12695   3.688   1.493  11.093 -0.1919  0.8409  2.0495
  861MPD2    H112696   3.347   1.229  11.042  0.7088 -0.7047 -1.4719
  861MPD2    H212697   3.653   1.114  11.292 -0.8082 -0.5066  0.2261
  861MPD2    H312698   3.442   1.084  11.184 -1.0612 -0.3551 -1.8459
  861MPD2     N12699   3.442   1.466  10.954 -0.3838  0.1718  0.4231
  861MPD2    H512700   3.351   1.438  10.921 -0.3889  0.6189  0.0581
  861MPD2    N112701   3.797   1.353  11.273  0.3650 -0.4878 -1.3699
  861MPD2    H712702   3.836   1.444  11.252  0.5358 -0.0183  0.8906
  862MPD2     C12703   2.741   1.524  10.737  0.3170  0.7606  0.5380
  862MPD2    C112704   2.841   1.494  10.827  0.4364  0.8129 -0.7134
  862MPD2    C212705   2.828   1.376  10.906 -0.2152  0.3556 -0.6367
  862MPD2    C312706   2.727   1.294  10.888  0.4367  0.0246 -0.3486
  862MPD2    C412707   2.625   1.320  10.804 -0.6467  0.0392  0.1957
  862MPD2    C512708   2.634   1.438  10.733  0.6731 -0.0690 -0.2078
  862MPD2     H12709   2.914   1.361  10.970 -1.6752 -1.6222  0.8839
  862MPD2    H112710   2.546   1.247  10.791  0.1542 -1.1523  1.9916
  862MPD2    H212711   2.734   1.615  10.678  3.1257  0.1045 -0.7830
  862MPD2    H312712   2.558   1.447  10.656 -1.4815  0.2444  1.9583
  862MPD2     N12713   2.734   1.166  10.956 -0.6282  0.3354 -0.0195
  862MPD2    H512714   2.663   1.095  10.937 -0.7308  0.8046 -1.3805
  862MPD2    N112715   2.973   1.556  10.834  0.2880  0.3908 -0.1097
  862MPD2    H712716   3.038   1.520  10.903 -1.8486 -3.1263  0.0792
  863MPD2     C12717   2.132   3.723  16.737  0.4016 -0.0647 -0.9159
  863MPD2    C112718   2.157   3.858  16.725  0.0076  0.5428  0.4055
  863MPD2    C212719   2.266   3.904  16.797 -0.4018 -0.9213  0.1985
  863MPD2    C312720   2.345   3.820  16.872  0.1854 -0.0776  0.2795
  863MPD2    C412721   2.321   3.683  16.880 -0.0417  0.2480  0.2822
  863MPD2    C512722   2.208   3.644  16.816  0.4009  0.1355 -0.7640
  863MPD2     H12723   2.300   4.007  16.794  0.4994 -1.2639 -1.6964
  863MPD2    H112724   2.392   3.618  16.931 -0.5966  0.1305  0.9068
  863MPD2    H212725   2.045   3.678  16.690  1.2009 -1.2627 -1.2718
  863MPD2    H312726   2.183   3.540  16.802  4.2013 -0.6903 -1.3592
  863MPD2     N12727   2.449   3.868  16.956 -0.3673 -0.3751  0.0457
  863MPD2    H512728   2.508   3.805  17.010  1.3315  1.3239  0.1672
  863MPD2    N112729   2.069   3.943  16.651  0.0467  0.1466 -0.2746
  863MPD2    H712730   1.988   3.905  16.603  0.1699 -0.7297  0.2262
  864MPD2     C12731   2.587   0.355  17.254  0.0490  0.6599  0.0210
  864MPD2    C112732   2.641   0.270  17.156  0.0001 -0.0821 -0.5028
  864MPD2    C212733   2.734   0.323  17.073  0.2606  0.3829 -0.4647
  864MPD2    C312734   2.781   0.453  17.076 -0.2902 -0.7422  0.7615
  864MPD2    C412735   2.736   0.533  17.180  0.9155 -0.7459  0.1830
  864MPD2    C512736   2.643   0.481  17.266  0.2763 -0.1741 -0.6709
  864MPD2     H12737   2.791   0.257  17.008  1.6118 -0.8081  1.9246
  864MPD2    H112738   2.788   0.626  17.200 -0.7545  0.4223 -0.8949
  864MPD2    H212739   2.508   0.334  17.325 -0.1173 -0.0065 -0.3580
  864MPD2    H312740   2.601   0.542  17.345 -0.2486  0.8361 -1.7298
  864MPD2     N12741   2.891   0.507  16.996  0.3749 -0.2367  0.0597
  864MPD2    H512742   2.922   0.600  17.021  0.8744  0.3649 -2.7459
  864MPD2    N112743   2.603   0.136  17.137 -0.4797 -0.5911  0.4488
  864MPD2    H712744   2.653   0.090  17.062  0.6226 -0.9182  1.3781
  865MPD2     C12745   2.974   0.901  16.327  0.4421  0.5115 -0.3982
  865MPD2    C112746   2.984   0.790  16.404  0.2043 -0.1391 -1.0235
  865MPD2    C212747   3.017   0.809  16.535 -0.4894 -0.6542  0.9887
  865MPD2    C312748   3.050   0.933  16.593 -1.0977 -0.1704 -0.0257
  865MPD2    C412749   3.038   1.040  16.506  0.4017 -0.4235  0.7414
  865MPD2    C512750   3.001   1.024  16.378  0.3209  0.4049 -0.5550
  865MPD2     H12751   3.018   0.720  16.596  0.5143 -2.1568 -1.2341
  865MPD2    H112752   3.068   1.138  16.540 -1.0987  0.0206  0.7577
  865MPD2    H212753   2.939   0.898  16.225 -1.5373  6.7261  0.1416
  865MPD2    H312754   3.008   1.104  16.306 -1.8155  0.0638 -1.1322
  865MPD2     N12755   3.105   0.951  16.727  0.6678 -0.0377  0.0594
  865MPD2    H512756   3.098   1.044  16.766  1.9115  0.4022 -0.7779
  865MPD2    N112757   2.962   0.668  16.345  0.4854  0.0801 -0.3186
  865MPD2    H712758   2.929   0.671  16.249 -1.3915  2.5939  0.3959
  866MPD2     C12759   4.534   2.110  10.827  0.4404  0.1887 -0.7951
  866MPD2    C112760   4.501   1.985  10.859  0.1372  0.1690 -0.4855
  866MPD2    C212761   4.370   1.960  10.910  0.2108  0.0015 -0.2830
  866MPD2    C312762   4.279   2.068  10.924 -0.3491 -0.0123  0.2023
  866MPD2    C412763   4.314   2.191  10.872 -0.2329 -0.4128  0.2822
  866MPD2    C512764   4.441   2.202  10.820 -0.8329  0.4116  0.9144
  866MPD2     H12765   4.344   1.858  10.935  0.6857  0.2131  1.0652
  866MPD2    H112766   4.248   2.276  10.860 -0.2061 -0.3579  0.5081
  866MPD2    H212767   4.630   2.133  10.782  1.6743 -2.2327  0.6132
  866MPD2    H312768   4.472   2.301  10.787 -0.8719 -0.1465 -0.7738
  866MPD2     N12769   4.147   2.058  10.975 -0.8889  0.0429  0.1721
  866MPD2    H512770   4.077   2.132  10.979 -1.5187 -0.4948 -1.2101
  866MPD2    N112771   4.595   1.884  10.872  0.2712  0.8907 -0.2622
  866MPD2    H712772   4.682   1.927  10.842  0.0883 -0.0936 -2.2344
  867MPD2     C12773   2.003   1.378  16.685  0.5702  0.3251 -0.0195
  867MPD2    C112774   2.043   1.318  16.804  0.3432  0.3311  0.4684
  867MPD2    C212775   2.096   1.392  16.910 -0.4353  0.2308  0.6372
  867MPD2    C312776   2.108   1.529  16.902  0.0444 -0.0301 -0.5334
  867MPD2    C412777   2.078   1.588  16.782  0.4809 -0.1773  0.3566
  867MPD2    C512778   2.018   1.515  16.677 -0.2163  0.2459 -0.7151
  867MPD2     H12779   2.121   1.340  17.002  1.7664  1.4108  0.7085
  867MPD2    H112780   2.083   1.695  16.764  0.1825 -0.1905  0.1893
  867MPD2    H212781   1.975   1.328  16.593  0.6005  0.9524 -0.3697
  867MPD2    H312782   1.991   1.557  16.581 -4.7565 -1.6753 -0.2671
  867MPD2     N12783   2.145   1.615  17.011 -0.2802  0.0808  0.7626
  867MPD2    H512784   2.146   1.716  17.000  1.2351 -0.0539 -0.2487
  867MPD2    N112785   2.026   1.178  16.811  0.2707  0.1917  0.1681
  867MPD2    H712786   1.981   1.138  16.729  0.0183 -1.0051  0.8910
  868MPD2     C12787   3.488   4.481  12.942 -0.3427  0.3398  0.1012
  868MPD2    C112788   3.538   4.445  13.067 -0.0618 -0.4772 -0.8878
  868MPD2    C212789   3.455   4.436  13.178 -0.0271 -0.3617 -0.2736
  868MPD2    C312790   3.322   4.465  13.166  0.7877 -0.3589  0.1188
  868MPD2    C412791   3.266   4.491  13.041  0.2641  0.3502  0.1575
  868MPD2    C512792   3.352   4.510  12.932 -0.3553  0.5097 -0.1315
  868MPD2     H12793   3.490   4.418  13.279 -0.5149  0.1890 -0.0097
  868MPD2    H112794   3.163   4.513  13.017  0.3101 -1.2060 -1.4635
  868MPD2    H212795   3.557   4.493  12.859  1.2775  0.1514  1.4115
  868MPD2    H312796   3.310   4.527  12.833 -0.4334 -1.2486 -0.4072
  868MPD2     N12797   3.242   4.459  13.281  0.5473  0.3201  0.4996
  868MPD2    H512798   3.276   4.431  13.373 -1.6691 -0.1947  1.1606
  868MPD2    N112799   3.671   4.419  13.080 -0.1633  0.3363 -0.1178
  868MPD2    H712800   3.732   4.464  13.013 -1.0452  1.0549 -0.4407
  869MPD2     C12801   0.295   3.985   1.716 -0.8444 -0.5318  0.2389
  869MPD2    C112802   0.315   3.877   1.634 -0.5854 -0.0671  0.7905
  869MPD2    C212803   0.349   3.901   1.500 -0.0148 -0.1476  0.3216
  869MPD2    C312804   0.377   4.028   1.458  0.3376  0.0659 -0.2110
  869MPD2    C412805   0.351   4.134   1.543 -0.5971 -0.2787  0.4341
  869MPD2    C512806   0.304   4.113   1.673  0.6265  0.4620 -0.3018
  869MPD2     H12807   0.370   3.810   1.446 -0.5294 -0.6114  0.9049
  869MPD2    H112808   0.370   4.238   1.516  0.0237 -0.8408 -1.2990
  869MPD2    H212809   0.245   3.977   1.811 -0.7115  1.3551  0.4544
  869MPD2    H312810   0.279   4.201   1.732 -0.9779 -0.8931  1.0190
  869MPD2     N12811   0.423   4.069   1.332 -0.3412  0.1577  0.0341
  869MPD2    H512812   0.429   4.168   1.310 -1.0036  0.2838  0.4322
  869MPD2    N112813   0.266   3.756   1.683 -0.2333 -0.5261  0.2701
  869MPD2    H712814   0.255   3.761   1.784 -2.2091 -1.5525  0.1032
  870MPD2     C12815   3.767   1.703   1.399  0.1802 -0.2827 -0.2806
  870MPD2    C112816   3.828   1.743   1.284  0.3824  0.7929 -0.4939
  870MPD2    C212817   3.786   1.860   1.218  0.2441  0.4617  0.4227
  870MPD2    C312818   3.675   1.937   1.263 -0.2056 -0.0314 -0.2833
  870MPD2    C412819   3.608   1.891   1.376 -0.2514  0.4839  0.3703
  870MPD2    C512820   3.654   1.770   1.434  0.1798  0.2438  0.4053
  870MPD2     H12821   3.853   1.897   1.142 -0.8814  0.2529 -0.6753
  870MPD2    H112822   3.522   1.945   1.415 -0.9625  0.9806 -1.8911
  870MPD2    H212823   3.792   1.613   1.454  1.7981  0.1472 -0.3239
  870MPD2    H312824   3.601   1.728   1.519 -0.2071  2.4878  1.2721
  870MPD2     N12825   3.646   2.063   1.206  0.2230  0.6206 -0.4794
  870MPD2    H512826   3.692   2.083   1.118  1.1797 -1.2468 -0.3918
  870MPD2    N112827   3.935   1.668   1.228  0.1231 -0.2909  0.0852
  870MPD2    H712828   3.977   1.597   1.286 -1.3756 -1.2320  0.0120
  871MPD2     C12829   0.692   1.346  16.231 -0.4395  0.3987  0.7217
  871MPD2    C112830   0.669   1.254  16.335 -0.1133  0.5511  0.4152
  871MPD2    C212831   0.668   1.121  16.299  1.2331  0.1171  0.4659
  871MPD2    C312832   0.692   1.070  16.171  0.1059 -0.5083  0.4926
  871MPD2    C412833   0.709   1.160  16.074 -0.7112 -0.2865 -0.8033
  871MPD2    C512834   0.707   1.298  16.102  0.3027 -0.2156  0.1508
  871MPD2     H12835   0.654   1.048  16.379 -1.2349 -0.7787 -0.7772
  871MPD2    H112836   0.723   1.128  15.971  4.5285 -2.8429  0.7029
  871MPD2    H212837   0.688   1.451  16.253  1.8062  0.9198 -1.3975
  871MPD2    H312838   0.733   1.366  16.022 -1.3588 -0.1089 -0.2857
  871MPD2     N12839   0.705   0.930  16.152  0.3819 -0.2818  0.6101
  871MPD2    H512840   0.689   0.869  16.232 -1.3158 -2.9806 -1.8038
  871MPD2    N112841   0.641   1.303  16.466  0.3760 -0.2564  0.2946
  871MPD2    H712842   0.644   1.405  16.474 -2.4413 -0.1162 -0.4240
  872MPD2     C12843   1.441   3.783  13.403 -0.0400 -0.1323  0.5546
  872MPD2    C112844   1.520   3.690  13.473 -0.4851 -0.2205  0.0307
  872MPD2    C212845   1.458   3.631  13.583  0.0972  0.3058 -0.5787
  872MPD2    C312846   1.333   3.660  13.629  0.6133 -0.5372 -0.1002
  872MPD2    C412847   1.271   3.765  13.566 -0.5259  0.1301 -0.2169
  872MPD2    C512848   1.319   3.814  13.454 -0.5427 -0.3290 -0.1228
  872MPD2     H12849   1.520   3.559  13.635 -2.1800  0.2058  2.0321
  872MPD2    H112850   1.171   3.802  13.589 -1.3734 -2.0542 -0.3245
  872MPD2    H212851   1.464   3.843  13.316 -1.5463  1.5641  1.3417
  872MPD2    H312852   1.254   3.887  13.408  1.9107  2.5518  0.9955
  872MPD2     N12853   1.287   3.611  13.753  0.1867 -0.0022  0.1365
  872MPD2    H512854   1.198   3.650  13.781 -1.0183 -0.6462 -2.8139
  872MPD2    N112855   1.654   3.650  13.445 -0.1428  0.3941  0.5502
  872MPD2    H712856   1.687   3.574  13.503 -0.7208  0.0835  0.4769
  873MPD2     C12857   3.387   3.102   0.874  0.1262  0.0494  0.3701
  873MPD2    C112858   3.284   3.098   0.965  0.7256 -0.5916  0.3140
  873MPD2    C212859   3.196   2.992   0.968 -0.5647 -0.0052 -0.1102
  873MPD2    C312860   3.207   2.889   0.873 -0.2306  0.0592  0.2261
  873MPD2    C412861   3.296   2.905   0.774  0.0156 -0.3749  0.0545
  873MPD2    C512862   3.385   3.006   0.772 -0.7766 -0.1488  0.8057
  873MPD2     H12863   3.116   2.984   1.041 -1.0899 -0.3058 -0.7216
  873MPD2    H112864   3.321   2.822   0.708  1.7693  0.8733 -0.8318
  873MPD2    H212865   3.462   3.179   0.859  0.2257  0.0918  1.0980
  873MPD2    H312866   3.460   3.012   0.694 -1.5749 -1.1615 -0.0270
  873MPD2     N12867   3.127   2.767   0.870 -0.1107  0.0466 -0.8090
  873MPD2    H512868   3.125   2.710   0.786 -0.0294  0.1547 -0.8853
  873MPD2    N112869   3.261   3.212   1.050 -0.5015  0.0581  0.0282
  873MPD2    H712870   3.336   3.279   1.060 -0.2376  0.0645 -2.0613
  874MPD2     C12871   3.033   3.391  15.987  0.4727  0.6451 -0.5205
  874MPD2    C112872   3.105   3.322  16.082  0.1121  0.5322 -0.3435
  874MPD2    C212873   3.238   3.355  16.101  0.4321  0.0692  0.4832
  874MPD2    C312874   3.297   3.455  16.032 -0.5110  0.2828  0.6019
  874MPD2    C412875   3.220   3.524  15.943  0.3139 -0.3570  0.6056
  874MPD2    C512876   3.089   3.497  15.920  0.5629  0.8529  0.0778
  874MPD2     H12877   3.300   3.300  16.170 -1.3264 -0.4685  1.6271
  874MPD2    H112878   3.265   3.604  15.885  0.6021 -1.8439 -1.2177
  874MPD2    H212879   2.926   3.372  15.988  0.4025  1.1947  1.0622
  874MPD2    H312880   3.031   3.560  15.854 -0.7557  0.6436  1.0339
  874MPD2     N12881   3.435   3.481  16.061 -0.0405 -0.4585 -0.0886
  874MPD2    H512882   3.484   3.420  16.125  1.8131  0.6684 -0.4397
  874MPD2    N112883   3.042   3.219  16.153 -0.4459  0.4103  0.2738
  874MPD2    H712884   2.950   3.184  16.128 -0.5730  0.6098  0.4660
  875MPD2     C12885   4.141   1.699  14.580  0.5087 -0.2781  0.3633
  875MPD2    C112886   4.028   1.643  14.639  0.3999 -1.0257  0.5359
  875MPD2    C212887   4.030   1.625  14.781  0.3402 -0.1927  0.0378
  875MPD2    C312888   4.121   1.690  14.863 -0.1591  0.2581 -0.7656
  875MPD2    C412889   4.222   1.756  14.803 -0.3371  0.2772  0.1805
  875MPD2    C512890   4.234   1.745  14.668  0.4980  0.0431 -0.2070
  875MPD2     H12891   3.942   1.573  14.817  0.4482 -0.6327 -0.3403
  875MPD2    H112892   4.295   1.805  14.867 -0.0146  0.9081 -0.6650
  875MPD2    H212893   4.151   1.706  14.472 -0.1839  0.4647  0.3412
  875MPD2    H312894   4.312   1.804  14.622 -0.0937  1.2705  0.3678
  875MPD2     N12895   4.115   1.694  15.003  0.5042  0.6884 -0.0630
  875MPD2    H512896   4.177   1.763  15.044  2.0304  0.4469 -1.9232
  875MPD2    N112897   3.908   1.608  14.569 -0.4380  0.8487 -0.5908
  875MPD2    H712898   3.826   1.594  14.627 -0.9096 -0.9906 -1.6986
  876MPD2     C12899   2.834   3.080  15.877 -0.2582  0.8426  1.2648
  876MPD2    C112900   2.961   3.043  15.845 -0.8101 -0.0343  0.7396
  876MPD2    C212901   3.006   2.917  15.888 -0.0318 -0.2719 -0.3902
  876MPD2    C312902   2.931   2.834  15.969 -0.2092  0.5833 -0.3879
  876MPD2    C412903   2.799   2.875  16.004  0.0471  0.3409 -0.0783
  876MPD2    C512904   2.761   3.002  15.960  0.5741 -0.0106  0.2298
  876MPD2     H12905   3.113   2.900  15.883 -0.2585 -0.6366 -3.5764
  876MPD2    H112906   2.721   2.814  16.046  0.1437  0.9945  1.0403
  876MPD2    H212907   2.797   3.178  15.847 -1.4259 -0.2537 -0.9051
  876MPD2    H312908   2.657   3.026  15.978  1.0382  0.9078  1.7289
  876MPD2     N12909   2.982   2.705  16.002  0.0086  0.0007  0.4253
  876MPD2    H512910   3.079   2.689  15.975 -0.0927  1.6941 -0.9641
  876MPD2    N112911   3.036   3.143  15.782  0.9318 -1.0990  0.6099
  876MPD2    H712912   2.985   3.224  15.747  1.7030 -1.1069 -0.5492
  877MPD2     C12913   2.951   3.544  15.145 -0.3511 -0.0279  0.3370
  877MPD2    C112914   3.076   3.489  15.141  0.1838 -0.2630 -0.4907
  877MPD2    C212915   3.128   3.468  15.017  0.5268 -0.0908 -0.3982
  877MPD2    C312916   3.054   3.486  14.897  0.2598  0.0602  0.3400
  877MPD2    C412917   2.932   3.549  14.910  0.8058 -0.0919  0.7636
  877MPD2    C512918   2.880   3.573  15.036 -0.3937 -0.3229  0.2888
  877MPD2     H12919   3.216   3.405  15.028  1.3703  1.1231 -0.0541
  877MPD2    H112920   2.874   3.563  14.820  1.6756 -2.5057 -0.1644
  877MPD2    H212921   2.894   3.555  15.237 -0.2035  1.2241  0.2735
  877MPD2    H312922   2.774   3.594  15.035 -0.3324 -0.0715 -1.6997
  877MPD2     N12923   3.097   3.449  14.766  0.0940 -0.2041  0.3465
  877MPD2    H512924   3.029   3.460  14.691 -0.3684 -1.2577  0.6145
  877MPD2    N112925   3.146   3.455  15.263  0.3491 -0.0327  0.3504
  877MPD2    H712926   3.246   3.442  15.260  0.3763  0.5840 -1.4759
  878MPD2     C12927   3.111   2.774  12.613 -0.1349  0.1482  0.9961
  878MPD2    C112928   3.050   2.896  12.639 -0.5095  0.5805  0.1818
  878MPD2    C212929   3.075   2.969  12.757 -0.5604  0.4009  0.2136
  878MPD2    C312930   3.168   2.917  12.842 -0.0320 -0.1795 -0.4464
  878MPD2    C412931   3.246   2.807  12.803  0.3078  0.2016 -0.6918
  878MPD2    C512932   3.213   2.733  12.689 -0.2996 -0.2907 -0.2108
  878MPD2     H12933   3.018   3.056  12.789 -0.2617  1.2682 -1.6118
  878MPD2    H112934   3.313   2.763  12.875  1.8219 -0.2229 -2.3591
  878MPD2    H212935   3.090   2.721  12.521 -2.2940 -0.0531  1.6034
  878MPD2    H312936   3.257   2.636  12.669 -0.7160 -0.7727  1.1626
  878MPD2     N12937   3.175   2.965  12.976 -0.6655 -0.2482  0.0895
  878MPD2    H512938   3.104   3.035  12.996  0.5087  0.4604  1.6820
  878MPD2    N112939   2.937   2.928  12.565 -0.7698  0.1632  0.4338
  878MPD2    H712940   2.909   2.858  12.497  0.2981 -0.5463  0.7273
  879MPD2     C12941   3.457   3.596  17.258  0.4852  0.0606 -0.0477
  879MPD2    C112942   3.329   3.630  17.249 -0.3861 -0.0796  0.0787
  879MPD2    C212943   3.244   3.602  17.140 -0.8875  0.5784  0.1509
  879MPD2    C312944   3.291   3.528  17.029  0.1427 -0.2575 -0.5158
  879MPD2    C412945   3.429   3.508  17.035 -1.3789  1.1830  0.4124
  879MPD2    C512946   3.507   3.541  17.147 -0.5609 -0.4686 -0.1529
  879MPD2     H12947   3.139   3.627  17.148 -1.1796 -0.4571 -0.4785
  879MPD2    H112948   3.478   3.465  16.949  0.1163  2.1279  0.8012
  879MPD2    H212949   3.527   3.625  17.335  0.7068  0.7578 -0.5157
  879MPD2    H312950   3.611   3.511  17.146 -0.7958 -1.1897 -2.5920
  879MPD2     N12951   3.220   3.468  16.923 -0.3084 -0.6208  0.4543
  879MPD2    H512952   3.266   3.409  16.854 -2.0994 -1.8460  0.2783
  879MPD2    N112953   3.272   3.700  17.353  0.4985 -0.0371  0.3844
  879MPD2    H712954   3.174   3.722  17.342  0.1237 -1.8660  0.0551
  880MPD2     C12955   4.028   1.425   0.774 -0.2302 -0.3183 -0.0353
  880MPD2    C112956   4.117   1.435   0.673  0.1847 -0.3212  0.9433
  880MPD2    C212957   4.198   1.323   0.647  0.0888  0.2794 -0.4217
  880MPD2    C312958   4.178   1.201   0.703  0.1874 -0.1212 -0.1281
  880MPD2    C412959   4.091   1.193   0.812 -0.7239 -0.3340 -0.0218
  880MPD2    C512960   4.020   1.306   0.846 -0.2230  1.4019 -0.6242
  880MPD2     H12961   4.266   1.338   0.564  0.4678 -1.1112 -0.3608
  880MPD2    H112962   4.078   1.107   0.876  0.9188  0.8956  1.9615
  880MPD2    H212963   3.974   1.513   0.809 -2.1948 -1.8558  0.7748
  880MPD2    H312964   3.959   1.311   0.935  0.4559 -0.2492 -0.0589
  880MPD2     N12965   4.262   1.091   0.661  0.3568  0.1569 -0.0346
  880MPD2    H512966   4.312   1.101   0.574  0.9947 -1.0113  0.2101
  880MPD2    N112967   4.125   1.563   0.617  0.3186 -0.1678 -0.0913
  880MPD2    H712968   4.066   1.631   0.665 -1.4249 -0.8061 -1.3255
  881MPD2     C12969   0.037   2.207   0.007 -0.8575  0.0659 -0.4073
  881MPD2    C112970   4.707   2.093  17.722 -0.3036  0.4008 -0.7831
  881MPD2    C212971   4.592   2.057   0.045  0.6518  0.0901 -0.6006
  881MPD2    C312972   4.560   2.118   0.163 -0.3212  0.8508 -0.7594
  881MPD2    C412973   4.627   2.233   0.197  0.3118  0.2762 -0.5180
  881MPD2    C512974   4.719   2.274   0.111  0.1233 -0.0650 -0.0335
  881MPD2     H12975   4.535   1.971   0.010  1.5718 -1.0230  0.6558
  881MPD2    H112976   4.611   2.295   0.284 -0.1908  0.8625 -1.0325
  881MPD2    H212977   0.111   2.262  17.703 -2.1134  1.7463 -0.4206
  881MPD2    H312978   0.008   2.378   0.126 -1.5758  0.3604  0.1066
  881MPD2     N12979   4.470   2.065   0.258 -0.3135  1.0627 -0.5187
  881MPD2    H512980   4.487   2.107   0.349  3.0604 -3.6460  1.0485
  881MPD2    N112981   4.724   2.058  17.584 -0.1512  0.3996  0.3072
  881MPD2    H712982   0.057   2.103  17.529  0.6979 -0.5365  0.6538
  882MPD2     C12983   2.858   3.070  14.060  0.1505 -0.4221  0.5275
  882MPD2    C112984   2.853   3.122  14.185  0.2855  0.2586 -0.1350
  882MPD2    C212985   2.731   3.124  14.246  0.6526 -0.3164 -0.3594
  882MPD2    C312986   2.620   3.067  14.185  1.3496 -0.0076  0.0095
  882MPD2    C412987   2.623   3.025  14.054  0.2291  0.1358 -0.6072
  882MPD2    C512988   2.747   3.022  13.994  0.0564 -0.6142  0.1344
  882MPD2     H12989   2.734   3.151  14.351 -0.4081  0.5557 -0.5553
  882MPD2    H112990   2.535   2.989  14.002  0.8004 -0.4385 -1.1700
  882MPD2    H212991   2.957   3.064  14.017  0.1787 -1.5864  0.7587
  882MPD2    H312992   2.750   2.981  13.894  1.0820  0.4758 -0.2772
  882MPD2     N12993   2.492   3.055  14.254  0.6705  0.5509 -0.7233
  882MPD2    H512994   2.410   3.019  14.207  2.9961 -1.7605 -2.9764
  882MPD2    N112995   2.979   3.164  14.241  0.3927 -0.9465 -0.2881
  882MPD2    H712996   3.054   3.115  14.194 -1.0385 -2.2475 -1.2304
  883MPD2     C12997   0.156   3.736  16.145 -0.0732  0.5567 -0.3012
  883MPD2    C112998   0.193   3.643  16.052 -0.5818  0.4884  0.2743
  883MPD2    C212999   0.256   3.527  16.103  0.0632 -0.4266 -0.1405
  883MPD2    C313000   0.285   3.509  16.237 -0.2348 -0.1561 -0.1878
  883MPD2    C413001   0.250   3.613  16.325  0.8228 -0.0472 -0.5823
  883MPD2    C513002   0.177   3.715  16.275 -0.0175  0.3062  0.3805
  883MPD2     H13003   0.280   3.448  16.033 -2.8299 -2.0630  0.7213
  883MPD2    H113004   0.257   3.604  16.432  0.4526 -0.1198 -0.5644
  883MPD2    H213005   0.083   3.814  16.129  0.4242  1.0790 -0.0298
  883MPD2    H313006   0.138   3.778  16.354  0.4127  0.1943  0.6825
  883MPD2     N13007   0.352   3.388  16.287  0.7217  0.2994  0.1090
  883MPD2    H513008   0.391   3.328  16.216  0.0610 -2.3131  1.9691
  883MPD2    N113009   0.165   3.647  15.914  0.0164  0.1823 -0.2130
  883MPD2    H713010   0.206   3.571  15.861 -0.1685  1.2211 -1.8238
  884MPD2     C13011   2.145   4.107  15.228 -0.3811 -0.0986  1.1600
  884MPD2    C113012   2.140   4.231  15.168 -0.3262  0.0530 -0.6406
  884MPD2    C213013   2.017   4.284  15.138  0.4909  0.7813 -0.6857
  884MPD2    C313014   1.899   4.223  15.176  0.1822 -0.3930 -0.5628
  884MPD2    C413015   1.916   4.102  15.242  0.6601 -0.9601 -0.9628
  884MPD2    C513016   2.034   4.037  15.267 -0.4203  0.1601  0.0824
  884MPD2     H13017   2.020   4.373  15.076 -1.2811  0.8686 -0.6274
  884MPD2    H113018   1.833   4.039  15.272 -0.1836  0.5753 -0.1296
  884MPD2    H213019   2.242   4.066  15.251  0.6425  1.3735 -0.4830
  884MPD2    H313020   2.040   3.940  15.314 -0.1147  0.2010  0.1306
  884MPD2     N13021   1.773   4.280  15.154 -0.0574  0.2443 -0.4372
  884MPD2    H513022   1.765   4.374  15.115 -0.5424 -0.0789 -1.1124
  884MPD2    N113023   2.251   4.306  15.126  0.4499  0.3618 -0.0981
  884MPD2    H713024   2.230   4.393  15.079  1.4696  0.8713  0.3813
  885MPD2     C13025   0.066   4.123   0.029 -0.2318 -0.2004  0.2940
  885MPD2    C113026   0.200   4.161   0.047  0.5625 -0.1258  0.5317
  885MPD2    C213027   0.250   4.247  17.706  0.1647  0.7072 -0.2840
  885MPD2    C313028   0.172   4.317  17.615 -0.2060  0.3723  0.7005
  885MPD2    C413029   0.036   4.278  17.607  1.0508 -0.1483 -0.2925
  885MPD2    C513030   4.725   4.181  17.689  0.1826  0.2652 -0.2694
  885MPD2     H13031   0.355   4.272  17.702  0.5083 -0.3263  1.7442
  885MPD2    H113032   4.710   4.312  17.528  2.7537  1.9603 -0.7786
  885MPD2    H213033   0.016   4.047   0.087 -1.8484 -0.3277 -1.2630
  885MPD2    H313034   4.623   4.147  17.680 -0.3271  0.9620  2.6452
  885MPD2     N13035   0.239   4.418  17.539  0.5286 -0.2068  0.0020
  885MPD2    H513036   0.337   4.425  17.565  0.2782  0.8166  0.6567
  885MPD2    N113037   0.278   4.099   0.148  0.0492 -0.0947 -0.1240
  885MPD2    H713038   0.238   4.021   0.200 -0.8523  1.9313  2.2471
  886MPD2     C13039   1.824   2.535  14.950  1.1241  0.2024  1.0413
  886MPD2    C113040   1.925   2.591  15.023 -0.8816  0.3242  0.2955
  886MPD2    C213041   1.909   2.725  15.051  0.5579 -0.3583 -0.2653
  886MPD2    C313042   1.807   2.800  15.009 -0.2256 -0.0776  0.2561
  886MPD2    C413043   1.711   2.743  14.932 -0.1224 -0.4974 -0.1685
  886MPD2    C513044   1.720   2.609  14.902  0.3515  0.6639  0.3202
  886MPD2     H13045   1.981   2.783  15.108 -0.1490  1.6993 -1.4786
  886MPD2    H113046   1.634   2.800  14.882  0.3277  0.6662  0.4834
  886MPD2    H213047   1.824   2.435  14.909 -1.0013  1.3375 -1.7461
  886MPD2    H313048   1.656   2.567  14.825 -1.0894  1.4038  1.1098
  886MPD2     N13049   1.808   2.941  15.032 -0.1681  1.0060 -0.8406
  886MPD2    H513050   1.890   2.976  15.080 -0.1826 -0.2420  0.0821
  886MPD2    N113051   2.044   2.530  15.062 -0.7425  0.4559 -0.3340
  886MPD2    H713052   2.092   2.581  15.136 -2.4466  0.3576  0.8564
  887MPD2     C13053   2.109   2.579  15.660 -0.1019 -0.5914  0.2766
  887MPD2    C113054   2.139   2.640  15.541 -0.2694  0.6797 -0.4943
  887MPD2    C213055   2.088   2.772  15.517  0.2702 -0.2465  0.3191
  887MPD2    C313056   2.007   2.834  15.604 -0.0651 -0.1625 -0.1456
  887MPD2    C413057   1.979   2.762  15.717 -0.7545 -0.5934  0.5128
  887MPD2    C513058   2.031   2.642  15.748 -0.3497  0.0637  0.3385
  887MPD2     H13059   2.116   2.829  15.429 -0.5783  1.0286  0.8813
  887MPD2    H113060   1.923   2.809  15.798 -1.9981  0.5104 -0.9859
  887MPD2    H213061   2.129   2.477  15.692  2.7107 -0.0927  0.0828
  887MPD2    H313062   2.009   2.585  15.837  0.2307  1.1579  1.1892
  887MPD2     N13063   1.941   2.957  15.590  0.0632  0.7185 -0.3219
  887MPD2    H513064   1.887   2.986  15.670 -0.2617 -1.5223  0.2884
  887MPD2    N113065   2.218   2.571  15.442  0.0956 -0.1380 -0.5701
  887MPD2    H713066   2.218   2.621  15.354  1.4146  0.6304 -0.1298
  888MPD2     C13067   3.963   2.625  14.720 -0.0433  0.2766 -0.0343
  888MPD2    C113068   3.998   2.641  14.855 -0.0778  0.5282 -0.5951
  888MPD2    C213069   4.057   2.763  14.894 -0.5480 -0.4223  0.0264
  888MPD2    C313070   4.090   2.865  14.808  0.7298  0.2361 -0.7193
  888MPD2    C413071   4.049   2.848  14.680 -0.0029 -0.0156  0.3928
  888MPD2    C513072   3.979   2.736  14.641  0.0700 -0.0435 -0.1745
  888MPD2     H13073   4.073   2.769  15.001  3.0342  2.4323 -0.6519
  888MPD2    H113074   4.075   2.922  14.605  0.0783 -0.7104 -0.2627
  888MPD2    H213075   3.901   2.546  14.680 -1.2002  1.0775  0.1604
  888MPD2    H313076   3.943   2.728  14.539 -1.3797 -0.3496  0.3643
  888MPD2     N13077   4.156   2.981  14.860  0.6581 -0.2040 -0.5893
  888MPD2    H513078   4.184   2.983  14.958 -0.9219 -0.6745 -0.1178
  888MPD2    N113079   3.959   2.543  14.951  0.4741  0.4663  0.0806
  888MPD2    H713080   3.976   2.572  15.046 -0.5080  2.0289 -0.2157
  889MPD2     C13081   3.500   2.463  12.731 -0.0129  0.2084  0.5184
  889MPD2    C113082   3.537   2.452  12.869 -0.6551 -0.0355 -0.0527
  889MPD2    C213083   3.594   2.565  12.924 -0.3411 -0.1276  0.4860
  889MPD2    C313084   3.610   2.681  12.849  0.9346 -0.1856  0.3847
  889MPD2    C413085   3.585   2.679  12.713 -1.4119  0.1765  0.2532
  889MPD2    C513086   3.528   2.574  12.655 -0.2437  0.2582 -0.5005
  889MPD2     H13087   3.612   2.574  13.031 -0.2341  1.2538  0.3456
  889MPD2    H113088   3.589   2.759  12.640  0.5692  0.5380  0.7486
  889MPD2    H213089   3.443   2.386  12.680 -0.1461  0.3247  0.4927
  889MPD2    H313090   3.509   2.577  12.548 -2.1757 -2.0848 -0.2123
  889MPD2     N13091   3.636   2.801  12.916 -0.6902 -0.8875 -0.9074
  889MPD2    H513092   3.639   2.805  13.018  0.5504  1.7264 -1.0452
  889MPD2    N113093   3.484   2.355  12.955 -0.3506  0.0617  0.3913
  889MPD2    H713094   3.511   2.359  13.053 -0.1785 -2.1850  0.4372
  890MPD2     C13095   3.217   3.891  14.679  0.7461 -0.3164  0.2013
  890MPD2    C113096   3.122   3.995  14.663  0.6869 -1.1014 -0.1174
  890MPD2    C213097   3.011   4.011  14.749 -0.6086 -0.1014  0.3554
  890MPD2    C313098   3.001   3.932  14.858 -0.3638 -0.1844 -0.2104
  890MPD2    C413099   3.099   3.829  14.881  0.2711 -0.3793 -0.2901
  890MPD2    C513100   3.207   3.813  14.791  1.0996 -0.4267 -0.1067
  890MPD2     H13101   2.949   4.100  14.747  0.3363  0.4912 -1.9851
  890MPD2    H113102   3.103   3.760  14.965 -0.7426  1.4558  1.2544
  890MPD2    H213103   3.307   3.873  14.622 -1.9021 -0.6144 -3.8925
  890MPD2    H313104   3.273   3.729  14.807  0.9921 -0.2781  1.1183
  890MPD2     N13105   2.885   3.950  14.930  0.1797  0.2984 -0.2683
  890MPD2    H513106   2.807   4.005  14.897  0.4968  1.1441  0.3927
  890MPD2    N113107   3.137   4.097  14.561  0.3019 -0.0906 -0.2950
  890MPD2    H713108   3.062   4.165  14.553 -0.2418 -0.6588  0.0932
  891MPD2     C13109   0.932   2.180  16.489  0.3545 -0.4379  0.0115
  891MPD2    C113110   1.001   2.297  16.468  0.2695 -0.4349 -0.5639
  891MPD2    C213111   1.125   2.308  16.537 -0.2022 -0.0739 -0.0876
  891MPD2    C313112   1.181   2.205  16.607 -0.3737  0.1290  0.4321
  891MPD2    C413113   1.118   2.087  16.601 -0.0595 -0.4416 -0.2461
  891MPD2    C513114   0.988   2.078  16.563 -1.0815  0.0041  0.8213
  891MPD2     H13115   1.170   2.406  16.547  1.1705 -0.5983 -1.1479
  891MPD2    H113116   1.140   1.998  16.660  0.2189 -0.1639  0.0677
  891MPD2    H213117   0.832   2.161  16.452  0.5458  0.3373 -0.9033
  891MPD2    H313118   0.939   1.984  16.583  0.6041 -0.7814  1.2393
  891MPD2     N13119   1.289   2.236  16.686 -0.4648 -0.1135 -0.3449
  891MPD2    H513120   1.333   2.326  16.671  0.1931 -0.0760  1.8213
  891MPD2    N113121   0.936   2.411  16.421  0.2023  0.3991  0.5021
  891MPD2    H713122   0.842   2.391  16.388 -0.3997 -0.9260  3.0721
  892MPD2     C13123   2.162   3.888  14.544  0.4557  0.8971  0.4988
  892MPD2    C113124   2.061   3.805  14.588 -0.3427 -0.0699 -0.3151
  892MPD2    C213125   2.078   3.668  14.593 -0.0522  0.2845  0.0063
  892MPD2    C313126   2.201   3.609  14.548  0.5114 -0.2544 -0.0837
  892MPD2    C413127   2.292   3.692  14.498  0.5950 -0.7265  0.2701
  892MPD2    C513128   2.276   3.825  14.501  0.3185 -0.7999  0.3478
  892MPD2     H13129   1.999   3.608  14.637  0.5691  0.0115  0.7492
  892MPD2    H113130   2.367   3.638  14.441 -0.4504 -1.5258 -0.3393
  892MPD2    H213131   2.154   3.995  14.533  0.5314  1.0508  1.9461
  892MPD2    H313132   2.347   3.885  14.446 -0.6738 -1.7630 -1.9774
  892MPD2     N13133   2.232   3.471  14.551  0.7336  0.2779 -0.2740
  892MPD2    H513134   2.321   3.442  14.512  0.8573 -3.0501  2.5465
  892MPD2    N113135   1.940   3.863  14.625 -0.5330 -0.0080 -0.1808
  892MPD2    H713136   1.913   3.953  14.586  0.2868 -0.1602 -1.1028
  893MPD2     C13137   4.428   2.543   0.518  1.0347  0.8772  0.6918
  893MPD2    C113138   4.361   2.643   0.587 -0.8328 -0.3535  0.4310
  893MPD2    C213139   4.224   2.653   0.585  0.2140  0.0707  0.4616
  893MPD2    C313140   4.151   2.553   0.528  0.3253  0.4752 -0.0073
  893MPD2    C413141   4.210   2.452   0.464 -0.3918 -0.8241  0.3046
  893MPD2    C513142   4.348   2.442   0.465  0.2140 -0.0756 -0.2623
  893MPD2     H13143   4.173   2.739   0.627 -0.2176  0.7436 -1.4553
  893MPD2    H113144   4.151   2.374   0.418 -3.2959  0.2752  2.1496
  893MPD2    H213145   4.536   2.530   0.522  0.9561 -0.5835 -1.9412
  893MPD2    H313146   4.386   2.354   0.416  2.6380  0.6428  0.3149
  893MPD2     N13147   4.011   2.541   0.542  0.1323 -0.1919  0.0869
  893MPD2    H513148   3.980   2.465   0.482  0.7359 -0.4990  0.1625
  893MPD2    N113149   4.446   2.744   0.640 -0.0949 -0.2900  0.5892
  893MPD2    H713150   4.546   2.728   0.634 -0.5095 -1.3290 -3.3821
  894MPD2     C13151   1.589   4.433   1.134 -0.1534 -0.7801  0.3350
  894MPD2    C113152   1.564   4.487   1.012  0.1605  0.1606 -0.3062
  894MPD2    C213153   1.668   4.539   0.936  0.3166 -0.6661 -0.1972
  894MPD2    C313154   1.793   4.540   0.986  0.1399 -0.1170 -0.0455
  894MPD2    C413155   1.820   4.492   1.115  0.0358  0.0005 -0.0903
  894MPD2    C513156   1.723   4.429   1.187  0.6481 -0.6847  0.4656
  894MPD2     H13157   1.635   4.566   0.837  0.7117 -1.5304 -0.5638
  894MPD2    H113158   1.919   4.491   1.158  0.2780 -1.4854 -0.6958
  894MPD2    H213159   1.514   4.387   1.198  1.7786 -1.4192  2.1651
  894MPD2    H313160   1.756   4.378   1.277 -1.4452 -1.5197  0.7541
  894MPD2     N13161   1.885   4.603   0.907  0.2077 -0.1275 -0.3717
  894MPD2    H513162   1.855   4.640   0.818  0.8284  0.8287 -0.1919
  894MPD2    N113163   1.429   4.493   0.962 -0.7869  0.3607  0.0945
  894MPD2    H713164   1.418   4.541   0.873 -1.0780  1.5243  0.7547
  895MPD2     C13165   1.282   3.025  13.768  0.1232 -0.0213  0.2863
  895MPD2    C113166   1.224   2.956  13.663 -0.0049 -0.3350  0.6404
  895MPD2    C213167   1.248   2.819  13.652 -0.4167  0.1318 -0.6070
  895MPD2    C313168   1.329   2.756  13.738 -0.5513  0.3449 -0.7005
  895MPD2    C413169   1.397   2.827  13.836 -0.5675  0.3396  1.0404
  895MPD2    C513170   1.363   2.957  13.851  0.5777 -0.6913 -0.1132
  895MPD2     H13171   1.208   2.775  13.562  2.3518 -2.5314 -0.5285
  895MPD2    H113172   1.462   2.781  13.909 -1.7793 -0.5602  1.5478
  895MPD2    H213173   1.256   3.128  13.790 -0.7348  0.0675 -1.1369
  895MPD2    H313174   1.390   3.014  13.940  0.4337 -0.8495  0.0321
  895MPD2     N13175   1.335   2.616  13.720 -0.0364  0.0616  0.1557
  895MPD2    H513176   1.290   2.588  13.634 -0.6390  0.1958  0.4290
  895MPD2    N113177   1.133   3.014  13.569  0.0257  0.0822  0.4026
  895MPD2    H713178   1.086   2.940  13.518 -0.5224  0.0871  0.8951
  896MPD2     C13179   4.353   4.708   1.456  0.9713  0.0458 -0.1280
  896MPD2    C113180   4.286   0.083   1.475 -0.8865  0.5301 -0.4786
  896MPD2    C213181   4.158   0.073   1.523  0.0019 -0.5612  0.9965
  896MPD2    C313182   4.100   4.690   1.540  0.1102 -0.3244  0.3396
  896MPD2    C413183   4.164   4.577   1.519  0.3663  0.4026 -0.2082
  896MPD2    C513184   4.298   4.586   1.475  0.5661 -0.4774 -0.0407
  896MPD2     H13185   4.093   0.157   1.545  0.5228  0.4621 -1.3480
  896MPD2    H113186   4.120   4.481   1.546  0.2688 -0.4888 -3.5258
  896MPD2    H213187   4.449   4.722   1.407  1.5144 -2.0820  0.3183
  896MPD2    H313188   4.365   4.502   1.467  0.6714 -0.4962  1.0475
  896MPD2     N13189   3.962   4.687   1.566  1.1424 -0.8518 -0.1186
  896MPD2    H513190   3.910   0.032   1.589  1.2776 -0.7316 -0.2461
  896MPD2    N113191   4.339   0.212   1.446 -0.0790 -0.5946  0.8064
  896MPD2    H713192   4.418   0.217   1.382  1.0298  0.1680  2.2258
  897MPD2     C13193   4.281   2.346  10.491  0.8443  0.0724  0.4130
  897MPD2    C113194   4.323   2.457  10.558 -0.3778 -0.2484 -0.1346
  897MPD2    C213195   4.239   2.514  10.656 -0.4120 -0.3400  0.5667
  897MPD2    C313196   4.132   2.442  10.704 -0.4882  0.6946  0.7800
  897MPD2    C413197   4.097   2.322  10.646 -0.6501 -0.1656  0.1129
  897MPD2    C513198   4.173   2.274  10.541  0.3581 -0.4959 -0.2309
  897MPD2     H13199   4.271   2.607  10.702  1.1673 -1.3987  1.6099
  897MPD2    H113200   4.004   2.271  10.672 -0.7877 -1.2328 -2.5053
  897MPD2    H213201   4.331   2.305  10.404  1.8340  0.1474  0.9398
  897MPD2    H313202   4.138   2.181  10.500 -0.4419 -0.3479  0.1210
  897MPD2     N13203   4.075   2.502  10.817 -0.2266  0.1910 -0.6986
  897MPD2    H513204   4.113   2.592  10.845 -1.3432  0.5384 -0.2965
  897MPD2    N113205   4.444   2.511  10.505 -0.3296 -0.3403 -0.0784
  897MPD2    H713206   4.488   2.471  10.423  0.2046 -1.6607  0.8291
  898MPD2     C13207   1.655   2.907  17.719 -0.1836  0.0867 -0.3783
  898MPD2    C113208   1.720   2.916  17.597  0.5017  0.2698  0.6942
  898MPD2    C213209   1.689   3.012  17.510 -0.1527  0.1849 -0.0506
  898MPD2    C313210   1.598   3.110  17.542  0.5132 -0.5486  0.0620
  898MPD2    C413211   1.541   3.116  17.669 -0.1161 -0.1795 -0.6983
  898MPD2    C513212   1.572   3.009  17.748 -0.5945 -0.2369  0.0242
  898MPD2     H13213   1.724   3.008  17.407 -1.4366 -4.0767 -0.3311
  898MPD2    H113214   1.484   3.194  17.719  0.0682 -0.4353 -0.0921
  898MPD2    H213215   1.664   2.835   0.046  1.3241 -1.8405 -2.2794
  898MPD2    H313216   1.519   3.024   0.088  1.6410  4.1327  0.5788
  898MPD2     N13217   1.561   3.200  17.438  0.2374 -0.2697  0.0071
  898MPD2    H513218   1.590   3.181  17.342  0.1755  0.2430 -0.1158
  898MPD2    N113219   1.811   2.821  17.549 -0.3699  0.1410 -0.2632
  898MPD2    H713220   1.840   2.832  17.452  0.1690 -0.1218 -0.1301
  899MPD2     C13221   2.328   3.533  17.396 -0.3054 -0.2979  0.2349
  899MPD2    C113222   2.385   3.639  17.466  0.1034  0.2935  0.2029
  899MPD2    C213223   2.352   3.661  17.604 -0.2236 -0.3778  0.3396
  899MPD2    C313224   2.273   3.569  17.662  0.2153 -0.1447  0.6675
  899MPD2    C413225   2.212   3.470  17.592 -0.0666 -0.2033 -0.1464
  899MPD2    C513226   2.242   3.448  17.461  0.2104  0.9997 -0.0497
  899MPD2     H13227   2.394   3.746  17.658 -0.9217 -1.1470  2.0792
  899MPD2    H113228   2.155   3.389  17.636 -0.9408  0.4664 -0.0418
  899MPD2    H213229   2.366   3.522  17.296 -0.7229 -1.3464  0.1909
  899MPD2    H313230   2.193   3.370  17.403  2.9984 -2.0496  1.7014
  899MPD2     N13231   2.221   3.591   0.039 -0.3986  0.5100  0.2356
  899MPD2    H513232   2.132   3.547   0.059  0.4516 -1.1638  0.3370
  899MPD2    N113233   2.463   3.728  17.398 -0.0662  0.2808  0.3017
  899MPD2    H713234   2.470   3.703  17.300  2.2503  1.0262  0.2835
  900MPD2     C13235   2.114   0.974  12.615 -0.7082 -0.5063  0.2636
  900MPD2    C113236   2.026   0.900  12.540  0.6564  0.0783  0.3927
  900MPD2    C213237   1.912   0.955  12.504  0.4312 -0.9433  0.1136
  900MPD2    C313238   1.870   1.079  12.541  0.8638 -0.4265  0.2377
  900MPD2    C413239   1.953   1.154  12.630 -0.3811  0.0583  0.1742
  900MPD2    C513240   2.068   1.099  12.663 -0.0659  0.3648  0.1577
  900MPD2     H13241   1.844   0.901  12.440 -0.0192 -0.1864 -0.0464
  900MPD2    H113242   1.921   1.252  12.665 -1.8501 -0.0943 -0.7654
  900MPD2    H213243   2.213   0.945  12.647 -0.4621 -0.4020 -0.4076
  900MPD2    H313244   2.136   1.151  12.730 -1.6286  2.1320  0.3800
  900MPD2     N13245   1.755   1.136  12.471 -0.3446 -0.0840  0.1965
  900MPD2    H513246   1.704   1.072  12.411  0.1615  0.9412 -1.3415
  900MPD2    N113247   2.067   0.773  12.488  0.4596 -0.1876 -0.0315
  900MPD2    H713248   2.156   0.741  12.524 -0.0236 -1.1510  0.3087
  901MPD2     C13249   1.878   4.503  12.114 -0.3937  0.6199 -0.3126
  901MPD2    C113250   1.985   4.519  12.191 -1.1304 -0.0255 -0.1813
  901MPD2    C213251   2.037   4.637  12.221 -0.5611 -0.5351  0.5789
  901MPD2    C313252   1.971   0.015  12.186  0.0889  0.1051 -0.3449
  901MPD2    C413253   1.847   4.736  12.125  0.0983  0.2688 -0.3603
  901MPD2    C513254   1.802   4.614  12.091  0.4028 -0.0662  0.5582
  901MPD2     H13255   2.134   4.644  12.269 -1.6956  0.5866  2.6963
  901MPD2    H113256   1.792   0.084  12.094 -0.2590 -0.5276 -1.9480
  901MPD2    H213257   1.834   4.405  12.096  1.7650 -0.1318 -1.5441
  901MPD2    H313258   1.704   4.597  12.046  0.1919 -1.1334  1.4262
  901MPD2     N13259   2.039   0.137  12.217  0.3192  0.0764 -0.0384
  901MPD2    H513260   2.129   0.123  12.263 -0.0410  2.4744  1.4219
  901MPD2    N113261   2.055   4.398  12.216 -0.9319 -0.3257  0.0405
  901MPD2    H713262   2.026   4.314  12.167  1.5120 -0.8082 -0.5816
  902MPD2     C13263   1.058   3.593  12.763 -0.4693  0.1146 -0.4983
  902MPD2    C113264   1.057   3.689  12.659  0.6320  0.0524  0.6784
  902MPD2    C213265   1.115   3.658  12.536  0.1705 -0.5349 -0.8618
  902MPD2    C313266   1.190   3.539  12.523  0.4134 -0.4777  0.5022
  902MPD2    C413267   1.187   3.445  12.627  0.0862 -0.4330 -0.4931
  902MPD2    C513268   1.123   3.476  12.740 -0.3111  0.6353  0.1977
  902MPD2     H13269   1.111   3.724  12.450 -2.1418  1.1234  0.4961
  902MPD2    H113270   1.250   3.357  12.624  1.4212  0.5275 -0.3611
  902MPD2    H213271   1.033   3.623  12.864  3.4908  0.4353  0.3987
  902MPD2    H313272   1.130   3.399  12.817 -2.2882  2.1626  1.8945
  902MPD2     N13273   1.252   3.501  12.403 -0.2150  0.0624  0.5994
  902MPD2    H513274   1.285   3.407  12.384 -1.5758 -0.2767 -0.1062
  902MPD2    N113275   1.010   3.819  12.689  0.8295  0.3360  0.0952
  902MPD2    H713276   0.998   3.839  12.788 -0.8627  1.1903 -0.2923
  903MPD2     C13277   1.213   3.938  11.724 -0.5391 -0.6406  0.0007
  903MPD2    C113278   1.157   3.813  11.729  0.0228  0.0666  0.5104
  903MPD2    C213279   1.022   3.798  11.682  0.0239  0.4073  0.2273
  903MPD2    C313280   0.952   3.914  11.632 -0.0389 -0.5085  0.6584
  903MPD2    C413281   1.016   4.036  11.617  0.5443 -0.0854 -0.1934
  903MPD2    C513282   1.140   4.043  11.672  0.4674  0.2727  0.4541
  903MPD2     H13283   0.966   3.706  11.689  0.0410  0.2946 -1.0773
  903MPD2    H113284   0.985   4.122  11.559  1.1301 -0.2378 -0.7295
  903MPD2    H213285   1.314   3.951  11.760 -0.5361 -0.7274  0.0253
  903MPD2    H313286   1.183   4.142  11.667 -0.0249  0.4813  0.2664
  903MPD2     N13287   0.816   3.906  11.589  0.0072 -0.3619  0.1359
  903MPD2    H513288   0.784   3.812  11.565 -2.3831  1.3652 -3.4125
  903MPD2    N113289   1.212   3.701  11.794  0.7197  0.6399 -0.0603
  903MPD2    H713290   1.158   3.616  11.808  0.4930  0.5911 -1.2408
  904MPD2     C13291   0.958   2.299  14.574 -0.0405 -0.2783 -0.3376
  904MPD2    C113292   0.989   2.324  14.438 -0.0162  0.8188 -0.0274
  904MPD2    C213293   1.112   2.362  14.399 -0.4575 -0.0610 -0.8249
  904MPD2    C313294   1.211   2.363  14.497  0.8097 -0.4798  0.0595
  904MPD2    C413295   1.182   2.337  14.632 -0.3530  0.7961 -0.3257
  904MPD2    C513296   1.057   2.304  14.668 -1.1556 -0.3168 -0.1863
  904MPD2     H13297   1.130   2.387  14.295  0.1870 -0.1311 -0.7267
  904MPD2    H113298   1.256   2.322  14.709  0.4231  0.4580 -1.1364
  904MPD2    H213299   0.856   2.270  14.600 -0.0141 -0.1152 -0.0481
  904MPD2    H313300   1.047   2.254  14.764 -2.1969 -0.2644 -0.2670
  904MPD2     N13301   1.337   2.404  14.452 -0.3677 -0.5640  0.5084
  904MPD2    H513302   1.336   2.407  14.350  2.1275  0.2754  0.5242
  904MPD2    N113303   0.891   2.314  14.332  0.1824  0.5566 -0.3960
  904MPD2    H713304   0.925   2.336  14.238  3.3498  0.5294  0.7357
  905MPD2     C13305   0.759   2.467  13.546 -0.2685  0.4265 -0.1478
  905MPD2    C113306   0.819   2.386  13.641  0.1927  0.5290  0.1079
  905MPD2    C213307   0.954   2.349  13.615  0.5485 -0.3551 -0.6304
  905MPD2    C313308   1.023   2.379  13.499  0.4006 -0.1348  0.6657
  905MPD2    C413309   0.950   2.454  13.405 -0.3074 -0.2856  0.1656
  905MPD2    C513310   0.830   2.502  13.433  0.2868  0.5169 -0.9677
  905MPD2     H13311   1.003   2.294  13.694 -2.1706  2.4326  3.0283
  905MPD2    H113312   0.991   2.484  13.309 -0.1632  1.5450  0.7971
  905MPD2    H213313   0.656   2.497  13.561 -0.5618 -1.0622  0.8054
  905MPD2    H313314   0.773   2.553  13.355 -1.2677 -0.2970 -0.3705
  905MPD2     N13315   1.160   2.352  13.486 -0.3093  0.0983 -0.3125
  905MPD2    H513316   1.205   2.405  13.412 -0.7760  1.7864  0.6256
  905MPD2    N113317   0.753   2.369  13.763 -0.2673  0.5363 -0.8380
  905MPD2    H713318   0.658   2.402  13.771 -0.8127 -1.0804 -0.7752
  906MPD2     C13319   2.962   2.709  11.554 -1.0917  0.0447 -0.2950
  906MPD2    C113320   2.922   2.648  11.436  0.0818  0.5361 -0.5311
  906MPD2    C213321   2.895   2.510  11.439 -0.0564 -0.0115 -0.1633
  906MPD2    C313322   2.909   2.441  11.552  0.6355  0.1885  0.2634
  906MPD2    C413323   2.944   2.496  11.663 -1.2013 -0.3522 -0.6809
  906MPD2    C513324   2.971   2.628  11.664  0.2676 -0.1709 -0.2673
  906MPD2     H13325   2.845   2.466  11.353 -0.8405 -1.6796  1.1534
  906MPD2    H113326   2.963   2.435  11.751  2.5696 -0.5481 -1.6376
  906MPD2    H213327   3.007   2.807  11.561  0.4302 -0.7106  0.4774
  906MPD2    H313328   3.006   2.671  11.757 -2.0894 -1.2534  1.1288
  906MPD2     N13329   2.855   2.308  11.555 -0.1917  0.2835 -0.8527
  906MPD2    H513330   2.811   2.278  11.642 -0.3244  2.6814 -0.1015
  906MPD2    N113331   2.908   2.724  11.317  0.0857 -0.1064 -0.2591
  906MPD2    H713332   2.892   2.667  11.234 -1.1705 -1.2894  0.7960
  907MPD2     C13333   1.770   1.510  15.590 -0.1723  0.0137 -0.3524
  907MPD2    C113334   1.834   1.388  15.577  0.6022  0.4392  0.3148
  907MPD2    C213335   1.928   1.365  15.674  0.1932 -0.0001  0.2708
  907MPD2    C313336   1.974   1.460  15.770 -0.6985 -0.2886  0.0159
  907MPD2    C413337   1.908   1.582  15.769  0.1619 -0.2692  0.1362
  907MPD2    C513338   1.810   1.605  15.680  0.6234 -0.5771 -0.4959
  907MPD2     H13339   1.986   1.274  15.661 -0.4370 -0.3164 -0.2840
  907MPD2    H113340   1.926   1.668  15.832  3.2219 -0.4377 -0.5359
  907MPD2    H213341   1.704   1.546  15.512 -0.2444  2.7574  0.9404
  907MPD2    H313342   1.768   1.705  15.669 -0.8119 -1.2730 -1.3247
  907MPD2     N13343   2.069   1.421  15.861 -0.1726 -0.1138  0.1114
  907MPD2    H513344   2.102   1.326  15.850  2.8809  1.1980 -1.9310
  907MPD2    N113345   1.800   1.297  15.475 -0.2781 -0.2362 -0.5508
  907MPD2    H713346   1.868   1.223  15.459 -2.0024 -1.7077 -1.0422
  908MPD2     C13347   4.664   2.456   9.694 -0.7083 -0.1896  0.4020
  908MPD2    C113348   4.584   2.395   9.789  0.1206  0.6099 -0.1522
  908MPD2    C213349   4.596   2.427   9.927  0.0038 -0.2488 -0.5242
  908MPD2    C313350   4.669   2.543   9.965  1.0433  0.2412 -0.7913
  908MPD2    C413351   4.730   2.615   9.863  0.8134  0.2205  0.1299
  908MPD2    C513352   4.736   2.564   9.739  0.1737 -0.0289  0.2340
  908MPD2     H13353   4.545   2.373  10.006  0.2185  0.1317 -0.1258
  908MPD2    H113354   0.067   2.686   9.891  2.0719 -1.3158  0.6500
  908MPD2    H213355   4.669   2.422   9.591 -2.2296  2.0630 -0.4202
  908MPD2    H313356   0.061   2.608   9.663 -2.0989 -2.4273 -3.0608
  908MPD2     N13357   4.679   2.580  10.105 -0.3299 -0.8595 -0.7453
  908MPD2    H513358   4.627   2.528  10.174 -0.3628  0.6223  0.3494
  908MPD2    N113359   4.496   2.295   9.745 -0.1082  0.1066  0.0178
  908MPD2    H713360   4.527   2.256   9.656 -0.1980 -0.5481  0.2715
  909MPD2     C13361   0.050   0.465  11.701  0.7386  1.1094  0.0608
  909MPD2    C113362   0.016   0.599  11.699 -0.1567 -0.1602  0.0536
  909MPD2    C213363   4.699   0.648  11.818  0.3869 -0.4857 -0.2057
  909MPD2    C313364   4.689   0.570  11.932 -0.5030 -0.4076 -0.6369
  909MPD2    C413365   0.003   0.443  11.935  0.1674 -0.0898  1.2312
  909MPD2    C513366   0.042   0.395  11.815 -0.0302 -0.1138  0.5938
  909MPD2     H13367   4.659   0.749  11.824  1.4006 -0.1395  0.7074
  909MPD2    H113368   0.006   0.379  12.022 -2.0150 -0.7045  0.8579
  909MPD2    H213369   0.088   0.417  11.612  0.3095  1.5055 -0.3343
  909MPD2    H313370   0.068   0.290  11.808 -0.2209 -0.2820  2.3623
  909MPD2     N13371   4.632   0.636  12.047  0.0999 -0.7303 -0.3781
  909MPD2    H513372   4.599   0.731  12.035 -0.1605 -0.3900  3.2090
  909MPD2    N113373   0.015   0.680  11.580 -0.1650 -0.4136  0.2148
  909MPD2    H713374   4.728   0.776  11.600 -0.7429 -0.4677 -0.2670
  910MPD2     C13375   1.657   2.117  16.210 -0.2189 -0.0544 -0.2282
  910MPD2    C113376   1.631   2.000  16.142  0.2721 -0.5304  0.7906
  910MPD2    C213377   1.552   2.004  16.034  0.6070  0.6181 -1.0412
  910MPD2    C313378   1.480   2.117  15.996 -0.7016  0.2540  0.5808
  910MPD2    C413379   1.503   2.231  16.067 -0.5596  0.7533 -0.9310
  910MPD2    C513380   1.602   2.230  16.164  0.2666 -0.0789  0.6280
  910MPD2     H13381   1.539   1.908  15.984 -0.6177  0.2573 -0.0289
  910MPD2    H113382   1.458   2.325  16.036 -1.4773  1.3346  2.1682
  910MPD2    H213383   1.702   2.123  16.308 -0.1647  0.7481 -0.3095
  910MPD2    H313384   1.627   2.321  16.217 -0.5051 -0.5596  1.8122
  910MPD2     N13385   1.393   2.139  15.886  0.3065  0.3895  0.3780
  910MPD2    H513386   1.348   2.230  15.880 -1.3627 -0.5061 -0.4063
  910MPD2    N113387   1.679   1.869  16.178  0.2827  0.4082  0.3243
  910MPD2    H713388   1.663   1.795  16.111 -0.4525  0.7580  0.1052
  911MPD2     C13389   4.051   2.223  16.296  0.1020  0.1019 -0.1217
  911MPD2    C113390   4.125   2.343  16.325 -0.3801  0.3030 -0.3319
  911MPD2    C213391   4.064   2.468  16.308 -0.4545  0.8400 -0.1486
  911MPD2    C313392   3.933   2.469  16.266  0.6441 -0.1098  0.0157
  911MPD2    C413393   3.868   2.353  16.232 -0.5036 -0.0455 -0.1346
  911MPD2    C513394   3.920   2.225  16.254  0.2678  0.4183  0.3795
  911MPD2     H13395   4.114   2.563  16.328  0.6135  0.0049  1.1551
  911MPD2    H113396   3.766   2.348  16.198 -0.2215 -1.3551 -0.7973
  911MPD2    H213397   4.090   2.122  16.291 -0.9955 -0.4834  2.9232
  911MPD2    H313398   3.858   2.139  16.233  0.3699  0.0774  1.4686
  911MPD2     N13399   3.863   2.585  16.222 -0.3215 -0.7597 -0.0387
  911MPD2    H513400   3.766   2.564  16.199 -0.1803 -0.6412 -0.7323
  911MPD2    N113401   4.258   2.325  16.372 -0.4646 -0.6359 -0.0571
  911MPD2    H713402   4.297   2.232  16.362 -1.5694 -1.3694  2.5372
  912MPD2     C13403   3.482   2.468  15.625  0.6889  0.3783  0.2805
  912MPD2    C113404   3.517   2.461  15.758  0.0947 -0.2391  0.2432
  912MPD2    C213405   3.495   2.341  15.829  0.8222 -0.4429  0.6805
  912MPD2    C313406   3.442   2.231  15.764 -0.2542  0.3818 -0.2430
  912MPD2    C413407   3.394   2.250  15.634  0.7603 -0.7476 -0.5483
  912MPD2    C513408   3.415   2.367  15.565 -0.1027  0.3010  0.6023
  912MPD2     H13409   3.540   2.337  15.928  2.9536  0.0652 -0.2576
  912MPD2    H113410   3.340   2.170  15.587 -2.1522  0.3212  1.0001
  912MPD2    H213411   3.504   2.554  15.563  0.4551  0.7049  0.6457
  912MPD2    H313412   3.371   2.373  15.466 -0.2635  0.2560  0.6720
  912MPD2     N13413   3.424   2.119  15.844  0.6516  0.5756  0.0459
  912MPD2    H513414   3.471   2.123  15.934 -1.5301 -0.2680  1.2313
  912MPD2    N113415   3.573   2.575  15.815 -0.2227  0.7355 -0.3697
  912MPD2    H713416   3.589   2.651  15.750  2.0298  0.6927  0.1329
  913MPD2     C13417   3.941   4.095  11.079 -0.0965 -0.2404  0.2295
  913MPD2    C113418   4.045   4.038  11.014 -0.1210 -1.1386 -0.2449
  913MPD2    C213419   4.058   4.066  10.877 -0.2149 -0.1131  0.5674
  913MPD2    C313420   3.967   4.149  10.812 -0.7132 -0.0025 -0.3265
  913MPD2    C413421   3.868   4.205  10.880  0.3476 -0.2616 -0.1720
  913MPD2    C513422   3.848   4.175  11.014  0.0925 -0.8776  0.2059
  913MPD2     H13423   4.126   4.013  10.811 -1.8143 -0.0204 -1.1493
  913MPD2    H113424   3.795   4.267  10.828  1.0916 -0.0516 -0.9635
  913MPD2    H213425   3.927   4.065  11.182 -3.1035  1.5928  0.3696
  913MPD2    H313426   3.770   4.218  11.075 -0.9123  0.2435 -1.8437
  913MPD2     N13427   3.974   4.151  10.669 -0.8799  0.0044 -0.2063
  913MPD2    H513428   3.896   4.203  10.629 -0.3603  0.6416 -0.3830
  913MPD2    N113429   4.125   3.945  11.086 -0.6759 -0.6375 -0.7674
  913MPD2    H713430   4.089   3.913  11.175  0.7875 -3.5121 -1.1788
  914MPD2     C13431   2.338   4.145  11.513 -0.2462 -0.1655  0.3069
  914MPD2    C113432   2.244   4.221  11.574  0.0672  0.4047  0.3541
  914MPD2    C213433   2.208   4.193  11.704 -0.6717  0.1532  0.1580
  914MPD2    C313434   2.279   4.096  11.775  0.1088 -0.5208  0.8110
  914MPD2    C413435   2.380   4.032  11.714  0.0753 -0.1807 -0.7586
  914MPD2    C513436   2.410   4.048  11.579 -0.3020  0.2578  0.3416
  914MPD2     H13437   2.137   4.249  11.763 -0.0664  1.2866 -0.1929
  914MPD2    H113438   2.433   3.952  11.764 -0.2011  0.3660  0.4018
  914MPD2    H213439   2.371   4.173  11.414  0.9205  0.4581  0.8745
  914MPD2    H313440   2.485   3.988  11.529  1.6052  1.5994  1.6133
  914MPD2     N13441   2.244   4.089  11.908 -0.0489  0.4553  0.2929
  914MPD2    H513442   2.156   4.131  11.938 -0.4039 -0.8655  1.0823
  914MPD2    N113443   2.182   4.323  11.503  0.7058 -0.4292 -0.1836
  914MPD2    H713444   2.206   4.335  11.405  1.2149  1.3893  0.1662
  915MPD2     C13445   0.418   3.890  15.789 -0.3425 -0.2504  0.1635
  915MPD2    C113446   0.333   3.989  15.757 -1.1201 -0.7912  0.6161
  915MPD2    C213447   0.263   4.044  15.865  0.5958  0.9084  0.2843
  915MPD2    C313448   0.292   4.009  15.996 -0.4165  0.6702 -0.1490
  915MPD2    C413449   0.388   3.914  16.027 -1.0246  0.0905  0.0830
  915MPD2    C513450   0.451   3.856  15.920  0.1842 -1.3394  0.0056
  915MPD2     H13451   0.203   4.132  15.848  0.6551  0.5723 -1.6697
  915MPD2    H113452   0.410   3.873  16.125 -1.9415 -2.3810 -0.7415
  915MPD2    H213453   0.460   3.821  15.716 -1.4011 -0.3546 -0.3465
  915MPD2    H313454   0.527   3.780  15.937 -0.1620 -1.8553 -0.7931
  915MPD2     N13455   0.203   4.060  16.097  0.5575  0.1421  0.1942
  915MPD2    H513456   0.117   4.104  16.066  0.2785 -1.9907 -2.0717
  915MPD2    N113457   0.312   4.030  15.626 -0.3802 -0.6171  0.0696
  915MPD2    H713458   0.393   4.005  15.570 -0.0475  2.2797 -0.7386
  916MPD2     C13459   3.087   2.288  15.553  0.7196  0.8256 -0.1611
  916MPD2    C113460   3.068   2.213  15.663  0.0176 -0.4967  0.0003
  916MPD2    C213461   3.057   2.075  15.640  0.2134 -0.3909 -0.1173
  916MPD2    C313462   3.063   2.019  15.512 -0.4047 -0.7704  0.0205
  916MPD2    C413463   3.075   2.100  15.404 -0.2253  0.1448 -0.7259
  916MPD2    C513464   3.100   2.232  15.428 -0.5873 -0.0432 -0.2672
  916MPD2     H13465   3.044   2.008  15.725  0.7622  1.0693  1.1177
  916MPD2    H113466   3.071   2.066  15.301 -0.6393 -2.1646  0.0405
  916MPD2    H213467   3.109   2.393  15.566  0.2250  0.8533  0.5060
  916MPD2    H313468   3.121   2.304  15.349 -0.3295  0.9681  0.7366
  916MPD2     N13469   3.025   1.884  15.500 -0.9343  0.2145 -0.3137
  916MPD2    H513470   2.992   1.831  15.580  0.4472  2.6288  1.8293
  916MPD2    N113471   3.066   2.278  15.791 -0.0377 -0.0142  0.3152
  916MPD2    H713472   3.073   2.378  15.781  1.2599 -0.3946 -2.5035
  917MPD2     C13473   3.573   4.658  11.302 -0.2817  0.2602 -0.4926
  917MPD2    C113474   3.612   4.727  11.419 -0.3718  0.4651 -0.4587
  917MPD2    C213475   3.678   0.110  11.412 -0.5619  0.5909 -0.1253
  917MPD2    C313476   3.691   0.172  11.288 -0.2476 -0.3614 -0.2668
  917MPD2    C413477   3.641   0.104  11.175  0.0899 -0.6700  0.0123
  917MPD2    C513478   3.586   4.722  11.181  0.2498 -0.5367  0.9103
  917MPD2     H13479   3.702   0.170  11.499 -0.9598  2.1288 -1.0648
  917MPD2    H113480   3.648   0.148  11.076  0.2304 -0.4797  0.1068
  917MPD2    H213481   3.514   4.567  11.298  1.3387 -0.9097  2.0561
  917MPD2    H313482   3.553   4.682  11.086 -0.4446  1.9605  0.0950
  917MPD2     N13483   3.741   0.302  11.285  0.0156 -0.1153  0.4298
  917MPD2    H513484   3.721   0.357  11.203  2.4132 -1.0842 -0.8175
  917MPD2    N113485   3.570   4.662  11.544 -0.1474  0.3226 -0.2775
  917MPD2    H713486   3.538   4.567  11.529 -1.6821  0.8060 -0.0971
  918MPD2     C13487   3.515   0.353  12.418  0.0167  0.4285 -0.3479
  918MPD2    C113488   3.627   0.322  12.340 -0.1235 -0.0405  0.9722
  918MPD2    C213489   3.604   0.220  12.242  0.3085  0.6205 -0.0316
  918MPD2    C313490   3.482   0.152  12.233 -0.5815 -0.4976  0.2702
  918MPD2    C413491   3.378   0.187  12.320  0.1353  0.1640 -0.3692
  918MPD2    C513492   3.402   0.281  12.407  0.1528 -0.0831  0.3116
  918MPD2     H13493   3.692   0.197  12.183 -1.1484 -1.8013 -1.2487
  918MPD2    H113494   3.275   0.154  12.312  0.9752 -1.5790 -3.9735
  918MPD2    H213495   3.512   0.428  12.497  1.9901  1.1387 -0.9428
  918MPD2    H313496   3.324   0.313  12.476 -1.4453  1.4813 -2.2238
  918MPD2     N13497   3.472   0.051  12.137 -0.5346 -0.3243 -0.3457
  918MPD2    H513498   3.555   0.031  12.082 -1.3571 -1.3879 -1.2047
  918MPD2    N113499   3.759   0.371  12.366 -0.3482  1.3616  0.2697
  918MPD2    H713500   3.833   0.330  12.310  1.1910  0.0498  3.2468
  919MPD2     C13501   3.578   3.548  11.641 -0.1184  0.3282 -0.1872
  919MPD2    C113502   3.714   3.527  11.625  0.5675 -0.3513 -1.1901
  919MPD2    C213503   3.774   3.516  11.500 -0.6712  0.2407 -0.1082
  919MPD2    C313504   3.692   3.531  11.386  0.0397  0.4715  0.4039
  919MPD2    C413505   3.557   3.525  11.402  0.1506  0.5599  0.3628
  919MPD2    C513506   3.502   3.561  11.525  0.5012  0.3493  0.3035
  919MPD2     H13507   3.881   3.508  11.490 -0.7481 -2.1853  0.9244
  919MPD2    H113508   3.496   3.540  11.314  1.0845  0.7533 -0.2456
  919MPD2    H213509   3.538   3.552  11.741  1.6449  2.6418  0.4021
  919MPD2    H313510   3.396   3.582  11.534  0.8218  1.3975  1.5149
  919MPD2     N13511   3.734   3.569  11.257  0.1926 -0.7643  0.0564
  919MPD2    H513512   3.663   3.596  11.190 -0.5691 -1.3459  0.6249
  919MPD2    N113513   3.799   3.515  11.742  0.1713 -0.1873  0.1205
  919MPD2    H713514   3.895   3.491  11.716  0.3615 -2.1213  2.5773
  920MPD2     C13515   3.144   4.117  10.950 -0.0564  0.3968 -0.4165
  920MPD2    C113516   3.208   4.093  10.832  0.6409  0.1134  0.4239
  920MPD2    C213517   3.341   4.044  10.832  0.2823 -0.4454  0.1492
  920MPD2    C313518   3.400   4.021  10.953  0.0180 -0.3016 -0.2980
  920MPD2    C413519   3.334   4.052  11.074  0.2322 -0.6115 -0.0523
  920MPD2    C513520   3.204   4.098  11.068 -0.8668  0.5704  0.7248
  920MPD2     H13521   3.390   4.035  10.736 -0.1392 -0.1074 -0.0945
  920MPD2    H113522   3.373   4.045  11.175 -2.1206  0.5330  0.9239
  920MPD2    H213523   3.044   4.159  10.941 -0.4229 -0.4443 -0.2664
  920MPD2    H313524   3.141   4.117  11.154 -0.3866  2.5692  0.6336
  920MPD2     N13525   3.536   3.969  10.949  0.1217  0.3808 -0.0653
  920MPD2    H513526   3.561   3.919  10.864 -0.1917 -0.9317  0.6147
  920MPD2    N113527   3.153   4.126  10.704 -0.0405  0.3884 -0.2730
  920MPD2    H713528   3.210   4.100  10.625  0.9290  3.0561 -0.4660
  921MPD2     C13529   0.479   2.541  16.760 -0.4982 -0.2433  0.2611
  921MPD2    C113530   0.448   2.559  16.631 -0.3912  0.3784  0.6991
  921MPD2    C213531   0.322   2.530  16.590 -1.2279  0.1525  0.0140
  921MPD2    C313532   0.238   2.474  16.688  0.1058 -0.0372 -0.3857
  921MPD2    C413533   0.268   2.455  16.819 -0.0138 -0.7750 -0.2235
  921MPD2    C513534   0.395   2.484  16.853 -0.5144 -0.3566  0.0162
  921MPD2     H13535   0.278   2.561  16.496  3.1924 -2.2369 -2.8137
  921MPD2    H113536   0.208   2.412  16.897 -0.4309  1.2739  0.5867
  921MPD2    H213537   0.572   2.581  16.800 -0.9210  0.5499  0.4661
  921MPD2    H313538   0.438   2.467  16.951 -0.1323  0.2930 -0.0381
  921MPD2     N13539   0.111   2.441  16.647 -0.1939 -0.0629 -0.0972
  921MPD2    H513540   0.053   2.400  16.719 -1.3577  1.1675 -0.3308
  921MPD2    N113541   0.546   2.613  16.546 -0.6089  0.2710 -0.2808
  921MPD2    H713542   0.635   2.622  16.594  0.7636 -0.3268 -2.7090
  922MPD2     C13543   1.148   0.136  17.158 -0.2192 -0.4238 -0.5975
  922MPD2    C113544   1.115   0.221  17.047  0.2354  0.3406 -0.3575
  922MPD2    C213545   0.986   0.250  17.028  0.4272 -0.0893 -0.5981
  922MPD2    C313546   0.882   0.198  17.110  0.5486  0.7306  0.6030
  922MPD2    C413547   0.918   0.110  17.212  0.4411  0.4548  0.0836
  922MPD2    C513548   1.046   0.078  17.241 -0.7943 -0.2282 -0.1940
  922MPD2     H13549   0.955   0.313  16.946  2.4973  1.9006  0.1344
  922MPD2    H113550   0.837   0.056  17.259  0.6793 -1.2542 -1.4818
  922MPD2    H213551   1.252   0.113  17.176  0.0105  0.8939 -0.2457
  922MPD2    H313552   1.065   0.002  17.316 -1.4047  0.2328  0.4106
  922MPD2     N13553   0.751   0.240  17.094 -0.3909 -1.0478  0.6297
  922MPD2    H513554   0.733   0.306  17.019 -0.8826 -0.3400  1.3642
  922MPD2    N113555   1.211   0.281  16.961  0.3209  0.2645  0.2088
  922MPD2    H713556   1.179   0.349  16.892 -0.0573 -1.8024 -1.6566
  923MPD2     C13557   2.210   3.103   8.892  0.5299  0.2853 -0.1838
  923MPD2    C113558   2.235   3.180   9.001 -0.0519 -0.5102  0.0204
  923MPD2    C213559   2.323   3.129   9.099  0.2469  0.1660 -0.2186
  923MPD2    C313560   2.377   2.999   9.086 -0.1929 -0.3082 -0.2531
  923MPD2    C413561   2.347   2.926   8.977 -0.4151  0.1187  0.4204
  923MPD2    C513562   2.270   2.980   8.876  0.1409 -0.1318  0.1554
  923MPD2     H13563   2.336   3.182   9.192  2.5027  1.2954 -1.1885
  923MPD2    H113564   2.385   2.824   8.974  4.1503  1.8032  0.6442
  923MPD2    H213565   2.140   3.132   8.814 -0.1084 -3.5525 -1.0437
  923MPD2    H313566   2.233   2.912   8.800  1.0825 -0.5795  0.0858
  923MPD2     N13567   2.461   2.940   9.183  0.9177  0.1419  0.0476
  923MPD2    H513568   2.487   2.843   9.168 -0.5429 -0.2739  0.2213
  923MPD2    N113569   2.179   3.312   8.997 -0.0019 -0.3466 -0.1562
  923MPD2    H713570   2.108   3.334   8.928  2.0552  0.9798 -1.8606
  924MPD2     C13571   2.392   0.745  15.751  0.7249  0.2178 -0.5036
  924MPD2    C113572   2.369   0.761  15.886  0.0607  0.2245  0.1778
  924MPD2    C213573   2.380   0.888  15.942  0.7261 -0.0597  0.4212
  924MPD2    C313574   2.425   0.993  15.866 -0.2320  0.6630 -0.4870
  924MPD2    C413575   2.447   0.973  15.732  0.3900 -0.0453  0.3926
  924MPD2    C513576   2.433   0.850  15.674  0.2443 -0.1105  0.6282
  924MPD2     H13577   2.351   0.905  16.045 -0.3298  2.6385 -0.3302
  924MPD2    H113578   2.471   1.064  15.679 -0.6145 -0.3707 -0.6255
  924MPD2    H213579   2.380   0.650  15.699 -0.2018 -0.5043  1.0062
  924MPD2    H313580   2.447   0.834  15.568 -1.6532  1.2567  0.1773
  924MPD2     N13581   2.428   1.122  15.918 -0.1492 -0.0770  0.2299
  924MPD2    H513582   2.446   1.199  15.855  2.3136  0.3379  1.4100
  924MPD2    N113583   2.302   0.650  15.951 -0.0746  0.1073  0.3911
  924MPD2    H713584   2.272   0.570  15.897  1.9702 -0.1404 -0.3931
  925MPD2     C13585   1.423   3.205  14.496  0.6067  0.3546 -0.2792
  925MPD2    C113586   1.312   3.283  14.484 -0.4133 -0.0010  0.5828
  925MPD2    C213587   1.243   3.315  14.596  0.6742  0.1745 -0.4396
  925MPD2    C313588   1.278   3.257  14.720  0.3110 -0.3503  0.4696
  925MPD2    C413589   1.389   3.181  14.733 -0.5640 -1.0793 -0.6193
  925MPD2    C513590   1.464   3.160  14.620 -0.2325 -0.3370 -0.9543
  925MPD2     H13591   1.151   3.367  14.573  1.2454  1.9214  1.2177
  925MPD2    H113592   1.425   3.150  14.831 -0.8480 -3.0239 -1.1308
  925MPD2    H213593   1.492   3.177  14.417  0.6838 -0.2264 -0.0047
  925MPD2    H313594   1.557   3.103  14.627  0.2410  0.2437 -2.4156
  925MPD2     N13595   1.202   3.284  14.832 -0.2293 -0.0447  0.1325
  925MPD2    H513596   1.230   3.245  14.921  0.8975 -1.4676 -0.8334
  925MPD2    N113597   1.254   3.309  14.357 -0.1447 -0.1523  0.0503
  925MPD2    H713598   1.158   3.342  14.362  0.0390  0.3838  0.0903
  926MPD2     C13599   4.414   1.772  13.758  0.1027  0.2029  0.3665
  926MPD2    C113600   4.348   1.892  13.752 -0.4933  0.4757 -0.0539
  926MPD2    C213601   4.387   1.974  13.650  0.2592  0.4411  0.6765
  926MPD2    C313602   4.484   1.932  13.548  0.7444 -0.6987 -0.0631
  926MPD2    C413603   4.536   1.806  13.553 -0.0861 -0.2011 -0.3847
  926MPD2    C513604   4.500   1.727  13.662 -0.4670 -0.2074  1.0224
  926MPD2     H13605   4.334   2.067  13.635 -1.2068 -0.1438  2.3191
  926MPD2    H113606   4.608   1.764  13.483 -0.6439 -0.5468 -0.7432
  926MPD2    H213607   4.383   1.702  13.835  0.4853  0.9840  1.2219
  926MPD2    H313608   4.531   1.624  13.674  3.0809  0.9106  1.3254
  926MPD2     N13609   4.523   2.018  13.448  0.0960  0.0829  0.2033
  926MPD2    H513610   4.581   1.968  13.381 -1.2304 -1.6627  0.3336
  926MPD2    N113611   4.239   1.926  13.836  0.0463 -0.0567 -0.0246
  926MPD2    H713612   4.184   2.008  13.811 -1.7756 -0.7866  1.5634
  927MPD2     C13613   4.312   3.484  17.526 -0.6532 -0.7515 -0.1730
  927MPD2    C113614   4.224   3.586  17.509 -0.6655  0.1136 -0.3545
  927MPD2    C213615   4.239   3.667  17.400 -0.3986  0.4670  0.0285
  927MPD2    C313616   4.344   3.641  17.309  0.1324  0.0563  0.5098
  927MPD2    C413617   4.422   3.531  17.328 -0.3392  0.6120  0.2957
  927MPD2    C513618   4.407   3.450  17.436  0.6619  0.1244  0.3486
  927MPD2     H13619   4.173   3.753  17.403 -1.4017 -0.3191  0.3368
  927MPD2    H113620   4.489   3.496  17.249  0.0152  3.0109 -0.4492
  927MPD2    H213621   4.322   3.417  17.610 -2.0194 -0.9183 -0.1424
  927MPD2    H313622   4.470   3.364  17.453  0.2034 -0.2833 -0.0298
  927MPD2     N13623   4.370   3.736  17.200  0.0456 -0.4323 -0.1004
  927MPD2    H513624   4.319   3.824  17.191  1.6164  0.2550 -2.3845
  927MPD2    N113625   4.123   3.590  17.600  0.4069  0.9849 -0.8240
  927MPD2    H713626   4.118   3.516  17.669  1.3221  0.0721 -1.7263
  928MPD2     C13627   1.808   2.290   0.910 -0.2658 -0.3599 -0.2806
  928MPD2    C113628   1.858   2.416   0.879 -0.1453  0.0936  0.5690
  928MPD2    C213629   1.960   2.437   0.789  0.7023 -0.0276  1.1237
  928MPD2    C313630   2.011   2.326   0.733  0.7398  0.0176 -0.8706
  928MPD2    C413631   1.966   2.200   0.759  0.6546 -0.3967 -0.3561
  928MPD2    C513632   1.863   2.183   0.843 -0.2528 -0.4800 -0.4817
  928MPD2     H13633   2.003   2.536   0.774  0.8371 -0.1860  0.4457
  928MPD2    H113634   2.005   2.112   0.709 -0.7352 -2.1250  1.6283
  928MPD2    H213635   1.734   2.266   0.985 -0.7264  3.3677  0.4644
  928MPD2    H313636   1.841   2.082   0.877  1.9172 -1.2826 -1.4978
  928MPD2     N13637   2.136   2.333   0.664 -0.8000  0.2904 -0.5529
  928MPD2    H513638   2.153   2.262   0.594  1.9299  2.5618 -2.1972
  928MPD2    N113639   1.804   2.526   0.954 -1.1071  0.7601 -0.0452
  928MPD2    H713640   1.739   2.508   1.031 -2.7168  1.3497 -1.2542
  929MPD2     C13641   1.956   3.013   9.899 -0.4172  0.3948  0.8317
  929MPD2    C113642   1.875   2.927   9.963 -0.2538  0.0494 -0.9489
  929MPD2    C213643   1.800   2.849   9.884  0.0989 -0.4678 -0.1923
  929MPD2    C313644   1.800   2.846   9.743 -0.5804  0.0680  0.3445
  929MPD2    C413645   1.883   2.932   9.684 -0.1522  0.1154 -0.2004
  929MPD2    C513646   1.962   3.012   9.758 -0.7869  0.1911  0.2056
  929MPD2     H13647   1.758   2.756   9.921 -2.7070  1.6902  2.0617
  929MPD2    H113648   1.880   2.946   9.576  0.7076  0.0506 -0.2332
  929MPD2    H213649   2.011   3.096   9.942  0.8137  0.2671 -0.4611
  929MPD2    H313650   2.036   3.068   9.702  0.5537  0.1035  1.8963
  929MPD2     N13651   1.726   2.755   9.664  0.2794  0.5248  0.3149
  929MPD2    H513652   1.761   2.735   9.571  0.1072 -0.6988  0.5225
  929MPD2    N113653   1.853   2.941  10.099 -0.0495 -0.3357 -0.3670
  929MPD2    H713654   1.894   3.023  10.143 -1.1725  0.2239 -0.3520
  930MPD2     C13655   4.067   4.561  14.268 -0.1879  0.0119 -0.7381
  930MPD2    C113656   4.196   4.586  14.221  0.1356  0.1100  0.3488
  930MPD2    C213657   4.234   4.516  14.106 -0.0072  0.8170 -0.0684
  930MPD2    C313658   4.145   4.442  14.032  0.1027 -0.8406  0.1898
  930MPD2    C413659   4.016   4.436  14.076  0.2690  0.4684 -0.6396
  930MPD2    C513660   3.979   4.483  14.194  0.9559 -0.1693 -0.5737
  930MPD2     H13661   4.337   4.537  14.078  0.1874  0.2712  0.2406
  930MPD2    H113662   3.938   4.388  14.019 -0.4837  2.3769 -1.2393
  930MPD2    H213663   4.028   4.605  14.359  2.5629  0.2797  0.3166
  930MPD2    H313664   3.875   4.469  14.222  1.1157 -0.8438 -0.3408
  930MPD2     N13665   4.165   4.412  13.896 -0.8885 -0.4047 -0.3560
  930MPD2    H513666   4.080   4.387  13.847  0.3682 -3.6579 -0.8571
  930MPD2    N113667   4.270   4.675  14.293  0.0573 -0.2659 -0.3119
  930MPD2    H713668   4.218   0.001  14.351 -0.5304 -0.5629 -0.5035
  931MPD2     C13669   4.233   3.324   0.375 -0.2327 -0.4806 -0.4087
  931MPD2    C113670   4.131   3.401   0.409  0.2069 -0.8243 -0.9840
  931MPD2    C213671   4.125   3.449   0.535 -0.1417  0.1819  1.0877
  931MPD2    C313672   4.226   3.417   0.632  0.2393 -0.1962 -0.2505
  931MPD2    C413673   4.322   3.325   0.601 -0.0370 -0.2147  0.2919
  931MPD2    C513674   4.321   3.285   0.470 -0.5842 -0.2506 -0.0395
  931MPD2     H13675   4.053   3.522   0.569 -2.2770 -0.6024 -1.7293
  931MPD2    H113676   4.402   3.299   0.669  1.4728 -0.4547 -1.5756
  931MPD2    H213677   4.237   3.286   0.273 -1.0952 -0.0941 -0.5850
  931MPD2    H313678   4.396   3.211   0.446 -0.4025  0.8292 -2.8254
  931MPD2     N13679   4.244   3.481   0.755  0.3189 -0.3199 -1.0773
  931MPD2    H513680   4.330   3.462   0.804 -0.6140  0.1326  0.7551
  931MPD2    N113681   4.057   3.458   0.305 -0.0530  0.0074  0.1896
  931MPD2    H713682   4.082   3.436   0.210 -3.8622  3.2850 -1.5372
  932MPD2     C13683   0.663   4.161  11.230 -0.8249 -0.1308  0.4692
  932MPD2    C113684   0.765   4.080  11.226  0.1105  0.3096 -0.1820
  932MPD2    C213685   0.743   3.944  11.215 -0.2825 -0.3170  0.3705
  932MPD2    C313686   0.615   3.896  11.206 -0.7399 -0.0198  0.5371
  932MPD2    C413687   0.514   3.983  11.223 -0.0600  0.7649  0.7588
  932MPD2    C513688   0.537   4.120  11.232 -0.4339 -1.0126 -0.1068
  932MPD2     H13689   0.826   3.877  11.195  0.5713  0.4207  1.4390
  932MPD2    H113690   0.417   3.935  11.222  0.0320  0.6201 -1.6284
  932MPD2    H213691   0.679   4.268  11.240  1.2822 -0.2450 -1.6936
  932MPD2    H313692   0.458   4.194  11.240  2.0241  1.3772  1.9450
  932MPD2     N13693   0.585   3.763  11.172  0.1711  0.1608  0.2632
  932MPD2    H513694   0.488   3.735  11.166 -0.2701  1.9864 -1.2235
  932MPD2    N113695   0.900   4.119  11.239 -0.0291  0.1983  0.0660
  932MPD2    H713696   0.965   4.042  11.235  1.4682  1.5055 -0.9216
  933MPD2     C13697   1.502   3.243   0.830 -1.0173  0.3487 -0.0700
  933MPD2    C113698   1.612   3.246   0.907  0.1182 -0.5459 -0.4067
  933MPD2    C213699   1.681   3.363   0.920  0.1201 -0.2676  0.2130
  933MPD2    C313700   1.643   3.487   0.861  0.3623 -0.2201  0.5748
  933MPD2    C413701   1.532   3.476   0.784  0.4430  0.1878  0.4057
  933MPD2    C513702   1.465   3.355   0.767 -0.3913  0.0362 -0.9632
  933MPD2     H13703   1.775   3.365   0.974  0.5181  2.3792 -0.5798
  933MPD2    H113704   1.492   3.561   0.730  1.2460 -0.0074 -0.4873
  933MPD2    H213705   1.444   3.153   0.811  1.5380 -1.1500 -0.7806
  933MPD2    H313706   1.389   3.350   0.690  0.0723 -1.1826 -1.3494
  933MPD2     N13707   1.725   3.601   0.874 -0.1774 -0.6229  0.6247
  933MPD2    H513708   1.800   3.601   0.942  0.0863 -0.5996  0.3324
  933MPD2    N113709   1.659   3.125   0.964 -0.0073  0.0201  0.4075
  933MPD2    H713710   1.609   3.042   0.934 -1.3832  0.8242  0.4643
  934MPD2     C13711   3.475   0.112   1.753 -1.3319  0.5162 -0.0909
  934MPD2    C113712   3.488   4.710   1.757 -0.5158 -0.5017 -0.4168
  934MPD2    C213713   3.393   4.638   1.688 -0.9427 -0.3102  0.1931
  934MPD2    C313714   3.289   4.697   1.610 -0.1758 -0.1095  0.2539
  934MPD2    C413715   3.285   0.096   1.608  0.0107 -0.3356 -0.2600
  934MPD2    C513716   3.381   0.169   1.666 -0.5107  0.1450  0.2094
  934MPD2     H13717   3.400   4.531   1.676 -1.9253 -0.7159  3.0496
  934MPD2    H113718   3.210   0.153   1.555 -1.5503 -1.0538  1.1997
  934MPD2    H213719   3.542   0.188   1.790  0.7004 -0.5094 -1.6716
  934MPD2    H313720   3.363   0.276   1.676 -1.3223  0.1348 -1.1356
  934MPD2     N13721   3.183   4.628   1.542 -0.9189 -0.3922 -0.4639
  934MPD2    H513722   3.134   4.690   1.478  0.0836  1.2465  0.3585
  934MPD2    N113723   3.580   4.635   1.827  0.6030 -0.4778 -0.1148
  934MPD2    H713724   3.570   4.534   1.822 -1.5208 -0.2965  0.5236
  935MPD2     C13725   3.405   3.785   1.159 -0.1990  0.2892 -0.2087
  935MPD2    C113726   3.271   3.795   1.122  0.5025  0.0926  0.5021
  935MPD2    C213727   3.192   3.891   1.179  1.1590 -0.5595  0.5349
  935MPD2    C313728   3.240   3.983   1.268 -0.1056 -0.1277  0.7202
  935MPD2    C413729   3.366   3.967   1.311 -0.0196 -0.6458 -0.0889
  935MPD2    C513730   3.444   3.869   1.258  0.0036  0.2681  0.5333
  935MPD2     H13731   3.087   3.897   1.151  2.1480 -2.5065 -3.6693
  935MPD2    H113732   3.407   4.034   1.386  1.3098 -0.8497 -0.6378
  935MPD2    H213733   3.473   3.709   1.122  1.7880  1.8606  0.2022
  935MPD2    H313734   3.544   3.863   1.297 -0.3072 -2.0840  0.9603
  935MPD2     N13735   3.157   4.082   1.329 -0.4393 -0.2355 -0.1321
  935MPD2    H513736   3.188   4.138   1.408 -1.3194 -0.2141  0.1995
  935MPD2    N113737   3.203   3.716   1.030 -0.2380 -0.3543 -0.0495
  935MPD2    H713738   3.114   3.751   0.995  0.2249  0.9201  0.0650
  936MPD2     C13739   1.888   1.555  12.897  0.1072  0.0336  0.6986
  936MPD2    C113740   1.808   1.655  12.857 -0.1291  0.6396 -0.0657
  936MPD2    C213741   1.809   1.690  12.722 -0.1560 -1.0158  0.1821
  936MPD2    C313742   1.884   1.626  12.628  0.2153 -0.3414  0.1225
  936MPD2    C413743   1.972   1.525  12.672  0.0293  0.2839 -0.3608
  936MPD2    C513744   1.959   1.487  12.801  0.2387 -0.0691  0.0548
  936MPD2     H13745   1.749   1.774  12.691 -1.0077 -2.0449 -0.9671
  936MPD2    H113746   2.040   1.475  12.604  0.6200  0.4612  0.0937
  936MPD2    H213747   1.892   1.517  12.998  0.0275 -2.3101 -0.1902
  936MPD2    H313748   2.025   1.410  12.840  2.8110  1.7809 -0.6559
  936MPD2     N13749   1.885   1.683  12.499 -0.4960 -0.1951  0.1304
  936MPD2    H513750   1.824   1.764  12.491  0.7186  0.6554 -0.6067
  936MPD2    N113751   1.724   1.732  12.941 -0.4944  0.0071  0.5009
  936MPD2    H713752   1.665   1.801  12.894  0.4017  1.1317  1.0299
  937MPD2     C13753   4.198   2.979  11.844  0.7267 -1.2274  0.0483
  937MPD2    C113754   4.200   3.121  11.849  0.7319  0.2002  0.0129
  937MPD2    C213755   4.281   3.190  11.753 -0.5987 -0.8308  0.0008
  937MPD2    C313756   4.365   3.127  11.670  0.5736 -0.1018  0.0222
  937MPD2    C413757   4.378   2.981  11.685  0.0756 -0.5476  0.2005
  937MPD2    C513758   4.292   2.907  11.763 -0.3486 -0.2638  0.0665
  937MPD2     H13759   4.270   3.297  11.741 -4.0671 -1.0204  1.4123
  937MPD2    H113760   4.446   2.921  11.626  0.9217  1.5855 -1.0362
  937MPD2    H213761   4.111   2.927  11.882 -1.1349  0.8708 -1.3966
  937MPD2    H313762   4.297   2.799  11.766  3.0147 -0.2012 -3.5838
  937MPD2     N13763   4.436   3.204  11.575  0.3463 -0.7856 -0.4081
  937MPD2    H513764   4.431   3.305  11.562  1.6631 -0.6063  0.4350
  937MPD2    N113765   4.085   3.196  11.897 -0.0253 -0.1284  0.2207
  937MPD2    H713766   4.075   3.293  11.867 -0.3756 -0.4615 -0.7431
  938MPD2     C13767   2.428   4.535   0.476 -0.6347  0.4597 -0.5407
  938MPD2    C113768   2.488   4.528   0.599  0.4754 -0.3056 -1.3239
  938MPD2    C213769   2.447   4.437   0.689  0.2468 -0.8359  0.1467
  938MPD2    C313770   2.327   4.367   0.671 -0.0507 -1.1692 -0.2389
  938MPD2    C413771   2.262   4.381   0.549  0.3340 -0.5735  0.4868
  938MPD2    C513772   2.311   4.468   0.459 -0.4878 -0.1349 -0.0168
  938MPD2     H13773   2.493   4.430   0.787 -0.6874  1.1409  0.7418
  938MPD2    H113774   2.166   4.333   0.538 -0.7539  2.1269 -1.8830
  938MPD2    H213775   2.466   4.595   0.393  1.2597 -0.5665 -0.4013
  938MPD2    H313776   2.263   4.472   0.363  0.6841 -0.6282 -0.6296
  938MPD2     N13777   2.267   4.289   0.769 -0.6485  0.8105  0.1186
  938MPD2    H513778   2.179   4.243   0.747 -0.5420  0.7424 -0.1680
  938MPD2    N113779   2.605   4.603   0.637 -0.6011  0.1558 -0.1686
  938MPD2    H713780   2.631   4.593   0.734  0.0713 -1.4479 -0.5060
  939MPD2     C13781   3.946   0.185   1.206 -0.3614  0.4129  0.9100
  939MPD2    C113782   3.954   0.316   1.174  0.0986  0.8150  0.2496
  939MPD2    C213783   3.956   0.351   1.041 -0.0752  0.5797 -0.6401
  939MPD2    C313784   3.951   0.258   0.941 -0.6353  0.3833 -0.6812
  939MPD2    C413785   3.954   0.123   0.978  0.3320 -0.6149  0.0027
  939MPD2    C513786   3.943   0.091   1.105  0.2908 -0.2607  0.4447
  939MPD2     H13787   3.963   0.455   1.012 -0.2423  0.7236 -0.1730
  939MPD2    H113788   3.945   0.039   0.910  1.2044 -1.1702  0.5618
  939MPD2    H213789   3.945   0.154   1.310  2.6741 -0.7006  0.6220
  939MPD2    H313790   3.935   4.725   1.130  0.8232 -0.5979 -0.7497
  939MPD2     N13791   3.954   0.310   0.811 -0.1470  0.2803  0.2668
  939MPD2    H513792   3.958   0.411   0.798 -2.1982  0.5934  1.9876
  939MPD2    N113793   3.965   0.403   1.285 -0.7139 -0.6096  0.0954
  939MPD2    H713794   3.944   0.361   1.375  0.3138 -1.0237  0.1359
  940MPD2     C13795   2.022   1.984  12.799  0.5526 -0.4682 -0.1125
  940MPD2    C113796   2.070   1.904  12.901 -0.2429  0.1482 -0.5323
  940MPD2    C213797   2.168   1.809  12.868 -0.0327 -0.4179  0.0397
  940MPD2    C313798   2.209   1.793  12.733  0.0061 -0.1960  0.3175
  940MPD2    C413799   2.163   1.884  12.634  0.2654  0.5810 -0.4019
  940MPD2    C513800   2.067   1.974  12.668  0.1575  0.1166  0.2450
  940MPD2     H13801   2.212   1.742  12.941  1.9876 -1.6390 -2.3009
  940MPD2    H113802   2.191   1.886  12.529  0.7889 -1.0607 -0.2935
  940MPD2    H213803   1.951   2.065  12.811 -0.0865 -1.1286  0.5207
  940MPD2    H313804   2.036   2.045  12.592  0.6316 -1.5473 -1.5226
  940MPD2     N13805   2.320   1.710  12.691 -0.3179 -0.0468  0.2317
  940MPD2    H513806   2.364   1.744  12.606 -1.0492 -0.1299 -0.1793
  940MPD2    N113807   2.034   1.930  13.044 -0.2220  0.2735  1.0552
  940MPD2    H713808   2.064   1.856  13.106 -0.4415 -0.6563  0.0477
  941MPD2     C13809   1.642   1.079   9.126 -0.3162 -0.3362 -0.1922
  941MPD2    C113810   1.628   1.050   9.254 -0.4701  0.1838 -0.3732
  941MPD2    C213811   1.511   0.990   9.298  0.5658  0.2227 -0.6973
  941MPD2    C313812   1.409   0.956   9.211  0.1760 -0.2935  0.3151
  941MPD2    C413813   1.424   0.982   9.076  0.1353  0.0336  0.3741
  941MPD2    C513814   1.540   1.038   9.034  0.7387  1.0406  0.6377
  941MPD2     H13815   1.496   0.988   9.406  0.7426  1.5823 -0.6423
  941MPD2    H113816   1.343   0.961   9.007  1.0676 -0.8623 -0.4425
  941MPD2    H213817   1.724   1.127   9.073 -0.2955 -1.2475 -0.9877
  941MPD2    H313818   1.556   1.055   8.928  0.3407  0.8718  0.5504
  941MPD2     N13819   1.284   0.897   9.259 -0.9032  0.4674 -0.0717
  941MPD2    H513820   1.205   0.895   9.196 -1.2447 -0.9421  0.4110
  941MPD2    N113821   1.730   1.076   9.343 -0.0305 -0.7706  0.3419
  941MPD2    H713822   1.726   1.032   9.434  0.2927 -3.5885 -1.0228
  942MPD2     C13823   1.520   3.736   8.939 -0.3936 -0.3353 -0.1427
  942MPD2    C113824   1.501   3.686   9.065 -0.3111 -0.2057 -0.0541
  942MPD2    C213825   1.544   3.556   9.101 -0.7980 -0.4283  0.0971
  942MPD2    C313826   1.624   3.484   9.014 -0.2018  0.0864  0.1150
  942MPD2    C413827   1.644   3.531   8.882 -0.6512  0.6238 -0.3949
  942MPD2    C513828   1.588   3.662   8.850 -0.2707 -0.0493 -0.6808
  942MPD2     H13829   1.528   3.521   9.202 -0.7109  1.0969  0.6404
  942MPD2    H113830   1.703   3.493   8.800 -0.0011  1.9741 -0.5698
  942MPD2    H213831   1.479   3.834   8.915  1.8631  0.3070 -1.3372
  942MPD2    H313832   1.617   3.708   8.757 -1.5167  2.4284  0.1518
  942MPD2     N13833   1.686   3.363   9.044  0.3828  0.0589 -0.2215
  942MPD2    H513834   1.726   3.315   8.965  1.2077  3.0477 -1.6293
  942MPD2    N113835   1.434   3.754   9.174  0.0679  0.4247 -0.2209
  942MPD2    H713836   1.436   3.708   9.264 -1.5950 -0.1134 -0.4578
  943MPD2     C13837   0.358   0.270   9.450  0.3013 -0.3647 -0.2650
  943MPD2    C113838   0.287   0.283   9.568 -0.4285 -0.6183 -0.4777
  943MPD2    C213839   0.347   0.351   9.676  0.3728  0.2716 -0.2701
  943MPD2    C313840   0.472   0.410   9.663 -0.6124 -0.1252  0.1276
  943MPD2    C413841   0.538   0.407   9.542 -0.4213 -0.5412  0.2495
  943MPD2    C513842   0.482   0.336   9.439  0.4472 -0.2316  0.0773
  943MPD2     H13843   0.303   0.356   9.774 -0.2728 -1.9699 -0.4421
  943MPD2    H113844   0.640   0.441   9.529 -0.1952 -1.2589  0.1172
  943MPD2    H213845   0.311   0.218   9.368  0.6593 -1.1635  0.0381
  943MPD2    H313846   0.547   0.325   9.353  0.0807  0.5144 -0.2933
  943MPD2     N13847   0.546   0.479   9.764  0.2477  0.2082  0.0693
  943MPD2    H513848   0.638   0.514   9.741  1.0894 -1.1557  1.3861
  943MPD2    N113849   0.160   0.224   9.585 -0.0520 -0.2273  0.0529
  943MPD2    H713850   0.133   0.170   9.503  0.2227  1.1272 -0.9213
  944MPD2     C13851   4.437   0.664  10.918  0.5517 -0.3424  0.0563
  944MPD2    C113852   4.474   0.578  11.022  0.1510 -0.2289 -0.0858
  944MPD2    C213853   4.470   0.635  11.149 -0.1212  0.0992  0.4341
  944MPD2    C313854   4.436   0.766  11.170  0.0778 -0.1071  0.2993
  944MPD2    C413855   4.409   0.845  11.064  0.5250  0.1093  0.1110
  944MPD2    C513856   4.396   0.788  10.939 -0.7114  0.6715  0.5799
  944MPD2     H13857   4.496   0.578  11.238 -1.4047  0.6654  1.1782
  944MPD2    H113858   4.376   0.948  11.077  1.0499  0.2422  0.3722
  944MPD2    H213859   4.427   0.622  10.819 -0.0862 -1.1254  0.4535
  944MPD2    H313860   4.345   0.846  10.863  1.4632  0.9891 -0.6314
  944MPD2     N13861   4.440   0.816  11.301  0.6237 -0.3124 -0.1505
  944MPD2    H513862   4.456   0.748  11.375  1.1752  0.7816  0.7261
  944MPD2    N113863   4.518   0.448  10.994  0.4608 -0.0776  0.3575
  944MPD2    H713864   4.501   0.415  10.899 -1.0231  0.3809  0.4553
    1TMC1    C113865   3.098   0.750  14.106  0.0963  0.9971 -0.0574
    1TMC1    C213866   3.010   0.708  14.012 -0.1929  0.0224 -0.0140
    1TMC1    C313867   2.981   0.583  13.986 -0.7410  0.2769 -0.3995
    1TMC1    C413868   3.159   0.656  14.181 -0.1031  0.5523  0.3245
    1TMC1    C513869   3.135   0.522  14.151  0.1322 -0.9154 -0.7292
    1TMC1    C613870   3.045   0.485  14.055 -0.5616  0.2914  0.2817
    1TMC1     C13871   3.140   0.887  14.125  0.6495 -0.0698  0.2776
    1TMC1     O13872   3.250   0.912  14.172 -0.3496 -0.1119 -0.0778
    1TMC1     H13873   2.969   0.787  13.951  0.1999  0.2034 -0.0445
    1TMC1    H113874   3.233   0.676  14.257 -0.4660 -4.2757  1.9213
    1TMC1    H213875   3.014   0.384  14.033  1.4488  0.1753 -1.9691
    1TMC1    C713876   3.165   0.424  14.254 -0.2005 -0.3377 -0.3977
    1TMC1    C813877   2.942   0.556  13.850  0.4000  0.0784  0.2865
    1TMC1    O113878   3.201   0.447  14.365 -0.1715 -0.5250  0.1453
    1TMC1    O213879   3.010   0.481  13.779  0.1762  0.3248  0.3978
    1TMC1    O313880   3.220   0.321  14.179  0.2320  0.0049  0.0713
    1TMC1    H313881   3.210   0.327  14.082  3.5193  2.6435 -0.0871
    1TMC1    O513882   2.824   0.623  13.827  0.2939  0.3269 -0.4658
    1TMC1    H513883   2.774   0.646  13.908  0.2328 -1.0260 -0.1304
    2MPD2     C13884   3.025   1.392  14.120  0.2844 -0.7908 -0.6205
    2MPD2    C113885   2.922   1.313  14.080 -0.3638  0.6493  0.0615
    2MPD2    C213886   2.923   1.175  14.075 -0.0237  0.1560  0.2797
    2MPD2    C313887   3.041   1.112  14.099  0.5631  0.0526  0.0270
    2MPD2    C413888   3.157   1.185  14.137 -0.0835  0.3811 -0.8663
    2MPD2    C513889   3.144   1.323  14.148 -0.3416 -0.1898  0.3131
    2MPD2     H13890   2.838   1.116  14.043 -0.9977  1.7753 -0.1033
    2MPD2    H113891   3.251   1.140  14.166 -0.5554  0.7944  1.3310
    2MPD2    H213892   3.027   1.500  14.132 -0.2528 -0.8945  0.3712
    2MPD2    H313893   3.234   1.381  14.165  0.4580 -1.0376 -1.0814
    2MPD2     N13894   3.036   0.973  14.092  0.1351  0.2541  0.4063
    2MPD2    H513895   2.943   0.944  14.061  1.0770 -2.2430 -0.0803
    2MPD2    N113896   2.805   1.385  14.040 -0.7347  0.1437  0.1915
    2MPD2    H713897   2.810   1.487  14.037 -1.4234  0.1332 -1.5255
    3TMC2    C113898   2.618   1.442  13.916  0.5927 -0.4415  0.2221
    3TMC2    C213899   2.609   1.558  13.987  0.0990  0.4460 -0.4309
    3TMC2    C313900   2.512   1.645  13.939 -0.6453  0.2737 -0.1619
    3TMC2    C413901   2.572   1.430  13.790 -0.3078 -0.1038 -0.1858
    3TMC2    C513902   2.491   1.527  13.741 -0.1681 -0.4593  0.0090
    3TMC2    C613903   2.449   1.626  13.822 -0.5144  0.4020 -0.4114
    3TMC2     C13904   2.700   1.334  13.975  0.9517  0.7265  0.5643
    3TMC2     O13905   2.678   1.220  13.933  0.2715 -0.8691  0.7434
    3TMC2     H13906   2.623   1.551  14.094 -0.5449  3.7669 -0.1145
    3TMC2    H113907   2.577   1.332  13.743  1.1389 -0.3082  0.4016
    3TMC2    H213908   2.370   1.691  13.787  0.5822  0.2850 -3.0912
    3TMC2    C713909   2.462   1.524  13.592  0.5287 -0.3446 -0.4591
    3TMC2    C813910   2.431   1.713  14.039 -0.4994  0.6766  0.7075
    3TMC2    O113911   2.483   1.416  13.540 -0.4076  0.1127 -0.4223
    3TMC2    O213912   2.308   1.717  14.036 -0.1321  0.1917 -0.2545
    3TMC2    O513913   2.513   1.780  14.122 -0.0627  0.3176  0.0181
    3TMC2    H513914   2.596   1.802  14.074  0.9676 -0.3229  1.5085
    4TMC2    C113915   2.128   2.371  13.181 -0.1757  0.6353  0.8432
    4TMC2    C213916   2.134   2.363  13.047  0.1409 -0.2253 -0.7866
    4TMC2    C313917   2.230   2.286  12.991 -0.2392  0.4342 -0.1464
    4TMC2    C413918   2.203   2.289  13.259 -0.6781  0.1944 -0.2719
    4TMC2    C513919   2.292   2.209  13.200 -0.1603  0.0960 -0.3212
    4TMC2    C613920   2.315   2.211  13.066  0.6252 -0.4029 -0.3202
    4TMC2     C13921   2.037   2.458  13.252 -0.2260  0.2815 -0.1578
    4TMC2     O13922   2.017   2.434  13.371  0.0693  0.1281  0.2694
    4TMC2     H13923   2.071   2.433  12.994 -0.7680  0.2875  0.9853
    4TMC2    H113924   2.195   2.302  13.366 -1.4113 -2.0221 -0.0624
    4TMC2    H213925   2.387   2.147  13.016  1.8926  0.5139  0.3609
    4TMC2    C713926   2.331   2.087  13.277  0.2855  0.0282  0.6701
    4TMC2    C813927   2.261   2.286  12.852  0.5107  0.1996  0.4549
    4TMC2    O113928   2.332   2.105  13.397 -0.6540 -0.3164 -0.3007
    4TMC2    O213929   2.372   2.248  12.816 -0.0909 -0.0791  0.0129
    4TMC2    O513930   2.171   2.365  12.786  0.0055  0.2187  0.5545
    4TMC2    H513931   2.077   2.359  12.814  0.4996 -3.2736  1.5247
    5MPD2     C13932   1.621   2.761  13.277 -0.5058 -0.1335  0.4610
    5MPD2    C113933   1.709   2.804  13.180  0.6562 -0.5548  0.2064
    5MPD2    C213934   1.823   2.739  13.150  0.1408 -0.4886  0.3216
    5MPD2    C313935   1.863   2.630  13.224 -0.4318 -0.0725  0.3207
    5MPD2    C413936   1.779   2.591  13.326 -0.4419  0.6213  0.4263
    5MPD2    C513937   1.657   2.649  13.346 -0.5488  0.2947  0.2834
    5MPD2     H13938   1.875   2.765  13.059 -1.2842 -0.1688 -0.4142
    5MPD2    H113939   1.795   2.511  13.398  1.6166 -0.4332 -1.2204
    5MPD2    H213940   1.522   2.801  13.294 -0.2651  0.9084 -0.6269
    5MPD2    H313941   1.582   2.607  13.412 -1.9606  0.1261 -1.4065
    5MPD2     N13942   1.979   2.558  13.179 -0.3270  0.0199  0.4353
    5MPD2    H513943   2.031   2.587  13.097  1.3442  0.4309  1.6388
    5MPD2    N113944   1.668   2.908  13.091 -0.0841 -0.0145  0.4160
    5MPD2    H713945   1.569   2.927  13.101  0.1194  1.4849 -0.4004
    6MPD1     C13946   1.820   4.650  12.923  0.3178 -0.4160 -0.6201
    6MPD1    C113947   1.682   4.662  12.926 -0.6664  0.5529 -0.0148
    6MPD1    C213948   1.599   4.553  12.925  0.0621 -0.1668  0.1321
    6MPD1    C313949   1.654   4.427  12.917  0.8497  1.1106 -0.4918
    6MPD1    C413950   1.792   4.414  12.910  0.4045  0.1508 -0.5010
    6MPD1    C513951   1.874   4.527  12.922 -1.1570 -0.3555 -0.9139
    6MPD1     H13952   1.492   4.569  12.930  0.3652  2.2018 -0.7020
    6MPD1    H113953   1.838   4.315  12.914  1.5847  0.7718  1.5848
    6MPD1    H213954   1.893   4.726  12.947 -0.8499  0.5342 -0.1010
    6MPD1    H313955   1.978   4.507  12.947 -1.0032  1.5639 -0.0141
    6MPD1     N13956   1.577   4.309  12.909  0.0553 -0.5190 -1.0058
    6MPD1    H513957   1.633   4.226  12.895  0.3380 -0.3528 -0.8473
    6MPD1    N113958   1.635   0.053  12.954 -0.0625  0.8264 -0.3961
    6MPD1    H613959   1.534   0.063  12.942 -0.1615 -1.0754 -1.1736
    6MPD1    H713960   1.693   0.117  12.900  0.7670  0.3532 -0.0591
    7MPD2     C13961   1.178   3.623  13.204 -0.8819 -0.3835  0.2118
    7MPD2    C113962   1.257   3.624  13.099  0.0400  0.2472  0.1210
    7MPD2    C213963   1.315   3.506  13.064  0.4123 -0.1107 -0.1669
    7MPD2    C313964   1.274   3.384  13.112  0.3806  0.1096  0.0849
    7MPD2    C413965   1.187   3.384  13.216 -0.6666 -0.1721 -0.2019
    7MPD2    C513966   1.155   3.505  13.268 -0.5771 -0.2872  0.1809
    7MPD2     H13967   1.398   3.507  12.994  0.3955 -0.7402 -0.1892
    7MPD2    H113968   1.159   3.291  13.264  1.7726 -0.0494  1.4894
    7MPD2    H213969   1.128   3.709  13.246 -0.1507  0.3645 -0.4294
    7MPD2    H313970   1.085   3.508  13.350  0.8218  1.7408  1.2941
    7MPD2     N13971   1.319   3.260  13.057  0.3120  0.1678  0.1587
    7MPD2    H513972   1.307   3.176  13.113  2.9936 -0.3626 -0.0980
    7MPD2    N113973   1.292   3.736  13.030  0.3933  0.0324 -0.8465
    7MPD2    H713974   1.362   3.714  12.961  1.0048 -1.8885  0.3845
    8TMC3    C113975   1.445   3.127  12.902 -0.2534  0.3322 -0.5813
    8TMC3    C213976   1.543   3.103  12.986 -0.6343 -0.0322 -0.0537
    8TMC3    C313977   1.660   3.070  12.937  0.2945 -0.2977 -0.0461
    8TMC3    C413978   1.470   3.133  12.762 -0.4877  0.1250 -0.0368
    8TMC3    C513979   1.594   3.105  12.716  0.5388 -0.2410 -0.6494
    8TMC3    C613980   1.693   3.082  12.800  0.1872  0.2347 -0.8557
    8TMC3     C13981   1.376   3.252  12.934 -0.5890  0.1726 -0.3467
    8TMC3     O13982   1.379   3.333  12.841 -0.5744  0.3096  0.4518
    8TMC3     H13983   1.523   3.108  13.092  2.5310  0.5106  0.5049
    8TMC3    H113984   1.386   3.157  12.698  1.4236  0.7043 -2.2844
    8TMC3    H213985   1.798   3.071  12.773 -0.4301 -3.2845 -1.7699
    8TMC3    C713986   1.616   3.189  12.604 -0.6099 -0.0588  0.3143
    8TMC3    C813987   1.748   2.983  13.008  0.4870  1.4557 -0.0154
    8TMC3    O113988   1.694   3.163  12.510  0.3781 -0.0356  0.0775
    8TMC3    O213989   1.865   2.974  12.968 -0.3391  0.2510 -0.5387
    9TMC3    C113990   1.414   4.157  12.878  0.4574 -0.1393  0.0912
    9TMC3    C213991   1.463   4.103  12.764  0.3118  0.1840 -0.3477
    9TMC3    C313992   1.435   3.969  12.740 -0.3807 -1.0747 -0.2852
    9TMC3    C413993   1.343   4.086  12.972  0.4605 -0.0380  0.6841
    9TMC3    C513994   1.307   3.953  12.946 -0.3090 -0.5019 -1.0819
    9TMC3    C613995   1.347   3.897  12.824  0.3805  0.0894  0.3052
    9TMC3     C13996   1.440   4.292  12.913 -0.3078  0.0106 -0.2212
    9TMC3     O13997   1.348   4.367  12.942 -0.0387 -0.6611  0.2941
    9TMC3     H13998   1.516   4.160  12.688  1.5437 -0.4183  0.0628
    9TMC3    H113999   1.312   4.125  13.068 -0.6230 -0.8114  0.6401
    9TMC3    H214000   1.307   3.798  12.805  3.4165 -0.9901 -0.4374
    9TMC3    C714001   1.253   3.864  13.053  0.1322  1.2574  0.7891
    9TMC3    C814002   1.531   3.901  12.660 -0.2643  0.5323  0.4466
    9TMC3    O114003   1.185   3.918  13.142 -0.0882 -0.2924 -0.4359
    9TMC3    O214004   1.584   3.958  12.569  0.2767 -0.7499  0.1420
   10MPD2     C14005   1.703   3.456  12.474 -0.2582  0.3475  0.1672
   10MPD2    C114006   1.629   3.433  12.588  0.3027 -1.1202  0.0991
   10MPD2    C214007   1.586   3.544  12.663 -0.3970  0.3867 -0.4115
   10MPD2    C314008   1.596   3.670  12.607 -0.3088  0.1661 -0.6598
   10MPD2    C414009   1.656   3.688  12.487  0.0764 -0.5566 -1.2802
   10MPD2    C514010   1.718   3.582  12.425 -0.1551  0.3669 -0.1884
   10MPD2     H14011   1.525   3.532  12.753  0.9426  1.3325  0.6139
   10MPD2    H114012   1.678   3.782  12.438 -2.0879  0.5351 -0.1104
   10MPD2    H214013   1.755   3.372  12.429  2.2427  2.1646 -0.3302
   10MPD2    H314014   1.769   3.592  12.330 -1.3097 -4.0292 -1.2750
   10MPD2     N14015   1.545   3.768  12.693  0.0726 -0.0669  0.6202
   10MPD2    H514016   1.511   3.726  12.779 -2.3981  0.0718 -0.3065
   10MPD2    N114017   1.586   3.312  12.642  0.5229 -0.0802  0.2217
   10MPD2    H714018   1.520   3.312  12.720 -0.1086  0.9953 -0.3127
   11MPD2     C14019   2.438   1.586  13.301 -0.0404  0.0462 -0.2021
   11MPD2    C114020   2.413   1.674  13.403  0.7973 -0.1206  0.2982
   11MPD2    C214021   2.386   1.809  13.364  0.4448  0.5193  0.5800
   11MPD2    C314022   2.370   1.848  13.233 -0.2233  0.7143 -0.1210
   11MPD2    C414023   2.399   1.752  13.140 -0.1084 -1.0784 -0.0908
   11MPD2    C514024   2.419   1.624  13.174 -0.0658  1.1001 -0.3868
   11MPD2     H14025   2.384   1.879  13.448  0.6376 -1.3230  2.1080
   11MPD2    H114026   2.400   1.782  13.036  0.2513  0.5395  0.3798
   11MPD2    H214027   2.474   1.485  13.321  0.4913 -0.0706 -1.7601
   11MPD2    H314028   2.448   1.554  13.097  0.9365 -0.0214  0.9955
   11MPD2     N14029   2.350   1.978  13.190  0.1607  0.5244 -0.0001
   11MPD2    H514030   2.361   1.990  13.090 -0.1700  1.0578  0.0287
   11MPD2    N114031   2.435   1.646  13.539 -0.2053  0.2502  0.2307
   11MPD2    H714032   2.436   1.728  13.598 -0.5090  0.8131 -0.5404
    1MPD1     C14033   0.099   3.567  17.410 -0.0533 -1.1068  0.4275
    1MPD1    C114034   0.211   3.509  17.460  1.3516 -0.1317  0.3857
    1MPD1    C214035   0.244   3.385  17.407  0.7721  0.2715  0.1055
    1MPD1    C314036   0.187   3.333  17.289  0.1967 -0.1970 -0.0608
    1MPD1    C414037   0.089   3.409  17.227 -0.3222  0.2005 -0.6458
    1MPD1    C514038   0.045   3.522  17.291  0.6074  0.2373 -0.1638
    1MPD1     H14039   0.321   3.319  17.445  1.2298  0.6931 -0.0842
    1MPD1    H114040   0.040   3.373  17.137  1.6634  1.3801 -2.1853
    1MPD1    H214041   0.052   3.649  17.462 -1.0155 -2.1287  1.1670
    1MPD1    H314042   4.699   3.573  17.247  1.7257  1.8258 -0.4709
    1MPD1     N14043   0.224   3.216  17.229 -0.5488 -0.1159  0.3964
    1MPD1    H514044   0.173   3.191  17.145 -0.2467 -0.4303  0.3051
    1MPD1    N114045   0.253   3.540  17.588 -0.0166 -0.4481  0.1293
    1MPD1    H614046   0.230   3.634  17.619 -1.2035 -1.1112  1.2544
    1MPD1    H714047   0.347   3.509  17.611  0.0247 -0.5924 -0.2285
    2MPD1     C14048   1.125   2.762  17.234 -0.7067 -0.4798 -0.2722
    2MPD1    C114049   1.053   2.804  17.342  0.1036  0.4202 -0.2071
    2MPD1    C214050   0.916   2.823  17.319  0.1866 -0.3540  0.2250
    2MPD1    C314051   0.853   2.807  17.202  1.2472  0.3406  0.6308
    2MPD1    C414052   0.932   2.760  17.101  0.1197 -0.7278 -0.2973
    2MPD1    C514053   1.067   2.737  17.119 -0.1832 -0.1836  0.9471
    2MPD1     H14054   0.859   2.867  17.401 -2.0165 -4.0696  0.6917
    2MPD1    H114055   0.886   2.723  17.010  1.1625  1.9455 -1.9260
    2MPD1    H214056   1.229   2.734  17.245  0.1821  2.2724 -1.6782
    2MPD1    H314057   1.121   2.690  17.037 -1.6367  0.6854 -0.5269
    2MPD1     N14058   0.713   2.832  17.188  0.5453 -0.7178 -1.0875
    2MPD1    H514059   0.671   2.869  17.273  1.0426 -1.9445 -0.3065
    2MPD1    N114060   1.125   2.861  17.454  0.2728 -0.2199  0.7001
    2MPD1    H614061   1.217   2.820  17.469 -0.3420 -0.3190  4.1841
    2MPD1    H714062   1.084   2.854  17.547 -1.4098 -1.0310 -0.0967
    3TMC3    C114063   0.494   2.849  17.099 -0.1715 -0.5312 -0.2225
    3TMC3    C214064   0.406   2.805  17.007 -0.4666  0.6139 -0.2686
    3TMC3    C314065   0.283   2.862  17.025 -0.2064  0.2476  0.4493
    3TMC3    C414066   0.469   2.955  17.184  0.5029 -0.0061  0.6664
    3TMC3    C514067   0.346   3.012  17.196  0.0376 -0.2214 -0.0575
    3TMC3    C614068   0.247   2.963  17.109  0.1094 -0.3054 -0.5436
    3TMC3     C14069   0.630   2.803  17.083 -0.3365 -0.0857  0.5386
    3TMC3     O14070   0.650   2.721  16.995 -0.2876  0.2748 -0.3440
    3TMC3     H14071   0.422   2.725  16.935 -0.5060  1.7130 -1.4835
    3TMC3    H114072   0.549   2.998  17.243  0.1524  2.1123 -0.3967
    3TMC3    H214073   0.146   3.002  17.108  1.1561  2.4713  0.8424
    3TMC3    C714074   0.334   3.138  17.269 -0.8418  0.4776 -0.5288
    3TMC3    C814075   0.175   2.820  16.937  0.2637  0.0447 -0.1452
    3TMC3    O114076   0.426   3.155  17.348  0.3324 -0.5567  0.2241
    3TMC3    O214077   0.066   2.798  16.989 -0.1726  0.2011 -0.0957
    4MPD1     C14078   4.731   2.787  16.467  0.7118  0.3779  1.0005
    4MPD1    C114079   0.130   2.791  16.456 -0.6632 -0.0946 -0.2193
    4MPD1    C214080   0.197   2.809  16.572  0.2323 -0.0585 -0.3763
    4MPD1    C314081   0.138   2.797  16.693 -0.6809  0.9131  0.2533
    4MPD1    C414082   0.003   2.764  16.702 -0.4350 -0.3694  0.3237
    4MPD1    C514083   4.669   2.769  16.588 -0.1416 -0.6200  0.0200
    4MPD1     H14084   0.298   2.845  16.559 -0.5462  2.4343  0.6199
    4MPD1    H114085   4.695   2.752  16.799  1.2009  1.7732  1.3666
    4MPD1    H214086   4.681   2.790  16.371  0.5017  1.5460  1.1493
    4MPD1    H314087   4.562   2.752  16.597 -0.2787  0.6477  0.7618
    4MPD1     N14088   0.222   2.819  16.804 -0.3825  0.2947 -0.4958
    4MPD1    H514089   0.322   2.831  16.792 -0.1250 -1.0143  0.3572
    4MPD1    N114090   0.185   2.820  16.329  0.5353  0.3051 -0.3968
    4MPD1    H614091   0.129   2.766  16.264  0.5707  0.1911 -0.3328
    4MPD1    H714092   0.281   2.788  16.324  1.2725  2.4236  0.1960
    1TCq1    O114093   1.449   0.241   9.609 -0.4312 -0.2865  0.9583
    1TCq1    C114094   1.563   0.195   9.668 -0.0551  0.4556  0.1561
    1TCq1    O214095   1.578   0.075   9.690  0.1812 -0.0383 -0.0726
    1TCq1    C214096   1.560   0.291   9.778  1.3195  0.3621  1.1167
    1TCq1    C314097   1.577   0.416   9.746  0.0438 -0.1055 -0.7006
    1TCq1    C414098   1.600   0.506   9.848 -0.8760  0.2754  0.4206
    1TCq1    C514099   1.601   0.467   9.983 -0.1560 -0.6169  1.0892
    1TCq1    C614100   1.578   0.336  10.012  0.3095 -0.2113  0.0911
    1TCq1    C714101   1.563   0.248   9.907 -0.0790  0.4605 -0.8608
    1TCq1    C814102   1.626   0.279  10.142 -0.2619 -1.1186  0.4903
    1TCq1    O414103   1.668   0.165  10.147  0.3850  0.3341  0.3161
    1TCq1    C914104   1.682   0.627   9.809 -0.5116 -0.0050  0.0938
    1TCq1    O514105   1.681   0.658   9.687 -0.1925 -0.4009  0.3387
    1TCq1    O614106   1.724   0.710   9.898  0.0173 -0.2781  0.9867
    1TCq1    H114107   1.415   0.324   9.647 -1.4247  0.0828 -0.7098
    1TCq1    H214108   1.621   0.429   9.648 -0.4950 -0.5431 -1.0016
    1TCq1    H314109   1.641   0.536  10.056 -1.4625  1.2621  0.0431
    1TCq1    H414110   1.551   0.141   9.922 -0.7365  0.6467 -0.0256
    2MPD1     C14111   1.807   0.379  10.607  0.0674 -0.0910 -0.2163
    2MPD1    C114112   1.736   0.488  10.564 -0.7604 -0.2906  0.2660
    2MPD1    C214113   1.673   0.475  10.441  0.2977  0.1833  0.3468
    2MPD1    C314114   1.688   0.364  10.364 -0.2976  0.3154 -0.0976
    2MPD1    C414115   1.769   0.261  10.402  0.2291 -0.6124  0.4867
    2MPD1    C514116   1.836   0.279  10.519 -0.3423  0.0569 -0.1362
    2MPD1     H14117   1.602   0.549  10.406 -1.0263 -0.2524  2.1233
    2MPD1    H114118   1.790   0.177  10.337 -2.2684  0.0177 -1.1682
    2MPD1    H214119   1.853   0.371  10.705 -0.4545 -1.0453 -0.0432
    2MPD1    H314120   1.909   0.206  10.554 -0.8461 -0.4581 -0.1460
    2MPD1     N14121   1.622   0.373  10.237 -0.1190 -0.2016  0.1062
    2MPD1    H514122   1.575   0.460  10.216 -1.3566 -0.8595  0.1485
    2MPD1    N114123   1.711   0.584  10.659  0.1044  1.0591 -0.6034
    2MPD1    H614124   1.675   0.672  10.622 -1.2260  1.4467  1.6184
    2MPD1    H714125   1.788   0.589  10.725 -1.7571 -3.3723  1.9147
    1TMC1    C114126   2.009   2.066  17.084  0.4928  0.0624 -0.8153
    1TMC1    C214127   1.958   1.972  17.177 -0.0738 -0.5719 -0.3340
    1TMC1    C314128   1.934   2.007  17.303  0.3342  0.0671  0.4266
    1TMC1    C414129   2.030   2.187  17.135 -1.3127  0.2568 -0.5467
    1TMC1    C514130   1.994   2.221  17.257 -0.4995 -0.6094 -0.5038
    1TMC1    C614131   1.945   2.129  17.344 -0.4682  0.5234 -0.0844
    1TMC1     C14132   2.080   2.022  16.964 -0.6624  0.1741  0.1514
    1TMC1     O14133   2.097   1.904  16.957  0.2567 -0.1870 -0.0718
    1TMC1     H14134   1.960   1.865  17.159  1.3870 -0.6550  0.3215
    1TMC1    H114135   2.079   2.261  17.073 -0.4809  0.1437 -0.0246
    1TMC1    H214136   1.904   2.149  17.443 -0.5335  0.2135 -0.0499
    1TMC1    C714137   2.014   2.356  17.300 -0.3413  0.8932 -0.7580
    1TMC1    C814138   1.865   1.921  17.406 -0.4049 -0.4379 -0.3314
    1TMC1    O114139   2.093   2.439  17.258 -0.7018 -0.1732 -0.5132
    1TMC1    O214140   1.898   1.923  17.524 -0.3191 -0.5160 -0.7906
    1TMC1    O314141   1.896   2.386  17.360  0.1337  0.4081  0.1752
    1TMC1    H314142   1.827   2.316  17.365  1.6037 -1.0285  0.5139
    1TMC1    O514143   1.831   1.813  17.331 -0.2176 -0.3111  0.1555
    1TMC1    H514144   1.791   1.832  17.244 -0.4352 -0.9123  0.1224
    2MPD1     C14145   2.371   2.090  16.542 -0.4759 -0.4546  1.0132
    2MPD1    C114146   2.341   2.217  16.595 -1.2058  0.4767  0.2118
    2MPD1    C214147   2.264   2.227  16.712 -0.3138  0.1881 -0.4298
    2MPD1    C314148   2.212   2.113  16.771 -0.1871 -0.3217  0.6921
    2MPD1    C414149   2.247   1.993  16.719 -0.1486 -0.2672  0.7031
    2MPD1    C514150   2.312   1.982  16.603  0.3822 -0.0398 -0.6705
    2MPD1     H14151   2.250   2.326  16.754  2.9331 -0.2537  1.7060
    2MPD1    H114152   2.226   1.899  16.769 -1.3091 -1.7729 -2.5806
    2MPD1    H214153   2.423   2.080  16.447 -1.0801 -0.9277  0.7323
    2MPD1    H314154   2.337   1.889  16.553  2.5298  1.1210 -1.7506
    2MPD1     N14155   2.133   2.126  16.892  0.2941  0.9151 -0.3439
    2MPD1    H514156   2.111   2.221  16.921 -0.6764  1.0322 -1.5213
    2MPD1    N114157   2.406   2.329  16.538 -0.7221 -0.2229 -0.1542
    2MPD1    H614158   2.382   2.422  16.571 -2.1439 -0.2180 -1.2036
    2MPD1    H714159   2.421   2.328  16.437 -0.7224  0.3167 -0.1583
    1MPD1     C14160   3.444   1.901  11.651  0.2795  0.0147 -0.2179
    1MPD1    C114161   3.555   1.888  11.734  0.2851 -0.2211 -0.1409
    1MPD1    C214162   3.579   1.991  11.823  0.5567  0.0974  0.3714
    1MPD1    C314163   3.488   2.091  11.843  0.1076  0.2196 -0.0633
    1MPD1    C414164   3.366   2.091  11.773 -0.5864 -0.6066 -0.4651
    1MPD1    C514165   3.355   2.003  11.666 -0.3294 -0.2721 -1.0398
    1MPD1     H14166   3.665   1.984  11.890  1.8414  2.8998 -0.9516
    1MPD1    H114167   3.294   2.172  11.774 -1.0632 -1.0269 -2.2089
    1MPD1    H214168   3.424   1.827  11.574 -0.7172  0.9405 -0.8471
    1MPD1    H314169   3.269   2.008  11.600 -1.3651 -0.4830  0.2921
    1MPD1     N14170   3.502   2.179  11.953  0.0115 -0.2680  0.0328
    1MPD1    H514171   3.593   2.173  11.998  0.1097  3.0803  0.2843
    1MPD1    N114172   3.648   1.786  11.708 -0.3292 -0.1254  0.3829
    1MPD1    H614173   3.603   1.695  11.697 -0.6281  0.1586 -0.7319
    1MPD1    H714174   3.703   1.763  11.790 -1.1038  1.4313  1.3349
    2MPD1     C14175   2.648   4.026  10.563  0.9173  0.3831 -0.0671
    2MPD1    C114176   2.714   3.913  10.522  0.0416 -0.4251 -0.7612
    2MPD1    C214177   2.806   3.859  10.605  0.4876 -0.6789  0.7442
    2MPD1    C314178   2.827   3.904  10.740  0.4823  0.3602 -0.6303
    2MPD1    C414179   2.744   4.012  10.787  0.1469  0.5048  0.2104
    2MPD1    C514180   2.654   4.064  10.694 -0.9791  0.2735  0.6971
    2MPD1     H14181   2.860   3.765  10.593 -3.1439 -2.5507 -0.9352
    2MPD1    H114182   2.770   4.069  10.876 -1.4531  0.4245  0.7275
    2MPD1    H214183   2.586   4.087  10.497  0.5847 -0.9921 -1.0220
    2MPD1    H314184   2.604   4.156  10.723 -0.7314  0.5647  0.1972
    2MPD1     N14185   2.919   3.842  10.826 -0.2389  0.1692  0.1472
    2MPD1    H514186   2.932   3.877  10.920 -0.0882 -0.0542  0.2092
    2MPD1    N114187   2.713   3.882  10.387  0.0612 -0.3626 -0.3877
    2MPD1    H614188   2.727   3.781  10.383 -0.1627 -0.4959  2.0483
    2MPD1    H714189   2.631   3.905  10.332  0.2206 -0.5727 -0.7153
    3MPD1     C14190   3.832   3.389  10.681  0.8950 -0.7021  0.0769
    3MPD1    C114191   3.753   3.460  10.597  0.3514  0.7219 -0.0383
    3MPD1    C214192   3.640   3.519  10.644  0.0287  0.4886 -0.1902
    3MPD1    C314193   3.607   3.512  10.778  0.4330  0.1385  0.5030
    3MPD1    C414194   3.699   3.453  10.863 -0.9896  0.3445 -0.6186
    3MPD1    C514195   3.807   3.396  10.812 -0.3067  0.3154 -0.2115
    3MPD1     H14196   3.573   3.567  10.574 -1.2530  2.5832  2.4720
    3MPD1    H114197   3.688   3.429  10.968  0.1878  1.3339 -0.2650
    3MPD1    H214198   3.930   3.349  10.655  1.7785  3.1857 -2.7049
    3MPD1    H314199   3.867   3.334  10.878 -1.3980 -1.3624 -0.7892
    3MPD1     N14200   3.486   3.569  10.822  0.5437  0.0765 -0.3237
    3MPD1    H514201   3.419   3.605  10.755 -0.3929  0.1221  0.6383
    3MPD1    N114202   3.773   3.445  10.455 -0.6200  0.6919  0.1192
    3MPD1    H614203   3.709   3.505  10.402 -2.2955 -0.7660  0.4955
    3MPD1    H714204   3.870   3.428  10.430  0.4172  1.0704  3.9120
    4MPD2     C14205   3.194   2.896  12.273 -0.0018 -0.2444  0.0724
    4MPD2    C114206   3.310   2.864  12.207 -0.3343  0.1462  0.6702
    4MPD2    C214207   3.367   2.966  12.125  0.4310  0.2125  0.0990
    4MPD2    C314208   3.305   3.093  12.111 -0.4980  0.3096  0.4390
    4MPD2    C414209   3.192   3.114  12.184 -0.5144  0.1769 -0.4037
    4MPD2    C514210   3.142   3.021  12.266 -1.0394 -0.0187  0.9004
    4MPD2     H14211   3.454   2.939  12.066 -1.1708  0.9929 -2.5732
    4MPD2    H114212   3.137   3.206  12.198  0.4755  0.7373 -0.2221
    4MPD2    H214213   3.137   2.831  12.338 -0.0544 -1.4709 -1.1995
    4MPD2    H314214   3.053   3.044  12.324  0.6537  1.5235  2.9154
    4MPD2     N14215   3.350   3.199  12.037  0.5757  0.7803 -0.0598
    4MPD2    H514216   3.289   3.280  12.030  0.1340  0.4435 -0.1511
    4MPD2    N114217   3.381   2.745  12.216 -0.2697  0.1001 -0.6507
    4MPD2    H714218   3.474   2.740  12.178  0.1921  0.8265  0.3844
    5TMC3    C114219   3.438   2.539  12.264 -0.5810 -0.0951 -0.0740
    5TMC3    C214220   3.404   2.423  12.199 -0.1097  0.5203 -0.2160
    5TMC3    C314221   3.482   2.372  12.098 -0.4906 -0.7179 -0.0856
    5TMC3    C414222   3.558   2.596  12.230 -0.5938  0.1845 -1.0600
    5TMC3    C514223   3.631   2.546  12.132 -0.5135 -0.0254  0.6274
    5TMC3    C614224   3.596   2.436  12.067  0.1021 -0.1496  0.3739
    5TMC3     C14225   3.337   2.634  12.282 -0.2215  0.2464  0.4134
    5TMC3     O14226   3.234   2.601  12.340  0.3291  0.1110 -0.0992
    5TMC3     H14227   3.305   2.383  12.215  1.3247 -2.8060  0.3668
    5TMC3    H114228   3.614   2.648  12.307 -2.4511 -0.6626  0.8951
    5TMC3    H214229   3.665   2.400  11.991  0.1997 -0.0052  0.3952
    5TMC3    C714230   3.669   2.655  12.055  0.2485  0.0612  0.3483
    5TMC3    C814231   3.419   2.276  12.004  0.2680  0.4818  0.4073
    5TMC3    O114232   3.614   2.757  12.087 -0.1143 -0.7110  0.1532
    5TMC3    O214233   3.296   2.274  12.002  0.4427 -0.4337  0.1525
    6TMC3    C114234   3.110   3.724  10.904  0.2710 -0.1055 -0.2258
    6TMC3    C214235   3.233   3.677  10.870 -0.3173 -1.3721 -0.4851
    6TMC3    C314236   3.324   3.671  10.961  1.0585  0.7696  0.5090
    6TMC3    C414237   3.070   3.754  11.032  0.7502  0.0351 -0.4111
    6TMC3    C514238   3.165   3.740  11.126  0.3333  0.5966 -0.0207
    6TMC3    C614239   3.291   3.706  11.086  0.3092  0.5094 -0.1342
    6TMC3     C14240   3.014   3.743  10.798 -0.3782  0.2605 -0.2598
    6TMC3     O14241   3.042   3.698  10.690  0.0290  0.2887  0.0824
    6TMC3     H14242   3.246   3.646  10.767 -2.0639 -2.0298 -0.5038
    6TMC3    H114243   2.970   3.786  11.059  0.8048 -0.6344  0.6167
    6TMC3    H214244   3.361   3.694  11.168  2.2424  1.5602 -1.6207
    6TMC3    C714245   3.136   3.720  11.270 -0.1873  0.1087  0.2432
    6TMC3    C814246   3.453   3.601  10.947 -0.1173  0.4748  0.2319
    6TMC3    O114247   3.234   3.715  11.342 -0.3411 -0.1216 -0.3848
    6TMC3    O214248   3.526   3.588  11.043  0.2046  0.4039 -0.0313
    7MPD2     C14249   3.862   2.887  11.644  0.0167  0.3267 -0.5293
    7MPD2    C114250   3.763   2.924  11.732  0.2097 -0.0195 -0.3170
    7MPD2    C214251   3.729   2.836  11.828  0.1369  0.0666  0.4445
    7MPD2    C314252   3.797   2.716  11.852 -0.1986  0.3732  0.3202
    7MPD2    C414253   3.890   2.677  11.757  0.5781 -0.2817  1.0330
    7MPD2    C514254   3.926   2.768  11.659  0.5937 -0.3781 -0.3955
    7MPD2     H14255   3.650   2.864  11.897 -0.4885  0.0523 -0.2566
    7MPD2    H114256   3.951   2.588  11.766 -0.1730 -1.0283 -1.3856
    7MPD2    H214257   3.890   2.953  11.562  2.9127 -2.8664 -2.1032
    7MPD2    H314258   4.002   2.737  11.588  1.5074 -0.8164  0.7839
    7MPD2     N14259   3.754   2.624  11.946 -0.3058 -0.0572  0.3027
    7MPD2    H514260   3.793   2.530  11.943  0.1917  0.1216  1.4322
    7MPD2    N114261   3.690   3.040  11.718 -0.4137  0.2161 -0.1831
    7MPD2    H714262   3.633   3.076  11.793  2.9223  2.7278  1.1424
    8TMC3    C114263   3.591   3.228  11.653 -0.2982 -0.3777 -0.1627
    8TMC3    C214264   3.467   3.214  11.593 -0.5220  0.3745  0.1511
    8TMC3    C314265   3.355   3.253  11.651 -0.2814 -0.3693  0.5045
    8TMC3    C414266   3.594   3.250  11.784  1.1262 -0.5897  0.4022
    8TMC3    C514267   3.475   3.280  11.852 -0.2783  0.1323 -0.5724
    8TMC3    C614268   3.357   3.288  11.780  0.5358  0.0806 -0.2093
    8TMC3     C14269   3.692   3.130  11.616  0.7193 -0.2696  0.0991
    8TMC3     O14270   3.724   3.112  11.500  0.6116 -0.0590 -0.0814
    8TMC3     H14271   3.455   3.177  11.492 -0.1821  0.4623  0.0776
    8TMC3    H114272   3.686   3.250  11.841  1.9950  0.2925 -0.9855
    8TMC3    H214273   3.270   3.342  11.816  1.1639  0.5592  0.6021
    8TMC3    C714274   3.475   3.201  11.976 -0.8335 -0.3480  0.6980
    8TMC3    C814275   3.246   3.304  11.567  0.1248  0.3727  0.3929
    8TMC3    O114276   3.568   3.124  11.984  0.3345  0.1182  0.2047
    8TMC3    O214277   3.288   3.332  11.453  0.4231  0.2045 -0.6554
    9MPD2     C14278   2.897   3.401  11.610 -0.1199 -0.0458  0.4084
    9MPD2    C114279   3.030   3.414  11.570  0.4047 -0.3191  0.5617
    9MPD2    C214280   3.066   3.510  11.473 -0.3892 -0.2657  0.5289
    9MPD2    C314281   2.972   3.593  11.408  0.0887  0.0407 -0.2833
    9MPD2    C414282   2.840   3.563  11.437 -0.0132 -0.3615 -0.0854
    9MPD2    C514283   2.802   3.476  11.536 -0.4854 -0.5097  0.7198
    9MPD2     H14284   3.170   3.526  11.445 -0.6637  0.3254 -0.1569
    9MPD2    H114285   2.757   3.619  11.396  0.1198 -0.7749 -0.9043
    9MPD2    H214286   2.874   3.330  11.689 -2.0300 -2.8361 -2.6752
    9MPD2    H314287   2.697   3.452  11.544 -0.5242 -1.2280 -1.8351
    9MPD2     N14288   3.004   3.682  11.304  0.3691 -0.6656  0.3598
    9MPD2    H514289   2.932   3.713  11.239  0.4841 -1.2252 -0.0419
    9MPD2    N114290   3.128   3.332  11.630 -0.3897  0.5417 -0.6035
    9MPD2    H714291   3.111   3.274  11.711 -0.0037 -0.0437 -0.9363
    1MPD1     C14292   3.356   2.064  17.182 -0.5890 -0.0393 -0.1756
    1MPD1    C114293   3.269   2.104  17.085  0.0190 -0.8737 -0.5369
    1MPD1    C214294   3.236   2.012  16.981  0.3001  0.2695  0.7391
    1MPD1    C314295   3.282   1.883  16.980  0.4238  0.2345  0.1670
    1MPD1    C414296   3.374   1.847  17.077  0.2199  0.0959 -0.3931
    1MPD1    C514297   3.413   1.940  17.168  0.0851  0.2839  0.6854
    1MPD1     H14298   3.171   2.043  16.900 -0.6700 -2.3845  0.5069
    1MPD1    H114299   3.415   1.747  17.083  0.3888  0.1376 -0.8379
    1MPD1    H214300   3.394   2.125  17.263  0.9605  2.0886 -2.5023
    1MPD1    H314301   3.481   1.905  17.244  0.9980 -0.6750 -0.5793
    1MPD1     N14302   3.231   1.784  16.888  0.8290 -0.1755  0.0427
    1MPD1    H514303   3.254   1.687  16.910  0.8668 -0.2061 -0.1345
    1MPD1    N114304   3.196   2.225  17.103  0.7145 -0.2890  0.1272
    1MPD1    H614305   3.248   2.305  17.138  2.2186 -0.3006 -2.0920
    1MPD1    H714306   3.177   2.260  17.009 -1.0059  2.7944  1.6155
    2TMC2    C114307   3.056   1.537  16.541  0.4302  0.6882  0.0096
    2TMC2    C214308   3.020   1.432  16.632  0.2157  0.1516 -0.3446
    2TMC2    C314309   3.050   1.448  16.763 -0.1380  0.6021 -0.1498
    2TMC2    C414310   3.091   1.666  16.593  0.8260  0.2620 -0.2360
    2TMC2    C514311   3.108   1.672  16.726  0.1016 -0.5234 -0.2071
    2TMC2    C614312   3.077   1.571  16.816  0.4090 -0.8038 -0.3348
    2TMC2     C14313   3.012   1.519  16.403  0.1686 -0.2139  0.7413
    2TMC2     O14314   2.966   1.412  16.364 -0.5775  0.4262  0.0175
    2TMC2     H14315   3.025   1.332  16.593 -1.5435 -0.1601  0.2264
    2TMC2    H114316   3.118   1.750  16.530 -0.4581  1.8398  1.3284
    2TMC2    H214317   3.102   1.569  16.921  1.4352 -0.5715 -0.5711
    2TMC2    C714318   3.143   1.803  16.783  0.2118  0.1202 -0.8241
    2TMC2    C814319   3.077   1.339  16.852  0.0663  0.5882 -0.7286
    2TMC2    O114320   3.117   1.903  16.719  0.2794 -0.1045  0.4078
    2TMC2    O214321   3.172   1.329  16.931  0.3295 -0.3487  0.0089
    2TMC2    O514322   3.008   1.239  16.791  0.5022  0.8255 -0.0391
    2TMC2    H514323   2.916   1.267  16.774  0.8379  2.3863  0.7403
    3MPD1     C14324   2.730   1.713  16.028 -0.3737 -0.5582 -0.2396
    3MPD1    C114325   2.818   1.811  16.067 -0.4699  0.1480  0.0743
    3MPD1    C214326   2.908   1.775  16.156  0.4700 -0.7754 -0.0108
    3MPD1    C314327   2.895   1.661  16.240  0.0580 -0.3779  0.4637
    3MPD1    C414328   2.790   1.577  16.216  0.9406  0.8831 -0.0359
    3MPD1    C514329   2.705   1.607  16.109  0.4780  0.1514  0.2724
    3MPD1     H14330   3.000   1.830  16.173 -0.2178  0.6832 -1.0799
    3MPD1    H114331   2.769   1.488  16.276  0.6384  2.1286  1.7181
    3MPD1    H214332   2.661   1.726  15.946  1.2450 -2.9904 -1.9819
    3MPD1    H314333   2.626   1.539  16.080  0.4979 -1.0389  3.0705
    3MPD1     N14334   3.000   1.634  16.332 -0.0005  0.2802  0.6801
    3MPD1    H514335   3.051   1.710  16.377  2.2092 -0.9959  0.3420
    3MPD1    N114336   2.837   1.911  15.976 -0.1700  0.4353 -0.0436
    3MPD1    H614337   2.752   1.947  15.933  0.7001  1.7089 -0.7103
    3MPD1    H714338   2.893   1.989  16.010 -3.2504  3.0285 -0.9219
    1TMC1    C114339   1.410   1.037  13.179  0.2546 -1.2019  0.0026
    1TMC1    C214340   1.410   0.906  13.130  0.4355  0.0428  0.0396
    1TMC1    C314341   1.315   0.874  13.037  0.1514 -0.4520 -0.3647
    1TMC1    C414342   1.315   1.132  13.147  0.2653  0.2899 -0.2675
    1TMC1    C514343   1.212   1.089  13.061  0.1814 -0.2571 -0.0633
    1TMC1    C614344   1.218   0.967  12.990  0.2687 -0.3335 -0.1924
    1TMC1     C14345   1.522   1.068  13.265  0.1136 -1.1418 -0.0456
    1TMC1     O14346   1.578   1.175  13.244 -0.6641 -0.8089  0.3182
    1TMC1     H14347   1.493   0.838  13.147  0.9163  0.0654 -2.2098
    1TMC1    H114348   1.307   1.231  13.190 -1.1621 -0.3593  0.9531
    1TMC1    H214349   1.142   0.934  12.920  0.9362 -2.3164  0.0151
    1TMC1    C714350   1.115   1.190  13.025 -0.4752 -0.0191  0.2384
    1TMC1    C814351   1.324   0.756  12.954 -0.0917 -0.1279 -0.5180
    1TMC1    O114352   1.135   1.311  13.047 -0.4809  0.2973 -0.1269
    1TMC1    O214353   1.290   0.765  12.836  0.2804  0.3464 -0.1365
    1TMC1    O314354   1.003   1.134  12.978 -0.3363  0.1609 -0.0305
    1TMC1    H314355   0.985   1.040  13.001  2.9232  0.7690  5.1576
    1TMC1    O514356   1.413   0.680  13.010  0.1273  0.4928 -0.1830
    1TMC1    H514357   1.408   0.680  13.108 -1.2469 -0.1220 -0.2490
    2MPD2     C14358   1.762   1.057  13.454  0.7302  0.2293 -1.1347
    2MPD2    C114359   1.654   0.968  13.455  0.2495  0.3454  0.1549
    2MPD2    C214360   1.648   0.867  13.552  0.1659 -0.4416 -0.2344
    2MPD2    C314361   1.750   0.862  13.652 -0.2887 -1.0058 -0.4215
    2MPD2    C414362   1.864   0.942  13.639  0.0084 -0.2968 -0.4458
    2MPD2    C514363   1.863   1.040  13.546  0.1451 -0.1547  0.6420
    2MPD2     H14364   1.561   0.803  13.563 -0.9122  0.6362 -2.4410
    2MPD2    H114365   1.945   0.932  13.710  0.7638  2.9906 -0.8549
    2MPD2    H214366   1.776   1.131  13.375 -3.0635  1.9630 -0.1953
    2MPD2    H314367   1.940   1.116  13.540  1.1584 -1.1912  0.5671
    2MPD2     N14368   1.760   0.757  13.745 -0.0584 -0.1792 -0.4875
    2MPD2    H514369   1.851   0.758  13.790  0.2165 -0.3339 -1.0327
    2MPD2    N114370   1.546   0.971  13.360 -0.0053  0.5654  0.2456
    2MPD2    H714371   1.471   0.905  13.378  0.7224 -0.2572  0.2253
    3TCq1    O114372   1.827   0.518  14.290 -0.8790  0.2810  0.1710
    3TCq1    C114373   1.908   0.525  14.184  0.0296  0.6406 -0.0131
    3TCq1    O214374   1.981   0.619  14.167 -0.2747 -0.2938 -0.1453
    3TCq1    C214375   1.809   0.498  14.087 -0.9219  0.0399  0.4685
    3TCq1    C314376   1.775   0.365  14.064 -0.6436  0.2026 -0.2841
    3TCq1    C414377   1.725   0.334  13.938 -0.7018  0.0821 -0.2389
    3TCq1    C514378   1.692   0.433  13.852 -0.5490 -0.4844  0.2296
    3TCq1    C614379   1.712   0.562  13.880  0.6762 -0.0215 -0.0896
    3TCq1    C714380   1.775   0.605  13.995 -0.6203  0.3206 -0.2502
    3TCq1    C814381   1.668   0.658  13.775  0.1562 -0.7324  0.1823
    3TCq1    O414382   1.570   0.625  13.710 -0.1234  0.3632 -0.0756
    3TCq1    C914383   1.702   0.198  13.904  0.3363  0.2492 -0.5744
    3TCq1    O514384   1.724   0.171  13.782 -0.0710  0.2040 -0.2004
    3TCq1    O614385   1.660   0.124  13.995  0.1523  0.1538  0.5002
    3TCq1    H114386   1.776   0.436  14.301  0.4410 -0.5185  0.3237
    3TCq1    H214387   1.795   0.277  14.123 -2.3636 -0.6598 -0.9756
    3TCq1    H314388   1.665   0.394  13.754  0.7318  3.2271 -1.5996
    3TCq1    H414389   1.815   0.705  14.008  0.3928 -0.1266  0.1355
    1MPD2     C14390   1.073   2.029  14.963  0.8145 -0.8399  0.7917
    1MPD2    C114391   0.945   1.999  14.917 -0.2141  0.0727  0.2972
    1MPD2    C214392   0.918   1.868  14.867  0.3622 -0.1799 -0.7820
    1MPD2    C314393   1.017   1.769  14.871 -0.5852 -0.5785 -0.2298
    1MPD2    C414394   1.145   1.804  14.911  0.2911  0.0520  0.1570
    1MPD2    C514395   1.168   1.930  14.970  0.2505  0.1120 -0.1602
    1MPD2     H14396   0.816   1.840  14.843 -0.1998  0.6005  0.6838
    1MPD2    H114397   1.217   1.724  14.922  1.3491  1.2593  1.9421
    1MPD2    H214398   1.095   2.131  14.993 -3.1785  0.7524 -1.7230
    1MPD2    H314399   1.269   1.952  15.003 -0.4803 -0.0330  2.1333
    1MPD2     N14400   0.984   1.643  14.817 -0.3605  0.2268 -0.2122
    1MPD2    H514401   0.891   1.626  14.782 -0.6634  0.5992  0.3996
    1MPD2    N114402   0.836   2.090  14.932  0.0840 -0.0543  0.0361
    1MPD2    H714403   0.861   2.179  14.974  0.1411 -0.5617  1.0884
    2TMC3    C114404   0.628   2.195  14.892 -0.4536  0.1938  0.4313
    2TMC3    C214405   0.552   2.138  14.990  0.0966  0.3955 -0.8605
    2TMC3    C314406   0.416   2.148  14.984  0.4619  0.3126 -0.4857
    2TMC3    C414407   0.561   2.255  14.787  0.2095  0.0560 -0.2606
    2TMC3    C514408   0.426   2.269  14.787 -0.5832 -0.0215 -0.0470
    2TMC3    C614409   0.352   2.221  14.892 -0.3587 -0.0094 -0.2410
    2TMC3     C14410   0.720   2.088  14.856  0.9628 -0.9122  0.7899
    2TMC3     O14411   0.678   2.019  14.769  0.3678  0.1240  0.3831
    2TMC3     H14412   0.597   2.071  15.062 -0.5364  2.0207  1.0569
    2TMC3    H114413   0.615   2.275  14.695 -1.8464  1.0180 -1.2765
    2TMC3    H214414   0.244   2.227  14.898 -0.2040  0.0155  2.2123
    2TMC3    C714415   0.358   2.360  14.697  0.5802 -0.2958  0.2319
    2TMC3    C814416   0.341   2.025  15.001  0.2895 -0.5717 -0.4812
    2TMC3    O114417   0.247   2.334  14.663  0.7150  0.2383 -0.5941
    2TMC3    O214418   0.221   2.023  15.032  0.3485 -0.7115  0.7904
    3TCq1    O114419   0.788   3.471  14.411  0.1888 -0.4910  0.0058
    3TCq1    C114420   0.860   3.362  14.387  0.0752 -0.0706 -0.2638
    3TCq1    O214421   0.985   3.366  14.380  0.4316  0.0972  0.1760
    3TCq1    C214422   0.795   3.260  14.470  0.6193 -0.5380  0.1502
    3TCq1    C314423   0.860   3.214  14.581  0.5371 -0.0116  0.2972
    3TCq1    C414424   0.789   3.131  14.665  0.0258 -0.7079 -0.4797
    3TCq1    C514425   0.663   3.091  14.640  0.4866 -0.0505 -0.0058
    3TCq1    C614426   0.609   3.132  14.518  0.6501  0.2819  0.2984
    3TCq1    C714427   0.671   3.215  14.432 -0.6808 -0.0398  0.1091
    3TCq1    C814428   0.511   3.034  14.458 -0.1323 -0.1348 -0.2330
    3TCq1    O414429   0.443   3.069  14.364 -0.2254  0.5822  0.6213
    3TCq1    C914430   0.863   3.066  14.772 -0.3308 -0.3887  0.0117
    3TCq1    O514431   0.986   3.052  14.755  0.2144 -0.3091  0.4487
    3TCq1    O614432   0.807   3.030  14.876  0.6010 -0.4409  0.2986
    3TCq1    H114433   0.691   3.457  14.418 -0.0298  0.3123 -1.4422
    3TCq1    H214434   0.958   3.253  14.606  1.5583 -2.8577  0.7374
    3TCq1    H314435   0.612   3.034  14.717  1.8697 -0.0232  0.9400
    3TCq1    H414436   0.634   3.244  14.334 -0.1207 -1.0030 -0.3873
    4MPD2     C14437   0.359   2.778  14.395  0.2244 -0.8075 -0.1211
    4MPD2    C114438   0.454   2.795  14.491 -0.0084  0.1090  0.4240
    4MPD2    C214439   0.476   2.685  14.585  0.4892 -0.0124 -0.0018
    4MPD2    C314440   0.406   2.569  14.577  0.0127  0.2536  0.0236
    4MPD2    C414441   0.310   2.559  14.479 -0.3585 -0.1207 -0.5275
    4MPD2    C514442   0.293   2.659  14.393  0.7281  0.1065 -0.5609
    4MPD2     H14443   0.550   2.695  14.663  2.2203 -1.5775 -1.4283
    4MPD2    H114444   0.241   2.477  14.461 -0.0129  0.2197 -3.5265
    4MPD2    H214445   0.345   2.839  14.307  0.9772  0.0883  0.3858
    4MPD2    H314446   0.213   2.657  14.319  1.3708 -0.3310 -1.2349
    4MPD2     N14447   0.431   2.471  14.669 -0.9820  0.4637  0.0076
    4MPD2    H514448   0.520   2.479  14.717 -0.3890  0.9137 -1.1552
    4MPD2    N114449   0.522   2.913  14.516 -0.2388 -0.1411  0.5913
    4MPD2    H714450   0.590   2.906  14.591  0.1023  0.3706  0.3336
    5TMC2    C114451   0.769   1.438  14.659 -0.1071  0.3571 -0.4120
    5TMC2    C214452   0.755   1.333  14.744 -0.0216 -0.7711  0.1508
    5TMC2    C314453   0.867   1.270  14.792 -0.7303 -0.2039  0.0270
    5TMC2    C414454   0.896   1.496  14.642  0.6607 -0.7476 -0.1195
    5TMC2    C514455   1.000   1.439  14.702 -0.1320  0.3640 -0.0936
    5TMC2    C614456   0.992   1.325  14.782  0.3326  0.2525  0.5524
    5TMC2     C14457   0.665   1.545  14.675 -0.9161  0.4655  0.0232
    5TMC2     O14458   0.691   1.661  14.648  0.4100 -0.1449  0.2793
    5TMC2     H14459   0.663   1.277  14.751  0.7804 -2.1793 -0.5757
    5TMC2    H114460   0.902   1.579  14.573  0.6770 -1.1796 -0.6426
    5TMC2    H214461   1.076   1.297  14.845 -0.1412 -0.1942  0.9843
    5TMC2    C714462   1.071   1.537  14.791 -0.0703 -0.3707  0.2017
    5TMC2    C814463   0.867   1.130  14.828 -0.0427  0.0929  0.2898
    5TMC2    O114464   1.179   1.507  14.841 -0.0462  0.2210  0.0816
    5TMC2    O214465   0.771   1.055  14.844 -0.1454 -0.9404 -0.2706
    5TMC2    O514466   0.989   1.086  14.783  0.1671 -0.3180 -0.5620
    5TMC2    H514467   1.060   1.154  14.773  0.0044 -0.5304 -3.1035
    6MPD2     C14468   0.291   1.734  14.985  0.2143 -0.0424 -0.5742
    6MPD2    C114469   0.399   1.794  14.924 -0.2768  0.6218  0.0300
    6MPD2    C214470   0.486   1.722  14.848 -0.3923 -0.5018 -1.0302
    6MPD2    C314471   0.462   1.585  14.814  0.7051  0.2741  0.4128
    6MPD2    C414472   0.344   1.532  14.869  0.3220 -0.1621 -0.3109
    6MPD2    C514473   0.261   1.603  14.953  0.4795  0.0513  0.0218
    6MPD2     H14474   0.571   1.774  14.805 -0.6677  1.8921  1.3461
    6MPD2    H114475   0.309   1.434  14.839 -0.9807 -0.3912  1.9163
    6MPD2    H214476   0.214   1.781  15.045  0.3990  2.1494 -2.0404
    6MPD2    H314477   0.177   1.552  14.999  0.0025  0.8118 -0.0147
    6MPD2     N14478   0.551   1.497  14.740 -0.3434 -0.2172 -0.1250
    6MPD2    H514479   0.515   1.402  14.740  0.4833 -0.5337  0.6299
    6MPD2    N114480   0.416   1.932  14.931 -0.0051 -0.4708 -0.0438
    6MPD2    H714481   0.504   1.965  14.893 -0.3168  0.9305  0.4298
  945NH3     N114482   0.276   2.002  10.608  0.3298 -0.6220 -0.0619
  945NH3     H214483   0.342   1.926  10.595  0.9850  0.0058 -0.4246
  945NH3     H314484   0.308   2.077  10.547  0.4488  0.1707  0.9740
  945NH3     H414485   0.185   1.978  10.570 -0.5379 -0.4783  1.9145
  946SOD     NA14486   0.146   4.599  15.692  0.1399  0.3326 -0.0494
  947SOD     NA14487   0.444   3.855  12.571 -0.5746  0.3497  0.1854
  948SOD     NA14488   3.896   4.014   6.595  0.1647  0.2563 -0.2992
  949SOD     NA14489   2.633   4.258   2.750  0.0622 -0.0596 -0.4079
  950SOD     NA14490   3.097   1.178   3.184 -0.5101 -0.0747  0.7043
  951SOD     NA14491   1.922   4.550   6.789 -0.3836  0.0630 -0.0191
  952SOD     NA14492   0.711   0.830  15.163  0.2738 -0.6173 -0.1383
  953SOD     NA14493   1.637   1.724  14.426  0.1323  0.1817  0.4185
  954SOL     OW14494   2.932   3.068   5.975 -0.3582 -0.2362  0.1867
  954SOL    HW114495   3.022   3.101   5.976 -1.4363  2.7731 -2.9574
  954SOL    HW214496   2.897   3.092   6.061  2.1590  0.9583  0.8612
  955SOL     OW14497   0.609   0.195  11.228  0.3597 -0.2878 -0.6068
  955SOL    HW114498   0.544   0.245  11.178  1.4257 -1.5981 -3.2732
  955SOL    HW214499   0.547   0.141  11.278 -0.5916  1.4767  0.1179
  956SOL     OW14500   0.289   1.221  13.769 -0.2094 -0.0846 -0.0460
  956SOL    HW114501   0.327   1.133  13.766 -1.1659 -0.5308  0.8460
  956SOL    HW214502   0.366   1.275  13.785  1.4519 -2.3838 -0.2865
  957SOL     OW14503   4.263   1.314   0.288 -0.4096  0.4130  0.1286
  957SOL    HW114504   4.280   1.385   0.350 -0.9037  1.4740 -0.9501
  957SOL    HW214505   4.321   1.247   0.323 -1.6820 -0.2319  1.0124
  958SOL     OW14506   2.845   0.125   6.208  0.6501  0.4769  0.1706
  958SOL    HW114507   2.808   0.211   6.227 -0.0474 -0.0786  1.2935
  958SOL    HW214508   2.769   0.070   6.227  1.4566 -0.9706 -0.7555
  959SOL     OW14509   1.237   2.639   5.948 -0.2989 -0.0520 -0.3299
  959SOL    HW114510   1.303   2.707   5.937  1.3111 -1.4656  0.6540
  959SOL    HW214511   1.173   2.704   5.978  1.0206  1.3190 -0.4472
  960SOL     OW14512   4.621   2.554   1.471  0.3172  0.1560  0.2345
  960SOL    HW114513   4.587   2.471   1.505  1.1835  0.0968  0.9297
  960SOL    HW214514   4.687   2.568   1.538  0.1062 -0.9638  0.6676
  961SOL     OW14515   4.197   4.683   2.831 -0.1738 -0.0782  0.1227
  961SOL    HW114516   4.165   4.674   2.920 -1.0005  1.3232 -0.0352
  961SOL    HW214517   4.194   4.591   2.806  0.0094  0.4991 -2.0519
  962SOL     OW14518   2.616   2.057   1.336  0.5493  0.3202  0.4016
  962SOL    HW114519   2.648   2.117   1.404  0.0765  0.2128  0.7223
  962SOL    HW214520   2.689   1.997   1.327 -1.0101 -1.4692 -0.2772
  963SOL     OW14521   4.423   1.164   3.124  0.3560  0.9936 -0.4384
  963SOL    HW114522   4.509   1.168   3.165 -0.2830 -2.3956  1.2334
  963SOL    HW214523   4.366   1.111   3.179 -1.0558  0.2891 -2.5521
  964SOL     OW14524   3.141   3.569   5.017 -0.8907  0.1571 -0.2209
  964SOL    HW114525   3.068   3.613   5.059 -0.0536 -0.0306  1.4304
  964SOL    HW214526   3.137   3.620   4.936  1.9028  2.0691  0.8452
  965SOL     OW14527   0.534   2.706  11.842  0.1749  0.8631 -0.1703
  965SOL    HW114528   0.628   2.693  11.851  0.3960  2.8057  0.3105
  965SOL    HW214529   0.496   2.664  11.919  1.1797  0.6997  0.2220
  966SOL     OW14530   3.723   3.768   2.594 -0.3804 -0.1794  0.3530
  966SOL    HW114531   3.729   3.673   2.583 -0.7542 -0.0713 -0.7889
  966SOL    HW214532   3.736   3.799   2.504  1.0516  1.3898  1.1057
  967SOL     OW14533   4.102   2.187   5.217 -0.8039  0.7690 -0.1162
  967SOL    HW114534   4.085   2.241   5.139 -1.8171  0.0629 -0.3853
  967SOL    HW214535   4.010   2.171   5.235 -0.8124  0.4752 -0.4218
  968SOL     OW14536   0.815   2.674   4.796 -0.2718 -0.0165 -0.5980
  968SOL    HW114537   0.881   2.649   4.861 -1.7964 -0.0470  0.9440
  968SOL    HW214538   0.826   2.605   4.730 -0.2798 -0.2174 -0.3920
  969SOL     OW14539   2.759   3.257   4.237 -0.6982  0.2682 -0.2157
  969SOL    HW114540   2.766   3.167   4.205 -1.0400  0.0517  0.3226
  969SOL    HW214541   2.668   3.279   4.215 -0.0856  2.1671 -0.8679
  970SOL     OW14542   3.187   1.589   9.208  0.1324  0.1687  1.0007
  970SOL    HW114543   3.158   1.558   9.123  0.9545 -0.4785  0.9501
  970SOL    HW214544   3.282   1.573   9.201  0.0028 -0.3925  0.5166
  971SOL     OW14545   0.941   4.457   9.872 -0.3079  0.2371 -0.6107
  971SOL    HW114546   0.962   4.544   9.907  0.1517  0.0884 -0.5245
  971SOL    HW214547   0.904   4.417   9.950  1.7211 -3.3537 -1.4956
  972SOL     OW14548   4.700   2.234   5.722  0.7475 -0.3913  0.5622
  972SOL    HW114549   0.018   2.310   5.711 -2.2472  1.7851  0.2314
  972SOL    HW214550   0.014   2.186   5.786 -0.5455 -0.2668  1.7240
  973SOL     OW14551   4.477   2.630   2.434  0.1273 -0.3323 -0.5312
  973SOL    HW114552   4.538   2.681   2.487  0.1716 -1.3659  0.4087
  973SOL    HW214553   4.455   2.569   2.504 -4.8372  0.1792 -1.6995
  974SOL     OW14554   1.376   3.543   9.431  0.0037  0.2237  0.2324
  974SOL    HW114555   1.449   3.507   9.480 -0.0409  0.6800  0.6319
  974SOL    HW214556   1.364   3.473   9.366  1.0460 -1.5975  2.0453
  975SOL     OW14557   3.772   2.592   8.998  0.6916  0.5905  0.6867
  975SOL    HW114558   3.832   2.648   9.048  2.2334  0.1192 -0.6472
  975SOL    HW214559   3.815   2.509   9.020  0.3242 -0.1836 -1.5906
  976SOL     OW14560   2.122   2.942  12.944 -0.6638 -0.3240  0.2800
  976SOL    HW114561   2.027   2.933  12.957 -1.3604  3.4328 -2.4262
  976SOL    HW214562   2.146   3.030  12.916  0.8461 -0.1927  1.9712
  977SOL     OW14563   2.842   1.866   4.647  0.2148 -0.5329  0.3045
  977SOL    HW114564   2.932   1.879   4.674  0.7662 -2.8079 -0.3992
  977SOL    HW214565   2.809   1.783   4.682  0.5074 -0.6260  0.3576
  978SOL     OW14566   3.657   3.181   5.658 -0.0738 -0.7809  0.2630
  978SOL    HW114567   3.575   3.219   5.625  0.1840 -0.1825  0.3260
  978SOL    HW214568   3.702   3.263   5.678 -0.6078 -0.4498  0.1125
  979SOL     OW14569   3.876   2.294   7.752  0.3021  0.2214  0.7104
  979SOL    HW114570   3.781   2.290   7.765 -0.0325 -0.6138 -1.9432
  979SOL    HW214571   3.900   2.375   7.796  1.2541  0.5949 -0.4924
  980SOL     OW14572   1.771   1.246   8.749 -0.4237  0.0598  0.5423
  980SOL    HW114573   1.771   1.150   8.754  0.3380  0.1210  1.7833
  980SOL    HW214574   1.844   1.276   8.696 -0.9246 -1.0139 -0.7647
  981SOL     OW14575   2.791   2.110   2.255 -0.0918  0.3736 -0.3862
  981SOL    HW114576   2.703   2.142   2.240 -0.1988  0.0667 -0.4109
  981SOL    HW214577   2.790   2.086   2.348  0.2068 -1.8316 -0.9523
  982SOL     OW14578   0.946   2.209  11.296  0.2802  0.2209  0.2595
  982SOL    HW114579   1.029   2.235  11.257 -0.1660  1.8040  0.3609
  982SOL    HW214580   0.913   2.146  11.231  1.6041 -1.8367  1.5846
  983SOL     OW14581   3.497   4.206  17.224  0.1876 -0.4730  0.0557
  983SOL    HW114582   3.526   4.123  17.186  1.1088 -1.0076  1.9303
  983SOL    HW214583   3.551   4.203  17.303  0.1486  0.0324  0.0988
  984SOL     OW14584   0.592   2.236   9.976 -0.0010 -0.2153  0.4956
  984SOL    HW114585   0.599   2.243   9.880 -0.6505 -2.5222  0.2936
  984SOL    HW214586   0.540   2.160  10.000 -0.3475 -0.1051  0.1065
  985SOL     OW14587   1.067   2.335   8.859  1.0271  0.0378  0.0948
  985SOL    HW114588   1.121   2.265   8.823 -1.0823 -2.1788  1.3015
  985SOL    HW214589   1.128   2.387   8.911  1.9022 -1.9985  1.0739
  986SOL     OW14590   2.811   1.873   6.112 -0.0859  0.2765  0.7222
  986SOL    HW114591   2.797   1.778   6.104  2.2791 -0.0568  0.3449
  986SOL    HW214592   2.906   1.886   6.117  0.0108  0.3040 -1.1438
  987SOL     OW14593   3.526   0.030   3.654  0.0760 -0.1303  0.2562
  987SOL    HW114594   3.597   0.049   3.715 -1.2374 -1.6788  2.2592
  987SOL    HW214595   3.575   4.713   3.594  0.3997  2.0011 -1.4429
  988SOL     OW14596   0.047   4.629   5.704 -0.3966  0.4313 -0.1116
  988SOL    HW114597   0.034   4.564   5.635 -1.2395 -0.4701  0.8941
  988SOL    HW214598   0.136   4.603   5.728 -0.7103  0.3709  0.9924
  989SOL     OW14599   3.711   0.048   3.826  0.0264  0.0710  0.3174
  989SOL    HW114600   3.651   0.044   3.900 -0.9947 -1.2902 -0.5756
  989SOL    HW214601   3.799   0.063   3.861 -0.5270  1.0105  1.2954
  990SOL     OW14602   4.138   1.873   9.241 -0.4384 -0.4177  0.0341
  990SOL    HW114603   4.226   1.848   9.270 -0.4336  0.1537  0.4869
  990SOL    HW214604   4.154   1.963   9.214  1.2912 -0.8946 -0.5635
  991SOL     OW14605   0.689   0.866   2.594 -0.1566  0.5948 -0.2046
  991SOL    HW114606   0.659   0.864   2.685  3.6749  0.5992  1.0590
  991SOL    HW214607   0.752   0.794   2.588  1.2893  1.7505  1.2482
  992SOL     OW14608   4.358   4.435   4.754 -0.1031 -0.1811  0.8476
  992SOL    HW114609   4.414   4.410   4.827  1.9258  2.5090  0.2243
  992SOL    HW214610   4.302   4.503   4.792 -1.6633 -0.6603 -0.6124
  993SOL     OW14611   1.647   4.236   3.460  0.1192  0.6742 -0.0958
  993SOL    HW114612   1.707   4.303   3.429  0.7666 -0.6384 -1.6393
  993SOL    HW214613   1.586   4.231   3.386 -1.7644 -1.2447  1.5651
  994SOL     OW14614   0.777   2.716   6.781  0.0435  0.0926  0.1823
  994SOL    HW114615   0.780   2.678   6.693  1.7459 -0.3311  0.4223
  994SOL    HW214616   0.759   2.643   6.840  2.1479 -2.8503 -2.8348
  995SOL     OW14617   2.355   1.030   7.015 -0.0779  0.1540 -1.2268
  995SOL    HW114618   2.440   1.015   6.975 -0.4131 -0.4858 -1.6973
  995SOL    HW214619   2.388   1.059   7.100 -1.3373 -1.0465 -0.3223
  996SOL     OW14620   4.654   2.657   3.491 -0.1536  0.1885  0.2710
  996SOL    HW114621   4.701   2.740   3.488  3.4379 -1.7710  2.5985
  996SOL    HW214622   4.696   2.620   3.569 -2.6264  1.5537  2.2444
  997SOL     OW14623   0.318   2.044   5.290  0.1243  0.5448 -0.6391
  997SOL    HW114624   0.334   2.139   5.296  0.6839  0.4844 -1.1007
  997SOL    HW214625   0.229   2.035   5.323  0.1297  1.5417 -0.3456
  998SOL     OW14626   2.574   0.427  13.127  0.0129 -0.3878 -0.5408
  998SOL    HW114627   2.484   0.399  13.140  0.4197 -1.5007 -0.0858
  998SOL    HW214628   2.601   0.382  13.207 -2.2786  0.1679  0.5378
  999SOL     OW14629   2.770   0.923  13.968  0.2927 -0.2175 -0.0291
  999SOL    HW114630   2.808   0.956  13.887 -0.3799 -2.4851 -1.2723
  999SOL    HW214631   2.702   0.988  13.987  1.5790  0.7871  1.1010
 1000SOL     OW14632   3.336   0.144   7.773  0.3856  0.5796 -0.3084
 1000SOL    HW114633   3.414   0.144   7.717  0.1339  0.4597 -0.6535
 1000SOL    HW214634   3.353   0.067   7.827  0.4799 -0.6367 -2.0672
 1001SOL     OW14635   4.616   1.929   8.771 -0.5789  0.2538  0.0915
 1001SOL    HW114636   4.708   1.942   8.794 -0.1248  0.1985 -1.6795
 1001SOL    HW214637   4.568   2.010   8.754 -1.2834 -0.5355 -1.7030
 1002SOL     OW14638   3.671   3.049   8.695 -0.1705 -0.3291  0.4161
 1002SOL    HW114639   3.604   3.098   8.744 -1.1986 -0.3281 -0.9835
 1002SOL    HW214640   3.678   2.987   8.768  1.1009 -2.0855 -1.2002
 1003SOL     OW14641   2.713   0.903   5.711 -0.7323  0.5768 -0.6006
 1003SOL    HW114642   2.768   0.864   5.643 -0.7512 -1.0483  0.3065
 1003SOL    HW214643   2.752   0.990   5.720 -0.3028  0.1583  1.4782
 1004SOL     OW14644   3.414   1.970   7.220 -0.5450 -0.6051 -0.3113
 1004SOL    HW114645   3.478   1.900   7.230 -0.8010 -0.9096 -0.8452
 1004SOL    HW214646   3.445   2.025   7.293 -2.5000  1.4963 -1.0474
 1005SOL     OW14647   1.573   2.574   0.732  0.3224  0.4734  0.1692
 1005SOL    HW114648   1.624   2.639   0.684 -1.3220  2.2336  0.8314
 1005SOL    HW214649   1.617   2.492   0.709  0.4204  0.4465  0.4445
 1006SOL     OW14650   0.910   3.968   3.117  0.3140  0.5644  0.3372
 1006SOL    HW114651   0.995   3.942   3.081  0.3958 -1.4077  1.9084
 1006SOL    HW214652   0.930   4.042   3.174  1.3726 -0.2251  0.9964
 1007SOL     OW14653   1.742   1.916  16.848 -0.3573 -0.0391  0.5957
 1007SOL    HW114654   1.805   1.905  16.776  1.8552  1.1570  2.3338
 1007SOL    HW214655   1.663   1.900  16.797  0.5722 -0.2635 -0.7983
 1008SOL     OW14656   1.997   3.387   0.157 -0.1815  0.1904 -0.1714
 1008SOL    HW114657   1.991   3.301   0.114  1.0489  0.3566 -0.6825
 1008SOL    HW214658   2.057   3.356   0.224 -0.4645 -1.7118 -0.7820
 1009SOL     OW14659   0.262   4.546  12.804 -0.0722  0.6776 -0.2420
 1009SOL    HW114660   0.172   4.540  12.834 -0.1897  3.4005 -0.0143
 1009SOL    HW214661   0.268   4.627  12.753  2.1204  0.9482  0.4155
 1010SOL     OW14662   4.685   2.700   2.112 -0.0633  0.2753 -0.1160
 1010SOL    HW114663   4.712   2.757   2.040 -0.8288 -0.2800 -0.8528
 1010SOL    HW214664   4.618   2.749   2.160 -0.5907  0.8701 -1.4572
 1011SOL     OW14665   3.356   4.200   7.796  0.0904 -0.1327 -0.7382
 1011SOL    HW114666   3.289   4.259   7.830  0.0261  0.4969 -1.9495
 1011SOL    HW214667   3.429   4.259   7.814 -0.9015  0.5725  0.9088
 1012SOL     OW14668   0.930   3.636  11.422  0.2718 -0.2899 -0.6281
 1012SOL    HW114669   0.895   3.596  11.342  0.4619  0.8365 -1.2709
 1012SOL    HW214670   0.954   3.728  11.409 -0.9711  0.1478  0.1079
 1013SOL     OW14671   1.325   0.395   1.672  0.6809  0.4176  0.0195
 1013SOL    HW114672   1.404   0.343   1.656 -0.4357 -1.7355  1.4617
 1013SOL    HW214673   1.366   0.470   1.714  0.9452 -0.7999  1.9436
 1014SOL     OW14674   4.150   0.632   3.260 -0.2223 -0.2512  0.3625
 1014SOL    HW114675   4.170   0.690   3.187 -0.4127 -2.4134 -1.4183
 1014SOL    HW214676   4.067   0.592   3.235 -0.4645  2.4059 -3.0217
 1015SOL     OW14677   0.745   2.955   1.719 -0.3418  0.2344 -0.2054
 1015SOL    HW114678   0.825   3.006   1.708  0.3103 -0.7262  0.0415
 1015SOL    HW214679   0.773   2.870   1.686  1.1822  0.3146  0.8457
 1016SOL     OW14680   1.301   0.128   3.223 -0.4853 -0.1566 -0.5026
 1016SOL    HW114681   1.351   0.113   3.303 -2.0111 -2.2105  0.0744
 1016SOL    HW214682   1.286   0.219   3.249  2.0604  0.3053 -0.6879
 1017SOL     OW14683   1.283   2.288   4.476  0.0063 -0.3128  0.0505
 1017SOL    HW114684   1.280   2.384   4.476 -0.7778 -0.3380  0.4578
 1017SOL    HW214685   1.289   2.269   4.383  0.0029 -0.5999  0.1098
 1018SOL     OW14686   2.968   0.179  11.896  0.4380 -0.4531 -0.2481
 1018SOL    HW114687   3.031   0.129  11.843  0.4955 -0.3084 -0.3196
 1018SOL    HW214688   2.891   0.140  11.856 -0.1638 -0.5837  1.0362
 1019SOL     OW14689   0.035   3.162   3.160 -0.2205  0.3884 -0.6394
 1019SOL    HW114690   0.096   3.089   3.155  0.6806  1.2184 -2.0051
 1019SOL    HW214691   0.039   3.198   3.071  0.5063  0.6266 -0.5142
 1020SOL     OW14692   2.267   4.000   4.286  0.1967 -0.8878  0.4192
 1020SOL    HW114693   2.303   3.919   4.321  0.1223 -1.4557 -0.8398
 1020SOL    HW214694   2.350   4.048   4.290 -1.0851  1.4464 -0.6363
 1021SOL     OW14695   3.993   0.708   8.846 -0.1667  0.2692  0.1779
 1021SOL    HW114696   3.965   0.666   8.927 -2.1783  0.1798 -0.5663
 1021SOL    HW214697   3.949   0.789   8.871 -1.6853 -0.0561 -1.4538
 1022SOL     OW14698   4.302   3.932   7.359  0.3223 -0.0810 -0.2870
 1022SOL    HW114699   4.341   3.909   7.274  0.7434 -1.3632  0.2587
 1022SOL    HW214700   4.217   3.892   7.343  0.1852 -0.0063  0.2379
 1023SOL     OW14701   4.267   2.168   5.652 -0.1978 -0.1400  0.1123
 1023SOL    HW114702   4.175   2.170   5.679 -0.4837  1.5485 -0.9715
 1023SOL    HW214703   4.275   2.074   5.638 -0.6737 -0.2179  0.3469
 1024SOL     OW14704   1.144   3.316   0.607  0.0007  0.2332 -0.2457
 1024SOL    HW114705   1.115   3.407   0.596 -0.8507 -0.2536 -1.8948
 1024SOL    HW214706   1.103   3.304   0.693  1.2794  0.7259  0.4380
 1025SOL     OW14707   3.452   1.149   2.302 -0.0505 -0.4201  0.0956
 1025SOL    HW114708   3.502   1.175   2.226  1.4334 -1.7571  0.6045
 1025SOL    HW214709   3.508   1.085   2.347 -0.4466 -1.1630 -0.4709
 1026SOL     OW14710   2.651   3.694  13.819  0.3589  0.1454  0.1181
 1026SOL    HW114711   2.591   3.722  13.750  1.2875 -1.0560 -1.1817
 1026SOL    HW214712   2.583   3.675  13.884 -0.3818  0.8393 -0.4562
 1027SOL     OW14713   3.103   3.996  17.130  0.4163 -0.4037 -0.0028
 1027SOL    HW114714   3.055   3.934  17.185 -0.1694  0.1755  0.1401
 1027SOL    HW214715   3.119   4.075  17.181  0.3284  0.9153 -1.9884
 1028SOL     OW14716   2.837   1.980   2.523 -0.0583 -0.3096  0.7229
 1028SOL    HW114717   2.818   1.896   2.482 -1.4525 -0.4056  1.5687
 1028SOL    HW214718   2.835   1.954   2.616 -0.7207 -0.2200  0.7310
 1029SOL     OW14719   0.959   2.459   8.666 -0.4605 -0.1462 -0.6698
 1029SOL    HW114720   1.003   2.408   8.734  1.0408  0.4655 -1.1879
 1029SOL    HW214721   0.866   2.436   8.676 -0.3993 -0.4425 -0.8039
 1030SOL     OW14722   0.479   2.325   1.660 -0.4674 -0.6758  0.1947
 1030SOL    HW114723   0.416   2.253   1.669 -0.3841 -0.6302  1.1934
 1030SOL    HW214724   0.432   2.383   1.720 -0.4298 -0.2242 -0.2131
 1031SOL     OW14725   4.710   1.115   2.569  0.0659 -0.0356  0.1682
 1031SOL    HW114726   0.065   1.098   2.555 -0.1388 -0.5193 -0.5638
 1031SOL    HW214727   4.710   1.204   2.603  0.0296  0.0828 -0.1514
 1032SOL     OW14728   1.320   0.339   5.411  1.0330  0.0608  0.7167
 1032SOL    HW114729   1.256   0.407   5.431  1.2505  0.7306 -0.8667
 1032SOL    HW214730   1.271   0.266   5.448  1.6363 -1.2319 -1.0421
 1033SOL     OW14731   2.058   3.398   9.606  0.2860  0.5612 -0.3899
 1033SOL    HW114732   2.025   3.466   9.547  0.0360  0.8482  0.0868
 1033SOL    HW214733   2.064   3.322   9.548  1.3564  1.2711 -1.2086
 1034SOL     OW14734   2.709   3.096   3.229  0.4175 -0.0374 -0.3132
 1034SOL    HW114735   2.731   3.003   3.231 -0.7617 -0.3506 -1.4339
 1034SOL    HW214736   2.618   3.089   3.198  0.7242  0.0406 -1.2228
 1035SOL     OW14737   3.845   4.594   6.010 -0.0797  0.2619 -0.7807
 1035SOL    HW114738   3.878   4.589   6.099  0.5259  0.8427 -0.9716
 1035SOL    HW214739   3.837   4.689   5.999  0.4256  0.7471  2.9773
 1036SOL     OW14740   0.591   2.183  11.640  0.0362 -0.1039 -0.2302
 1036SOL    HW114741   0.544   2.223  11.567  1.3417 -0.6286 -1.3473
 1036SOL    HW214742   0.558   2.232  11.715  0.2286  0.3124 -0.4138
 1037SOL     OW14743   0.656   0.014   2.776  0.3323 -0.2479  0.0385
 1037SOL    HW114744   0.606   0.067   2.837  0.1328  0.5853 -0.8364
 1037SOL    HW214745   0.708   4.700   2.836  0.2985  0.4449  0.6805
 1038SOL     OW14746   0.625   0.329   3.485  0.2514 -0.2678 -0.1758
 1038SOL    HW114747   0.662   0.243   3.465 -0.1573 -0.3171 -0.6997
 1038SOL    HW214748   0.602   0.305   3.575  1.3230 -0.5353  0.0227
 1039SOL     OW14749   3.043   3.041   6.344 -0.5111 -0.1513  1.2273
 1039SOL    HW114750   2.950   3.058   6.334 -0.2478 -0.7613 -2.1237
 1039SOL    HW214751   3.068   3.039   6.252 -0.8540  0.2522  1.1299
 1040SOL     OW14752   1.972   0.888   6.930  0.0744 -0.0441  0.1898
 1040SOL    HW114753   2.064   0.890   6.905  0.6165 -1.1806  2.1177
 1040SOL    HW214754   1.937   0.909   6.843  3.7857 -0.0609 -1.3096
 1041SOL     OW14755   0.028   4.451   8.738  0.1500 -0.0157  0.7326
 1041SOL    HW114756   0.060   4.362   8.726 -1.7485 -0.8219  1.4829
 1041SOL    HW214757   0.059   4.463   8.828 -1.0614 -1.4215  1.3430
 1042SOL     OW14758   0.020   3.242  16.625  0.1985 -0.1845  0.5440
 1042SOL    HW114759   0.028   3.309  16.557  2.3327 -1.9753 -0.9443
 1042SOL    HW214760   4.672   3.268  16.657 -0.1940  0.0562 -0.6917
 1043SOL     OW14761   4.052   2.296   5.003 -0.2946  0.1157  0.6223
 1043SOL    HW114762   4.054   2.228   4.936 -0.8367 -0.9422  1.6748
 1043SOL    HW214763   4.069   2.369   4.943  0.7990 -1.6205 -1.1762
 1044SOL     OW14764   2.629   4.479   6.824 -0.0012  0.1726 -0.8845
 1044SOL    HW114765   2.718   4.447   6.838 -0.4608 -0.0762  1.3943
 1044SOL    HW214766   2.652   4.571   6.835  1.1216 -0.0252 -1.5397
 1045SOL     OW14767   3.670   0.452  14.329 -0.2586 -0.0873  0.1378
 1045SOL    HW114768   3.680   0.533  14.280 -1.0178 -0.0889 -0.0184
 1045SOL    HW214769   3.702   0.390  14.263 -0.0384 -1.0902  1.1637
 1046SOL     OW14770   0.710   1.253   1.924 -0.1508  0.1979  0.1190
 1046SOL    HW114771   0.790   1.285   1.966  0.5067 -0.4286 -0.6587
 1046SOL    HW214772   0.683   1.197   1.997  2.6161 -0.5628  0.5499
 1047SOL     OW14773   0.826   2.040  11.101 -0.4490 -0.2717  0.0536
 1047SOL    HW114774   0.840   1.946  11.090 -0.6928 -0.2549 -0.3988
 1047SOL    HW214775   0.740   2.042  11.142 -0.6584 -0.1565 -0.3924
 1048SOL     OW14776   3.055   4.208   3.788 -0.4524 -0.0540 -0.0726
 1048SOL    HW114777   3.031   4.140   3.852 -2.7786  0.0006 -0.9106
 1048SOL    HW214778   3.088   4.152   3.718 -2.0684 -0.7329 -0.2798
 1049SOL     OW14779   0.024   1.616   7.285 -0.3025  0.0218 -0.2499
 1049SOL    HW114780   4.672   1.599   7.261 -0.1951 -0.9351  0.0162
 1049SOL    HW214781   0.008   1.621   7.380 -1.9663 -2.5744 -0.3691
 1050SOL     OW14782   0.345   1.715   4.099  0.0402 -0.0058  0.3535
 1050SOL    HW114783   0.293   1.760   4.166  0.6492  0.7169  0.3464
 1050SOL    HW214784   0.401   1.791   4.084  1.1952 -0.6476  1.4308
 1051SOL     OW14785   3.359   1.808   8.672  0.0012 -1.0373 -0.1657
 1051SOL    HW114786   3.337   1.864   8.748  0.6922 -1.2206  0.1669
 1051SOL    HW214787   3.325   1.865   8.603 -0.3644 -0.4179  0.5142
 1052SOL     OW14788   0.452   1.710   7.710 -0.0337 -0.0685  0.5785
 1052SOL    HW114789   0.467   1.801   7.737 -0.8677  0.0502  0.6271
 1052SOL    HW214790   0.511   1.693   7.636  0.0387  1.7246  0.2221
 1053SOL     OW14791   3.824   1.443  11.667  0.2363 -0.1509 -0.1522
 1053SOL    HW114792   3.729   1.445  11.684  0.8117  1.8125  2.7711
 1053SOL    HW214793   3.836   1.510  11.600  0.0556 -0.7528 -0.7968
 1054SOL     OW14794   2.345   3.196   3.791 -0.5812 -0.1129  0.4961
 1054SOL    HW114795   2.359   3.249   3.713 -0.7614  0.8751  1.1413
 1054SOL    HW214796   2.260   3.229   3.819 -0.0908  1.6953 -0.1390
 1055SOL     OW14797   3.716   4.586  14.433  0.4460 -0.1713 -0.3186
 1055SOL    HW114798   3.770   4.651  14.478  2.3942 -2.1799  0.2415
 1055SOL    HW214799   3.724   4.506  14.485 -0.4949  0.2479  0.4589
 1056SOL     OW14800   2.540   2.319  15.132 -0.1686 -0.0516  0.1693
 1056SOL    HW114801   2.523   2.407  15.098 -1.3227 -1.0060 -1.6819
 1056SOL    HW214802   2.548   2.262  15.056 -1.1188 -1.4130  1.0727
 1057SOL     OW14803   1.827   4.488  11.758  0.4922 -0.7647  0.8534
 1057SOL    HW114804   1.789   4.419  11.812  1.3755 -2.3106 -0.4764
 1057SOL    HW214805   1.919   4.464  11.751  0.4443 -0.3040 -1.3673
 1058SOL     OW14806   0.276   3.210   0.399 -0.2593 -0.1022  0.1232
 1058SOL    HW114807   0.290   3.180   0.489  0.6422  2.7926  0.9678
 1058SOL    HW214808   0.184   3.234   0.406 -0.2655 -0.1479  0.1947
 1059SOL     OW14809   3.910   3.847  12.771  0.3224  0.5269  0.2325
 1059SOL    HW114810   3.950   3.840  12.684  0.2967  1.4586  0.1366
 1059SOL    HW214811   3.978   3.829  12.836 -1.4833 -2.6762  1.1982
 1060SOL     OW14812   4.218   2.138   9.166  0.6145  0.2251  0.1681
 1060SOL    HW114813   4.223   2.229   9.195 -3.3965  0.7031 -0.6221
 1060SOL    HW214814   4.127   2.139   9.137 -0.4491 -0.7231  3.4914
 1061SOL     OW14815   4.211   4.614   6.261  0.7997 -0.1303  0.0662
 1061SOL    HW114816   4.201   4.606   6.355 -0.0049 -1.9951 -0.1687
 1061SOL    HW214817   4.280   4.551   6.242  0.4730  0.1181 -1.9991
 1062SOL     OW14818   1.309   1.154  13.535 -0.0009 -0.3164 -0.3062
 1062SOL    HW114819   1.273   1.067  13.518  1.8576 -1.3611  1.0379
 1062SOL    HW214820   1.298   1.174  13.628  1.8703 -1.2085  0.1181
 1063SOL     OW14821   3.028   3.736   5.668  0.7954  0.6048  0.5197
 1063SOL    HW114822   3.102   3.764   5.722  0.9961 -1.4340  1.2736
 1063SOL    HW214823   2.979   3.818   5.658 -0.2795 -0.1008 -0.0420
 1064SOL     OW14824   0.005   2.417   8.028 -0.8951 -0.5424  0.1030
 1064SOL    HW114825   0.073   2.379   8.083  1.6375  0.1529 -2.5788
 1064SOL    HW214826   0.027   2.507   8.004  0.1384 -1.0146 -0.7325
 1065SOL     OW14827   2.409   2.759   8.054 -0.6317  0.0790  0.0629
 1065SOL    HW114828   2.491   2.797   8.083 -0.4620 -1.9171  2.2599
 1065SOL    HW214829   2.362   2.770   8.137  1.2436 -1.8998  1.3848
 1066SOL     OW14830   2.632   0.120   3.134 -0.3853 -0.4205  0.4650
 1066SOL    HW114831   2.549   0.117   3.086  0.2866  0.1565 -0.7296
 1066SOL    HW214832   2.618   0.189   3.198 -0.0655 -0.2799  0.3820
 1067SOL     OW14833   0.636   2.767  13.614 -0.2032  0.0897  0.3187
 1067SOL    HW114834   0.551   2.744  13.651  0.2279 -1.6388  0.2465
 1067SOL    HW214835   0.689   2.760  13.694  1.0058 -3.3667 -0.7576
 1068SOL     OW14836   3.379   3.286   6.916  0.1511 -0.1777  0.5737
 1068SOL    HW114837   3.394   3.235   6.996 -0.4426 -1.4217 -0.1144
 1068SOL    HW214838   3.428   3.366   6.938  1.1406 -0.5920 -0.1442
 1069SOL     OW14839   4.278   2.971   3.549  1.2049  0.2387  0.4087
 1069SOL    HW114840   4.223   3.033   3.597  1.5744  0.3251  0.7160
 1069SOL    HW214841   4.289   3.023   3.469 -1.1366 -0.8576 -0.6385
 1070SOL     OW14842   3.111   0.087   1.314  0.3847 -0.4108 -0.5182
 1070SOL    HW114843   3.089   0.181   1.312 -0.4541 -0.5871  0.5763
 1070SOL    HW214844   3.191   0.097   1.262  0.5205 -1.1403 -0.4433
 1071SOL     OW14845   2.542   1.830  17.027  0.1722  0.5730 -0.0116
 1071SOL    HW114846   2.637   1.836  17.029  0.2187 -1.0292  2.3746
 1071SOL    HW214847   2.530   1.750  17.079 -1.4133  0.6369 -0.2643
 1072SOL     OW14848   4.123   2.799   0.906  0.3342 -0.1540 -0.4184
 1072SOL    HW114849   4.215   2.777   0.891  0.1785 -0.2555 -1.1959
 1072SOL    HW214850   4.091   2.753   0.829  0.0858 -1.2443  0.3515
 1073SOL     OW14851   3.525   2.236  17.472  0.0871 -0.2821  0.0526
 1073SOL    HW114852   3.481   2.306  17.520 -3.1093 -2.5318  0.4311
 1073SOL    HW214853   3.485   2.240  17.385 -1.6587  0.7090  0.8983
 1074SOL     OW14854   3.760   0.734   7.490 -0.2510  0.0040 -0.1223
 1074SOL    HW114855   3.825   0.799   7.517  0.4167 -0.2315 -1.1906
 1074SOL    HW214856   3.811   0.682   7.428 -0.1006  0.6691 -0.5565
 1075SOL     OW14857   4.425   1.089   9.303  1.0605 -0.4398 -0.4596
 1075SOL    HW114858   4.369   1.088   9.225 -1.9980  1.6315  1.6911
 1075SOL    HW214859   4.379   1.161   9.347 -1.0829 -1.6398 -0.7002
 1076SOL     OW14860   3.164   1.405   4.555 -0.1724  0.2635 -0.1989
 1076SOL    HW114861   3.247   1.440   4.587 -0.2808  0.5090 -0.1874
 1076SOL    HW214862   3.157   1.332   4.617  1.5330  0.0423 -0.2714
 1077SOL     OW14863   1.690   3.722  15.430  0.3140 -0.3650  0.1081
 1077SOL    HW114864   1.717   3.652  15.370  0.9254 -0.0474  0.0069
 1077SOL    HW214865   1.626   3.760  15.369 -1.7812 -1.0917  1.8807
 1078SOL     OW14866   2.565   3.889   5.539 -0.6027 -0.5361 -0.2922
 1078SOL    HW114867   2.523   3.892   5.625 -1.2154 -0.3814 -0.5974
 1078SOL    HW214868   2.562   3.982   5.514 -0.9284 -0.9003 -1.5722
 1079SOL     OW14869   1.359   3.077   8.568 -0.4844 -0.8486  1.0147
 1079SOL    HW114870   1.447   3.040   8.564  0.0471  0.3839  1.3451
 1079SOL    HW214871   1.370   3.125   8.651  0.8367 -2.8541  1.9914
 1080SOL     OW14872   0.874   0.891   3.693 -0.5724 -0.1797  0.2066
 1080SOL    HW114873   0.916   0.977   3.694  0.9340 -0.9232  0.7100
 1080SOL    HW214874   0.819   0.894   3.772  0.6365 -1.0431  1.0762
 1081SOL     OW14875   1.243   0.998   7.793 -0.2465 -0.4602 -0.5276
 1081SOL    HW114876   1.154   0.966   7.779 -0.0448 -0.3688 -2.0692
 1081SOL    HW214877   1.235   1.086   7.755 -0.4956  0.2956  1.2891
 1082SOL     OW14878   1.746   1.177   2.232  0.4609  0.7801  0.5340
 1082SOL    HW114879   1.822   1.126   2.257  0.2023 -0.4851 -1.2595
 1082SOL    HW214880   1.685   1.105   2.216  1.2039 -0.3087  2.6060
 1083SOL     OW14881   4.093   4.581   5.766  0.2715  0.1630 -0.3409
 1083SOL    HW114882   4.094   4.664   5.813  1.5328 -0.0964  0.1122
 1083SOL    HW214883   4.059   4.520   5.832 -2.1673 -0.7627 -2.4895
 1084SOL     OW14884   4.485   1.867  16.871 -0.8887 -0.5036 -0.6104
 1084SOL    HW114885   4.464   1.944  16.819  0.6949  0.3497  0.0161
 1084SOL    HW214886   4.455   1.902  16.955  0.7475 -0.7927  0.1042
 1085SOL     OW14887   0.909   1.470   3.007  0.2754 -0.0103 -0.5813
 1085SOL    HW114888   0.859   1.393   3.034  0.7757 -0.2712 -0.4127
 1085SOL    HW214889   0.896   1.533   3.078 -0.9047 -1.0211  0.1129
 1086SOL     OW14890   3.653   2.920   5.618  0.4452 -0.0576  0.0379
 1086SOL    HW114891   3.731   2.903   5.565 -0.2233  1.6067 -1.4809
 1086SOL    HW214892   3.652   3.016   5.618  0.8338 -0.0577 -1.2667
 1087SOL     OW14893   1.292   1.658   5.114 -0.4630  0.5989 -0.0313
 1087SOL    HW114894   1.240   1.661   5.034  0.8317 -0.7821 -0.9409
 1087SOL    HW214895   1.353   1.585   5.102  1.1629  1.7327  1.3072
 1088SOL     OW14896   0.413   4.074   8.639  0.7132  0.5104 -0.0149
 1088SOL    HW114897   0.468   4.134   8.690  1.3297  1.0583 -1.3324
 1088SOL    HW214898   0.400   4.008   8.708  1.4866  0.2411 -0.1308
 1089SOL     OW14899   3.157   3.430   2.372 -0.1624 -0.3929  0.0610
 1089SOL    HW114900   3.069   3.392   2.364  0.6098 -1.6506 -2.4761
 1089SOL    HW214901   3.168   3.464   2.283 -0.3713 -0.2431  0.0905
 1090SOL     OW14902   2.484   1.961   1.858  0.5835 -0.0678  0.2404
 1090SOL    HW114903   2.408   1.940   1.804  0.4841 -0.2697  0.4578
 1090SOL    HW214904   2.448   1.968   1.946 -0.3713 -0.4231 -0.1232
 1091SOL     OW14905   0.372   2.904   4.901  0.8001 -0.0675  0.2398
 1091SOL    HW114906   0.327   2.824   4.930 -1.3269  0.3806 -1.8758
 1091SOL    HW214907   0.353   2.911   4.808  0.5413 -1.5533  0.1866
 1092SOL     OW14908   1.298   1.668   9.085  0.1246  0.1564 -0.3609
 1092SOL    HW114909   1.365   1.641   9.148  1.9925  1.1053 -1.9131
 1092SOL    HW214910   1.225   1.613   9.113 -1.9732  3.5866  0.8780
 1093SOL     OW14911   0.919   4.735   9.068  0.2212 -0.2527  0.0212
 1093SOL    HW114912   0.823   4.737   9.073  0.2273 -1.6797  0.5594
 1093SOL    HW214913   0.941   4.712   9.158 -1.3608 -0.5619  0.3303
 1094SOL     OW14914   3.029   1.113  11.549 -0.3455 -0.7710  0.5397
 1094SOL    HW114915   2.970   1.162  11.492  0.5876 -0.3144 -0.0257
 1094SOL    HW214916   2.981   1.105  11.631 -0.7400 -2.4777  0.1622
 1095SOL     OW14917   2.937   0.312   3.416  0.2595  0.4442 -0.1858
 1095SOL    HW114918   2.946   0.241   3.479 -1.1314 -0.2060 -0.7075
 1095SOL    HW214919   2.864   0.363   3.451  1.7066  0.9503  2.0507
 1096SOL     OW14920   2.470   1.243   2.549 -0.4087 -0.1921 -0.1797
 1096SOL    HW114921   2.492   1.325   2.504 -1.0154  0.5472  0.8730
 1096SOL    HW214922   2.524   1.184   2.496 -0.6152  1.0248 -1.7302
 1097SOL     OW14923   0.559   1.396   3.702 -0.1712  0.0596  0.0522
 1097SOL    HW114924   0.468   1.371   3.683  0.0109 -2.0785  1.9696
 1097SOL    HW214925   0.571   1.337   3.776  1.1525 -0.6339 -0.7147
 1098SOL     OW14926   4.043   3.322  11.159  0.8379  0.0431 -0.2338
 1098SOL    HW114927   4.026   3.288  11.247  0.4137 -0.9374 -0.6949
 1098SOL    HW214928   4.013   3.413  11.168  1.0406  0.0876 -0.0057
 1099SOL     OW14929   2.223   4.257   5.710 -0.3170 -0.7515 -0.2858
 1099SOL    HW114930   2.213   4.220   5.622 -0.6258 -1.7832  0.1889
 1099SOL    HW214931   2.316   4.267   5.727 -0.9117  1.1324  1.7894
 1100SOL     OW14932   2.987   0.651   9.514  0.3834  0.1623 -0.8292
 1100SOL    HW114933   3.046   0.710   9.561 -2.3799  2.0197  0.3684
 1100SOL    HW214934   2.975   0.573   9.568  1.4818  0.0016 -0.8351
 1101SOL     OW14935   2.676   0.721   4.776  0.3278 -0.1938 -0.2400
 1101SOL    HW114936   2.612   0.652   4.795 -1.5174  1.5807 -0.0604
 1101SOL    HW214937   2.719   0.742   4.859 -1.2150 -0.5646  0.6547
 1102SOL     OW14938   3.328   0.447  14.930 -0.5118 -0.5184 -0.0432
 1102SOL    HW114939   3.250   0.421  14.882 -1.1439  0.7990  0.2727
 1102SOL    HW214940   3.389   0.461  14.858 -0.0945  0.7932  0.5651
 1103SOL     OW14941   3.747   1.381  17.727  0.0758  0.6357 -0.3162
 1103SOL    HW114942   3.682   1.402   0.040 -0.5034 -2.0679 -0.0289
 1103SOL    HW214943   3.830   1.358   0.015 -0.2455  2.0891  1.1336
 1104SOL     OW14944   1.086   2.418   7.134 -0.2255  0.3110  0.6355
 1104SOL    HW114945   1.176   2.432   7.106  0.0262 -3.3266 -0.4368
 1104SOL    HW214946   1.095   2.356   7.206  2.0663  0.0350  0.1087
 1105SOL     OW14947   0.235   4.404  10.814 -0.3755  0.1085 -0.1491
 1105SOL    HW114948   0.281   4.477  10.774  0.8348 -0.0266  0.9923
 1105SOL    HW214949   0.283   4.386  10.895  1.2930 -2.4547 -1.7174
 1106SOL     OW14950   2.715   3.077   0.054  0.6461 -0.3883 -0.4038
 1106SOL    HW114951   2.772   3.008   0.023  0.0355 -1.8563  1.6822
 1106SOL    HW214952   2.750   3.100   0.140 -1.6473  0.4829  0.3193
 1107SOL     OW14953   3.601   0.801  10.407  0.5450  0.5066 -0.3821
 1107SOL    HW114954   3.578   0.813  10.315  1.1514 -0.1167 -0.6141
 1107SOL    HW214955   3.512   0.787  10.438  1.0527  2.1523  1.8021
 1108SOL     OW14956   0.348   2.006   4.856 -0.0976  0.5026  0.2075
 1108SOL    HW114957   0.300   1.992   4.937 -0.8900  1.1483 -0.1451
 1108SOL    HW214958   0.434   2.017   4.896 -0.7521 -0.0902  1.7579
 1109SOL     OW14959   4.374   0.004   5.555  0.2854 -0.4661  0.0818
 1109SOL    HW114960   4.436   0.071   5.527 -0.2183 -0.2624 -0.5430
 1109SOL    HW214961   4.342   0.038   5.638  1.4893  0.9699 -0.0439
 1110SOL     OW14962   2.790   1.671   1.747 -0.1310 -0.4722  0.1978
 1110SOL    HW114963   2.705   1.654   1.787 -1.2285  0.4825 -1.7246
 1110SOL    HW214964   2.833   1.725   1.814  0.5742 -0.9031  0.0846
 1111SOL     OW14965   4.194   4.197   4.639  0.1607 -0.1982  0.7304
 1111SOL    HW114966   4.124   4.180   4.702  0.0147 -0.5225  0.4790
 1111SOL    HW214967   4.257   4.255   4.681  1.3791 -1.3955  0.5521
 1112SOL     OW14968   4.165   0.636  15.195  0.2946  0.0160 -0.1994
 1112SOL    HW114969   4.115   0.715  15.178 -1.4391 -1.1276 -0.4350
 1112SOL    HW214970   4.115   0.578  15.138 -0.2905 -1.2727  1.6109
 1113SOL     OW14971   4.118   0.397   4.953  0.2456 -0.4645 -0.5680
 1113SOL    HW114972   4.191   0.436   4.904  1.3128 -1.5618  0.1441
 1113SOL    HW214973   4.158   0.312   4.968 -0.5380 -0.4964  1.3734
 1114SOL     OW14974   1.927   0.325   3.325 -0.3053  0.0705  0.1634
 1114SOL    HW114975   1.986   0.351   3.395 -2.7556  1.2214  1.7874
 1114SOL    HW214976   1.941   0.392   3.259  0.3155 -0.7735 -0.5611
 1115SOL     OW14977   3.764   1.333   8.977 -0.0760  0.1977  0.0755
 1115SOL    HW114978   3.772   1.361   8.885 -0.5240 -1.6383 -0.5240
 1115SOL    HW214979   3.755   1.409   9.034  1.4032  1.1181 -0.8905
 1116SOL     OW14980   0.540   3.190   0.732  0.8744 -0.6449 -0.1147
 1116SOL    HW114981   0.452   3.219   0.707  0.7885 -0.7006  0.1168
 1116SOL    HW214982   0.524   3.187   0.827 -2.3827 -0.8890 -0.6552
 1117SOL     OW14983   3.979   3.253   5.400  0.5881  0.1270  0.7533
 1117SOL    HW114984   3.990   3.328   5.342  2.4010 -0.2897  0.5387
 1117SOL    HW214985   3.915   3.201   5.351 -1.2184  1.8040  1.3477
 1118SOL     OW14986   2.685   2.643  11.843 -0.0601  0.2415  0.3551
 1118SOL    HW114987   2.645   2.612  11.924 -0.1303  0.0855  0.2613
 1118SOL    HW214988   2.651   2.574  11.786 -0.1467  1.0099 -0.5296
 1119SOL     OW14989   2.324   3.312  16.765  0.1999 -0.1343  0.2790
 1119SOL    HW114990   2.353   3.273  16.682 -1.3466 -1.3415  0.3094
 1119SOL    HW214991   2.232   3.289  16.756  0.4689 -0.1731 -2.3597
 1120SOL     OW14992   1.853   2.983  11.868 -0.3198 -0.2508  0.2886
 1120SOL    HW114993   1.805   2.955  11.790  1.3356  1.4781 -1.3631
 1120SOL    HW214994   1.776   3.017  11.913  2.3771  0.1694  4.5574
 1121SOL     OW14995   3.194   2.694   2.458  0.0569  0.3761  0.0643
 1121SOL    HW114996   3.228   2.674   2.371  0.5416 -0.1905  0.3820
 1121SOL    HW214997   3.144   2.774   2.443  2.5300  2.7361  4.3296
 1122SOL     OW14998   4.543   3.105  11.035  0.1689 -0.5221  0.0490
 1122SOL    HW114999   4.487   3.169  10.990  0.6014 -0.1701  0.0182
 1122SOL    HW215000   4.479   3.056  11.088 -0.8256 -1.9755 -2.4685
 1123SOL     OW15001   0.600   2.651   1.700  0.3787  0.7121 -0.2916
 1123SOL    HW115002   0.559   2.608   1.624  2.0138 -1.9190  0.3471
 1123SOL    HW215003   0.691   2.649   1.671  0.5266  0.7475  0.1773
 1124SOL     OW15004   3.979   2.225   1.297 -0.2562 -0.1314  0.4014
 1124SOL    HW115005   4.035   2.281   1.351 -0.4487 -0.4638  0.9431
 1124SOL    HW215006   3.973   2.279   1.218 -2.9153  0.3831  0.9552
 1125SOL     OW15007   0.737   0.410  16.863 -0.7523 -0.3330  0.3663
 1125SOL    HW115008   0.695   0.376  16.783  0.1421 -2.5026  0.8198
 1125SOL    HW215009   0.807   0.462  16.824  0.0270 -4.1419 -3.2773
 1126SOL     OW15010   3.567   0.923   1.358 -0.4442  0.3166 -0.6031
 1126SOL    HW115011   3.661   0.941   1.360 -0.3639 -0.0753 -1.1373
 1126SOL    HW215012   3.529   1.005   1.325 -0.5177 -0.3189 -2.0812
 1127SOL     OW15013   0.760   2.100   6.880  0.6762 -0.1895 -0.2966
 1127SOL    HW115014   0.756   2.027   6.942 -2.1459 -0.2932 -0.5738
 1127SOL    HW215015   0.713   2.050   6.812 -0.5831  0.2257  0.2784
 1128SOL     OW15016   1.772   1.431  14.163  0.0025 -0.0908 -0.1330
 1128SOL    HW115017   1.712   1.357  14.167 -1.9367  1.3895 -1.3880
 1128SOL    HW215018   1.728   1.485  14.096 -3.2953 -2.0444  0.4808
 1129SOL     OW15019   2.238   3.084   1.672 -0.0744  0.2803  0.3437
 1129SOL    HW115020   2.300   3.012   1.681 -0.8423 -0.6613 -2.1580
 1129SOL    HW215021   2.158   3.040   1.700  0.8079 -3.8998 -3.7437
 1130SOL     OW15022   2.060   1.168   0.557  0.7142  0.3331 -0.1824
 1130SOL    HW115023   2.031   1.171   0.648  0.9481 -2.8821 -0.0060
 1130SOL    HW215024   2.007   1.238   0.520  1.3997  0.6556 -0.5491
 1131SOL     OW15025   4.368   1.880   7.787  0.5349 -0.2365  0.0434
 1131SOL    HW115026   4.295   1.913   7.735 -0.9292 -2.2068  0.8216
 1131SOL    HW215027   4.432   1.876   7.716  0.0329  0.7231 -0.4623
 1132SOL     OW15028   0.331   2.723  13.070  0.1210  0.0404 -0.3334
 1132SOL    HW115029   0.282   2.656  13.118  0.2311  0.7734  0.7733
 1132SOL    HW215030   0.391   2.670  13.017  0.6508  1.6214 -1.3033
 1133SOL     OW15031   2.093   4.554  13.199 -0.4601  0.2694 -0.0916
 1133SOL    HW115032   2.150   4.620  13.160 -0.0142  0.8450  1.5766
 1133SOL    HW215033   2.023   4.616  13.217 -0.9803  0.3373 -2.2942
 1134SOL     OW15034   2.986   0.318   9.303  0.6443  0.4534 -0.0760
 1134SOL    HW115035   2.997   0.401   9.257  1.9978 -1.0902 -2.5433
 1134SOL    HW215036   2.906   0.293   9.258  1.9227 -0.0957 -2.0415
 1135SOL     OW15037   2.948   1.702   5.588  0.6667 -0.0297 -0.2887
 1135SOL    HW115038   2.865   1.744   5.566 -0.2967 -3.2090 -2.6746
 1135SOL    HW215039   2.985   1.714   5.501  1.7663 -1.0250  0.0459
 1136SOL     OW15040   1.369   2.602   2.433  0.2166  0.0210  0.6213
 1136SOL    HW115041   1.286   2.582   2.390 -0.3000 -0.3714  1.7850
 1136SOL    HW215042   1.348   2.622   2.525  1.9614  1.4506  0.7076
 1137SOL     OW15043   3.739   0.438  12.907 -0.4701 -0.4045 -0.5051
 1137SOL    HW115044   3.646   0.443  12.931 -1.0739 -0.3433 -2.7965
 1137SOL    HW215045   3.780   0.439  12.993  1.0865 -1.9703 -1.2439
 1138SOL     OW15046   2.420   0.634   1.848  0.3925 -0.2486 -0.0883
 1138SOL    HW115047   2.328   0.636   1.821  0.2770  0.4419  0.3530
 1138SOL    HW215048   2.415   0.699   1.917 -0.4273 -2.4931  1.9591
 1139SOL     OW15049   1.212   2.138  12.179  0.2175 -0.5219  0.3640
 1139SOL    HW115050   1.245   2.177  12.098  0.8822  1.4254  1.5626
 1139SOL    HW215051   1.216   2.044  12.160 -1.0201 -0.4170 -0.3984
 1140SOL     OW15052   0.483   3.358   1.566  0.2451 -0.1402  0.2444
 1140SOL    HW115053   0.453   3.334   1.478 -1.5541  1.2289  0.5018
 1140SOL    HW215054   0.472   3.279   1.619 -1.6891  0.2603  0.4278
 1141SOL     OW15055   0.987   0.684  13.127  0.0170  0.0972  0.0068
 1141SOL    HW115056   1.038   0.665  13.206 -2.9213  0.3833  1.9793
 1141SOL    HW215057   1.008   0.606  13.076  0.4715 -1.4307  2.5251
 1142SOL     OW15058   3.796   0.088   6.775 -0.3619 -0.5504  0.0220
 1142SOL    HW115059   3.851   0.143   6.720 -0.0265 -0.9991 -0.0873
 1142SOL    HW215060   3.726   0.061   6.715 -0.2377 -2.5949  0.8064
 1143SOL     OW15061   1.078   4.094   1.449  0.0304  0.1575 -0.0915
 1143SOL    HW115062   1.164   4.134   1.429  0.7749 -0.5797  1.6994
 1143SOL    HW215063   1.025   4.172   1.464  0.5088  0.2525  1.0693
 1144SOL     OW15064   0.565   0.627   3.471  0.3454 -0.2031  0.0484
 1144SOL    HW115065   0.533   0.654   3.558  0.2427 -0.4965  0.1023
 1144SOL    HW215066   0.606   0.542   3.483 -2.0718 -1.5123 -0.9214
 1145SOL     OW15067   1.960   3.866   5.183 -0.1066  0.2144 -0.2043
 1145SOL    HW115068   2.013   3.803   5.134  1.1109  1.3564 -0.3643
 1145SOL    HW215069   1.937   3.807   5.255  0.4439  1.3311  0.8822
 1146SOL     OW15070   2.104   3.117   8.258 -0.5531  0.5774 -0.0119
 1146SOL    HW115071   2.054   3.051   8.209  0.2673  0.2907 -0.4603
 1146SOL    HW215072   2.185   3.128   8.207 -0.2186 -0.6242  0.2400
 1147SOL     OW15073   4.146   0.891   4.661 -0.3425 -0.6136  0.2289
 1147SOL    HW115074   4.159   0.820   4.598 -0.8562  0.3242 -0.9206
 1147SOL    HW215075   4.218   0.872   4.720 -0.1087 -0.0633  0.1154
 1148SOL     OW15076   1.221   0.403   1.286 -0.3573 -0.0316 -0.2094
 1148SOL    HW115077   1.246   0.494   1.297 -1.2382  0.2827 -0.8170
 1148SOL    HW215078   1.158   0.419   1.215  0.5449 -0.5241 -1.1249
 1149SOL     OW15079   3.380   1.048   9.480  0.6390 -0.2989 -0.9155
 1149SOL    HW115080   3.401   1.142   9.472 -0.0411 -0.1485 -0.9064
 1149SOL    HW215081   3.421   1.014   9.401 -0.2902 -0.3428 -1.3781
 1150SOL     OW15082   1.468   1.518   1.253 -0.3014  0.1446 -0.3942
 1150SOL    HW115083   1.518   1.588   1.210  0.2607 -0.1008 -0.1339
 1150SOL    HW215084   1.414   1.483   1.181 -0.0085  0.1345 -0.6073
 1151SOL     OW15085   3.604   0.775   6.114 -0.7166  0.3235 -0.1107
 1151SOL    HW115086   3.600   0.827   6.194 -0.7266 -0.0259  0.1147
 1151SOL    HW215087   3.581   0.689   6.149 -0.0858  0.2851  0.2127
 1152SOL     OW15088   0.334   0.255  11.933  0.1087 -0.1027 -0.1070
 1152SOL    HW115089   0.420   0.241  11.893  1.1335  2.0946  1.2948
 1152SOL    HW215090   0.304   0.165  11.946  1.0914 -0.4172  0.0471
 1153SOL     OW15091   2.627   2.684   7.807  0.0178 -0.4612 -0.0723
 1153SOL    HW115092   2.670   2.639   7.734 -1.0748 -0.5335 -0.6793
 1153SOL    HW215093   2.688   2.667   7.879 -1.6453  0.3181  1.5257
 1154SOL     OW15094   3.375   0.896   6.991  0.0294 -0.3045 -0.0161
 1154SOL    HW115095   3.302   0.949   7.025  0.3288 -0.8576  1.4782
 1154SOL    HW215096   3.339   0.814   6.958  1.4929 -0.5967 -0.8778
 1155SOL     OW15097   4.052   0.876   3.015  0.4590  0.1084  0.0598
 1155SOL    HW115098   4.008   0.822   3.081  0.5576  0.4500  0.4030
 1155SOL    HW215099   4.132   0.827   2.998  0.3783  0.2926 -0.8544
 1156SOL     OW15100   0.113   1.959   4.518 -0.4951 -0.4553 -0.0044
 1156SOL    HW115101   0.032   1.909   4.516 -1.6166  1.2793  2.9973
 1156SOL    HW215102   0.089   2.043   4.557  1.1062 -0.1041  0.2326
 1157SOL     OW15103   2.145   1.855   9.920  0.6334 -0.2570  0.2387
 1157SOL    HW115104   2.070   1.861   9.861 -0.6638 -2.8046  1.6225
 1157SOL    HW215105   2.174   1.765   9.903  0.2317 -0.5852  1.2755
 1158SOL     OW15106   0.006   2.159   5.096  0.2001  0.0338  0.4728
 1158SOL    HW115107   4.678   2.178   5.162  0.5740 -2.4809  1.5567
 1158SOL    HW215108   0.031   2.068   5.111 -0.4658 -0.0363  1.1667
 1159SOL     OW15109   2.672   4.298  14.250  0.2530  0.4789  0.4238
 1159SOL    HW115110   2.753   4.345  14.272  1.6647 -2.6209  1.9574
 1159SOL    HW215111   2.617   4.373  14.229  0.3553  0.0575 -1.3119
 1160SOL     OW15112   0.250   0.312   7.069 -0.1112  0.1678  0.2922
 1160SOL    HW115113   0.260   0.287   7.161  0.6958  2.2999  0.7748
 1160SOL    HW215114   0.282   0.402   7.071 -1.3278  0.5996  0.4050
 1161SOL     OW15115   2.246   1.093   7.718  0.4593  0.2932  0.2677
 1161SOL    HW115116   2.163   1.058   7.686 -0.2389  0.8844  1.4076
 1161SOL    HW215117   2.299   1.021   7.685  0.6388  0.9446 -0.8682
 1162SOL     OW15118   2.254   0.606   1.424  0.1086 -0.2251  0.4691
 1162SOL    HW115119   2.349   0.591   1.420  0.0391 -1.1560  2.2296
 1162SOL    HW215120   2.231   0.587   1.333 -2.3077  0.9003  0.8527
 1163SOL     OW15121   2.966   4.558  15.418 -0.1225 -0.4133  0.6537
 1163SOL    HW115122   2.998   4.470  15.400  0.2080 -0.3251  0.8011
 1163SOL    HW215123   3.009   4.569  15.503 -0.2483 -3.5290  1.1184
 1164SOL     OW15124   2.296   3.751   5.426  0.4581 -0.0126  0.0820
 1164SOL    HW115125   2.356   3.825   5.438 -1.5869  1.6885 -0.1125
 1164SOL    HW215126   2.234   3.766   5.498 -0.5628  0.1175 -0.8249
 1165SOL     OW15127   3.381   2.065   6.142 -0.5268 -0.1109 -0.0598
 1165SOL    HW115128   3.345   2.008   6.075  0.4484 -1.7902  0.8474
 1165SOL    HW215129   3.397   2.146   6.092  0.3607  0.1036  0.5618
 1166SOL     OW15130   4.359   1.996   2.972 -0.1876 -0.4046  0.4419
 1166SOL    HW115131   4.322   2.019   3.057  1.6739  0.2318  1.0632
 1166SOL    HW215132   4.409   1.918   2.997  0.6222  0.9096  2.8531
 1167SOL     OW15133   4.228   3.154   9.893  0.2797 -0.1288 -0.0018
 1167SOL    HW115134   4.292   3.213   9.852 -1.0071  0.7338 -0.7790
 1167SOL    HW215135   4.167   3.213   9.937 -0.3079  0.3130 -1.4106
 1168SOL     OW15136   0.202   0.453   6.497 -0.1303 -0.6801 -0.1839
 1168SOL    HW115137   0.133   0.519   6.506 -0.0874 -0.4685 -1.4170
 1168SOL    HW215138   0.148   0.374   6.496 -0.8028 -0.2295  1.1612
 1169SOL     OW15139   1.949   0.502  12.988 -0.0742  0.1555  0.1883
 1169SOL    HW115140   1.935   0.509  12.894 -0.3835 -0.1500  0.2137
 1169SOL    HW215141   1.901   0.580  13.015  1.1462 -0.0831  3.1141
 1170SOL     OW15142   2.548   0.099   6.554  0.0723  0.0737  0.3089
 1170SOL    HW115143   2.500   0.135   6.480 -0.1207 -2.0290 -0.5778
 1170SOL    HW215144   2.467   0.096   6.605  0.5570 -0.6466  1.0358
 1171SOL     OW15145   4.083   3.389  12.458  0.4974  0.3279 -0.1638
 1171SOL    HW115146   4.031   3.387  12.538  0.8052  2.4158  0.0791
 1171SOL    HW215147   4.118   3.477  12.471  2.5506 -0.9614  2.8617
 1172SOL     OW15148   4.231   1.818   1.380  0.7281  0.0152  0.0906
 1172SOL    HW115149   4.289   1.842   1.308 -0.4765  4.5984  0.6777
 1172SOL    HW215150   4.291   1.755   1.421 -0.7090 -1.5822 -0.2469
 1173SOL     OW15151   3.887   3.625   3.833  0.2930  0.6537  0.6444
 1173SOL    HW115152   3.805   3.626   3.783  2.2221 -0.7215 -2.5236
 1173SOL    HW215153   3.871   3.554   3.895  0.6597 -0.5105 -0.5939
 1174SOL     OW15154   0.308   1.668   1.517  0.4857  0.1503  0.5073
 1174SOL    HW115155   0.338   1.632   1.434  1.3087 -0.0360  0.8884
 1174SOL    HW215156   0.292   1.593   1.574  1.1608  0.6956  1.4231
 1175SOL     OW15157   2.955   1.749  14.014  0.4992  0.2755 -0.3541
 1175SOL    HW115158   2.946   1.751  14.109 -0.3087  0.3401 -0.4352
 1175SOL    HW215159   3.050   1.734  14.012  0.7120  1.5733  0.2026
 1176SOL     OW15160   4.589   0.718   8.748 -0.2921  0.1457  0.2387
 1176SOL    HW115161   4.574   0.647   8.685 -2.3137 -0.4257  1.3967
 1176SOL    HW215162   4.509   0.770   8.741 -0.4070 -0.2643 -1.5142
 1177SOL     OW15163   2.501   2.141  14.911 -0.4999 -0.7279 -0.8591
 1177SOL    HW115164   2.548   2.158  14.829  0.6264 -1.9081 -0.4687
 1177SOL    HW215165   2.438   2.072  14.889 -1.2858 -0.4939  0.6857
 1178SOL     OW15166   0.967   0.796  11.491 -0.2584 -0.1663  0.4527
 1178SOL    HW115167   0.957   0.705  11.465 -0.2515 -0.4173  1.3353
 1178SOL    HW215168   0.931   0.838  11.413 -0.3872 -1.1290  0.0013
 1179SOL     OW15169   2.807   1.176   9.046  0.1954 -0.2853 -0.6805
 1179SOL    HW115170   2.746   1.102   9.041 -0.6064  0.3564 -0.3063
 1179SOL    HW215171   2.896   1.148   9.068  0.6585  2.2339  0.6414
 1180SOL     OW15172   4.719   1.105  13.167 -0.1379 -0.3630 -0.0045
 1180SOL    HW115173   0.062   1.122  13.120 -2.2778  2.9474 -2.6245
 1180SOL    HW215174   0.012   1.037  13.226  0.7920 -1.7056 -2.0562
 1181SOL     OW15175   4.150   1.711   7.261 -0.0283  0.5650  0.1699
 1181SOL    HW115176   4.135   1.718   7.167  1.5723 -1.5823 -0.2478
 1181SOL    HW215177   4.115   1.796   7.287 -0.2089  0.4670  0.2449
 1182SOL     OW15178   0.365   0.279  11.141  0.5831 -0.4812  0.0292
 1182SOL    HW115179   0.321   0.362  11.123  0.4183 -0.8070 -1.1059
 1182SOL    HW215180   0.334   0.256  11.229 -0.3715 -1.5413 -0.5833
 1183SOL     OW15181   1.466   2.386   2.634  0.4988 -0.1431  0.2664
 1183SOL    HW115182   1.548   2.421   2.598  0.4446  1.1440  1.4480
 1183SOL    HW215183   1.413   2.463   2.652  1.4648  0.2106  1.6285
 1184SOL     OW15184   1.007   1.806  17.086  0.1285 -1.0349 -0.4605
 1184SOL    HW115185   0.954   1.883  17.065  1.5325  0.0740  0.0676
 1184SOL    HW215186   1.091   1.838  17.053 -0.3826  0.5319 -0.2275
 1185SOL     OW15187   1.175   1.473   9.641  0.4523 -0.3222  0.3382
 1185SOL    HW115188   1.220   1.552   9.672 -0.6528  0.1435  0.7759
 1185SOL    HW215189   1.221   1.406   9.691 -0.0520 -0.7446  0.2399
 1186SOL     OW15190   1.196   0.288   6.680 -0.2778 -0.4142  0.2784
 1186SOL    HW115191   1.181   0.262   6.589 -0.2322 -2.7635  0.9376
 1186SOL    HW215192   1.171   0.208   6.727 -0.4687  0.3425  1.4529
 1187SOL     OW15193   1.264   2.222   1.603 -1.0639  0.3201  0.5874
 1187SOL    HW115194   1.336   2.201   1.662 -0.2887  0.7881 -0.1890
 1187SOL    HW215195   1.315   2.234   1.523 -0.4288 -0.1683  0.9179
 1188SOL     OW15196   2.779   1.197   7.883  0.3517 -0.5161 -0.1965
 1188SOL    HW115197   2.862   1.183   7.837  0.2533 -0.6729 -0.3267
 1188SOL    HW215198   2.786   1.150   7.967 -3.8723 -0.8086  0.0005
 1189SOL     OW15199   3.291   4.718   3.522  0.5543  0.0502 -0.3146
 1189SOL    HW115200   3.378   4.726   3.563  0.4293  5.3561 -1.1171
 1189SOL    HW215201   3.259   4.644   3.573 -1.7525 -0.5787 -2.7018
 1190SOL     OW15202   3.304   0.310   4.691 -0.0811 -0.3905 -0.2652
 1190SOL    HW115203   3.252   0.381   4.652 -2.6280 -1.2466  1.6355
 1190SOL    HW215204   3.370   0.362   4.738  1.4108 -1.3168 -1.3242
 1191SOL     OW15205   2.121   0.362   0.820  0.1367 -0.0022  0.6683
 1191SOL    HW115206   2.109   0.453   0.794 -0.2383 -0.1431  0.3515
 1191SOL    HW215207   2.113   0.319   0.735  1.2534 -0.4184  0.7837
 1192SOL     OW15208   2.716   2.183   7.399 -0.2025  0.0295 -0.7150
 1192SOL    HW115209   2.799   2.137   7.407  0.3442  0.8213 -2.0131
 1192SOL    HW215210   2.748   2.251   7.341  0.3779 -0.2046 -0.6616
 1193SOL     OW15211   1.583   2.188   6.388 -0.5015  0.2202  0.4613
 1193SOL    HW115212   1.488   2.182   6.380 -0.2766 -0.2529 -1.8482
 1193SOL    HW215213   1.603   2.110   6.335  0.1229 -0.6919  2.0243
 1194SOL     OW15214   0.565   3.898   4.298  0.1057 -0.6579  0.5030
 1194SOL    HW115215   0.475   3.872   4.318 -0.4127  0.1713 -0.7965
 1194SOL    HW215216   0.579   3.941   4.383  0.8695  2.5334 -1.2439
 1195SOL     OW15217   3.002   2.123   9.201  0.0881  0.0183 -0.1370
 1195SOL    HW115218   3.033   2.033   9.199  0.6960  0.1916  0.9864
 1195SOL    HW215219   2.910   2.122   9.227 -0.3370  1.1287 -1.5929
 1196SOL     OW15220   2.852   0.402   1.410  0.2067  0.1823  0.4495
 1196SOL    HW115221   2.787   0.408   1.340  0.8445 -1.0183 -0.2444
 1196SOL    HW215222   2.938   0.406   1.368  0.0408  0.5531  0.1379
 1197SOL     OW15223   4.077   2.980  15.193  0.4320  0.1115 -0.3565
 1197SOL    HW115224   3.990   2.981  15.153  0.6868 -1.6071 -0.9636
 1197SOL    HW215225   4.051   2.925  15.266  0.4053  0.3394 -0.1931
 1198SOL     OW15226   0.009   4.470  12.259  0.2742 -0.8618 -0.0523
 1198SOL    HW115227   0.040   4.526  12.187  2.2205 -2.5310 -0.5257
 1198SOL    HW215228   0.057   4.496  12.337  0.3205 -0.9924 -0.0372
 1199SOL     OW15229   1.833   1.883   1.686  0.1343  0.8743 -0.2572
 1199SOL    HW115230   1.808   1.946   1.620  0.2198  0.1541 -0.9771
 1199SOL    HW215231   1.797   1.930   1.761  1.5819  1.5403  0.0269
 1200SOL     OW15232   4.218   1.735  17.099 -0.8512 -0.4564 -0.1937
 1200SOL    HW115233   4.219   1.648  17.060 -0.8349 -0.9980  1.0275
 1200SOL    HW215234   4.131   1.731  17.138 -0.7914 -3.6332 -0.4311
 1201SOL     OW15235   2.352   1.736   3.200  0.1346  0.1432 -0.0269
 1201SOL    HW115236   2.415   1.708   3.134 -2.7065 -1.8246 -1.9150
 1201SOL    HW215237   2.407   1.784   3.261  0.7472 -0.7009  0.0694
 1202SOL     OW15238   1.083   2.135  11.530 -0.7165 -0.0442  0.0193
 1202SOL    HW115239   1.175   2.127  11.504 -1.1464 -3.4220 -0.3842
 1202SOL    HW215240   1.040   2.142  11.444  0.2098  4.5768 -0.0738
 1203SOL     OW15241   4.360   1.041   8.911  0.7734  0.0798  0.5083
 1203SOL    HW115242   4.354   0.982   8.836 -1.1946 -0.6786  1.2644
 1203SOL    HW215243   4.380   0.983   8.984 -2.8743 -1.9374 -0.0890
 1204SOL     OW15244   3.213   0.702   5.350  0.0158 -0.7571 -0.4765
 1204SOL    HW115245   3.291   0.655   5.322 -0.0117 -1.9642  1.4538
 1204SOL    HW215246   3.163   0.716   5.270  0.5502  0.7071 -0.5395
 1205SOL     OW15247   0.504   0.436   0.472  0.0731 -0.3819 -0.6435
 1205SOL    HW115248   0.427   0.485   0.502  0.7911  0.5360 -0.3309
 1205SOL    HW215249   0.527   0.491   0.397 -0.4136  0.7425  0.0229
 1206SOL     OW15250   1.828   2.325   1.662 -0.5248 -0.1264  0.2064
 1206SOL    HW115251   1.769   2.270   1.713 -0.1154 -1.6589 -0.9872
 1206SOL    HW215252   1.775   2.405   1.664  1.5503  1.2693 -0.2270
 1207SOL     OW15253   0.157   1.333   7.580  0.1433  0.6990  0.0011
 1207SOL    HW115254   0.112   1.339   7.496  0.2351 -0.7499 -0.1473
 1207SOL    HW215255   0.228   1.397   7.573 -0.1093  1.0089  0.2557
 1208SOL     OW15256   0.833   2.770  10.618  0.3398 -0.0637  0.3837
 1208SOL    HW115257   0.744   2.736  10.612  0.4406 -0.3690  0.6248
 1208SOL    HW215258   0.831   2.819  10.701  2.7537 -2.2207  1.7054
 1209SOL     OW15259   1.720   3.961  17.693  0.3016 -0.5540 -0.4671
 1209SOL    HW115260   1.695   3.881  17.739 -1.3126 -0.2145 -0.7537
 1209SOL    HW215261   1.807   3.967  17.731  0.0933 -0.6479  0.0273
 1210SOL     OW15262   0.224   1.159  14.297 -0.2555  0.6249  0.2046
 1210SOL    HW115263   0.279   1.176  14.221  1.0770 -0.9699  0.7897
 1210SOL    HW215264   0.141   1.188  14.261  1.1030  4.2807  0.0730
 1211SOL     OW15265   2.292   4.108   7.404  0.0894  0.2930 -0.3225
 1211SOL    HW115266   2.272   4.158   7.325 -0.6237  0.6693  0.1049
 1211SOL    HW215267   2.227   4.146   7.462  0.0067 -3.0280  1.8073
 1212SOL     OW15268   3.975   3.226   4.512  0.0734  0.0980 -0.3704
 1212SOL    HW115269   3.947   3.318   4.512 -0.3270 -0.0277  1.0833
 1212SOL    HW215270   3.905   3.189   4.565  0.3214 -0.6267 -0.5452
 1213SOL     OW15271   4.106   3.133   3.692  0.5550 -0.8143  0.2184
 1213SOL    HW115272   4.016   3.148   3.664  0.1931  0.5630  2.0908
 1213SOL    HW215273   4.097   3.090   3.777 -1.2968 -1.8137 -0.4852
 1214SOL     OW15274   0.876   0.918  13.050 -0.7074  0.2233  0.0120
 1214SOL    HW115275   0.911   0.836  13.088 -0.8403  0.7892  1.3660
 1214SOL    HW215276   0.829   0.893  12.971 -0.7190  0.3306 -0.0139
 1215SOL     OW15277   0.976   3.127   4.264 -0.6254 -0.2530  0.1354
 1215SOL    HW115278   0.980   3.180   4.185  0.8354  1.9481  1.6824
 1215SOL    HW215279   0.992   3.194   4.330  0.9278 -1.3448  0.8837
 1216SOL     OW15280   3.651   2.059   2.628 -0.2137  0.3053  0.0546
 1216SOL    HW115281   3.628   2.005   2.552  0.6916  2.4697 -1.7698
 1216SOL    HW215282   3.631   2.143   2.587 -1.5158 -0.0915 -0.1074
 1217SOL     OW15283   0.771   2.236   3.968  0.4815  0.0569 -0.1383
 1217SOL    HW115284   0.800   2.165   3.911  1.1252  1.0282 -1.0143
 1217SOL    HW215285   0.836   2.305   3.955 -3.2290  3.7143  0.7796
 1218SOL     OW15286   2.963   1.844  12.252 -0.1577 -0.7678  0.6574
 1218SOL    HW115287   3.023   1.887  12.314  0.1415  1.2300 -1.0257
 1218SOL    HW215288   2.910   1.786  12.306  1.5761 -1.9967  1.0511
 1219SOL     OW15289   2.464   0.046  11.742 -0.0044  0.0956 -0.5497
 1219SOL    HW115290   2.428   0.042  11.830 -2.2355  3.6355 -1.2974
 1219SOL    HW215291   2.445   4.695  11.715 -1.9871  0.1495  0.6647
 1220SOL     OW15292   0.728   1.391   5.089  0.2422  0.0432  0.3190
 1220SOL    HW115293   0.814   1.354   5.108  1.2819  2.1537 -0.2986
 1220SOL    HW215294   0.751   1.482   5.067 -0.3421  0.1172  0.0263
 1221SOL     OW15295   1.127   3.301   5.820  0.4710  0.2869 -0.2299
 1221SOL    HW115296   1.200   3.239   5.810  0.9287  0.9266 -0.8260
 1221SOL    HW215297   1.098   3.311   5.729  0.5562 -2.3237 -0.5630
 1222SOL     OW15298   4.291   3.323   6.355  0.2025 -0.1707  0.2359
 1222SOL    HW115299   4.237   3.329   6.434  1.3722 -1.3223  1.1182
 1222SOL    HW215300   4.330   3.237   6.372 -3.6856 -1.9414  0.1198
 1223SOL     OW15301   1.735   3.483  13.914  0.6611 -0.2324  0.0798
 1223SOL    HW115302   1.734   3.419  13.984 -1.6700 -1.8259 -1.3905
 1223SOL    HW215303   1.641   3.479  13.897  0.7242 -1.3555  0.0424
 1224SOL     OW15304   3.431   2.916   5.408  0.2018  0.0911 -0.2593
 1224SOL    HW115305   3.481   2.939   5.486 -1.6755  1.4443  0.5523
 1224SOL    HW215306   3.423   2.822   5.428 -0.5819  0.3486  0.6342
 1225SOL     OW15307   0.983   3.532   9.789  0.0649 -0.0003  0.4517
 1225SOL    HW115308   0.910   3.488   9.744  0.1088  1.3987 -0.9951
 1225SOL    HW215309   1.039   3.561   9.717 -3.2868  1.1166 -1.7496
 1226SOL     OW15310   1.270   2.885   9.194  0.0879 -0.5206 -0.4775
 1226SOL    HW115311   1.272   2.847   9.107  0.8102 -0.9865 -0.2636
 1226SOL    HW215312   1.181   2.918   9.204 -0.0559 -0.9359 -0.3954
 1227SOL     OW15313   1.776   4.322   2.708  0.2258  0.2563  0.5875
 1227SOL    HW115314   1.742   4.329   2.619 -0.9690  2.1811  1.1999
 1227SOL    HW215315   1.724   4.393   2.746 -0.8007  0.0714 -0.4771
 1228SOL     OW15316   4.473   0.885   1.919 -0.2842 -0.0203  0.0218
 1228SOL    HW115317   4.506   0.836   1.994  0.3769  0.2752 -0.0757
 1228SOL    HW215318   4.553   0.929   1.889 -1.4349  0.8786 -1.7754
 1229SOL     OW15319   4.596   1.469   2.384  0.3654 -0.1885 -0.1417
 1229SOL    HW115320   4.546   1.545   2.414  2.9094  2.0551 -1.6244
 1229SOL    HW215321   4.653   1.460   2.460 -1.1054 -0.6152  0.9074
 1230SOL     OW15322   0.651   3.296   5.093 -0.1506  0.0133 -0.7992
 1230SOL    HW115323   0.691   3.346   5.022 -0.5263 -1.0620 -1.7921
 1230SOL    HW215324   0.666   3.210   5.053  1.0506 -0.8614  1.5404
 1231SOL     OW15325   2.644   0.542   8.738  0.1305  0.3953 -0.1172
 1231SOL    HW115326   2.651   0.446   8.741 -0.0209  0.3573 -1.0332
 1231SOL    HW215327   2.730   0.571   8.708 -0.6310  1.6115 -1.1064
 1232SOL     OW15328   0.344   2.953   8.347  0.0729 -0.7229  0.2351
 1232SOL    HW115329   0.355   3.026   8.407  2.1452 -0.0591 -0.9189
 1232SOL    HW215330   0.329   3.000   8.265 -1.1006 -2.4765 -0.5659
 1233SOL     OW15331   2.485   3.050   7.110  0.3688  0.7104  0.0432
 1233SOL    HW115332   2.541   2.988   7.157 -3.2089 -2.2223  0.4698
 1233SOL    HW215333   2.549   3.077   7.045 -1.4489  1.1913 -1.5295
 1234SOL     OW15334   1.291   2.317   3.343  0.0435 -0.6042  0.5539
 1234SOL    HW115335   1.308   2.246   3.281 -2.7399 -1.2900  0.5758
 1234SOL    HW215336   1.204   2.280   3.360  0.2181 -0.7738  1.0775
 1235SOL     OW15337   1.726   0.401   6.673 -0.0669  0.3096 -0.1148
 1235SOL    HW115338   1.765   0.488   6.665  0.1159  0.0135 -2.6501
 1235SOL    HW215339   1.633   0.418   6.661  0.1280  0.8796 -0.8438
 1236SOL     OW15340   2.179   0.494  13.147  0.1000  0.2857  1.1900
 1236SOL    HW115341   2.138   0.580  13.157 -1.5165 -0.4465  1.0070
 1236SOL    HW215342   2.110   0.469  13.086  1.1362 -1.5587  0.7781
 1237SOL     OW15343   1.088   2.049   3.916  0.0154  0.8635  0.2509
 1237SOL    HW115344   1.021   2.018   3.854  0.6581  1.4953 -0.7722
 1237SOL    HW215345   1.108   2.134   3.876  1.3437  1.1138  1.4662
 1238SOL     OW15346   4.513   1.453  17.280 -0.0611  0.2474  0.3700
 1238SOL    HW115347   4.596   1.494  17.258  0.9207 -1.9533 -0.0657
 1238SOL    HW215348   4.555   1.379  17.323  2.2883  1.9460  0.9355
 1239SOL     OW15349   1.486   2.162   6.945 -0.4278 -0.0918 -0.2015
 1239SOL    HW115350   1.544   2.172   7.020 -0.0372 -2.8642 -0.1398
 1239SOL    HW215351   1.547   2.139   6.876  1.5586  0.4944  1.3503
 1240SOL     OW15352   4.718   1.647   6.905  0.2897  0.3040  0.0192
 1240SOL    HW115353   0.029   1.706   6.850  0.2354  0.8447  0.5535
 1240SOL    HW215354   4.629   1.665   6.875  1.2541  2.4531 -1.5233
 1241SOL     OW15355   0.838   2.894   6.238  0.2775  0.0530  0.7741
 1241SOL    HW115356   0.813   2.965   6.297 -0.3587 -0.4245  1.0774
 1241SOL    HW215357   0.822   2.941   6.156  0.2104  1.0184  1.3399
 1242SOL     OW15358   1.389   4.715   6.069  0.0705 -0.0263 -0.2245
 1242SOL    HW115359   1.383   4.720   6.164 -0.7076  0.0616 -0.2746
 1242SOL    HW215360   1.301   0.008   6.047  0.5193  1.7392  0.5080
 1243SOL     OW15361   0.115   1.482   8.474  0.0457  0.8126 -0.2616
 1243SOL    HW115362   0.140   1.557   8.529  0.4911  0.0010  0.6416
 1243SOL    HW215363   0.044   1.439   8.520  0.0521  1.4878  0.3766
 1244SOL     OW15364   0.631   2.178   1.490 -0.1775  0.2436  0.0451
 1244SOL    HW115365   0.583   2.238   1.547 -0.7997 -0.6248  0.4415
 1244SOL    HW215366   0.667   2.125   1.561  0.5124 -0.1340 -0.5899
 1245SOL     OW15367   2.087   4.552   4.153  0.2995  0.3743  0.0588
 1245SOL    HW115368   2.051   4.468   4.122  0.7922 -0.2555  1.1928
 1245SOL    HW215369   2.013   4.594   4.197 -0.9525 -1.0032 -0.6948
 1246SOL     OW15370   0.844   3.463   8.147  0.1527 -0.1317 -0.3185
 1246SOL    HW115371   0.777   3.403   8.181  0.5541 -0.8994 -0.8662
 1246SOL    HW215372   0.817   3.469   8.056 -0.3392 -0.6895 -0.2150
 1247SOL     OW15373   1.176   1.109   3.365 -0.0842  0.2104 -0.2624
 1247SOL    HW115374   1.271   1.122   3.366 -0.2922  1.6193  1.4354
 1247SOL    HW215375   1.171   1.016   3.341  0.4515 -0.1590  1.0646
 1248SOL     OW15376   1.985   3.293   5.747  0.0314  0.1584  0.2784
 1248SOL    HW115377   1.917   3.226   5.762 -0.7655  0.8047 -0.4894
 1248SOL    HW215378   2.029   3.293   5.833 -1.1481 -2.5888  0.9054
 1249SOL     OW15379   0.116   1.187   5.339 -0.4084 -0.0476  0.0423
 1249SOL    HW115380   0.114   1.271   5.384  0.0476 -0.3642  0.6483
 1249SOL    HW215381   0.127   1.209   5.247 -0.4116 -0.2163  0.0016
 1250SOL     OW15382   0.269   2.555   3.257  0.5711 -0.5979 -0.1241
 1250SOL    HW115383   0.287   2.615   3.329  0.6878 -1.2397  0.3830
 1250SOL    HW215384   0.233   2.610   3.188  0.0419 -0.1902  0.4760
 1251SOL     OW15385   3.136   3.521   7.816  0.3311 -0.3823  0.2110
 1251SOL    HW115386   3.168   3.584   7.751 -0.7345 -0.0504  0.0017
 1251SOL    HW215387   3.062   3.480   7.771  0.4119  0.9992 -1.1899
 1252SOL     OW15388   2.722   1.983   8.946 -0.0662 -0.1834  0.4351
 1252SOL    HW115389   2.783   1.910   8.951  2.9357  2.3552  0.6519
 1252SOL    HW215390   2.762   2.020   8.867 -2.3545  1.7549  0.1778
 1253SOL     OW15391   1.711   3.948   7.951 -0.1224 -0.2267 -0.6269
 1253SOL    HW115392   1.734   3.859   7.926 -3.0314 -1.4185  0.9346
 1253SOL    HW215393   1.768   4.004   7.898 -0.2790  0.3277 -0.2060
 1254SOL     OW15394   0.317   0.480   6.252  0.2183  0.5158  0.2805
 1254SOL    HW115395   0.276   0.486   6.338  0.0820  0.9218  0.1876
 1254SOL    HW215396   0.265   0.411   6.211  0.7114 -0.3582  1.1141
 1255SOL     OW15397   0.718   4.550  11.299 -0.0537 -0.1040 -0.0124
 1255SOL    HW115398   0.766   4.467  11.306  1.2755  1.0485  4.9333
 1255SOL    HW215399   0.690   4.555  11.208 -1.9016  1.3577  0.6600
 1256SOL     OW15400   2.122   2.510  12.015 -0.3834 -0.3549  0.8260
 1256SOL    HW115401   2.090   2.451  11.946 -1.3706 -1.6089  2.3631
 1256SOL    HW215402   2.037   2.540  12.048 -0.4014  0.9621 -0.4271
 1257SOL     OW15403   2.590   0.172   7.022  0.3227  0.1968  0.2454
 1257SOL    HW115404   2.534   0.113   7.072  1.2745  1.5343  2.9057
 1257SOL    HW215405   2.634   0.214   7.096 -2.0147 -0.2513  1.8931
 1258SOL     OW15406   3.615   0.459   7.352  0.3751  0.1471  0.0369
 1258SOL    HW115407   3.556   0.439   7.279  1.8045  0.1074 -1.1087
 1258SOL    HW215408   3.690   0.483   7.298  0.9365 -0.1510  0.6884
 1259SOL     OW15409   1.162   3.999   6.238 -0.2322 -0.2044 -0.1048
 1259SOL    HW115410   1.196   4.059   6.171 -0.2071 -1.3289 -1.1045
 1259SOL    HW215411   1.106   3.936   6.191 -1.1203 -0.0084  0.7092
 1260SOL     OW15412   0.711   0.878   0.726  0.0183 -0.5525 -0.0771
 1260SOL    HW115413   0.782   0.890   0.664 -0.8777 -0.9069 -1.1700
 1260SOL    HW215414   0.715   0.783   0.735 -0.6875 -0.6876 -1.1407
 1261SOL     OW15415   2.642   4.048  14.762 -0.0035  0.7497  0.1036
 1261SOL    HW115416   2.651   3.981  14.694 -1.1154 -1.4965  2.1981
 1261SOL    HW215417   2.555   4.086  14.751 -0.4892 -0.3755  0.1403
 1262SOL     OW15418   1.977   1.743  17.688  0.6468  0.3045  0.7087
 1262SOL    HW115419   1.918   1.805  17.645  2.7673  2.7437  1.3191
 1262SOL    HW215420   2.059   1.792  17.678  0.4608  0.8590  1.8962
 1263SOL     OW15421   2.915   3.650   7.558  0.0908  0.1842 -0.2793
 1263SOL    HW115422   2.840   3.697   7.521 -1.2289 -1.6369  0.0503
 1263SOL    HW215423   2.898   3.555   7.555  0.8912 -0.0158  1.4287
 1264SOL     OW15424   3.428   3.065   2.190 -0.2211 -0.3683  0.0115
 1264SOL    HW115425   3.484   3.124   2.240 -0.5299  0.5026 -0.6742
 1264SOL    HW215426   3.468   2.980   2.210  0.4980  0.7653  3.3641
 1265SOL     OW15427   2.975   0.923   1.649 -0.2243  0.0288  0.1769
 1265SOL    HW115428   2.881   0.930   1.665 -0.7631 -0.9979 -2.4753
 1265SOL    HW215429   2.979   0.936   1.554  1.9794 -0.3039  0.2355
 1266SOL     OW15430   4.570   0.631   9.299  0.2737  0.1670 -0.2468
 1266SOL    HW115431   4.515   0.649   9.223  0.8897 -0.8708 -0.9288
 1266SOL    HW215432   4.538   0.704   9.353  2.4562  1.0106 -0.0858
 1267SOL     OW15433   1.247   2.012   3.601 -0.1804 -0.1278  1.3154
 1267SOL    HW115434   1.334   2.037   3.572 -1.2223  0.5725 -1.2480
 1267SOL    HW215435   1.211   2.090   3.642  1.2614  2.5646 -2.6428
 1268SOL     OW15436   0.654   4.014  13.172  0.4100  0.1807  0.2274
 1268SOL    HW115437   0.746   4.028  13.194  0.0795  1.5937  0.7051
 1268SOL    HW215438   0.610   3.990  13.254 -0.9916  2.2195  0.0835
 1269SOL     OW15439   3.808   2.539   8.397 -0.1117 -0.2408  0.4812
 1269SOL    HW115440   3.742   2.606   8.382 -2.6380 -2.6908  0.4403
 1269SOL    HW215441   3.754   2.462   8.417 -1.2480  0.4815  0.1709
 1270SOL     OW15442   1.188   3.748   0.963 -0.1390 -0.3005  0.1467
 1270SOL    HW115443   1.184   3.733   0.869 -0.5820  0.3818  0.0595
 1270SOL    HW215444   1.148   3.834   0.972  1.0083  0.2868 -0.3494
 1271SOL     OW15445   3.044   3.302   9.239  0.2617  0.5079  0.0976
 1271SOL    HW115446   3.089   3.227   9.200  1.9721  0.6606  1.7583
 1271SOL    HW215447   3.113   3.369   9.237  1.1583 -0.4885 -2.1640
 1272SOL     OW15448   1.873   0.547  12.657 -0.0528  0.1797  0.2371
 1272SOL    HW115449   1.789   0.533  12.701  0.3330 -2.1205  0.2321
 1272SOL    HW215450   1.845   0.610  12.591 -0.3260  0.7359  0.8855
 1273SOL     OW15451   3.186   2.262   2.282  0.0112 -0.0677  0.1316
 1273SOL    HW115452   3.156   2.218   2.361  0.4187  0.9932  0.8738
 1273SOL    HW215453   3.105   2.278   2.233 -0.0125 -0.8644 -0.0859
 1274SOL     OW15454   4.226   1.619  10.975  0.5075  0.1749  0.0360
 1274SOL    HW115455   4.189   1.700  11.010 -0.3152 -0.1389 -0.1057
 1274SOL    HW215456   4.316   1.651  10.964  0.1733  1.1818  0.2018
 1275SOL     OW15457   2.856   0.948   8.763 -0.5214  0.8221  0.6253
 1275SOL    HW115458   2.795   0.978   8.695 -1.7398 -2.0475  0.4818
 1275SOL    HW215459   2.836   1.015   8.829  1.2643  2.3686 -0.3791
 1276SOL     OW15460   0.130   2.700   6.662 -0.1741  0.4004 -0.3042
 1276SOL    HW115461   0.066   2.630   6.664  1.1182 -0.8583 -2.3644
 1276SOL    HW215462   0.211   2.656   6.634  0.2517  1.6251 -0.9997
 1277SOL     OW15463   0.140   4.633   7.848  0.1710  0.1391  0.5203
 1277SOL    HW115464   0.084   4.561   7.878  0.9813 -0.8908 -0.4332
 1277SOL    HW215465   0.205   4.595   7.788 -0.3975  0.6343 -0.4190
 1278SOL     OW15466   2.519   1.229  13.276 -0.2113 -0.0202 -0.2565
 1278SOL    HW115467   2.612   1.224  13.296 -0.3696 -1.5060  0.1336
 1278SOL    HW215468   2.482   1.247  13.362  0.2245 -2.0760  0.3677
 1279SOL     OW15469   1.188   3.134   2.615  0.2568  0.0131  0.4592
 1279SOL    HW115470   1.159   3.185   2.540  2.7901  0.4338 -0.2222
 1279SOL    HW215471   1.110   3.084   2.642 -0.5522  1.4770  0.8163
 1280SOL     OW15472   3.983   3.201   7.828  0.2873 -0.3617  0.4550
 1280SOL    HW115473   3.991   3.285   7.873  2.0730 -2.4686  4.0805
 1280SOL    HW215474   4.053   3.219   7.766 -1.0477  1.6976 -0.4480
 1281SOL     OW15475   4.006   0.956  11.184  0.3805 -0.3788 -0.5187
 1281SOL    HW115476   3.924   0.915  11.157  0.1661 -1.0152  1.0687
 1281SOL    HW215477   4.005   1.034  11.129  1.0710 -0.1685 -0.2358
 1282SOL     OW15478   4.226   4.325   8.627  0.3103 -0.3137  0.2870
 1282SOL    HW115479   4.199   4.415   8.646 -0.6837 -0.8013  1.1889
 1282SOL    HW215480   4.205   4.281   8.710  0.7137  2.0310  1.6395
 1283SOL     OW15481   0.317   4.458   7.389  0.8733 -0.2607  0.1020
 1283SOL    HW115482   0.237   4.485   7.435 -0.4764  1.8981 -3.4922
 1283SOL    HW215483   0.283   4.389   7.331 -2.3930  1.9725 -0.6429
 1284SOL     OW15484   0.717   0.631  14.772 -0.1638  0.8077 -0.2073
 1284SOL    HW115485   0.776   0.705  14.758  1.2552 -0.3025 -0.0585
 1284SOL    HW215486   0.674   0.674  14.846 -0.7361 -2.0376  1.1347
 1285SOL     OW15487   0.592   4.725   3.807  0.5944  0.3890 -0.4070
 1285SOL    HW115488   0.582   0.081   3.804 -0.1083  0.2783 -1.9034
 1285SOL    HW215489   0.637   4.711   3.890  0.2749 -1.4384 -0.5331
 1286SOL     OW15490   4.505   3.758  10.499  0.6089  0.3798 -0.5292
 1286SOL    HW115491   4.553   3.815  10.439  0.9949  0.9063  0.2698
 1286SOL    HW215492   4.494   3.813  10.576 -3.1840  0.2542 -0.9998
 1287SOL     OW15493   2.151   2.315   4.688 -0.4832 -0.0625 -0.0853
 1287SOL    HW115494   2.124   2.405   4.709  0.9224  0.4135 -0.3434
 1287SOL    HW215495   2.198   2.324   4.605  0.0918  1.4556  0.3908
 1288SOL     OW15496   0.865   4.191  14.138  0.1417 -0.8519 -0.6382
 1288SOL    HW115497   0.837   4.245  14.064 -2.1988 -1.0298  0.1038
 1288SOL    HW215498   0.817   4.240  14.205 -0.0439  0.3849 -1.6620
 1289SOL     OW15499   2.100   2.406   1.633  0.2760  0.1309  0.1554
 1289SOL    HW115500   2.006   2.386   1.631  0.8432 -2.7745  2.7604
 1289SOL    HW215501   2.136   2.343   1.695  0.4931 -0.2720 -0.3870
 1290SOL     OW15502   4.266   1.927  15.102 -0.0508 -0.4191 -1.0220
 1290SOL    HW115503   4.301   1.994  15.043 -3.0483  1.2859 -0.8847
 1290SOL    HW215504   4.176   1.959  15.098  0.0081  0.0287  1.6461
 1291SOL     OW15505   4.052   4.331   3.793 -0.1442 -0.1510 -0.2326
 1291SOL    HW115506   4.098   4.411   3.768 -2.1629  0.8499 -0.7406
 1291SOL    HW215507   4.026   4.341   3.885 -2.3207  1.5182 -1.0252
 1292SOL     OW15508   1.756   3.102  17.171  0.2214  0.4311 -0.1335
 1292SOL    HW115509   1.726   3.137  17.088 -0.4195 -1.5624 -0.7602
 1292SOL    HW215510   1.845   3.137  17.174  0.2563  0.1389  2.3129
 1293SOL     OW15511   2.190   2.478   1.376  0.4264 -0.1919  0.0209
 1293SOL    HW115512   2.152   2.453   1.460 -1.5386 -0.6300 -1.0058
 1293SOL    HW215513   2.161   2.568   1.363 -1.5821 -0.8743 -0.2342
 1294SOL     OW15514   3.941   3.328   7.212  0.0914 -0.1014  0.3154
 1294SOL    HW115515   3.992   3.298   7.137  1.9910  0.7998  1.2695
 1294SOL    HW215516   4.007   3.356   7.275 -0.9748  1.1167  0.9064
 1295SOL     OW15517   1.223   1.672   6.418 -0.8375 -0.2095 -0.4590
 1295SOL    HW115518   1.159   1.734   6.452  1.3019  0.4578  2.3105
 1295SOL    HW215519   1.279   1.729   6.365  2.3913 -0.5525  2.5771
 1296SOL     OW15520   3.603   2.141   8.645  0.1134  0.1983  0.6605
 1296SOL    HW115521   3.512   2.119   8.662 -0.1365  0.2429 -0.6246
 1296SOL    HW215522   3.648   2.059   8.621 -2.4952 -0.5998 -1.4716
 1297SOL     OW15523   4.722   1.714   1.923 -0.5543 -0.1375  0.6001
 1297SOL    HW115524   4.724   1.807   1.900  0.2257 -0.5226 -0.9113
 1297SOL    HW215525   0.077   1.698   1.933 -0.2959  0.1441 -1.4126
 1298SOL     OW15526   2.997   1.810   5.098 -0.2743 -0.2066 -0.2348
 1298SOL    HW115527   2.958   1.894   5.075  0.1016 -0.0746 -0.3887
 1298SOL    HW215528   3.073   1.808   5.040  0.7652  2.3262  1.0681
 1299SOL     OW15529   0.969   2.227  12.027 -0.0778  0.0472 -0.1014
 1299SOL    HW115530   1.029   2.176  12.082  0.6645  0.9750 -0.0489
 1299SOL    HW215531   0.962   2.163  11.956 -0.7215  0.4194 -0.3659
 1300SOL     OW15532   1.640   2.950   2.909  0.3201 -0.5810 -0.0500
 1300SOL    HW115533   1.562   3.000   2.884 -0.5290 -1.7455  0.2585
 1300SOL    HW215534   1.683   2.945   2.824  3.8792 -0.5416  1.7884
 1301SOL     OW15535   3.838   0.778  16.497  0.3024 -1.4333  0.3435
 1301SOL    HW115536   3.821   0.717  16.425 -0.8600 -0.5817 -0.0918
 1301SOL    HW215537   3.753   0.776  16.540 -0.5708 -0.8670 -1.3707
 1302SOL     OW15538   0.035   0.883   6.021  0.6957  0.3499 -0.7614
 1302SOL    HW115539   0.026   0.931   6.104 -0.2477 -2.5067  0.7908
 1302SOL    HW215540   0.024   0.795   6.058  0.4000 -0.6459 -3.2606
 1303SOL     OW15541   4.266   3.463   9.761  0.2756  0.0111  0.0933
 1303SOL    HW115542   4.288   3.431   9.674  2.3766  0.0607  0.6239
 1303SOL    HW215543   4.171   3.461   9.747  0.4149  2.0066 -1.1323
 1304SOL     OW15544   0.286   4.105   6.861 -0.1582  0.0605 -0.1619
 1304SOL    HW115545   0.236   4.051   6.922  1.4718  0.0130  1.1507
 1304SOL    HW215546   0.234   4.095   6.782 -1.2698  1.0573  0.4434
 1305SOL     OW15547   2.178   2.459   7.776 -0.1013  0.2294  0.1659
 1305SOL    HW115548   2.158   2.553   7.780 -0.2565  0.1907  0.2990
 1305SOL    HW215549   2.253   2.455   7.835  0.1886  0.8855 -0.1534
 1306SOL     OW15550   3.255   1.755  12.653  0.2518 -0.6144  0.1069
 1306SOL    HW115551   3.172   1.771  12.608 -0.1037 -0.3671  0.8586
 1306SOL    HW215552   3.299   1.839  12.638  1.1816 -1.1568 -0.2245
 1307SOL     OW15553   4.393   2.605   8.313  0.4383 -0.0094 -0.2499
 1307SOL    HW115554   4.389   2.536   8.247 -0.8190 -0.8421  0.6895
 1307SOL    HW215555   4.481   2.577   8.339  0.3393  0.6917  0.8445
 1308SOL     OW15556   3.066   4.271  12.976 -0.4795 -0.2346  0.0740
 1308SOL    HW115557   3.116   4.197  13.011  1.7531  1.9412  1.4362
 1308SOL    HW215558   3.083   4.334  13.046  0.9211  0.3784 -0.8288
 1309SOL     OW15559   2.738   4.235  12.891 -0.1178  0.5485  0.1986
 1309SOL    HW115560   2.649   4.217  12.860  0.0514  1.9691 -1.0925
 1309SOL    HW215561   2.743   4.175  12.966  1.2500 -2.3799 -2.2597
 1310SOL     OW15562   4.050   3.948   5.890 -0.0343  0.2839  0.1230
 1310SOL    HW115563   4.072   3.875   5.948 -1.9540 -0.3192  0.0985
 1310SOL    HW215564   3.964   3.914   5.863 -0.8741  0.2094  2.8804
 1311SOL     OW15565   1.994   3.587   7.144 -0.0127  0.1878 -0.0775
 1311SOL    HW115566   1.910   3.560   7.108  0.3843 -1.4930  0.2723
 1311SOL    HW215567   1.974   3.673   7.182 -0.2952  0.2601 -0.3971
 1312SOL     OW15568   2.029   2.671  17.126  0.6711 -0.1875  0.9144
 1312SOL    HW115569   2.089   2.650  17.053 -0.8440  0.6159 -0.5614
 1312SOL    HW215570   2.050   2.590  17.172  2.1613 -0.7156 -0.6758
 1313SOL     OW15571   4.365   3.814  15.169  0.0226  0.5758 -0.3360
 1313SOL    HW115572   4.408   3.835  15.252 -0.9362 -3.8002  1.2601
 1313SOL    HW215573   4.441   3.815  15.110 -0.1582  0.3855 -0.5691
 1314SOL     OW15574   1.552   2.729   6.289  0.3935  0.1525  0.3906
 1314SOL    HW115575   1.475   2.682   6.320  1.1540 -0.4714  1.3204
 1314SOL    HW215576   1.571   2.680   6.209  2.6604  2.0445 -0.2514
 1315SOL     OW15577   2.031   0.755  13.866  0.7700 -0.2133  0.0378
 1315SOL    HW115578   2.060   0.666  13.887  2.1868  0.1779 -0.2491
 1315SOL    HW215579   2.003   0.788  13.952  1.6915 -0.5936  0.4811
 1316SOL     OW15580   2.329   0.599   8.246  0.2209  0.4523 -0.1304
 1316SOL    HW115581   2.252   0.656   8.244  0.0179  0.2346  1.8674
 1316SOL    HW215582   2.296   0.517   8.284  1.0236  0.4477  0.5593
 1317SOL     OW15583   2.800   0.727   9.319  0.2947 -0.3246 -0.2202
 1317SOL    HW115584   2.863   0.709   9.389 -0.4607 -1.6225  0.1313
 1317SOL    HW215585   2.722   0.740   9.373  0.7571 -0.1242  0.3986
 1318SOL     OW15586   1.174   2.660  11.759 -0.1587  0.0651 -0.0664
 1318SOL    HW115587   1.152   2.726  11.692  0.4980  1.8474  1.4904
 1318SOL    HW215588   1.200   2.595  11.694 -0.4279 -0.2593  0.1502
 1319SOL     OW15589   3.725   2.340  10.106 -0.0880  0.0664 -0.1157
 1319SOL    HW115590   3.652   2.390  10.141  0.4994  1.9907 -1.6534
 1319SOL    HW215591   3.781   2.342  10.184  0.2729 -0.6785 -0.3567
 1320SOL     OW15592   2.443   4.725   8.986  0.0195  0.6551 -0.2943
 1320SOL    HW115593   2.452   4.642   8.939  0.1629 -0.7978  2.3572
 1320SOL    HW215594   2.381   4.703   9.055  0.7241  1.3547  0.5736
 1321SOL     OW15595   3.790   1.553  13.496  0.1038 -0.2755 -0.0157
 1321SOL    HW115596   3.762   1.481  13.554 -0.0371  0.3973  0.7548
 1321SOL    HW215597   3.713   1.581  13.448  0.1398  0.3427  0.2902
 1322SOL     OW15598   1.683   1.954   6.277  0.2817  0.0309 -0.0824
 1322SOL    HW115599   1.685   1.923   6.186 -1.5165  0.2657 -0.2044
 1322SOL    HW215600   1.759   1.915   6.320 -0.5456  0.5547  1.8748
 1323SOL     OW15601   3.131   2.548   6.355 -0.5620  0.3970 -0.2076
 1323SOL    HW115602   3.087   2.629   6.328 -1.4867 -1.0760 -3.0592
 1323SOL    HW215603   3.088   2.535   6.439 -2.1927  1.2326 -0.9196
 1324SOL     OW15604   2.997   3.338   5.191  0.7132  0.8489 -0.3055
 1324SOL    HW115605   3.066   3.385   5.145  0.2025  0.8735 -1.0428
 1324SOL    HW215606   2.921   3.394   5.178 -0.4912 -0.6733  0.1868
 1325SOL     OW15607   2.202   0.795   7.173 -0.3385 -0.1423 -0.4158
 1325SOL    HW115608   2.283   0.748   7.191  0.0784  0.4576 -0.7312
 1325SOL    HW215609   2.233   0.867   7.118 -0.2960  0.7935  0.8392
 1326SOL     OW15610   0.485   4.510   5.517  0.5239  0.4666  0.0203
 1326SOL    HW115611   0.576   4.534   5.500  0.1051  1.5497 -0.6973
 1326SOL    HW215612   0.448   4.527   5.430  0.0184  0.7189  0.2849
 1327SOL     OW15613   1.705   3.306   5.156 -0.5178  0.2257  0.1752
 1327SOL    HW115614   1.635   3.362   5.186 -1.7528 -1.2846  0.1119
 1327SOL    HW215615   1.753   3.371   5.104 -1.3012  0.1126 -0.6890
 1328SOL     OW15616   0.159   4.323   4.846  0.0049  0.2866 -0.4405
 1328SOL    HW115617   0.201   4.291   4.926 -1.3257  3.4374  1.4818
 1328SOL    HW215618   0.190   4.254   4.787  2.5286 -0.1233  1.3346
 1329SOL     OW15619   0.507   0.113   7.931  0.3121  0.5815  0.4717
 1329SOL    HW115620   0.497   0.028   7.887  1.5019  1.0081 -0.6212
 1329SOL    HW215621   0.596   0.101   7.964 -0.6198 -0.0874  2.7466
 1330SOL     OW15622   4.339   1.276  16.022  0.0245  0.0513  0.1332
 1330SOL    HW115623   4.266   1.255  16.081 -2.5192  0.2776 -2.8890
 1330SOL    HW215624   4.374   1.351  16.068  1.3491 -0.7494  0.4214
 1331SOL     OW15625   2.624   4.608   7.365  0.4638  0.3869  0.6523
 1331SOL    HW115626   2.618   4.519   7.398 -1.6478  0.4466  0.3907
 1331SOL    HW215627   2.676   4.659   7.427  1.6987 -0.8265  0.6054
 1332SOL     OW15628   4.355   4.447  12.564 -0.0254  0.0235 -0.4208
 1332SOL    HW115629   4.299   4.508  12.517 -0.1077 -1.4727 -2.2493
 1332SOL    HW215630   4.414   4.425  12.493  1.5588  1.4092  0.4864
 1333SOL     OW15631   0.700   3.851   4.746 -0.6169 -0.2985  0.5514
 1333SOL    HW115632   0.725   3.863   4.838 -0.2045  1.1657  0.2376
 1333SOL    HW215633   0.762   3.786   4.711  1.8812  0.8898  2.7267
 1334SOL     OW15634   3.341   2.388  15.161 -0.0671  0.7263 -0.3433
 1334SOL    HW115635   3.249   2.398  15.140 -0.0276 -0.2852 -0.9958
 1334SOL    HW215636   3.354   2.294  15.154  2.0021  0.8973  1.2254
 1335SOL     OW15637   0.736   0.390   6.451  0.1717 -0.2187 -0.0011
 1335SOL    HW115638   0.799   0.456   6.481  0.5212 -0.1543 -0.8813
 1335SOL    HW215639   0.668   0.416   6.514 -0.9006  3.3497 -2.6014
 1336SOL     OW15640   4.261   1.569   1.934  0.2977  0.0046 -0.1023
 1336SOL    HW115641   4.332   1.549   1.995  0.5817 -1.1724 -0.8282
 1336SOL    HW215642   4.313   1.594   1.859 -1.3564  0.8971 -0.9450
 1337SOL     OW15643   2.960   2.121   3.978 -0.2089 -0.0393  0.0838
 1337SOL    HW115644   3.042   2.162   4.007  0.7440 -1.3952 -0.6415
 1337SOL    HW215645   2.913   2.121   4.061 -1.1254 -0.2561 -0.4388
 1338SOL     OW15646   2.056   1.643   3.151  0.2811  0.3447  0.7366
 1338SOL    HW115647   2.128   1.673   3.205  1.6652 -2.2965  0.3923
 1338SOL    HW215648   1.988   1.699   3.188  2.4381  2.3095  1.6613
 1339SOL     OW15649   1.445   3.735   4.306  0.0666 -0.4000  0.0346
 1339SOL    HW115650   1.483   3.775   4.228 -1.0418  1.6829  0.5466
 1339SOL    HW215651   1.483   3.775   4.385 -2.3039  0.9130  0.5273
 1340SOL     OW15652   1.962   0.211  14.307  0.4590  0.0591 -0.4904
 1340SOL    HW115653   1.983   0.269  14.380  1.7109  0.3868 -1.1110
 1340SOL    HW215654   1.875   0.180  14.331 -0.3069  0.6930 -2.4113
 1341SOL     OW15655   1.578   4.310   9.280 -0.2517 -0.8273  0.4052
 1341SOL    HW115656   1.657   4.328   9.330 -0.9396 -0.2361  1.2693
 1341SOL    HW215657   1.519   4.370   9.326 -0.2648  1.5976 -2.7925
 1342SOL     OW15658   1.768   0.364  17.595  0.0740 -0.3760 -0.0135
 1342SOL    HW115659   1.818   0.341  17.517 -0.5901 -3.7667  0.5389
 1342SOL    HW215660   1.691   0.405  17.556 -0.2823 -1.1529 -0.1365
 1343SOL     OW15661   0.869   1.333   4.012 -0.1804 -0.0639  0.1013
 1343SOL    HW115662   0.873   1.404   3.948 -2.2579  1.2336  1.3974
 1343SOL    HW215663   0.927   1.374   4.076  1.9685 -1.1632 -1.1564
 1344SOL     OW15664   2.784   4.559  15.799  0.4260 -0.2807 -0.0767
 1344SOL    HW115665   2.748   4.637  15.842  0.6022 -1.1708  1.6786
 1344SOL    HW215666   2.759   4.578  15.709  0.6999  0.5355  0.0163
 1345SOL     OW15667   2.032   4.530   6.994  0.1345 -0.5358  0.2202
 1345SOL    HW115668   1.987   4.515   7.078 -3.7362  1.2148 -1.5539
 1345SOL    HW215669   2.121   4.536   7.029  1.3151  0.8193 -3.0229
 1346SOL     OW15670   0.196   2.875   8.652  0.2616  0.0387  0.8317
 1346SOL    HW115671   0.216   2.862   8.745 -1.0597  1.4655  1.3040
 1346SOL    HW215672   0.154   2.792   8.628 -3.0744  1.7624  0.7980
 1347SOL     OW15673   0.119   4.220  12.149 -0.4861 -0.2219  0.4894
 1347SOL    HW115674   0.188   4.193  12.209 -0.5612 -1.2267  0.1287
 1347SOL    HW215675   0.088   4.305  12.180 -0.0235  0.5662 -1.1762
 1348SOL     OW15676   0.406   3.630   9.094 -0.0920  0.0676 -0.1556
 1348SOL    HW115677   0.320   3.671   9.083 -0.4195  0.5599  4.0024
 1348SOL    HW215678   0.470   3.694   9.062  0.5065 -0.4676 -0.0222
 1349SOL     OW15679   1.522   3.669  11.132 -0.2592  0.0635  0.1247
 1349SOL    HW115680   1.444   3.631  11.093 -0.8734  1.0880  0.3512
 1349SOL    HW215681   1.553   3.588  11.173  1.7154 -0.2396 -1.9387
 1350SOL     OW15682   4.567   2.695   5.677 -0.7755  0.1076  0.1235
 1350SOL    HW115683   4.558   2.790   5.672 -1.1037  0.1478  1.4479
 1350SOL    HW215684   4.609   2.679   5.762  1.7141 -0.0472 -1.1497
 1351SOL     OW15685   2.702   1.198  12.963 -0.2392 -0.0805 -0.0151
 1351SOL    HW115686   2.608   1.198  12.948 -0.2200 -0.8481 -0.1209
 1351SOL    HW215687   2.711   1.206  13.058  1.6495 -1.9831 -0.0333
 1352SOL     OW15688   1.626   0.298   7.855  0.0306 -0.2826  0.3602
 1352SOL    HW115689   1.701   0.357   7.848  0.0403 -0.2299  0.8985
 1352SOL    HW215690   1.555   0.363   7.855  1.2711  1.0755 -0.8521
 1353SOL     OW15691   0.154   2.569   4.135  0.3061 -0.1013  0.2102
 1353SOL    HW115692   0.059   2.564   4.130  0.3342  0.7295 -1.0152
 1353SOL    HW215693   0.180   2.510   4.064  1.1060 -0.9772  1.2283
 1354SOL     OW15694   1.972   1.377   2.148  0.5319 -0.4502  0.1806
 1354SOL    HW115695   1.898   1.317   2.154  0.4856 -0.6258 -1.9966
 1354SOL    HW215696   2.041   1.325   2.108 -0.0663 -0.4179 -0.8928
 1355SOL     OW15697   3.148   1.708   7.971 -0.3992 -0.0056 -0.4297
 1355SOL    HW115698   3.066   1.757   7.979 -0.3864 -0.2296  1.1599
 1355SOL    HW215699   3.124   1.635   8.029  0.4612 -0.0368 -0.1147
 1356SOL     OW15700   1.564   4.209  16.712 -0.4912  0.1631 -0.4632
 1356SOL    HW115701   1.516   4.126  16.706  1.8423 -1.0372 -2.5373
 1356SOL    HW215702   1.630   4.184  16.776 -1.7899 -1.0214  0.4074
 1357SOL     OW15703   0.365   0.028   3.683  0.0892  0.4074  0.1062
 1357SOL    HW115704   0.443   4.736   3.729 -0.6972  1.8676  2.4189
 1357SOL    HW215705   0.380   0.122   3.692 -0.4619  0.1940  3.3546
 1358SOL     OW15706   3.416   3.502   8.257 -0.2292 -0.3997  0.4164
 1358SOL    HW115707   3.492   3.470   8.207 -1.1062  1.8307 -2.3193
 1358SOL    HW215708   3.353   3.530   8.190 -0.1623 -0.4120  0.3471
 1359SOL     OW15709   1.488   3.874   4.855  0.3307 -0.3394  0.5702
 1359SOL    HW115710   1.539   3.804   4.898  0.8195 -1.2684 -1.5341
 1359SOL    HW215711   1.405   3.836   4.825  0.8132 -1.5406  0.7236
 1360SOL     OW15712   1.479   2.564   3.650  0.3533  0.1953  0.2825
 1360SOL    HW115713   1.551   2.503   3.666  2.2511  1.7489 -2.2335
 1360SOL    HW215714   1.466   2.549   3.556  1.0031 -1.5538  0.4820
 1361SOL     OW15715   0.001   2.447   1.995 -0.0680  0.5323 -0.3830
 1361SOL    HW115716   4.715   2.523   2.047  0.7825  0.4551  0.1363
 1361SOL    HW215717   0.061   2.485   1.932  2.0954 -1.6410  0.3551
 1362SOL     OW15718   1.660   1.913   0.664  0.3031 -0.0705  0.3082
 1362SOL    HW115719   1.726   1.860   0.619 -0.5058 -1.6461  0.9426
 1362SOL    HW215720   1.613   1.850   0.719  1.0293  0.2955  1.3433
 1363SOL     OW15721   0.417   0.117   2.328 -0.1648  0.4322  0.2667
 1363SOL    HW115722   0.452   0.148   2.412  0.5823 -1.3637  0.6191
 1363SOL    HW215723   0.416   0.024   2.348 -4.5374  1.1135  3.2936
 1364SOL     OW15724   1.928   3.546   0.368 -0.0117 -0.2828 -0.5351
 1364SOL    HW115725   1.988   3.516   0.436  0.1859  1.4350  0.0428
 1364SOL    HW215726   1.962   3.500   0.290 -0.0295  1.4328 -1.5505
 1365SOL     OW15727   4.433   3.967   1.786  0.2655 -0.6113  0.1883
 1365SOL    HW115728   4.497   3.970   1.715  1.4506 -2.1058  1.2031
 1365SOL    HW215729   4.375   4.042   1.773  1.7973  0.4916 -0.2261
 1366SOL     OW15730   0.283   0.928   3.085 -0.6722 -0.0750 -0.3466
 1366SOL    HW115731   0.226   0.991   3.130 -2.1528 -1.5747 -0.1010
 1366SOL    HW215732   0.316   0.877   3.158 -0.6683 -3.3986 -2.6676
 1367SOL     OW15733   3.552   3.851   3.541 -0.0063  0.1349  0.6571
 1367SOL    HW115734   3.526   3.899   3.463  0.5865 -1.0924 -0.2977
 1367SOL    HW215735   3.606   3.916   3.585 -0.7533  2.2747 -1.6109
 1368SOL     OW15736   0.563   2.444   6.637  0.1554 -0.1509  0.0191
 1368SOL    HW115737   0.595   2.523   6.594 -0.0366  0.0747  0.2968
 1368SOL    HW215738   0.597   2.457   6.725  2.1168  1.5115 -0.9914
 1369SOL     OW15739   2.336   3.084   7.801 -0.0964  0.4834  0.8457
 1369SOL    HW115740   2.245   3.069   7.829 -0.3249 -1.8412 -1.1685
 1369SOL    HW215741   2.354   2.995   7.771 -1.1765  0.2479  0.8759
 1370SOL     OW15742   2.667   2.856   8.211 -0.1077  0.4021  0.2301
 1370SOL    HW115743   2.762   2.866   8.203 -0.2328  1.0353 -0.5484
 1370SOL    HW215744   2.648   2.811   8.293 -2.0275 -3.5831 -2.3551
 1371SOL     OW15745   1.109   4.376   4.838 -0.2557 -0.0653  0.3827
 1371SOL    HW115746   1.055   4.440   4.793 -1.9777 -2.3142 -0.7441
 1371SOL    HW215747   1.152   4.339   4.760 -2.2624  1.4828 -1.4348
 1372SOL     OW15748   2.355   1.942  14.830 -0.1833  0.2534  0.7577
 1372SOL    HW115749   2.422   1.887  14.790 -0.5651  0.6831 -0.4719
 1372SOL    HW215750   2.276   1.890  14.813  0.2310  0.2843 -1.2485
 1373SOL     OW15751   0.429   1.859  11.624  0.0617 -0.2258 -0.0070
 1373SOL    HW115752   0.493   1.791  11.608  0.6468  0.5926 -1.1496
 1373SOL    HW215753   0.373   1.866  11.547 -1.7621 -1.3243  1.2332
 1374SOL     OW15754   4.494   1.371  13.085  0.0974 -0.1594  0.2282
 1374SOL    HW115755   4.476   1.422  13.164  1.2828  0.6416 -0.0018
 1374SOL    HW215756   4.494   1.290  13.135  1.6439  1.1778  2.4450
 1375SOL     OW15757   2.409   2.961   6.218  0.2244  0.0511 -0.0305
 1375SOL    HW115758   2.405   3.056   6.232 -0.0888 -0.3068  2.2637
 1375SOL    HW215759   2.327   2.943   6.172  0.5316 -2.1623  0.2951
 1376SOL     OW15760   1.015   1.395  16.428  0.8179  0.4666 -0.0580
 1376SOL    HW115761   0.938   1.452  16.441 -0.8649 -2.2061  1.7738
 1376SOL    HW215762   0.994   1.380  16.336  3.1125 -2.3701 -0.0964
 1377SOL     OW15763   3.748   4.378   4.407 -0.2147  0.2383  0.2934
 1377SOL    HW115764   3.706   4.434   4.341 -1.7747  0.8724  1.8282
 1377SOL    HW215765   3.775   4.301   4.357 -0.8074 -0.1847  0.6277
 1378SOL     OW15766   1.292   4.725   6.321 -0.2924  0.0842  0.0560
 1378SOL    HW115767   1.197   4.723   6.321 -0.3495  2.2600  0.0055
 1378SOL    HW215768   1.323   4.637   6.343 -0.4808 -0.5114 -2.1173
 1379SOL     OW15769   1.829   2.142  14.924 -0.2231 -0.5858 -0.6350
 1379SOL    HW115770   1.917   2.181  14.922  0.0155 -1.0915  0.3156
 1379SOL    HW215771   1.794   2.171  15.008 -1.3901 -4.0262  0.0585
 1380SOL     OW15772   2.874   2.763  12.327 -0.0487 -0.4339  0.0935
 1380SOL    HW115773   2.940   2.720  12.273  0.0131 -2.9910  2.2236
 1380SOL    HW215774   2.811   2.694  12.348 -1.5261  0.5147 -1.2949
 1381SOL     OW15775   0.074   3.921   3.489 -0.0361 -0.9139  0.7603
 1381SOL    HW115776   0.108   3.878   3.568  2.5739  2.8628  1.6827
 1381SOL    HW215777   0.144   3.871   3.446  0.6372  0.7764 -0.1021
 1382SOL     OW15778   1.978   0.772   9.973 -0.3459  0.3987 -0.1966
 1382SOL    HW115779   1.970   0.849   9.916 -1.2289 -0.3525 -1.0831
 1382SOL    HW215780   1.890   0.740   9.956 -0.8298  1.0956  0.9390
 1383SOL     OW15781   0.807   1.029  13.301  0.5828  0.4375  0.8078
 1383SOL    HW115782   0.741   1.099  13.304 -0.7553 -0.8060  0.1677
 1383SOL    HW215783   0.798   0.999  13.210 -0.2837  3.2285 -0.0532
 1384SOL     OW15784   4.129   4.411   6.006  0.5226  0.0028 -0.1114
 1384SOL    HW115785   4.170   4.489   6.043 -0.9676  1.9468 -2.5218
 1384SOL    HW215786   4.177   4.339   6.047 -0.5993  0.1545  1.4505
 1385SOL     OW15787   2.450   1.381   7.860  0.4449 -0.4246  0.6330
 1385SOL    HW115788   2.442   1.309   7.922 -1.1165 -0.7109  0.1069
 1385SOL    HW215789   2.366   1.419   7.887  0.1461 -0.4052 -0.3013
 1386SOL     OW15790   3.400   1.903   1.651 -0.2603  0.0198  0.7611
 1386SOL    HW115791   3.356   1.986   1.669 -1.0542 -0.3600  0.5752
 1386SOL    HW215792   3.469   1.912   1.717 -1.3627  1.4702  1.6982
 1387SOL     OW15793   2.645   0.969  15.124  0.1633  0.8172  0.1216
 1387SOL    HW115794   2.632   1.051  15.077 -0.5071  0.9746  0.5805
 1387SOL    HW215795   2.685   1.015  15.197 -0.1258 -0.2147  0.9264
 1388SOL     OW15796   2.304   2.502  12.209  0.3601  0.4400  0.2260
 1388SOL    HW115797   2.244   2.491  12.135 -2.3019  0.5129  2.3937
 1388SOL    HW215798   2.313   2.418  12.254 -0.3753 -0.0026 -0.4533
 1389SOL     OW15799   3.144   4.542   5.396  0.5512  0.1171 -1.0811
 1389SOL    HW115800   3.199   4.474   5.435  1.4066 -0.5636 -3.4673
 1389SOL    HW215801   3.197   4.621   5.405 -2.4139  1.8887  0.4863
 1390SOL     OW15802   3.040   1.315  16.076  0.1762 -0.4593 -0.2094
 1390SOL    HW115803   3.044   1.376  16.150 -1.4083 -0.5003 -0.0760
 1390SOL    HW215804   3.074   1.368  16.005  1.9861 -0.0126  1.0026
 1391SOL     OW15805   3.842   1.291   1.219 -0.4941  0.3429 -0.0249
 1391SOL    HW115806   3.858   1.220   1.157  0.6344  0.2719  0.3449
 1391SOL    HW215807   3.806   1.246   1.295  0.2767  3.7261  2.3684
 1392SOL     OW15808   3.880   1.003   7.219 -0.4752 -0.4127 -0.2164
 1392SOL    HW115809   3.915   1.004   7.130 -0.4777 -1.3586 -0.2303
 1392SOL    HW215810   3.802   1.059   7.224 -0.5485 -0.6835  1.7639
 1393SOL     OW15811   4.530   0.200   5.231 -0.2092  0.0682  0.3010
 1393SOL    HW115812   4.504   0.221   5.321  1.5469 -0.9672  1.0578
 1393SOL    HW215813   4.588   0.273   5.212  0.3822 -0.0574  1.5711
 1394SOL     OW15814   2.135   0.118   6.913 -0.2902 -0.0760  0.1841
 1394SOL    HW115815   2.099   0.131   6.825  0.8091 -0.2507 -0.2995
 1394SOL    HW215816   2.057   0.118   6.967 -0.0107  1.2344  0.5825
 1395SOL     OW15817   2.250   1.329   5.521 -0.1069 -0.3741 -0.4847
 1395SOL    HW115818   2.193   1.320   5.597 -0.8889 -0.3052 -1.0631
 1395SOL    HW215819   2.333   1.289   5.547  0.1000 -0.3349 -1.0829
 1396SOL     OW15820   4.296   2.686   4.580  0.6787  0.1002  0.7390
 1396SOL    HW115821   4.330   2.736   4.654 -1.3403  0.2584  1.5794
 1396SOL    HW215822   4.340   2.603   4.595 -0.0106 -0.7368 -1.7310
 1397SOL     OW15823   1.726   2.323   4.886  0.0495 -0.0018 -0.5508
 1397SOL    HW115824   1.634   2.326   4.862  0.2082  1.0891 -1.0346
 1397SOL    HW215825   1.751   2.249   4.831  3.1820 -0.3759  1.3536
 1398SOL     OW15826   2.743   1.312  10.440 -0.1405  0.1821 -0.2103
 1398SOL    HW115827   2.658   1.356  10.432 -1.0773 -1.8350 -1.2757
 1398SOL    HW215828   2.797   1.383  10.476  0.0822  0.4146 -1.0097
 1399SOL     OW15829   0.987   3.290   4.989  0.2336 -0.2067  0.7211
 1399SOL    HW115830   0.965   3.201   4.960  0.3663 -0.0572  0.1615
 1399SOL    HW215831   1.017   3.332   4.908  2.1539 -0.4427  1.3051
 1400SOL     OW15832   3.482   3.330   2.835  0.8532  0.0938  0.0549
 1400SOL    HW115833   3.510   3.239   2.829 -1.4806 -0.6753  1.0585
 1400SOL    HW215834   3.477   3.349   2.741  0.3429  0.8175  0.2311
 1401SOL     OW15835   3.378   4.385   6.304 -0.4057 -0.4705  0.0794
 1401SOL    HW115836   3.342   4.372   6.391  1.9252  0.2318  1.1486
 1401SOL    HW215837   3.340   4.471   6.285 -0.5513 -0.6136 -0.2779
 1402SOL     OW15838   0.010   3.715   2.869  0.3028 -0.3645 -0.6270
 1402SOL    HW115839   0.061   3.776   2.922 -1.2230 -0.6387  1.1807
 1402SOL    HW215840   4.674   3.709   2.929  1.2804 -1.3689  0.4874
 1403SOL     OW15841   2.326   3.219   5.976  0.1941  0.3285 -0.4744
 1403SOL    HW115842   2.264   3.146   5.981  1.4306 -0.6063  1.5112
 1403SOL    HW215843   2.269   3.295   5.971 -0.1762  0.2369  1.9257
 1404SOL     OW15844   1.121   1.985   3.057 -0.0166  0.2067 -0.1228
 1404SOL    HW115845   1.097   1.933   2.981 -0.1110  2.4335 -1.6278
 1404SOL    HW215846   1.047   1.984   3.117 -0.3093 -3.1071 -0.5286
 1405SOL     OW15847   3.545   4.333   6.577 -0.7402  0.7391  0.3777
 1405SOL    HW115848   3.560   4.332   6.672 -2.3624 -1.0601  0.6199
 1405SOL    HW215849   3.450   4.319   6.574 -0.5533 -0.1653 -1.1164
 1406SOL     OW15850   4.600   2.082   4.814 -0.8201  0.2286  0.0318
 1406SOL    HW115851   4.673   2.060   4.871 -0.6792 -1.7483 -0.9034
 1406SOL    HW215852   4.648   2.108   4.735  0.0766  1.0694  0.8657
 1407SOL     OW15853   2.005   1.304   8.618 -0.7587  0.1794  0.2192
 1407SOL    HW115854   2.022   1.261   8.535  0.7759  0.4929  0.3643
 1407SOL    HW215855   2.066   1.265   8.681 -0.7192 -0.6361 -0.3254
 1408SOL     OW15856   2.116   1.391   1.568 -0.0015 -0.1855  0.2441
 1408SOL    HW115857   2.144   1.398   1.476 -0.5689 -3.3774 -0.1531
 1408SOL    HW215858   2.099   1.298   1.581  0.0746 -0.2506 -0.0996
 1409SOL     OW15859   0.808   1.632   0.958 -0.1680 -0.0921 -0.5746
 1409SOL    HW115860   0.742   1.688   0.998 -1.0443 -0.1634 -1.9535
 1409SOL    HW215861   0.850   1.701   0.908  0.6746 -1.6551 -2.0172
 1410SOL     OW15862   3.609   2.174   7.350  0.0920 -0.1453 -0.4869
 1410SOL    HW115863   3.627   2.263   7.379 -1.3463  0.5124 -1.6229
 1410SOL    HW215864   3.676   2.153   7.285 -0.1993  0.6412 -1.0372
 1411SOL     OW15865   3.227   4.490   9.023 -0.7829 -0.8595  0.0236
 1411SOL    HW115866   3.284   4.532   9.087  1.7824 -1.5504 -1.7823
 1411SOL    HW215867   3.287   4.423   8.991 -0.5234  0.4954 -2.3288
 1412SOL     OW15868   3.609   4.221   6.348  0.2040 -0.1317  0.3470
 1412SOL    HW115869   3.583   4.247   6.436  0.2766  0.6497  0.1357
 1412SOL    HW215870   3.544   4.278   6.307  1.8246  0.7077 -1.1068
 1413SOL     OW15871   3.567   1.486   5.150 -0.2776  0.1640 -0.4461
 1413SOL    HW115872   3.485   1.514   5.110  0.0479 -0.0405 -1.2415
 1413SOL    HW215873   3.545   1.527   5.234 -0.8246  1.4736 -1.2356
 1414SOL     OW15874   3.224   2.394   2.594  0.2271 -0.1250 -0.5803
 1414SOL    HW115875   3.182   2.479   2.579  2.4326  0.9189 -0.8845
 1414SOL    HW215876   3.156   2.330   2.611 -0.6748  1.0718  0.3270
 1415SOL     OW15877   4.647   1.067   5.529 -0.6424  0.1996 -0.5054
 1415SOL    HW115878   4.577   1.012   5.495  0.6820 -1.3917 -0.6729
 1415SOL    HW215879   4.677   1.106   5.447 -0.3959  1.2473  0.0721
 1416SOL     OW15880   0.182   3.638   8.772 -0.7562 -0.3063 -0.6463
 1416SOL    HW115881   0.095   3.610   8.743 -0.8687 -1.6368  0.9559
 1416SOL    HW215882   0.171   3.646   8.867  1.9555  1.4177 -0.4762
 1417SOL     OW15883   2.511   0.457  13.520  0.3749 -0.4402  0.0802
 1417SOL    HW115884   2.534   0.532  13.466  1.0817 -0.7957 -0.1227
 1417SOL    HW215885   2.562   0.387  13.477  0.0516  0.6635 -2.0739
 1418SOL     OW15886   2.432   0.726   6.309  0.1335  0.0362 -0.2742
 1418SOL    HW115887   2.347   0.769   6.310  1.2753  2.2849  1.2114
 1418SOL    HW215888   2.481   0.784   6.367 -0.5144  0.0003  0.3055
 1419SOL     OW15889   1.652   0.924   9.592 -0.6251 -0.0123  1.0556
 1419SOL    HW115890   1.679   0.832   9.595 -0.4830  0.0039  0.3598
 1419SOL    HW215891   1.670   0.946   9.683  2.2360 -0.3173  0.5821
 1420SOL     OW15892   2.767   2.198  10.489 -0.4263 -0.6967 -0.5865
 1420SOL    HW115893   2.795   2.121  10.539 -1.2568  0.7741  2.1239
 1420SOL    HW215894   2.851   2.213  10.444 -1.0204  0.3436 -1.3454
 1421SOL     OW15895   0.086   1.229  15.338 -0.2788 -0.3891  0.4193
 1421SOL    HW115896   0.006   1.186  15.306 -0.5252  2.0012 -2.1836
 1421SOL    HW215897   0.064   1.321  15.325 -0.9953 -0.3877  1.6445
 1422SOL     OW15898   4.365   2.402  11.188  0.7975  0.0325 -0.5274
 1422SOL    HW115899   4.370   2.453  11.269 -0.7598  0.8402 -0.9342
 1422SOL    HW215900   4.386   2.461  11.116  0.3336  0.6520 -0.1525
 1423SOL     OW15901   0.283   3.603   8.519 -0.1040 -0.8357  0.6919
 1423SOL    HW115902   0.235   3.604   8.602 -0.3208  0.1206  0.5539
 1423SOL    HW215903   0.326   3.518   8.530  0.5208 -0.3832  1.7243
 1424SOL     OW15904   3.357   4.035   6.371  0.0759  0.1873 -0.1966
 1424SOL    HW115905   3.419   4.108   6.367 -0.3867  0.6697  1.4494
 1424SOL    HW215906   3.280   4.059   6.320 -1.5895 -0.8385  1.8668
 1425SOL     OW15907   2.682   0.874   9.075  0.5324 -0.0989  0.6341
 1425SOL    HW115908   2.648   0.805   9.019  0.2680  0.4392  0.1319
 1425SOL    HW215909   2.723   0.815   9.138  2.0055 -0.2825 -0.5065
 1426SOL     OW15910   2.796   2.831   3.187  0.3450  0.0604  0.0836
 1426SOL    HW115911   2.887   2.800   3.181 -0.4259 -1.8038 -1.7574
 1426SOL    HW215912   2.738   2.759   3.162 -0.1930  0.5929 -0.1985
 1427SOL     OW15913   1.994   3.172   2.370  0.8010 -0.2687 -0.0687
 1427SOL    HW115914   2.068   3.223   2.336  0.7882 -0.8265 -0.9371
 1427SOL    HW215915   2.013   3.158   2.463 -0.9295  1.5006  0.5722
 1428SOL     OW15916   1.750   3.698   4.123  0.6988  0.0315  0.2048
 1428SOL    HW115917   1.841   3.725   4.114  1.0004  0.2350  3.8417
 1428SOL    HW215918   1.705   3.781   4.110 -1.5925 -1.5150 -1.6447
 1429SOL     OW15919   3.553   2.075   8.297 -0.2300 -0.1290  0.2036
 1429SOL    HW115920   3.483   2.115   8.348 -0.2704  0.3817 -0.2627
 1429SOL    HW215921   3.511   2.015   8.235  0.3108 -0.8257  0.5073
 1430SOL     OW15922   3.476   3.679  16.741 -0.7643 -0.4270  0.9977
 1430SOL    HW115923   3.557   3.710  16.781 -0.7592  0.6295  0.1565
 1430SOL    HW215924   3.420   3.756  16.751 -0.0539  0.0612  1.1930
 1431SOL     OW15925   4.403   2.415   4.650  0.5791  0.5271  0.0563
 1431SOL    HW115926   4.494   2.390   4.664  0.2779  0.6701  2.3611
 1431SOL    HW215927   4.360   2.337   4.615 -2.6191  1.1936  2.3980
 1432SOL     OW15928   2.893   0.648  14.673 -0.4399  0.2846 -0.2048
 1432SOL    HW115929   2.950   0.716  14.637 -0.7826  0.5318 -0.2871
 1432SOL    HW215930   2.807   0.677  14.643  0.0193  1.0030 -0.8044
 1433SOL     OW15931   4.219   2.032   8.358  0.5382  0.8301 -0.0977
 1433SOL    HW115932   4.298   1.992   8.393  0.5227 -2.1308 -3.4140
 1433SOL    HW215933   4.184   1.959   8.306 -0.6254  1.6777 -0.5042
 1434SOL     OW15934   4.456   2.338   8.193 -0.0000  0.5107 -0.5609
 1434SOL    HW115935   4.518   2.369   8.128  1.2819 -0.5925  0.1324
 1434SOL    HW215936   4.417   2.265   8.145  2.1906 -1.2637  0.3488
 1435SOL     OW15937   2.970   2.120   1.881  0.3106  0.2218 -0.2005
 1435SOL    HW115938   2.876   2.119   1.897  0.1861  0.3034 -0.9576
 1435SOL    HW215939   2.985   2.214   1.866 -0.4747  0.2399 -0.8613
 1436SOL     OW15940   4.728   0.552   9.674  0.7482 -0.1162  0.5693
 1436SOL    HW115941   0.021   0.467   9.707  0.5937  0.4010  2.0422
 1436SOL    HW215942   0.015   0.605   9.749  0.0689  0.7821  0.1712
 1437SOL     OW15943   0.783   2.264   1.277 -0.1720  0.1707  0.4885
 1437SOL    HW115944   0.721   2.236   1.345  0.0988 -0.4131  0.4923
 1437SOL    HW215945   0.819   2.180   1.250 -1.3944 -0.6301  1.3383
 1438SOL     OW15946   4.297   3.993  14.156  0.0011  0.1115  0.1307
 1438SOL    HW115947   4.221   4.052  14.164 -0.3944 -0.3192 -0.4499
 1438SOL    HW215948   4.252   3.917  14.119 -1.7663  0.7958  0.8412
 1439SOL     OW15949   4.287   3.035   2.356 -0.1570 -0.3269 -0.2472
 1439SOL    HW115950   4.345   3.109   2.376 -1.1807 -0.0066  1.4833
 1439SOL    HW215951   4.263   3.003   2.443 -0.0504  0.1399 -0.0488
 1440SOL     OW15952   0.055   3.812  14.825  0.3401 -0.2610 -0.9785
 1440SOL    HW115953   0.104   3.873  14.770 -0.0899  0.2327 -0.8028
 1440SOL    HW215954   4.705   3.837  14.801  0.1682 -0.6248 -0.7207
 1441SOL     OW15955   1.851   4.106   7.269  0.1301 -0.0406 -0.0854
 1441SOL    HW115956   1.766   4.149   7.283  0.7656  0.9869  0.5934
 1441SOL    HW215957   1.867   4.125   7.177  3.3253  0.3185  0.5464
 1442SOL     OW15958   3.060   3.732   9.384 -0.6399 -0.8355  0.6044
 1442SOL    HW115959   3.093   3.775   9.463  0.3788 -1.5019  0.5471
 1442SOL    HW215960   3.012   3.806   9.345  0.3718  0.3830  1.6498
 1443SOL     OW15961   4.411   0.006   6.091  0.1795 -0.1021 -0.9263
 1443SOL    HW115962   4.332   4.710   6.050 -0.2639 -0.1854  0.0017
 1443SOL    HW215963   4.460   4.663   6.095 -0.0266 -0.2359 -1.1465
 1444SOL     OW15964   2.712   2.174   9.167  0.0726 -0.6776 -0.3551
 1444SOL    HW115965   2.626   2.139   9.190  0.0921  0.6180  1.7075
 1444SOL    HW215966   2.725   2.123   9.087  1.2264  1.5465 -1.5880
 1445SOL     OW15967   3.719   1.217   0.863  0.0676  0.3402  0.5546
 1445SOL    HW115968   3.739   1.299   0.908 -2.3981  0.3961  1.5545
 1445SOL    HW215969   3.753   1.150   0.923 -1.6458  0.9153  2.1849
 1446SOL     OW15970   0.101   2.742   0.994  0.2315  0.2645 -0.2357
 1446SOL    HW115971   0.109   2.793   1.074 -1.4230 -0.4791  0.4079
 1446SOL    HW215972   0.191   2.724   0.966  1.0205  2.3539  0.9255
 1447SOL     OW15973   0.924   0.418   4.622 -0.4726 -0.5660 -0.1325
 1447SOL    HW115974   0.835   0.381   4.625  0.1972 -2.0960  1.0360
 1447SOL    HW215975   0.917   0.513   4.620 -0.7496 -0.5694  0.5031
 1448SOL     OW15976   0.002   2.914   4.311  0.5308  0.0152  0.6613
 1448SOL    HW115977   4.670   2.973   4.335  0.2859 -0.1186  0.2747
 1448SOL    HW215978   0.019   2.928   4.217 -0.5931  2.0015  0.7627
 1449SOL     OW15979   4.058   3.768  14.720  0.0014  0.6282  0.4454
 1449SOL    HW115980   4.085   3.734  14.806 -0.1101  0.2258  0.3229
 1449SOL    HW215981   4.143   3.770  14.676 -0.7221 -2.6624 -1.0914
 1450SOL     OW15982   3.917   0.439  11.923 -0.6462  0.4229 -0.2249
 1450SOL    HW115983   3.971   0.397  11.855  1.4460 -0.2581  1.8382
 1450SOL    HW215984   3.931   0.530  11.899 -0.8207  0.5183  0.0370
 1451SOL     OW15985   2.212   0.975   6.410 -0.2607 -0.0353 -0.7840
 1451SOL    HW115986   2.204   0.997   6.317  0.0944  0.3993 -0.7118
 1451SOL    HW215987   2.168   1.046   6.456 -0.7803 -0.1011 -1.1741
 1452SOL     OW15988   3.487   3.649  12.269  0.2043  0.3746  0.1308
 1452SOL    HW115989   3.406   3.634  12.319  0.8157 -0.3911  0.8901
 1452SOL    HW215990   3.554   3.605  12.321  2.2166  2.1086 -0.9703
 1453SOL     OW15991   1.920   0.972   6.271 -0.2024 -0.1932  0.2371
 1453SOL    HW115992   1.883   0.885   6.257  0.2700 -0.3602  0.0179
 1453SOL    HW215993   1.959   0.986   6.184  0.4337  2.3093  0.9237
 1454SOL     OW15994   3.799   1.254  16.084 -0.2574 -0.3557  0.3362
 1454SOL    HW115995   3.853   1.307  16.024  1.5028 -1.6438  0.7820
 1454SOL    HW215996   3.781   1.175  16.033  0.4696 -1.7504  2.2425
 1455SOL     OW15997   0.380   3.878   4.762  0.5247 -0.0298  0.1767
 1455SOL    HW115998   0.467   3.913   4.781  0.9223 -0.1088 -1.5047
 1455SOL    HW215999   0.380   3.805   4.824 -2.6056 -0.3381 -0.1604
 1456SOL     OW16000   0.047   2.617  12.914  0.1635  0.0072  0.3431
 1456SOL    HW116001   4.731   2.576  12.981  1.0421  0.2287  1.2016
 1456SOL    HW216002   0.073   2.703  12.947  0.0827  0.7830 -1.6420
 1457SOL     OW16003   2.942   4.653   9.545 -0.5266  0.3398 -0.2216
 1457SOL    HW116004   2.923   4.601   9.623  1.8071  3.0959  2.1401
 1457SOL    HW216005   2.888   4.607   9.479 -0.5377 -0.7943  0.5782
 1458SOL     OW16006   3.192   4.687   1.997 -0.3893 -0.1336  0.5748
 1458SOL    HW116007   3.144   4.699   1.915  2.5099  0.5697 -1.0646
 1458SOL    HW216008   3.172   4.597   2.022  0.1502  0.0804  1.7635
 1459SOL     OW16009   2.423   3.015   3.502  0.1987 -0.3861 -0.4888
 1459SOL    HW116010   2.438   3.033   3.409  1.1389  0.3393 -0.1995
 1459SOL    HW216011   2.476   3.086   3.539  0.9309 -1.2203  0.0460
 1460SOL     OW16012   1.863   4.103   8.152 -0.1430 -0.1300 -0.4118
 1460SOL    HW116013   1.929   4.036   8.172  1.3960  1.2488 -0.9348
 1460SOL    HW216014   1.789   4.057   8.112  0.0557 -0.3252 -0.5561
 1461SOL     OW16015   1.096   1.395  12.488  0.0867  0.2064  0.2587
 1461SOL    HW116016   1.144   1.342  12.552 -0.1945 -1.0471 -0.5767
 1461SOL    HW216017   1.059   1.470  12.535 -1.1482  0.1926 -0.6742
 1462SOL     OW16018   2.956   3.814  17.283  0.6479  0.2394  0.1813
 1462SOL    HW116019   2.876   3.806  17.232  0.1677 -0.9998  1.1266
 1462SOL    HW216020   2.921   3.772  17.362  4.2720 -0.5605  1.3672
 1463SOL     OW16021   3.215   1.667   6.347 -0.6958  0.1047  0.1320
 1463SOL    HW116022   3.270   1.685   6.270 -0.1329 -2.4970 -0.0814
 1463SOL    HW216023   3.192   1.758   6.364 -0.0661 -0.2552  2.8608
 1464SOL     OW16024   2.689   2.379  14.518  0.4930  0.4447  0.4724
 1464SOL    HW116025   2.643   2.461  14.499  0.6913  0.3217 -0.5438
 1464SOL    HW216026   2.700   2.347  14.428  1.0628  1.3641  0.2122
 1465SOL     OW16027   4.060   4.166  11.369  0.3168 -0.6468 -0.2218
 1465SOL    HW116028   4.057   4.242  11.311  0.2721 -0.4952 -0.0187
 1465SOL    HW216029   4.042   4.206  11.454 -0.6561 -0.9366 -0.2984
 1466SOL     OW16030   0.720   1.941   5.149 -0.4812  0.1477 -0.0651
 1466SOL    HW116031   0.746   1.860   5.105 -3.1896 -1.2852  0.9608
 1466SOL    HW216032   0.668   1.903   5.220 -0.4809 -1.4218 -0.8895
 1467SOL     OW16033   0.631   3.491   4.236 -0.1792  0.4743 -0.2947
 1467SOL    HW116034   0.540   3.521   4.231 -0.6686 -0.9798  0.0177
 1467SOL    HW216035   0.664   3.542   4.310  0.0537  1.1720 -0.8807
 1468SOL     OW16036   3.841   2.201   2.262  0.0527 -0.0041 -0.2112
 1468SOL    HW116037   3.886   2.275   2.301  1.4626 -2.4362  2.8140
 1468SOL    HW216038   3.757   2.238   2.234 -0.0364  0.2430  0.3894
 1469SOL     OW16039   2.865   3.456   1.655  0.4499 -0.8726 -0.0695
 1469SOL    HW116040   2.916   3.380   1.627  2.4549  0.3472  0.2867
 1469SOL    HW216041   2.812   3.427   1.728  2.5130  0.1984  1.8542
 1470SOL     OW16042   2.408   1.587   6.671 -0.1351  0.4070  0.2303
 1470SOL    HW116043   2.474   1.524   6.642 -0.9851 -0.2782 -0.2130
 1470SOL    HW216044   2.328   1.535   6.677  0.8631 -0.8728  2.3717
 1471SOL     OW16045   2.925   2.081   3.113 -0.5549  0.3602 -0.1570
 1471SOL    HW116046   2.931   2.176   3.127 -0.7904  0.1666  1.3181
 1471SOL    HW216047   3.005   2.067   3.062 -1.9275  1.1063 -2.4849
 1472SOL     OW16048   2.593   0.575   6.165 -0.2633  0.1973 -0.7104
 1472SOL    HW116049   2.515   0.601   6.213  0.2094  0.9385 -0.3372
 1472SOL    HW216050   2.626   0.661   6.138 -0.2667  0.6169  0.5914
 1473SOL     OW16051   2.301   0.357   4.664  0.0206 -0.3478 -0.6478
 1473SOL    HW116052   2.240   0.352   4.737 -0.1585 -1.3440 -0.8723
 1473SOL    HW216053   2.243   0.384   4.592 -0.3958 -2.6694 -1.1805
 1474SOL     OW16054   1.922   1.597   9.064 -0.2835  0.6323 -0.1419
 1474SOL    HW116055   1.994   1.657   9.044  0.2625 -0.6715 -2.1214
 1474SOL    HW216056   1.973   1.518   9.077  0.5254  1.1245 -0.3128
 1475SOL     OW16057   1.996   2.606  12.422  0.1002  0.4751  0.2557
 1475SOL    HW116058   1.957   2.662  12.489 -3.7809 -1.1662 -0.5913
 1475SOL    HW216059   2.079   2.651  12.406  0.9383 -0.4928  1.8684
 1476SOL     OW16060   2.912   0.243   6.772 -0.6405  0.0720 -0.1542
 1476SOL    HW116061   2.889   0.184   6.700  1.7300 -1.0572  0.0135
 1476SOL    HW216062   2.867   0.320   6.738  0.3483  0.7906  0.1496
 1477SOL     OW16063   0.389   2.376   6.322  0.5951 -0.4490  0.4354
 1477SOL    HW116064   0.375   2.283   6.340 -2.3832 -0.1000 -0.0254
 1477SOL    HW216065   0.478   2.387   6.287  0.8412  0.4967  1.3691
 1478SOL     OW16066   2.378   2.664  10.127  0.1417 -0.4220 -0.3321
 1478SOL    HW116067   2.380   2.652  10.032 -1.3615 -0.7061 -0.3372
 1478SOL    HW216068   2.471   2.663  10.146  0.2986  1.8809 -0.8671
 1479SOL     OW16069   4.487   3.431   1.128 -0.2175  0.4551  0.0851
 1479SOL    HW116070   4.480   3.443   1.223 -2.9525 -0.6040  0.0130
 1479SOL    HW216071   4.568   3.381   1.121 -0.3806  0.2938 -0.5909
 1480SOL     OW16072   3.306   4.318   1.848 -0.0377  0.1240 -0.3943
 1480SOL    HW116073   3.231   4.276   1.889 -0.6930 -0.4264 -2.1705
 1480SOL    HW216074   3.267   4.352   1.768 -0.6798 -1.3173 -0.6965
 1481SOL     OW16075   1.798   1.002  16.471  0.3159 -0.3812 -0.3797
 1481SOL    HW116076   1.880   0.970  16.433  2.2715  1.7240  2.0874
 1481SOL    HW216077   1.782   0.926  16.526 -0.2743  0.6716  0.8986
 1482SOL     OW16078   0.035   1.824  16.395 -0.4481  0.2254 -0.3150
 1482SOL    HW116079   0.072   1.899  16.442 -0.2196 -0.4861  0.6622
 1482SOL    HW216080   0.098   1.800  16.327 -0.1029  1.5703 -0.4570
 1483SOL     OW16081   0.633   1.437   2.625 -0.0014  0.2563  0.1721
 1483SOL    HW116082   0.601   1.393   2.703  0.6802 -0.5393  0.0004
 1483SOL    HW216083   0.647   1.370   2.558 -0.3903  0.4327 -0.0894
 1484SOL     OW16084   0.432   1.024   1.379 -0.5350  0.5885  0.2788
 1484SOL    HW116085   0.407   0.952   1.322 -1.3695  1.0369  0.0629
 1484SOL    HW216086   0.388   1.096   1.333  0.6096  0.6810 -0.6625
 1485SOL     OW16087   0.570   1.064   8.894 -0.2675  0.1723  0.3933
 1485SOL    HW116088   0.540   1.126   8.961  0.8848  1.1039  0.0379
 1485SOL    HW216089   0.490   1.011   8.896  0.0032 -0.2285  0.5115
 1486SOL     OW16090   1.369   2.613  12.712 -0.1770  0.0199 -0.7749
 1486SOL    HW116091   1.313   2.587  12.786 -0.5519  0.7777 -0.7932
 1486SOL    HW216092   1.302   2.614  12.643 -0.2825  1.7866 -0.6381
 1487SOL     OW16093   4.641   0.502  13.450 -0.2339 -0.3283 -0.3547
 1487SOL    HW116094   4.564   0.450  13.474  0.2382 -0.8611  0.0088
 1487SOL    HW216095   4.642   0.487  13.355 -1.3484  2.0168 -0.7482
 1488SOL     OW16096   3.251   0.535   2.444  0.0956 -0.0180  0.4512
 1488SOL    HW116097   3.237   0.445   2.414  1.2387  0.3196 -1.1071
 1488SOL    HW216098   3.255   0.586   2.363 -2.7162 -1.7552 -0.7717
 1489SOL     OW16099   1.357   1.775   1.092  0.3461 -0.6569  0.4206
 1489SOL    HW116100   1.446   1.744   1.107 -0.0490 -1.5420  0.9321
 1489SOL    HW216101   1.376   1.845   1.030 -1.6929 -0.2056  0.2816
 1490SOL     OW16102   2.199   4.678   6.395  0.1321 -0.3857 -0.7477
 1490SOL    HW116103   2.158   4.646   6.315 -1.8563  0.4055 -0.0683
 1490SOL    HW216104   2.129   4.731   6.434  0.8263  0.2279 -0.3433
 1491SOL     OW16105   4.096   3.286   1.889  0.1871 -0.5385 -0.2912
 1491SOL    HW116106   4.167   3.259   1.832  1.6191 -1.9669  2.1719
 1491SOL    HW216107   4.124   3.377   1.889  1.1150 -0.8238 -0.3117
 1492SOL     OW16108   0.961   3.828   6.116  0.1532  0.1962  0.0322
 1492SOL    HW116109   0.956   3.746   6.164  0.0819 -2.0203 -3.7451
 1492SOL    HW216110   0.888   3.879   6.150  1.1071  0.9004  1.0258
 1493SOL     OW16111   2.531   1.181  15.425  0.1008  0.4111  0.1898
 1493SOL    HW116112   2.506   1.257  15.477 -2.0570  0.2704 -0.6198
 1493SOL    HW216113   2.602   1.143  15.476 -0.5599 -2.5631 -1.1057
 1494SOL     OW16114   2.773   0.704  16.054  0.2883 -0.6314 -0.0260
 1494SOL    HW116115   2.722   0.644  16.109 -1.2515  0.1856 -0.5408
 1494SOL    HW216116   2.753   0.659  15.972 -1.7422  0.2139 -0.0158
 1495SOL     OW16117   2.082   4.651   2.196 -0.0395  0.3363  0.2635
 1495SOL    HW116118   2.106   4.712   2.126  1.7027  0.1572  0.6894
 1495SOL    HW216119   2.113   4.702   2.271 -1.6751 -1.4326  2.1382
 1496SOL     OW16120   2.081   1.181   8.393  0.1446  0.1087 -0.1926
 1496SOL    HW116121   2.096   1.184   8.298  3.9199  0.5243  0.4274
 1496SOL    HW216122   2.125   1.098   8.410  0.9245  0.6475  0.4309
 1497SOL     OW16123   0.642   2.838  11.103  0.3003  0.0182  0.1282
 1497SOL    HW116124   0.678   2.919  11.068 -1.4195  0.3023 -0.9769
 1497SOL    HW216125   0.690   2.775  11.048 -1.1886  0.8484 -2.1107
 1498SOL     OW16126   2.637   0.553   0.894  0.1730 -0.1398  0.0742
 1498SOL    HW116127   2.608   0.599   0.972 -1.4100 -1.8391  0.4856
 1498SOL    HW216128   2.721   0.597   0.880 -1.3109  2.8984  0.8609
 1499SOL     OW16129   0.249   1.856  11.403 -0.1455  0.9533 -0.1518
 1499SOL    HW116130   0.190   1.831  11.331 -0.8154  0.9608  0.3995
 1499SOL    HW216131   0.215   1.944  11.423 -0.9971  0.9270 -1.4363
 1500SOL     OW16132   0.699   3.712   7.530 -0.1612 -0.0305  0.4090
 1500SOL    HW116133   0.773   3.654   7.548  1.9750  1.5502 -3.3642
 1500SOL    HW216134   0.692   3.686   7.438 -0.6401  4.2756 -0.7581
 1501SOL     OW16135   3.887   3.506   3.193 -0.2500  1.0005 -0.6604
 1501SOL    HW116136   3.876   3.598   3.219 -3.6555  1.3064 -3.2920
 1501SOL    HW216137   3.840   3.503   3.110 -0.6360 -1.0467 -0.3519
 1502SOL     OW16138   1.791   3.862   6.388  0.0079 -0.2652  0.1098
 1502SOL    HW116139   1.725   3.882   6.455 -2.2288 -1.9433 -1.5836
 1502SOL    HW216140   1.871   3.861   6.440  1.0829 -1.8672 -1.5941
 1503SOL     OW16141   3.814   0.716   9.789  0.1769 -0.3364 -0.0341
 1503SOL    HW116142   3.894   0.749   9.749  0.2933  0.5979  0.9496
 1503SOL    HW216143   3.809   0.628   9.752 -1.2360  1.5157 -4.1339
 1504SOL     OW16144   3.423   1.335   8.055  0.5812  0.7122 -0.1583
 1504SOL    HW116145   3.515   1.354   8.041  0.7114 -0.0837 -0.3730
 1504SOL    HW216146   3.383   1.356   7.971  1.0763  0.4887 -0.4475
 1505SOL     OW16147   0.749   3.962   7.290  0.4104 -0.2071 -0.0444
 1505SOL    HW116148   0.787   3.925   7.210  1.0418  0.5706 -0.1020
 1505SOL    HW216149   0.821   3.958   7.352 -0.0627 -0.1173  0.5090
 1506SOL     OW16150   4.027   0.290   3.877  0.1495  0.3197  0.1920
 1506SOL    HW116151   4.084   0.366   3.875  0.3979  0.1041 -1.0020
 1506SOL    HW216152   4.082   0.226   3.921 -2.1353 -1.5680  0.3170
 1507SOL     OW16153   0.802   3.783   7.062  0.3598  0.2859 -0.2261
 1507SOL    HW116154   0.778   3.747   6.976  0.6506 -1.6905  0.5097
 1507SOL    HW216155   0.895   3.794   7.043  0.8713 -1.3493  1.3246
 1508SOL     OW16156   1.258   0.373   0.578 -0.1728 -0.0175 -0.1688
 1508SOL    HW116157   1.282   0.280   0.576 -2.8698 -0.7019 -0.3125
 1508SOL    HW216158   1.336   0.415   0.614  1.4176 -2.4987 -0.7138
 1509SOL     OW16159   3.893   2.492   9.270 -0.3131  0.0416  0.2959
 1509SOL    HW116160   3.886   2.489   9.366 -0.4407  0.0455  0.2859
 1509SOL    HW216161   3.989   2.489   9.266 -0.3206 -0.7423  0.5621
 1510SOL     OW16162   2.076   1.926  14.924  0.3202  0.2687  0.5340
 1510SOL    HW116163   2.125   1.980  14.863 -1.6228 -1.8779 -2.9460
 1510SOL    HW216164   2.110   1.949  15.010 -2.1207 -0.5489  1.7101
 1511SOL     OW16165   2.761   1.189   5.567 -0.0098 -0.1344 -0.3484
 1511SOL    HW116166   2.812   1.245   5.508 -0.5227  0.8170  0.1137
 1511SOL    HW216167   2.830   1.156   5.623 -0.8346 -0.0536  0.7093
 1512SOL     OW16168   1.418   4.500  13.254 -0.5562 -0.0322  0.6312
 1512SOL    HW116169   1.414   4.588  13.292 -2.0906  0.2680 -0.2337
 1512SOL    HW216170   1.362   4.519  13.179 -0.3843 -1.5664  0.1121
 1513SOL     OW16171   2.376   1.912   4.920  0.3482  0.4282 -0.3637
 1513SOL    HW116172   2.322   1.857   4.977  0.7908  1.9147  1.5128
 1513SOL    HW216173   2.445   1.932   4.983 -0.7640 -0.8920  1.2805
 1514SOL     OW16174   3.421   2.129   2.088  0.0554 -0.1261  0.3032
 1514SOL    HW116175   3.368   2.079   2.150  2.3714 -2.2580  0.5615
 1514SOL    HW216176   3.506   2.085   2.082  0.4288  0.7711 -1.0157
 1515SOL     OW16177   4.558   1.278   1.839 -0.1054 -0.4954 -0.1445
 1515SOL    HW116178   4.482   1.299   1.894 -0.1678  0.1558 -0.4787
 1515SOL    HW216179   4.584   1.201   1.889 -1.9591 -1.3759 -0.5079
 1516SOL     OW16180   3.212   1.243   1.785  0.7206 -0.0581  0.0004
 1516SOL    HW116181   3.166   1.322   1.758  3.1044  1.7640  1.2093
 1516SOL    HW216182   3.291   1.278   1.827  0.5885  1.2178 -0.8416
 1517SOL     OW16183   4.392   3.636   5.399  0.1985  0.4255 -0.5272
 1517SOL    HW116184   4.384   3.731   5.406 -0.3460  0.2866  0.7092
 1517SOL    HW216185   4.324   3.631   5.331 -1.2171  3.0625  0.6992
 1518SOL     OW16186   2.574   4.213   7.248  0.0280 -0.4754 -0.3477
 1518SOL    HW116187   2.558   4.251   7.335 -0.9759 -4.3449  1.2025
 1518SOL    HW216188   2.487   4.216   7.207 -0.8495  1.2017  1.6214
 1519SOL     OW16189   3.005   1.977   2.144 -0.1474 -0.7430  0.0466
 1519SOL    HW116190   2.920   2.011   2.170  0.8751  0.4563  1.8016
 1519SOL    HW216191   3.026   2.024   2.063 -1.7014  0.2319  0.2122
 1520SOL     OW16192   0.244   4.105   9.421 -0.2252 -0.1585 -0.4390
 1520SOL    HW116193   0.245   4.071   9.510 -1.2275 -0.4529 -0.5410
 1520SOL    HW216194   0.159   4.150   9.420  0.2838  0.7902 -1.9990
 1521SOL     OW16195   1.991   0.142  16.773  0.5171 -0.6647  0.2349
 1521SOL    HW116196   1.976   0.147  16.679  1.3337 -1.4748  0.0616
 1521SOL    HW216197   2.045   0.063  16.777  0.8002 -0.3873  1.8666
 1522SOL     OW16198   4.601   0.520   8.042 -0.0546  0.3068  0.3293
 1522SOL    HW116199   4.550   0.529   8.122 -2.0885  2.6354 -1.2311
 1522SOL    HW216200   4.630   0.609   8.022 -1.4621  0.7217  0.1462
 1523SOL     OW16201   3.422   1.350   3.188 -0.6673 -0.2049 -0.0971
 1523SOL    HW116202   3.414   1.403   3.108 -1.7210  1.4874  1.1403
 1523SOL    HW216203   3.482   1.285   3.152 -1.3943  0.8246 -3.2394
 1524SOL     OW16204   1.184   0.971   6.575  0.1290 -0.3666  0.3154
 1524SOL    HW116205   1.174   0.884   6.535 -1.4282  0.3244 -0.7862
 1524SOL    HW216206   1.160   1.034   6.507 -0.9891 -2.4114 -1.1817
 1525SOL     OW16207   3.058   0.639   6.197 -0.2374 -0.9219 -0.1678
 1525SOL    HW116208   3.081   0.593   6.278  1.7783  1.4492  0.5862
 1525SOL    HW216209   3.065   0.576   6.125  1.0841 -1.1016  0.1105
 1526SOL     OW16210   2.008   3.382   2.093 -0.4281 -0.0824  0.3868
 1526SOL    HW116211   2.041   3.305   2.045 -1.5809  0.0392 -0.6150
 1526SOL    HW216212   1.983   3.441   2.022  0.4642  0.1863  0.2973
 1527SOL     OW16213   4.205   4.109   9.153  0.3093  0.1143  0.5059
 1527SOL    HW116214   4.245   4.194   9.171 -0.4550  1.0067 -1.9637
 1527SOL    HW216215   4.265   4.041   9.185  0.0954  0.1848  1.0595
 1528SOL     OW16216   2.710   0.002   6.810  0.1337  0.1792 -0.2112
 1528SOL    HW116217   2.702   0.041   6.897 -0.8412 -1.9964  0.6523
 1528SOL    HW216218   2.651   0.058   6.760  1.0607  0.4585 -1.0109
 1529SOL     OW16219   0.389   4.566   1.498  0.9542 -0.1580 -0.4335
 1529SOL    HW116220   0.299   4.575   1.529  0.2235  0.6119 -2.7569
 1529SOL    HW216221   0.435   4.556   1.581 -0.6324 -0.5141  0.4209
 1530SOL     OW16222   0.517   1.037  11.057 -0.0465  0.4087 -0.2207
 1530SOL    HW116223   0.590   1.078  11.104  0.4230 -0.9274  0.2100
 1530SOL    HW216224   0.568   0.993  10.989  1.1904  1.6017 -0.0840
 1531SOL     OW16225   4.671   4.107   8.568 -0.1820 -0.0175 -0.4597
 1531SOL    HW116226   4.738   4.168   8.600 -0.1846 -0.7365  0.9039
 1531SOL    HW216227   4.597   4.168   8.565  1.9138  2.6080  0.9218
 1532SOL     OW16228   3.650   3.335   8.625 -0.5707  0.1984 -0.6631
 1532SOL    HW116229   3.661   3.240   8.623  0.4682  0.2979  0.1106
 1532SOL    HW216230   3.581   3.342   8.559 -1.8387  2.1033  0.8435
 1533SOL     OW16231   1.132   2.035   7.774  0.1474  0.1430  0.3062
 1533SOL    HW116232   1.210   2.085   7.750  0.4366  1.4041  3.7655
 1533SOL    HW216233   1.171   1.948   7.788 -1.1110 -0.1275  2.1945
 1534SOL     OW16234   1.086   1.152   9.627  0.3398  0.5190  0.0961
 1534SOL    HW116235   1.133   1.167   9.545 -1.1669  0.4235 -0.7919
 1534SOL    HW216236   1.135   1.193   9.697 -0.0166  2.4932 -0.8127
 1535SOL     OW16237   0.109   0.940   6.514 -0.2707  0.4388 -0.4491
 1535SOL    HW116238   0.022   0.900   6.519 -0.8974  1.6820 -1.2856
 1535SOL    HW216239   0.169   0.869   6.492  0.9271  0.9874  1.0691
 1536SOL     OW16240   4.347   2.488   7.823 -0.0739 -0.3806  0.3802
 1536SOL    HW116241   4.421   2.506   7.765 -0.2380 -1.6544 -0.2239
 1536SOL    HW216242   4.321   2.401   7.795 -0.1903 -0.7915  1.7425
 1537SOL     OW16243   4.383   3.960   8.026 -0.5664  0.0418 -0.7080
 1537SOL    HW116244   4.300   3.956   8.073 -1.5401 -2.1309 -2.6486
 1537SOL    HW216245   4.445   3.976   8.098 -1.5486 -2.2648  0.6606
 1538SOL     OW16246   1.480   4.373   8.706  0.1931 -0.1008 -0.6313
 1538SOL    HW116247   1.555   4.430   8.723 -0.2138 -0.2849  1.7671
 1538SOL    HW216248   1.502   4.314   8.779 -0.8663  0.6424  0.2907
 1539SOL     OW16249   1.955   0.590   5.281  0.1239 -0.5838 -0.6385
 1539SOL    HW116250   1.915   0.540   5.352  0.7908 -0.3891 -0.1216
 1539SOL    HW216251   2.027   0.635   5.327  1.2529  0.1779 -3.1296
 1540SOL     OW16252   1.293   1.726  11.356  0.0608 -0.1425 -0.1914
 1540SOL    HW116253   1.361   1.685  11.303  2.2753  2.4055  0.6373
 1540SOL    HW216254   1.257   1.799  11.304 -2.0460  0.2188  1.8236
 1541SOL     OW16255   4.077   3.781   4.762  0.8014 -0.1055 -0.4955
 1541SOL    HW116256   3.995   3.820   4.793  0.5479  0.2413 -1.5966
 1541SOL    HW216257   4.129   3.803   4.840 -2.0569  1.5463  0.9392
 1542SOL     OW16258   2.502   0.267  10.218  0.3550  0.9782  0.8115
 1542SOL    HW116259   2.590   0.244  10.247 -0.0294 -2.9523 -1.0165
 1542SOL    HW216260   2.441   0.217  10.273  2.2006 -0.4230  1.5714
 1543SOL     OW16261   3.719   3.813  17.427  0.2995 -0.0929 -0.3296
 1543SOL    HW116262   3.640   3.779  17.470  0.7772 -1.6823 -0.7150
 1543SOL    HW216263   3.766   3.739  17.390 -0.0510 -0.4886  0.0097
 1544SOL     OW16264   1.029   0.587   2.224  0.5841 -0.1948 -0.3685
 1544SOL    HW116265   1.085   0.535   2.281  2.7855  1.6157 -0.8698
 1544SOL    HW216266   1.051   0.544   2.142  2.9553 -3.4262  1.9914
 1545SOL     OW16267   0.195   2.259   8.148  0.2571 -0.9466 -0.0243
 1545SOL    HW116268   0.249   2.275   8.225 -0.6775 -1.3521  0.7126
 1545SOL    HW216269   0.195   2.163   8.148 -1.3346 -0.9504 -0.4902
 1546SOL     OW16270   4.326   3.597   8.185  0.4940 -0.6023 -0.2273
 1546SOL    HW116271   4.371   3.521   8.223 -2.2288 -2.0908  0.0830
 1546SOL    HW216272   4.361   3.666   8.241  0.5045 -1.2245  0.5288
 1547SOL     OW16273   3.740   0.919  11.056  0.3527  0.1253 -0.2364
 1547SOL    HW116274   3.785   0.996  11.022  0.6418  0.5798  1.2142
 1547SOL    HW216275   3.647   0.933  11.037  0.5380  0.9736 -0.5286
 1548SOL     OW16276   4.321   1.042   6.945  0.5685 -0.4000  0.3234
 1548SOL    HW116277   4.416   1.035   6.952  0.6159 -0.7423 -0.7748
 1548SOL    HW216278   4.303   1.088   7.028  1.6821 -1.2219  1.0161
 1549SOL     OW16279   2.705   1.581   3.353  0.1639  0.3608 -0.1959
 1549SOL    HW116280   2.726   1.508   3.296 -0.8110 -0.5762  0.6602
 1549SOL    HW216281   2.792   1.590   3.392 -0.3487  1.7940  0.6362
 1550SOL     OW16282   3.762   3.509   2.550  0.0665 -0.0374  0.2681
 1550SOL    HW116283   3.761   3.456   2.471  1.8300  1.2565 -0.6263
 1550SOL    HW216284   3.811   3.449   2.606  0.3693 -0.1285 -0.0941
 1551SOL     OW16285   2.652   1.209  15.007  0.1905 -0.7344 -0.0614
 1551SOL    HW116286   2.689   1.294  14.983 -0.1178 -0.4514  0.4735
 1551SOL    HW216287   2.593   1.197  14.932 -2.3485 -2.1446  2.1854
 1552SOL     OW16288   4.310   1.698   8.001  0.5311 -0.2118  0.2975
 1552SOL    HW116289   4.317   1.620   7.946 -1.7367 -0.2325  0.0325
 1552SOL    HW216290   4.324   1.764   7.933  1.7076 -0.7944 -0.0282
 1553SOL     OW16291   2.270   2.937   5.753  0.0223  0.0255 -0.0626
 1553SOL    HW116292   2.365   2.948   5.750  0.0285 -0.4669 -1.6677
 1553SOL    HW216293   2.252   2.898   5.839 -2.3611  0.0098 -0.5796
 1554SOL     OW16294   4.145   0.187   8.292 -0.0139  0.6947  0.5230
 1554SOL    HW116295   4.193   0.128   8.234  1.5207  0.3784  2.1342
 1554SOL    HW216296   4.131   0.262   8.234  0.1067 -1.1848 -1.9578
 1555SOL     OW16297   3.454   1.917   2.780  0.5621  0.4225  0.4114
 1555SOL    HW116298   3.392   1.973   2.732 -1.3623 -2.0409  0.0347
 1555SOL    HW216299   3.535   1.928   2.730 -1.0639  2.0426 -1.8865
 1556SOL     OW16300   1.380   1.049   9.960 -0.2882  0.2654  0.1369
 1556SOL    HW116301   1.366   1.051   9.865 -0.2691  0.1085  0.1316
 1556SOL    HW216302   1.470   1.023   9.976 -1.1443 -2.8023  0.0212
 1557SOL     OW16303   3.515   1.558  13.713 -0.5018  0.5301  0.0306
 1557SOL    HW116304   3.543   1.611  13.788 -0.4738 -1.5464  1.4955
 1557SOL    HW216305   3.491   1.628  13.653 -1.4101 -0.7461 -1.1152
 1558SOL     OW16306   1.167   0.863   2.811 -0.3213 -0.3770  0.2873
 1558SOL    HW116307   1.093   0.804   2.801  0.0287 -0.9047  0.8458
 1558SOL    HW216308   1.212   0.859   2.727  0.7110 -0.5413  0.8565
 1559SOL     OW16309   2.480   3.011   4.139  0.2964 -0.4609 -0.4308
 1559SOL    HW116310   2.393   3.000   4.100 -0.4181 -0.6646  1.2214
 1559SOL    HW216311   2.530   2.952   4.083 -1.7650 -1.4043 -1.2728
 1560SOL     OW16312   1.205   0.532   5.155 -0.2260  0.3538 -0.2259
 1560SOL    HW116313   1.247   0.449   5.131 -0.5255 -0.1170  0.8608
 1560SOL    HW216314   1.114   0.511   5.136 -0.3772  1.3737 -0.5929
 1561SOL     OW16315   2.771   3.647  11.044 -0.0206 -0.2829 -0.2705
 1561SOL    HW116316   2.723   3.615  10.968 -1.6033 -0.0549  0.6133
 1561SOL    HW216317   2.792   3.560  11.076  1.8912  0.2844  0.0295
 1562SOL     OW16318   3.908   3.920   9.670 -0.2069  0.2459 -0.6113
 1562SOL    HW116319   3.820   3.909   9.633  0.0980  2.3556 -1.9287
 1562SOL    HW216320   3.947   3.980   9.607  1.0498  1.2324  1.1176
 1563SOL     OW16321   0.728   0.310   5.866  0.2303  0.1066  0.3293
 1563SOL    HW116322   0.688   0.263   5.940 -1.1425 -2.3600 -1.9814
 1563SOL    HW216323   0.708   0.399   5.893 -0.3600  1.1865 -3.6785
 1564SOL     OW16324   3.550   3.329   4.254  0.1385 -0.5987 -0.3673
 1564SOL    HW116325   3.581   3.419   4.243 -0.7487 -0.2459  0.0120
 1564SOL    HW216326   3.492   3.331   4.330 -1.1229 -0.3736 -1.3415
 1565SOL     OW16327   0.348   3.973   5.080 -0.2120  0.8803  0.7678
 1565SOL    HW116328   0.423   3.919   5.107  0.1406 -1.1093 -4.2943
 1565SOL    HW216329   0.302   3.903   5.034 -3.0207  2.5228  1.0624
 1566SOL     OW16330   2.063   1.345   5.767  0.0710  0.3072 -0.0167
 1566SOL    HW116331   2.126   1.333   5.838  0.6338  1.1165 -0.3819
 1566SOL    HW216332   1.999   1.277   5.791  0.9957 -1.4988 -2.6116
 1567SOL     OW16333   3.885   3.077  15.473  0.2595 -0.0076 -0.0820
 1567SOL    HW116334   3.972   3.058  15.508  1.0350  0.8698 -1.5185
 1567SOL    HW216335   3.911   3.115  15.389  1.0137 -0.2104  0.0564
 1568SOL     OW16336   3.634   2.793  13.328  0.0706  0.8130 -0.4559
 1568SOL    HW116337   3.730   2.797  13.321 -0.1632  4.3949 -2.0554
 1568SOL    HW216338   3.619   2.699  13.337 -1.8589  0.9396 -2.6883
 1569SOL     OW16339   1.703   3.420  11.028 -0.4892  0.2915 -0.3763
 1569SOL    HW116340   1.619   3.381  11.004  0.7485 -1.8161 -1.2280
 1569SOL    HW216341   1.684   3.446  11.118  0.8525  1.9867 -0.5852
 1570SOL     OW16342   3.269   3.156   6.473  0.1883 -0.2200  0.2676
 1570SOL    HW116343   3.198   3.107   6.430  0.2036  1.8531 -2.1544
 1570SOL    HW216344   3.228   3.204   6.544 -0.7978 -2.2021  1.0480
 1571SOL     OW16345   0.090   0.218   6.592 -0.3389 -0.2999  0.8902
 1571SOL    HW116346   0.099   0.239   6.685 -0.5202 -0.2346  0.8932
 1571SOL    HW216347   0.158   0.151   6.581  0.9715  0.9427  1.4006
 1572SOL     OW16348   4.666   0.174  12.125 -0.2608  0.1380 -0.1212
 1572SOL    HW116349   4.646   0.264  12.148  0.6884 -0.0266  1.3882
 1572SOL    HW216350   4.582   0.150  12.087 -0.9435 -0.6909  1.9120
 1573SOL     OW16351   1.141   4.661   5.093 -0.4883 -0.6236  0.5139
 1573SOL    HW116352   1.144   4.568   5.113 -0.1781 -0.7824 -0.2839
 1573SOL    HW216353   1.226   4.694   5.123 -0.3363 -0.7929  0.2639
 1574SOL     OW16354   2.239   1.588  10.742  0.5859 -0.4285 -0.4947
 1574SOL    HW116355   2.182   1.657  10.775  1.2987 -0.2004  0.2720
 1574SOL    HW216356   2.180   1.514  10.733  1.1914 -1.1722  1.5982
 1575SOL     OW16357   2.095   4.225   3.418 -0.2170 -0.1613  0.0009
 1575SOL    HW116358   2.055   4.247   3.502 -1.6713 -0.5108 -0.5898
 1575SOL    HW216359   2.185   4.255   3.421  0.0033 -0.7967 -0.1361
 1576SOL     OW16360   0.462   0.527   2.593 -0.5637 -0.1191 -0.3837
 1576SOL    HW116361   0.422   0.481   2.519 -0.2581 -1.1894  0.1237
 1576SOL    HW216362   0.550   0.491   2.589 -0.3833  0.4073 -1.1200
 1577SOL     OW16363   1.130   2.890   7.459 -0.2819  0.5067 -0.1390
 1577SOL    HW116364   1.042   2.911   7.491 -0.6170  2.2496 -2.2761
 1577SOL    HW216365   1.188   2.923   7.528  0.3241  2.3721 -1.5558
 1578SOL     OW16366   1.736   1.292   6.677  0.1614  0.8283 -0.2651
 1578SOL    HW116367   1.746   1.225   6.745 -0.3290 -0.2047 -1.1904
 1578SOL    HW216368   1.791   1.252   6.609  0.4110  0.9225 -0.1216
 1579SOL     OW16369   0.071   3.211   7.380 -0.2084  0.0087 -0.2414
 1579SOL    HW116370   0.102   3.138   7.326  1.4574 -0.9441  2.0242
 1579SOL    HW216371   0.095   3.180   7.467  1.6145 -0.0071 -0.7538
 1580SOL     OW16372   4.578   0.173  16.638  0.3486 -0.3122  0.6212
 1580SOL    HW116373   4.512   0.229  16.597 -0.8253 -2.5388 -0.5018
 1580SOL    HW216374   4.631   0.160  16.560  0.7774  1.9166  0.5317
 1581SOL     OW16375   0.617   1.090   4.264 -0.3990 -0.0580  0.4945
 1581SOL    HW116376   0.617   1.005   4.220  1.0447  0.0306  0.3259
 1581SOL    HW216377   0.709   1.089   4.290 -0.1127 -2.8715 -0.6522
 1582SOL     OW16378   2.665   2.001   8.519  0.2494  0.0394  0.4340
 1582SOL    HW116379   2.726   2.053   8.571 -1.1378  0.3022  1.8020
 1582SOL    HW216380   2.675   1.912   8.553  0.8188  0.7761  2.2153
 1583SOL     OW16381   0.508   0.196   0.704 -0.0913 -0.4808 -0.8976
 1583SOL    HW116382   0.596   0.200   0.667  1.1368  0.1568  2.1769
 1583SOL    HW216383   0.464   0.135   0.644 -1.5834 -0.1197 -0.1813
 1584SOL     OW16384   1.188   0.877   2.518  0.0314  0.1307  0.7392
 1584SOL    HW116385   1.167   0.860   2.426 -0.7369 -1.4171  1.2159
 1584SOL    HW216386   1.119   0.940   2.542 -0.2328  0.9373 -2.1469
 1585SOL     OW16387   2.866   3.007   1.804  0.3265 -0.3189  0.2225
 1585SOL    HW116388   2.961   3.018   1.799  0.1042  1.0540 -0.8873
 1585SOL    HW216389   2.859   2.960   1.721 -1.5632  0.9317 -0.3064
 1586SOL     OW16390   3.607   3.825  12.746 -0.2365 -0.4014  0.1340
 1586SOL    HW116391   3.549   3.751  12.724  2.0093 -1.1316 -3.4495
 1586SOL    HW216392   3.685   3.771  12.762 -0.8141 -0.9150  1.2070
 1587SOL     OW16393   2.147   3.548  10.707  0.0221 -0.1097  0.3475
 1587SOL    HW116394   2.197   3.578  10.630 -1.6686  2.5907  0.2833
 1587SOL    HW216395   2.061   3.548  10.666 -0.7381 -1.6284  1.9650
 1588SOL     OW16396   4.112   4.113   7.176  0.2101  0.6945  0.4610
 1588SOL    HW116397   4.142   4.127   7.266 -0.4264 -0.5765  0.8674
 1588SOL    HW216398   4.019   4.107   7.200  0.1614  0.6595  0.2634
 1589SOL     OW16399   1.671   2.048   1.175  0.2680  0.3939  0.1404
 1589SOL    HW116400   1.758   2.088   1.178  1.3656 -1.9409 -0.5625
 1589SOL    HW216401   1.659   2.026   1.268 -1.3506 -2.8543 -0.8459
 1590SOL     OW16402   0.773   3.765   7.800 -0.2148  0.3472  0.4680
 1590SOL    HW116403   0.702   3.735   7.855 -0.6223  0.2739 -0.0951
 1590SOL    HW216404   0.739   3.732   7.717  0.6494 -1.8146  0.9873
 1591SOL     OW16405   0.172   4.428  16.896 -0.1404  0.1759  0.0363
 1591SOL    HW116406   0.116   4.355  16.872 -2.1272  0.5849  3.4041
 1591SOL    HW216407   0.133   4.455  16.979 -1.5875 -1.2781 -0.1850
 1592SOL     OW16408   1.164   2.712   7.978  0.2158 -0.2311  0.5208
 1592SOL    HW116409   1.106   2.668   8.039  0.3960 -3.3506 -1.5223
 1592SOL    HW216410   1.160   2.801   8.014  1.7858  0.4577 -0.9632
 1593SOL     OW16411   4.216   3.529   8.799  0.1018  0.8123 -0.1869
 1593SOL    HW116412   4.128   3.551   8.831  0.3829  0.1272  1.0666
 1593SOL    HW216413   4.220   3.592   8.727 -2.1705  1.3388  0.1437
 1594SOL     OW16414   3.243   3.394   4.407 -0.3878 -0.3304  0.1643
 1594SOL    HW116415   3.276   3.447   4.335 -0.7207  1.1989  1.1256
 1594SOL    HW216416   3.162   3.441   4.427  0.9633  2.9366 -2.0620
 1595SOL     OW16417   1.453   3.020  13.442 -0.6549 -0.1225 -0.0404
 1595SOL    HW116418   1.403   3.013  13.523 -0.3634  0.1684  0.1671
 1595SOL    HW216419   1.544   3.011  13.473 -1.0519 -0.9759  0.8740
 1596SOL     OW16420   2.444   1.084  14.120 -0.4131 -0.1161  0.2192
 1596SOL    HW116421   2.444   1.175  14.148  3.4637  0.4672 -1.7248
 1596SOL    HW216422   2.479   1.094  14.032 -1.2994  0.3772 -0.0753
 1597SOL     OW16423   0.996   0.700  13.414  0.3804  1.0080  0.4816
 1597SOL    HW116424   0.913   0.652  13.422  0.7379  0.8771  3.4711
 1597SOL    HW216425   1.049   0.657  13.481  1.1049  0.4690 -0.4511
 1598SOL     OW16426   3.892   1.806   7.501  0.0873 -0.3318  0.5009
 1598SOL    HW116427   3.824   1.830   7.565  0.6379 -0.2234  1.0497
 1598SOL    HW216428   3.927   1.885   7.461 -3.7216  0.7176 -0.8230
 1599SOL     OW16429   0.930   0.448  14.590 -0.1144  0.6221 -0.5203
 1599SOL    HW116430   0.872   0.523  14.600 -1.5239 -0.5674  0.3112
 1599SOL    HW216431   1.016   0.480  14.561 -0.2712  3.0752  1.6908
 1600SOL     OW16432   0.696   0.575   0.651 -0.3279 -0.2950  0.8441
 1600SOL    HW116433   0.647   0.555   0.571 -0.5409  1.3066  0.5579
 1600SOL    HW216434   0.774   0.522   0.640 -0.2054  0.0497  0.0134
 1601SOL     OW16435   0.229   0.652   8.134  0.2723  0.4935 -0.1150
 1601SOL    HW116436   0.296   0.665   8.202  0.7894 -1.6739 -0.2076
 1601SOL    HW216437   0.284   0.620   8.062 -0.1335 -2.9246  1.0950
 1602SOL     OW16438   4.258   0.079   0.826 -0.2280 -0.3208  0.1543
 1602SOL    HW116439   4.284   0.153   0.881  0.7255 -0.3246 -0.2832
 1602SOL    HW216440   4.166   0.093   0.804  0.0054 -0.0619 -0.6816
 1603SOL     OW16441   1.359   4.127   9.805 -0.4202 -0.0130  0.1158
 1603SOL    HW116442   1.272   4.113   9.841 -1.2791  2.2376 -1.0275
 1603SOL    HW216443   1.406   4.155   9.884  0.0258  0.3831 -0.2859
 1604SOL     OW16444   2.054   4.381   5.086  0.6372  0.4138  0.5444
 1604SOL    HW116445   2.112   4.384   5.162  0.1406  0.9076  0.9029
 1604SOL    HW216446   1.992   4.312   5.110  0.7719  0.3987  0.8414
 1605SOL     OW16447   4.396   0.980   3.954  0.5876 -0.1931 -0.5442
 1605SOL    HW116448   4.435   0.966   3.867 -0.1290 -1.7057 -0.6090
 1605SOL    HW216449   4.451   0.919   4.002  0.0170 -0.0279  0.3221
 1606SOL     OW16450   1.921   2.843   7.043 -0.1661 -0.4281  0.3538
 1606SOL    HW116451   1.896   2.928   7.080  0.5070  0.8558 -2.1555
 1606SOL    HW216452   1.852   2.831   6.978 -0.0724 -0.5847  0.2838
 1607SOL     OW16453   2.659   0.025   2.045  0.0952 -0.4800 -0.1089
 1607SOL    HW116454   2.574   0.040   2.086  0.5206  0.5821  0.3941
 1607SOL    HW216455   2.662   0.106   1.993 -0.3259  0.8018  1.8499
 1608SOL     OW16456   1.226   2.439   4.010 -0.4281 -0.2611 -0.6979
 1608SOL    HW116457   1.218   2.386   4.090 -0.0415  2.2107  0.9677
 1608SOL    HW216458   1.321   2.441   4.000 -0.3516 -0.5370 -0.0258
 1609SOL     OW16459   4.006   2.591   5.822 -0.0793 -0.4070  0.2069
 1609SOL    HW116460   4.088   2.617   5.780 -0.2323  1.0386  0.7661
 1609SOL    HW216461   3.947   2.604   5.748 -2.6139  0.8894  2.4540
 1610SOL     OW16462   2.678   3.725  13.495  0.2916  0.0989 -0.3821
 1610SOL    HW116463   2.594   3.728  13.450  0.8781 -1.4168 -1.6192
 1610SOL    HW216464   2.678   3.808  13.543  2.2565 -0.1199 -0.0059
 1611SOL     OW16465   4.252   2.413   9.215 -0.1381  0.3564 -0.5212
 1611SOL    HW116466   4.249   2.445   9.124 -1.3946  2.2284  0.1708
 1611SOL    HW216467   4.239   2.499   9.256 -0.5618  0.6214 -1.2035
 1612SOL     OW16468   2.190   3.454   4.185  0.2896 -0.1781  0.1993
 1612SOL    HW116469   2.244   3.381   4.156 -0.5209 -1.1555  1.1133
 1612SOL    HW216470   2.228   3.523   4.132  0.8095 -0.3215  0.3903
 1613SOL     OW16471   4.645   0.355   2.312 -0.3079  0.1730  0.3929
 1613SOL    HW116472   4.727   0.388   2.275 -0.4381 -2.0255 -1.8769
 1613SOL    HW216473   4.589   0.367   2.236 -1.3636 -0.1458  1.1201
 1614SOL     OW16474   0.021   1.891   7.411 -0.0557 -0.8388  0.4084
 1614SOL    HW116475   4.730   1.891   7.502  0.8916 -0.7674  0.7259
 1614SOL    HW216476   0.116   1.895   7.423  0.3527 -2.5148 -2.1569
 1615SOL     OW16477   3.019   2.224  10.674  0.3473 -0.1163  0.1451
 1615SOL    HW116478   2.946   2.284  10.690 -0.5208 -1.1192 -0.0339
 1615SOL    HW216479   2.975   2.161  10.616  0.9402 -1.2262  0.9079
 1616SOL     OW16480   4.084   3.958   8.395 -0.6865  0.1182 -0.6429
 1616SOL    HW116481   4.002   3.964   8.445 -0.5750 -1.2165 -0.3007
 1616SOL    HW216482   4.144   4.005   8.453 -0.7623 -0.9315  0.2860
 1617SOL     OW16483   1.026   1.225   1.272 -0.2183  1.3087  0.3714
 1617SOL    HW116484   1.095   1.281   1.308  1.3807 -0.9029  0.7233
 1617SOL    HW216485   0.990   1.183   1.350  1.3355  1.2729  1.0749
 1618SOL     OW16486   3.179   1.030   8.348  0.1893 -0.3683  0.5371
 1618SOL    HW116487   3.268   1.015   8.316 -1.0082 -2.8753 -1.6024
 1618SOL    HW216488   3.147   1.106   8.300  0.6185 -0.0259  0.7949
 1619SOL     OW16489   4.282   4.025   6.514  0.0128  0.0968 -0.5192
 1619SOL    HW116490   4.307   3.949   6.462  2.2634  1.9892 -2.1621
 1619SOL    HW216491   4.204   4.057   6.469  0.1139  0.8931 -0.1305
 1620SOL     OW16492   2.701   4.516   2.128  0.1634  0.3558 -0.1612
 1620SOL    HW116493   2.691   4.588   2.065  1.3695  0.8107  0.1597
 1620SOL    HW216494   2.624   4.530   2.183  0.5476 -1.1500  0.7563
 1621SOL     OW16495   2.800   1.098   7.342 -0.4235 -0.3990  0.0610
 1621SOL    HW116496   2.828   1.149   7.266 -0.5100 -2.2043 -1.1648
 1621SOL    HW216497   2.708   1.074   7.327 -0.1106 -0.7070 -1.3038
 1622SOL     OW16498   2.013   1.060   8.986 -0.4955  0.4856  0.1889
 1622SOL    HW116499   1.932   1.024   8.951 -0.0583 -0.4722  0.1501
 1622SOL    HW216500   2.033   1.004   9.061 -0.8681  1.1978  0.8168
 1623SOL     OW16501   4.692   1.884   4.106 -0.3000  0.0753 -0.0924
 1623SOL    HW116502   0.040   1.886   4.147  0.6089 -1.6993 -1.9078
 1623SOL    HW216503   4.676   1.974   4.078 -0.6694  0.2511  0.6926
 1624SOL     OW16504   2.152   4.648  16.832  0.1515  0.7180 -0.2970
 1624SOL    HW116505   2.183   4.583  16.769 -1.8337 -0.9782  0.4785
 1624SOL    HW216506   2.077   4.598  16.864  1.1045 -1.8955 -2.2198
 1625SOL     OW16507   4.610   3.424  16.913 -0.0473 -0.4764  0.3077
 1625SOL    HW116508   4.603   3.503  16.968 -1.4100 -0.0943 -0.4237
 1625SOL    HW216509   4.545   3.372  16.959 -1.0236  1.7404  1.4594
 1626SOL     OW16510   2.780   1.516   3.784  0.1329 -0.4113  0.3497
 1626SOL    HW116511   2.803   1.604   3.754 -0.6785 -0.5574 -0.6768
 1626SOL    HW216512   2.726   1.477   3.716 -0.8211  1.3950  0.0826
 1627SOL     OW16513   4.227   3.007   2.088  0.2181 -0.0299 -0.1210
 1627SOL    HW116514   4.251   2.920   2.056  0.9304  0.0825  0.0964
 1627SOL    HW216515   4.241   3.014   2.183 -0.4590 -2.5566  0.1489
 1628SOL     OW16516   2.139   2.335   9.203 -0.0624  0.1549  0.1168
 1628SOL    HW116517   2.044   2.346   9.194 -0.0589  0.1295  0.0490
 1628SOL    HW216518   2.136   2.281   9.281  0.9473  1.9855  1.4131
 1629SOL     OW16519   0.223   4.027  14.029 -0.5036 -0.2820  0.0398
 1629SOL    HW116520   0.230   4.040  14.123 -2.2383  1.0401 -0.0052
 1629SOL    HW216521   0.280   4.101  14.012 -0.1713 -0.5011  0.2128
 1630SOL     OW16522   4.671   3.122  13.387 -0.3840  0.0191 -0.0388
 1630SOL    HW116523   4.732   3.086  13.452 -1.4865 -3.0477 -0.7029
 1630SOL    HW216524   4.595   3.073  13.416 -1.3744  1.0665 -0.8595
 1631SOL     OW16525   2.225   1.748   6.373  0.1579 -0.9211  0.1492
 1631SOL    HW116526   2.197   1.666   6.412 -0.4135  0.2791  2.2573
 1631SOL    HW216527   2.303   1.760   6.428  0.0850 -1.1281  0.2944
 1632SOL     OW16528   1.584   2.564  16.044 -0.0816  0.0128  0.1174
 1632SOL    HW116529   1.518   2.598  16.104 -0.4004 -1.0570  0.3650
 1632SOL    HW216530   1.531   2.527  15.973 -3.0168 -0.0281  2.3337
 1633SOL     OW16531   0.424   0.015   3.055  0.2123 -0.4144  0.0212
 1633SOL    HW116532   0.447   4.666   3.024 -1.0507 -0.5572 -0.4736
 1633SOL    HW216533   0.342   4.736   3.101  0.4136 -1.2878  0.0505
 1634SOL     OW16534   1.431   3.997   7.581  0.4263  0.3283 -0.1238
 1634SOL    HW116535   1.519   3.967   7.561  0.1600  0.0997 -0.9757
 1634SOL    HW216536   1.446   4.064   7.648 -1.9634  0.6611  0.0929
 1635SOL     OW16537   2.761   3.900   4.770 -0.0511  0.1135 -0.0659
 1635SOL    HW116538   2.725   3.862   4.850  0.1871 -1.4931 -0.7322
 1635SOL    HW216539   2.736   3.992   4.777 -1.6066 -0.3223  0.0445
 1636SOL     OW16540   2.845   2.516   5.248  0.4558  0.1674 -0.3135
 1636SOL    HW116541   2.872   2.518   5.156  0.0173 -1.1231 -0.4686
 1636SOL    HW216542   2.840   2.610   5.262 -0.6681  0.1978 -0.9391
 1637SOL     OW16543   3.787   1.399   7.228  0.1538  0.1964  0.3024
 1637SOL    HW116544   3.830   1.467   7.280  0.1581 -0.4990  1.1979
 1637SOL    HW216545   3.836   1.407   7.146 -1.6944  1.2489 -0.7062
 1638SOL     OW16546   2.343   0.664   7.548 -0.5149 -0.0534  0.1242
 1638SOL    HW116547   2.297   0.654   7.632  1.8961 -0.7238  1.3745
 1638SOL    HW216548   2.276   0.628   7.490  0.8482 -1.5530 -0.5148
 1639SOL     OW16549   0.994   1.334   5.137 -0.3925  0.5863 -0.2405
 1639SOL    HW116550   0.976   1.242   5.158  1.4378  0.0965 -0.8167
 1639SOL    HW216551   1.088   1.352   5.137 -0.2725 -0.1040 -2.9049
 1640SOL     OW16552   2.709   1.833   7.560  0.3463 -0.0887  0.1566
 1640SOL    HW116553   2.620   1.867   7.570  0.3507 -0.2252  0.6620
 1640SOL    HW216554   2.732   1.805   7.648  2.2515 -2.9531 -1.2490
 1641SOL     OW16555   0.294   3.633  11.183  0.3703  0.6909 -0.6370
 1641SOL    HW116556   0.296   3.537  11.172  1.8867  0.4380  1.6354
 1641SOL    HW216557   0.321   3.641  11.275 -1.5915  0.7236 -0.0747
 1642SOL     OW16558   1.042   4.519   7.631 -0.5087 -0.3610  0.0908
 1642SOL    HW116559   1.006   4.435   7.602  1.4379 -1.3083  0.3955
 1642SOL    HW216560   1.094   4.541   7.554 -1.4812 -2.0140 -1.0328
 1643SOL     OW16561   4.427   2.541   5.909 -0.1109 -0.1442 -0.0810
 1643SOL    HW116562   4.409   2.580   5.994  0.1068 -1.4251  0.5588
 1643SOL    HW216563   4.522   2.550   5.904 -0.1421 -0.8136 -1.8997
 1644SOL     OW16564   4.561   0.025   4.144 -0.6292  0.2013  0.1829
 1644SOL    HW116565   4.578   4.691   4.085 -1.8578 -0.9839  1.2814
 1644SOL    HW216566   4.553   0.096   4.081 -0.9433  0.7529  0.8354
 1645SOL     OW16567   0.331   0.610   0.244  0.8136 -0.3177 -0.3288
 1645SOL    HW116568   0.299   0.698   0.224  1.3709 -0.1322 -0.4135
 1645SOL    HW216569   0.410   0.603   0.189  1.5429 -1.7556  0.8980
 1646SOL     OW16570   1.789   0.464  11.315  0.0594 -0.2342  0.4040
 1646SOL    HW116571   1.708   0.427  11.351 -0.7331  0.0573 -1.0745
 1646SOL    HW216572   1.856   0.429  11.373  0.5612 -1.4959 -0.9463
 1647SOL     OW16573   4.424   4.706   7.062 -0.0850 -0.3660  0.0052
 1647SOL    HW116574   4.472   4.627   7.038 -1.1076 -1.0826  0.3034
 1647SOL    HW216575   4.343   4.707   7.011  0.3017 -1.1513 -0.6026
 1648SOL     OW16576   3.852   2.898   6.059  0.6439 -0.0817 -0.0314
 1648SOL    HW116577   3.786   2.833   6.033  0.2887  1.5397 -3.1435
 1648SOL    HW216578   3.820   2.959   5.993 -1.7727 -0.3916  0.8355
 1649SOL     OW16579   3.593   4.131   2.053 -0.5273 -0.5368 -0.9981
 1649SOL    HW116580   3.593   4.162   2.143  0.4347  0.7402 -1.4184
 1649SOL    HW216581   3.634   4.046   2.067  1.7974  0.6859 -0.2692
 1650SOL     OW16582   4.161   0.871   2.273 -0.8922  0.1231 -0.0171
 1650SOL    HW116583   4.246   0.914   2.272 -0.9198  0.1900  0.5356
 1650SOL    HW216584   4.154   0.881   2.178  0.0262  3.2573  0.2405
 1651SOL     OW16585   4.595   2.451   6.415  0.2382  0.1646 -0.2098
 1651SOL    HW116586   4.682   2.425   6.448 -0.1484 -0.1007  0.6016
 1651SOL    HW216587   4.565   2.361   6.400 -2.9220  1.2208 -0.0130
 1652SOL     OW16588   1.406   0.711   2.556 -0.1503 -0.1450  0.7881
 1652SOL    HW116589   1.409   0.700   2.461  1.0559 -1.1597  0.9433
 1652SOL    HW216590   1.339   0.779   2.561  0.1972  0.1470  1.4818
 1653SOL     OW16591   0.261   4.561   8.076  0.1253  0.2445 -0.0789
 1653SOL    HW116592   0.248   4.600   7.989  0.6237  1.6489  0.4756
 1653SOL    HW216593   0.230   4.631   8.133  1.8600 -1.6502  3.2035
 1654SOL     OW16594   0.355   0.904   4.619 -0.3768 -0.2028 -0.3314
 1654SOL    HW116595   0.299   0.947   4.684 -1.6828 -0.0323 -1.5704
 1654SOL    HW216596   0.313   0.925   4.536  0.0663  1.5968 -0.0986
 1655SOL     OW16597   4.297   0.701  16.728  0.3419 -0.2098 -0.3381
 1655SOL    HW116598   4.321   0.629  16.786  2.3497  0.2969 -0.5670
 1655SOL    HW216599   4.230   0.658  16.674  0.7350  0.3900 -1.3100
 1656SOL     OW16600   3.535   3.525  13.689  0.2550  0.3854 -0.4802
 1656SOL    HW116601   3.469   3.482  13.635  1.1478  0.1835 -1.4069
 1656SOL    HW216602   3.553   3.597  13.628 -0.6688  0.8201 -0.2507
 1657SOL     OW16603   2.358   0.215   8.860  0.6968  0.1700 -0.2186
 1657SOL    HW116604   2.380   0.132   8.902  0.2598  0.2706  0.2219
 1657SOL    HW216605   2.297   0.250   8.925  0.6866 -0.6110  0.1894
 1658SOL     OW16606   3.212   3.442   8.698  0.0754 -0.0975 -0.5188
 1658SOL    HW116607   3.214   3.350   8.722 -0.4585  0.2237  0.7766
 1658SOL    HW216608   3.124   3.468   8.726 -0.4055  0.3281 -2.3688
 1659SOL     OW16609   2.611   3.106   3.854  0.0477 -0.3960 -0.1984
 1659SOL    HW116610   2.516   3.114   3.863 -0.2007 -0.8530 -2.3217
 1659SOL    HW216611   2.620   3.108   3.758  0.4469  0.4806 -0.1412
 1660SOL     OW16612   1.897   0.110  17.023  0.2590 -0.0787  0.0635
 1660SOL    HW116613   1.926   0.195  17.055 -1.4381  0.8795 -0.9280
 1660SOL    HW216614   1.890   0.115  16.928 -2.9848  0.5158  0.3031
 1661SOL     OW16615   0.764   4.264   3.529  0.0413  0.3593 -0.3040
 1661SOL    HW116616   0.741   4.179   3.568 -1.1329  1.2970  1.0402
 1661SOL    HW216617   0.828   4.293   3.593 -0.8239  1.8390 -0.1262
 1662SOL     OW16618   4.389   3.792   7.799 -0.0091 -0.2839 -0.2926
 1662SOL    HW116619   4.449   3.847   7.748  0.3237 -1.2644 -0.9542
 1662SOL    HW216620   4.382   3.847   7.878  0.7869 -0.2395 -0.2564
 1663SOL     OW16621   3.150   0.734   3.217 -0.1643  0.2080  0.2091
 1663SOL    HW116622   3.187   0.660   3.170 -1.5541  0.6349 -1.5746
 1663SOL    HW216623   3.202   0.737   3.297 -0.9887 -1.9215  0.8117
 1664SOL     OW16624   2.453   3.339   9.681  0.2661  0.1817 -0.6538
 1664SOL    HW116625   2.528   3.304   9.729  1.0712 -0.9476 -2.7083
 1664SOL    HW216626   2.480   3.340   9.589  0.2627  0.1875 -0.6547
 1665SOL     OW16627   4.296   0.170   6.299 -0.0583 -0.5384  0.1568
 1665SOL    HW116628   4.330   0.101   6.244  1.6377  0.5964 -0.2083
 1665SOL    HW216629   4.331   0.249   6.258 -0.6592 -0.1484  0.3960
 1666SOL     OW16630   3.590   1.586  13.305 -0.1435  0.4205  0.1770
 1666SOL    HW116631   3.557   1.673  13.285  0.4002  1.0190  1.8714
 1666SOL    HW216632   3.544   1.533  13.239  1.6366 -0.9128 -0.0012
 1667SOL     OW16633   3.657   1.100   6.839  0.0944  0.1449 -0.2314
 1667SOL    HW116634   3.669   1.018   6.790  1.2280 -0.1527  0.5660
 1667SOL    HW216635   3.640   1.070   6.928 -0.8012  1.1146 -0.0688
 1668SOL     OW16636   1.777   2.264   2.755 -0.0205  0.4807  0.5343
 1668SOL    HW116637   1.870   2.244   2.738 -0.5630 -0.0581 -1.7092
 1668SOL    HW216638   1.729   2.188   2.723 -0.5467  1.5021 -1.0547
 1669SOL     OW16639   4.535   1.822   5.721  0.3372  0.0538 -0.1972
 1669SOL    HW116640   4.528   1.911   5.754 -3.0284 -1.2205  2.4891
 1669SOL    HW216641   4.628   1.803   5.732  0.3624  0.4759  0.3084
 1670SOL     OW16642   3.080   0.522   9.151  0.0568 -0.6534 -0.5562
 1670SOL    HW116643   3.124   0.587   9.205  2.8130 -0.2766 -3.1975
 1670SOL    HW216644   3.097   0.564   9.067  0.5782 -0.4553 -0.3548
 1671SOL     OW16645   3.547   0.330   5.532  0.4402 -0.2014 -0.7386
 1671SOL    HW116646   3.479   0.388   5.566 -1.8778 -3.4936  0.2679
 1671SOL    HW216647   3.502   0.315   5.449  0.8821  0.6282 -1.1222
 1672SOL     OW16648   3.591   0.452   4.058  0.0553  0.6958 -0.5545
 1672SOL    HW116649   3.563   0.414   4.141 -3.1057  1.4929 -1.2639
 1672SOL    HW216650   3.502   0.473   4.032 -1.2164 -1.8659  1.7421
 1673SOL     OW16651   4.158   4.555   1.139 -0.0089  0.5053  0.6778
 1673SOL    HW116652   4.194   4.601   1.214 -1.6319 -0.0409  1.7818
 1673SOL    HW216653   4.119   4.484   1.189  1.1432 -0.6807 -0.0975
 1674SOL     OW16654   1.936   2.314  12.422 -0.5020 -0.1679 -0.1634
 1674SOL    HW116655   1.890   2.324  12.505 -1.2797 -1.6414 -0.4016
 1674SOL    HW216656   1.946   2.404  12.391  2.0820  0.1054  1.4405
 1675SOL     OW16657   2.074   0.591   4.805  0.1727  0.3568 -0.5437
 1675SOL    HW116658   2.004   0.627   4.751 -0.0289 -0.1619 -0.6323
 1675SOL    HW216659   2.146   0.647   4.776  0.6521 -1.5176 -3.0079
 1676SOL     OW16660   3.006   1.509   0.483  0.1587 -0.5356  0.4845
 1676SOL    HW116661   3.053   1.549   0.409  0.0678 -2.0349 -0.3849
 1676SOL    HW216662   3.008   1.416   0.461  0.9567 -0.4447  0.1908
 1677SOL     OW16663   2.231   0.288   2.676 -0.0824 -0.5056 -0.4500
 1677SOL    HW116664   2.146   0.279   2.632 -0.1072 -0.5446 -0.3939
 1677SOL    HW216665   2.198   0.272   2.765  0.6105 -0.2070 -0.1407
 1678SOL     OW16666   0.533   1.582   8.689  0.1286  0.4616 -0.0384
 1678SOL    HW116667   0.542   1.516   8.619  1.4289 -2.4664  2.8721
 1678SOL    HW216668   0.517   1.519   8.760  0.0366  0.6024  0.0648
 1679SOL     OW16669   1.502   4.613   4.543 -0.4947  0.7247  0.8857
 1679SOL    HW116670   1.494   4.614   4.447  1.6804 -0.8801  0.6798
 1679SOL    HW216671   1.538   4.529   4.573 -3.4292  0.1217  2.6299
 1680SOL     OW16672   1.923   3.773   2.558  0.3626 -0.2713 -0.2665
 1680SOL    HW116673   1.828   3.760   2.554  0.1497  1.5548 -1.1499
 1680SOL    HW216674   1.931   3.867   2.542 -1.8771  0.1906  1.3146
 1681SOL     OW16675   2.553   0.139   9.318  0.4537 -0.2285  0.2014
 1681SOL    HW116676   2.566   0.173   9.406  0.5400  0.8329 -0.2195
 1681SOL    HW216677   2.477   0.085   9.342 -1.1861  0.4216 -3.4646
 1682SOL     OW16678   1.656   0.944   9.858 -0.0950  0.3896  0.3070
 1682SOL    HW116679   1.687   0.857   9.882 -2.2827 -0.3205  0.5302
 1682SOL    HW216680   1.718   0.993   9.912 -0.7937 -2.6138  3.7971
 1683SOL     OW16681   4.712   3.724   3.780  0.1881  0.0146  0.3409
 1683SOL    HW116682   0.059   3.695   3.747  1.6750  2.6685  1.8713
 1683SOL    HW216683   4.736   3.797   3.838 -0.0863 -0.1183  0.6211
 1684SOL     OW16684   0.201   0.352   4.116  0.3787  0.5747 -0.4666
 1684SOL    HW116685   0.277   0.296   4.130 -0.1456  0.1005  0.5163
 1684SOL    HW216686   0.131   0.288   4.127  1.7825 -1.0212 -0.9530
 1685SOL     OW16687   2.069   0.851  10.903 -0.2875  0.2230 -0.4767
 1685SOL    HW116688   2.089   0.928  10.849  1.2795  0.5093  0.4954
 1685SOL    HW216689   2.129   0.870  10.976  1.0487 -0.1551 -1.4897
 1686SOL     OW16690   2.448   4.190   2.118  0.5073 -0.6703 -0.0836
 1686SOL    HW116691   2.391   4.179   2.194  0.2134  1.0748 -0.0554
 1686SOL    HW216692   2.408   4.130   2.054  1.5705 -0.2556 -1.1431
 1687SOL     OW16693   3.770   1.767   5.501 -0.1873  0.4330 -0.8127
 1687SOL    HW116694   3.716   1.789   5.425 -1.4730 -0.3586 -0.1319
 1687SOL    HW216695   3.856   1.761   5.459  0.0907  1.6213 -0.4030
 1688SOL     OW16696   2.747   2.585   4.133 -0.2207  0.4423  0.3413
 1688SOL    HW116697   2.762   2.499   4.095  2.1361  0.4752  1.1387
 1688SOL    HW216698   2.812   2.639   4.089  0.6270 -1.5653 -0.8506
 1689SOL     OW16699   3.869   3.474  10.098 -0.1454  0.3351 -0.0177
 1689SOL    HW116700   3.800   3.439  10.154  0.5363 -0.5704  0.2679
 1689SOL    HW216701   3.874   3.565  10.128 -1.1723  0.3464  0.1059
 1690SOL     OW16702   0.464   0.675   6.093 -0.2271 -0.1331 -0.2843
 1690SOL    HW116703   0.492   0.703   6.180 -0.7477  2.3921 -0.9453
 1690SOL    HW216704   0.397   0.620   6.134 -1.2702  0.9775 -0.4950
 1691SOL     OW16705   0.665   3.416   3.397 -0.0672  0.2300 -0.0672
 1691SOL    HW116706   0.712   3.333   3.405 -0.6133  0.0025  0.8217
 1691SOL    HW216707   0.593   3.415   3.460 -0.2875 -3.3937 -0.3333
 1692SOL     OW16708   2.769   3.097   6.214 -0.2932  0.1895 -0.1300
 1692SOL    HW116709   2.726   3.147   6.284 -0.7406 -0.8951  0.3735
 1692SOL    HW216710   2.731   3.009   6.220 -1.7154  0.7246 -1.5033
 1693SOL     OW16711   0.402   2.733   6.192  0.0309 -0.0440  0.0226
 1693SOL    HW116712   0.327   2.690   6.153  1.6560 -0.4187 -2.6843
 1693SOL    HW216713   0.369   2.747   6.281 -3.3397  0.4345 -1.2989
 1694SOL     OW16714   0.599   0.230   2.979 -0.4247 -0.8442 -0.1793
 1694SOL    HW116715   0.608   0.198   3.069  0.6942 -0.7138 -0.2541
 1694SOL    HW216716   0.503   0.236   2.972 -0.3875  0.1163  0.0385
 1695SOL     OW16717   1.039   0.072   4.888  0.1539 -0.4324  0.1769
 1695SOL    HW116718   1.089   0.012   4.943  0.5114  1.6935  2.1500
 1695SOL    HW216719   0.983   0.113   4.953 -1.7551 -3.4183  0.4502
 1696SOL     OW16720   3.394   0.200  14.428  0.5496  0.1628 -0.3600
 1696SOL    HW116721   3.313   0.230  14.386 -0.6020 -0.6426  1.2959
 1696SOL    HW216722   3.378   0.106  14.440  0.1771  0.1624 -0.8334
 1697SOL     OW16723   0.383   2.854   2.924  0.1836 -0.2719 -0.6815
 1697SOL    HW116724   0.353   2.868   2.834 -1.7927 -1.0783 -0.1362
 1697SOL    HW216725   0.476   2.833   2.912  0.2172  0.0268 -0.9548
 1698SOL     OW16726   0.537   3.981   3.837  0.0702 -0.4928  0.2209
 1698SOL    HW116727   0.532   4.036   3.915 -1.1380 -0.0027 -0.1880
 1698SOL    HW216728   0.507   3.897   3.872 -3.7810  0.4720 -0.7523
 1699SOL     OW16729   2.925   4.457   6.176 -0.4894  0.5915 -0.2096
 1699SOL    HW116730   2.990   4.388   6.161 -0.1264  0.4843  1.8187
 1699SOL    HW216731   2.897   4.451   6.268  2.5554  1.8047  0.7755
 1700SOL     OW16732   0.882   1.345   3.611 -0.0385  0.0617 -0.3738
 1700SOL    HW116733   0.910   1.255   3.628  2.0044  0.2943 -2.4933
 1700SOL    HW216734   0.794   1.329   3.576 -0.2569  1.6394 -0.5444
 1701SOL     OW16735   1.786   4.426   3.329 -0.1551 -0.0618 -0.2809
 1701SOL    HW116736   1.794   4.466   3.242 -0.8503  1.3918  0.3127
 1701SOL    HW216737   1.872   4.411   3.367 -0.2243 -0.3533 -0.2366
 1702SOL     OW16738   1.355   3.468   1.554 -0.7375  0.4188  0.2908
 1702SOL    HW116739   1.287   3.494   1.615 -0.9191 -1.1909  0.7949
 1702SOL    HW216740   1.336   3.374   1.544 -0.1031  0.4301 -0.9978
 1703SOL     OW16741   3.714   0.410   6.134  0.1250  0.0474  0.0958
 1703SOL    HW116742   3.693   0.338   6.194 -0.1262 -1.3974 -1.7272
 1703SOL    HW216743   3.690   0.376   6.048  0.6310  1.8418 -0.7492
 1704SOL     OW16744   0.317   0.680   9.525 -0.1914  0.1117  0.8305
 1704SOL    HW116745   0.221   0.669   9.528 -0.2176 -0.0319 -0.5424
 1704SOL    HW216746   0.353   0.613   9.582  0.7814 -1.2117 -1.3507
 1705SOL     OW16747   0.290   3.570   6.207 -0.0354  0.6109 -0.1574
 1705SOL    HW116748   0.214   3.553   6.263  0.2054  1.8551  0.5261
 1705SOL    HW216749   0.358   3.554   6.273  0.2594  0.4547 -0.4991
 1706SOL     OW16750   0.844   2.341   3.288  0.4600 -0.4759  0.2849
 1706SOL    HW116751   0.781   2.279   3.324 -1.4142  0.2679 -1.7058
 1706SOL    HW216752   0.808   2.338   3.200  2.6595  0.2990 -0.6286
 1707SOL     OW16753   4.655   2.557  11.937 -0.2150 -0.1545 -0.5682
 1707SOL    HW116754   4.645   2.495  12.010 -0.0326 -0.0159 -0.4246
 1707SOL    HW216755   4.625   2.637  11.980 -1.6668 -0.4435 -1.0436
 1708SOL     OW16756   2.232   4.212   5.425 -0.1457 -0.3974  0.3365
 1708SOL    HW116757   2.158   4.151   5.430 -0.2601 -0.3307 -0.5199
 1708SOL    HW216758   2.201   4.290   5.379 -1.6908  0.4912  2.8613
 1709SOL     OW16759   0.810   2.807   2.628 -0.7152  0.2476  0.0784
 1709SOL    HW116760   0.737   2.866   2.649  1.2000  2.2052  1.2335
 1709SOL    HW216761   0.836   2.785   2.717  0.6365 -1.2557 -0.6806
 1710SOL     OW16762   1.355   1.582  17.628  0.3619  0.6031 -0.0816
 1710SOL    HW116763   1.313   1.540  17.703  2.6826  0.0746  0.9319
 1710SOL    HW216764   1.440   1.539  17.624 -0.5306 -0.9793 -2.3146
 1711SOL     OW16765   3.437   3.851   8.629  0.2309 -0.2234 -0.2064
 1711SOL    HW116766   3.410   3.790   8.698 -0.8884  0.3055 -0.1663
 1711SOL    HW216767   3.400   3.805   8.553  2.5564  0.4932 -1.7404
 1712SOL     OW16768   2.794   4.718   1.610 -0.3581 -0.0972  0.8898
 1712SOL    HW116769   2.806   0.073   1.626  0.0072 -0.4316  2.6043
 1712SOL    HW216770   2.717   4.734   1.555  0.6205 -0.6572 -0.6315
 1713SOL     OW16771   4.417   1.290  14.662  0.2598 -0.4433  0.1272
 1713SOL    HW116772   4.431   1.368  14.608  0.0718 -1.2563 -1.1135
 1713SOL    HW216773   4.504   1.276  14.699 -0.2612 -1.7318  0.8957
 1714SOL     OW16774   0.486   0.639   2.259 -0.0611 -0.5114  0.6638
 1714SOL    HW116775   0.466   0.707   2.323 -1.8548 -0.6845  0.2867
 1714SOL    HW216776   0.580   0.624   2.265 -0.0165 -0.6013 -0.2955
 1715SOL     OW16777   1.839   2.064   5.933  0.2339 -0.4376 -0.6147
 1715SOL    HW116778   1.755   2.033   5.968  1.5006 -1.9008  1.1318
 1715SOL    HW216779   1.893   2.073   6.012  0.0188  1.6956 -0.7122
 1716SOL     OW16780   3.111   0.971  17.715 -0.0394  0.2463  0.6192
 1716SOL    HW116781   3.170   1.002   0.030 -1.0420  3.2170  0.1557
 1716SOL    HW216782   3.026   1.005  17.743  0.0391  0.8289  0.1550
 1717SOL     OW16783   0.309   1.308   9.367 -0.1363 -0.1601  0.3282
 1717SOL    HW116784   0.294   1.217   9.391  0.1186 -0.0717  0.8118
 1717SOL    HW216785   0.334   1.352   9.448 -0.6255 -0.1132  0.4574
 1718SOL     OW16786   1.491   1.177  17.146 -0.0436  0.4321  0.4775
 1718SOL    HW116787   1.451   1.191  17.060 -1.2048  2.9672  1.4127
 1718SOL    HW216788   1.469   1.084  17.148  0.2578  0.3427 -0.6174
 1719SOL     OW16789   0.134   3.522   4.799  0.5361  0.0981  0.2010
 1719SOL    HW116790   0.063   3.514   4.735  0.7112  0.8236 -0.0755
 1719SOL    HW216791   0.210   3.488   4.751 -0.0276  1.9629 -2.0009
 1720SOL     OW16792   4.389   0.846   4.798  0.4380  0.0361 -0.1999
 1720SOL    HW116793   4.470   0.897   4.791  0.3336  0.2915  0.4496
 1720SOL    HW216794   4.417   0.790   4.870 -1.1683  1.9353  1.9271
 1721SOL     OW16795   4.598   4.472   4.969 -0.4988  0.5687 -0.3806
 1721SOL    HW116796   4.580   4.409   5.039 -1.8716  2.9930  1.4190
 1721SOL    HW216797   4.577   4.560   4.999 -0.2021  0.4664  0.1382
 1722SOL     OW16798   3.631   0.270   0.223 -0.6390 -0.6070  0.1919
 1722SOL    HW116799   3.573   0.277   0.147 -0.5549  3.8779  0.5835
 1722SOL    HW216800   3.691   0.204   0.189 -0.4201  0.5913 -1.7391
 1723SOL     OW16801   4.551   3.632   5.929 -0.8942 -0.1859  0.0673
 1723SOL    HW116802   4.581   3.546   5.958  1.6704  0.5690 -0.4202
 1723SOL    HW216803   4.569   3.628   5.835 -1.5444  0.5176 -0.0910
 1724SOL     OW16804   1.622   3.000   6.223  0.0417  0.3098  0.0337
 1724SOL    HW116805   1.620   2.904   6.217  1.4440  0.2882 -0.1490
 1724SOL    HW216806   1.545   3.028   6.272  1.1195  1.0785  1.2817
 1725SOL     OW16807   0.874   0.081   6.483 -0.4365  0.1053  0.3291
 1725SOL    HW116808   0.867   0.061   6.576 -1.3794 -0.0569  0.2156
 1725SOL    HW216809   0.786   0.069   6.447 -0.7571  1.8771  0.4863
 1726SOL     OW16810   3.410   2.933   1.944  0.1496 -0.4163  0.5024
 1726SOL    HW116811   3.397   2.864   2.010 -0.8900  0.1593  0.9005
 1726SOL    HW216812   3.412   3.008   2.004  2.4515 -1.3063  1.5396
 1727SOL     OW16813   1.159   4.136  12.089 -0.0869 -0.0434 -0.1377
 1727SOL    HW116814   1.170   4.085  12.170 -0.6696  0.9136  0.5443
 1727SOL    HW216815   1.244   4.130  12.045  0.2790 -0.2294  0.5787
 1728SOL     OW16816   3.881   3.642   9.119  0.5172  0.0979  0.4351
 1728SOL    HW116817   3.872   3.730   9.154  1.5831  1.0223 -1.5856
 1728SOL    HW216818   3.866   3.587   9.196 -1.1808  1.4718  1.0685
 1729SOL     OW16819   2.744   0.486   9.180 -0.7495  0.1216 -0.4396
 1729SOL    HW116820   2.768   0.576   9.202 -1.8362  0.2908  0.0871
 1729SOL    HW216821   2.722   0.454   9.268 -0.9431 -0.2067 -0.6096
 1730SOL     OW16822   0.381   1.266   4.802 -0.0499  0.6185  0.0925
 1730SOL    HW116823   0.466   1.301   4.773  0.4608 -0.6194  0.0849
 1730SOL    HW216824   0.357   1.331   4.868 -1.1354  0.1028  0.1988
 1731SOL     OW16825   3.965   1.790   2.609 -0.0431 -0.0172  0.6347
 1731SOL    HW116826   3.951   1.839   2.528  0.6149  0.7827  0.9927
 1731SOL    HW216827   3.930   1.852   2.673 -0.4570  0.0074  0.3806
 1732SOL     OW16828   4.543   2.868   6.170 -0.3159  0.0647  0.5259
 1732SOL    HW116829   4.498   2.783   6.172  0.6331 -0.4312  0.8466
 1732SOL    HW216830   4.528   2.900   6.258 -2.9479  0.1096  0.0734
 1733SOL     OW16831   3.243   1.122  13.170 -0.3147 -0.0550  0.2312
 1733SOL    HW116832   3.247   1.217  13.180 -2.0993 -0.0284  0.6947
 1733SOL    HW216833   3.328   1.113  13.126 -0.6354  0.3162 -0.4587
 1734SOL     OW16834   2.066   0.463   2.545 -0.3402 -0.5630  0.4007
 1734SOL    HW116835   2.031   0.529   2.605  0.7425  0.3172  0.0594
 1734SOL    HW216836   2.158   0.467   2.571  0.4257 -1.0373 -2.1836
 1735SOL     OW16837   3.878   3.009  11.326 -0.1457 -0.3453 -0.2456
 1735SOL    HW116838   3.963   3.021  11.367 -0.1022  1.2221 -0.7909
 1735SOL    HW216839   3.820   3.056  11.386 -1.1114 -1.9811  0.1067
 1736SOL     OW16840   3.545   0.033   1.035 -0.6027  0.1745  0.3065
 1736SOL    HW116841   3.603   0.081   0.976  0.0859  0.0671  0.8907
 1736SOL    HW216842   3.530   4.692   0.984 -2.0624 -0.0521  1.1078
 1737SOL     OW16843   3.887   0.741   0.348 -0.4151 -0.0694  0.4292
 1737SOL    HW116844   3.937   0.822   0.356 -0.5354  0.1671 -1.3542
 1737SOL    HW216845   3.936   0.699   0.277 -0.4058 -0.3395  0.5931
 1738SOL     OW16846   2.517   3.817   2.372 -0.2308 -0.1152 -0.3345
 1738SOL    HW116847   2.575   3.889   2.346  0.1861 -1.1354 -2.2021
 1738SOL    HW216848   2.445   3.817   2.309  0.4607  0.4181 -1.1206
 1739SOL     OW16849   0.309   1.375  10.599 -0.1753 -0.1467  0.5883
 1739SOL    HW116850   0.221   1.387  10.564  0.2276 -1.4215 -0.8530
 1739SOL    HW216851   0.327   1.458  10.645  1.2672 -0.2203  0.1586
 1740SOL     OW16852   2.218   2.060  11.531 -0.2117  0.1591 -0.0427
 1740SOL    HW116853   2.145   2.051  11.592 -1.7267  1.1288 -1.7191
 1740SOL    HW216854   2.291   2.018  11.577 -0.9166 -0.8981  0.1028
 1741SOL     OW16855   0.243   1.923   6.160 -0.7795 -0.0504 -0.2407
 1741SOL    HW116856   0.312   1.918   6.226 -0.3092 -0.2573 -0.7486
 1741SOL    HW216857   0.250   2.014   6.132  1.6034 -0.3888 -0.8011
 1742SOL     OW16858   1.723   1.238   2.623 -0.1821  0.2230  0.4533
 1742SOL    HW116859   1.817   1.239   2.605 -0.4649  0.1308 -1.0133
 1742SOL    HW216860   1.718   1.276   2.712 -0.9642 -0.5004  0.7139
 1743SOL     OW16861   0.487   1.652   5.093  0.5229 -0.0057 -0.3595
 1743SOL    HW116862   0.582   1.663   5.085  0.5133  1.1760  1.1073
 1743SOL    HW216863   0.467   1.731   5.143  2.3055  0.4167 -0.3141
 1744SOL     OW16864   4.594   1.266   7.532 -0.2847  0.2345  0.0960
 1744SOL    HW116865   4.614   1.174   7.515 -0.3123  0.0759  0.9356
 1744SOL    HW216866   4.500   1.256   7.548 -0.4280  1.5761  0.1312
 1745SOL     OW16867   4.190   1.830   1.721  0.0278  0.0118  0.0611
 1745SOL    HW116868   4.237   1.747   1.733  1.1316  0.3426 -2.2135
 1745SOL    HW216869   4.219   1.889   1.791  0.8170  0.8001 -0.9469
 1746SOL     OW16870   3.776   3.939   4.111  0.0723 -0.2649  0.2350
 1746SOL    HW116871   3.697   3.911   4.064  0.5435  1.2594 -1.4696
 1746SOL    HW216872   3.796   3.852   4.145  0.6197  0.0647  0.7622
 1747SOL     OW16873   0.534   2.216   3.799  0.4087 -0.1631  0.1239
 1747SOL    HW116874   0.596   2.225   3.871 -0.1755  0.8187  0.4978
 1747SOL    HW216875   0.572   2.266   3.727 -1.5656  2.5418  0.9512
 1748SOL     OW16876   2.158   0.043  17.097  0.7301  0.5314  0.5301
 1748SOL    HW116877   2.193   0.019  17.011 -0.2321 -0.6308  0.4555
 1748SOL    HW216878   2.077   0.080  17.063  0.0113  0.2198  1.9054
 1749SOL     OW16879   3.929   3.538   6.828  0.1550  0.1039  0.1836
 1749SOL    HW116880   3.899   3.624   6.798  1.3794 -0.0431 -1.5086
 1749SOL    HW216881   4.014   3.559   6.866  0.0711  1.0154 -0.1277
 1750SOL     OW16882   4.208   3.306   4.687  0.5753 -0.2175 -0.0112
 1750SOL    HW116883   4.140   3.320   4.621  1.1658 -0.2864 -0.6340
 1750SOL    HW216884   4.178   3.232   4.741 -0.0347 -0.2243 -0.3572
 1751SOL     OW16885   2.670   2.625   1.235 -0.9961 -0.0904  0.8619
 1751SOL    HW116886   2.597   2.646   1.294 -1.5288 -1.6079  0.7305
 1751SOL    HW216887   2.619   2.616   1.154  0.6740  3.0518 -0.5376
 1752SOL     OW16888   0.740   0.470  11.267  0.2951 -0.8276 -0.6935
 1752SOL    HW116889   0.698   0.522  11.199  0.5370 -0.7672 -0.7973
 1752SOL    HW216890   0.669   0.425  11.313 -0.4203  0.5646 -0.4295
 1753SOL     OW16891   0.626   3.273   6.939  0.5996  0.0374 -0.3362
 1753SOL    HW116892   0.711   3.280   6.981 -0.7742  0.8417  2.2568
 1753SOL    HW216893   0.579   3.318   7.009  0.2287 -2.7018  1.1824
 1754SOL     OW16894   4.055   2.746   2.270 -0.3488 -0.2878 -0.0228
 1754SOL    HW116895   4.048   2.839   2.247  0.4618 -0.6613 -1.8202
 1754SOL    HW216896   4.104   2.745   2.352  0.5486  3.4606 -0.4986
 1755SOL     OW16897   3.622   3.523   4.967  0.4805  0.1868 -0.6785
 1755SOL    HW116898   3.591   3.598   5.017 -0.5903  0.4607 -1.7460
 1755SOL    HW216899   3.560   3.459   5.002 -0.5061  1.2510 -0.4743
 1756SOL     OW16900   3.224   1.778   2.535  0.0147 -0.3170  0.1516
 1756SOL    HW116901   3.283   1.707   2.512  1.8812  1.5816 -0.9882
 1756SOL    HW216902   3.283   1.853   2.533 -0.0958 -0.2192  0.5008
 1757SOL     OW16903   2.861   0.434   4.642 -0.4193 -0.3307  0.0246
 1757SOL    HW116904   2.882   0.344   4.615  1.4181 -0.0825  0.6727
 1757SOL    HW216905   2.837   0.477   4.560  0.8271  0.8843  0.3033
 1758SOL     OW16906   2.668   4.593   3.221 -0.2306 -0.1939  0.6664
 1758SOL    HW116907   2.745   4.565   3.171  1.2639  1.3844  2.0534
 1758SOL    HW216908   2.667   4.686   3.196  0.2269 -0.6482 -1.1075
 1759SOL     OW16909   1.293   1.308  11.602  0.3496 -0.2210 -0.0810
 1759SOL    HW116910   1.304   1.267  11.516  1.4566  0.3049 -0.1907
 1759SOL    HW216911   1.210   1.267  11.628  0.6810 -0.7721  0.0945
 1760SOL     OW16912   2.352   3.621   9.578 -0.3856 -0.1207 -0.5887
 1760SOL    HW116913   2.407   3.543   9.579  0.6552  0.6060 -1.3704
 1760SOL    HW216914   2.342   3.624   9.483  1.2687 -2.4950 -0.8395
 1761SOL     OW16915   3.673   0.623   0.056 -0.0139 -0.4587  0.4166
 1761SOL    HW116916   3.639   0.685   0.120  0.8457 -0.6909  1.1054
 1761SOL    HW216917   3.700   0.695  17.752  0.2383 -1.2646 -0.4831
 1762SOL     OW16918   0.745   0.558   1.710  0.1021 -0.4785 -0.4116
 1762SOL    HW116919   0.760   0.511   1.792 -1.2916 -1.5503 -0.7696
 1762SOL    HW216920   0.789   0.505   1.643 -1.6255  0.5385 -2.3315
 1763SOL     OW16921   4.149   3.306   8.533  0.0441 -0.1375  0.0635
 1763SOL    HW116922   4.071   3.317   8.587  0.6630 -1.7067  1.2747
 1763SOL    HW216923   4.121   3.382   8.481 -0.5940  0.1680  0.8538
 1764SOL     OW16924   2.561   3.374   9.035  0.7715  0.3422  0.1165
 1764SOL    HW116925   2.475   3.365   9.076  0.2000  0.8821 -0.9765
 1764SOL    HW216926   2.565   3.454   8.983 -1.5681  0.1633 -0.3193
 1765SOL     OW16927   0.932   3.577   7.518  0.2916  0.4034  0.0211
 1765SOL    HW116928   0.958   3.485   7.517 -0.1141  0.3113 -1.8454
 1765SOL    HW216929   0.955   3.589   7.426  2.3884 -1.4724  0.2866
 1766SOL     OW16930   4.053   0.134   6.187 -0.2050  0.0177 -0.1521
 1766SOL    HW116931   4.072   0.041   6.201  1.2949  0.2645 -0.5548
 1766SOL    HW216932   4.136   0.165   6.223 -1.0325 -0.5382  2.2166
 1767SOL     OW16933   3.184   4.588   8.075  0.4841  0.3520  0.0919
 1767SOL    HW116934   3.093   4.576   8.103  0.3620  0.5101 -0.2356
 1767SOL    HW216935   3.226   4.564   8.157 -0.4462  0.7733  0.6903
 1768SOL     OW16936   3.382   2.036   9.074 -0.2458  0.1982 -0.4569
 1768SOL    HW116937   3.418   2.116   9.113 -1.6750  1.5982 -2.0119
 1768SOL    HW216938   3.391   1.968   9.142 -1.8081  1.3647  0.9108
 1769SOL     OW16939   4.525   1.922   6.643  0.1051 -0.4434  0.2887
 1769SOL    HW116940   4.461   1.987   6.613  0.3800 -0.5088 -0.4398
 1769SOL    HW216941   4.590   1.924   6.573 -0.6703  0.2409 -0.4115
 1770SOL     OW16942   4.241   0.987   2.045  0.2114  0.3218 -0.4227
 1770SOL    HW116943   4.266   1.077   2.067 -0.5187  0.3096  0.4580
 1770SOL    HW216944   4.303   0.965   1.976 -0.6788  0.2054 -1.1885
 1771SOL     OW16945   3.036   0.247   7.069  0.1847  0.2560  0.3210
 1771SOL    HW116946   2.980   0.212   7.139  0.9713 -2.0899 -0.2081
 1771SOL    HW216947   2.991   0.220   6.989 -0.9446  0.3713  0.9115
 1772SOL     OW16948   0.353   0.367   4.776 -0.0102  0.2001  0.6172
 1772SOL    HW116949   0.443   0.387   4.751 -0.4010 -0.5256 -1.3869
 1772SOL    HW216950   0.356   0.378   4.871 -1.7411  0.4430  0.6332
 1773SOL     OW16951   0.305   4.319  10.371 -0.3966 -0.4595  0.2292
 1773SOL    HW116952   0.397   4.299  10.354 -1.1421 -3.1950 -0.5917
 1773SOL    HW216953   0.287   4.264  10.447  0.1966 -1.2009 -0.1683
 1774SOL     OW16954   2.801   3.372   6.069  0.5144 -0.2421 -0.1667
 1774SOL    HW116955   2.769   3.288   6.103 -0.7689  0.7452  1.0609
 1774SOL    HW216956   2.888   3.365   6.108  1.9652 -1.0373 -3.5567
 1775SOL     OW16957   4.480   1.268   2.267 -0.0759  0.8703  0.2794
 1775SOL    HW116958   4.526   1.339   2.312  1.5456  0.2996 -0.4758
 1775SOL    HW216959   4.444   1.220   2.342  2.0599 -0.0286  0.7176
 1776SOL     OW16960   4.687   3.886  10.852 -0.0595 -0.5526 -0.2988
 1776SOL    HW116961   0.036   3.860  10.880 -0.5991 -1.4354  0.5946
 1776SOL    HW216962   4.683   3.979  10.875 -0.4268 -0.1291 -2.0812
 1777SOL     OW16963   2.869   2.016   4.953  0.3988 -0.0966 -0.7491
 1777SOL    HW116964   2.792   1.966   4.927  0.3824 -0.4902  0.0549
 1777SOL    HW216965   2.830   2.102   4.940 -2.2522 -1.4835 -1.7697
 1778SOL     OW16966   4.592   1.032   4.738  0.1413 -0.1559  0.5998
 1778SOL    HW116967   4.587   1.056   4.646 -1.6778 -1.6610  0.3377
 1778SOL    HW216968   4.624   1.119   4.764  0.2533 -0.0615  0.1485
 1779SOL     OW16969   1.487   1.336   8.647 -0.0802  0.3067  0.7281
 1779SOL    HW116970   1.472   1.428   8.624  3.2829  0.6784  0.0529
 1779SOL    HW216971   1.582   1.330   8.641 -0.1273  0.7305 -0.3887
 1780SOL     OW16972   1.911   0.696   2.093 -0.3681 -0.1597  0.0439
 1780SOL    HW116973   1.967   0.622   2.071  1.7401  1.5990 -0.4537
 1780SOL    HW216974   1.925   0.755   2.020  1.3601  0.7478  1.1345
 1781SOL     OW16975   1.575   3.801   5.176  0.2642  0.4457 -0.0985
 1781SOL    HW116976   1.620   3.762   5.100  1.6464  1.2250  0.3149
 1781SOL    HW216977   1.639   3.870   5.196  0.5332  0.2899 -0.4158
 1782SOL     OW16978   0.139   0.143   9.117  0.8765  0.6001  0.6325
 1782SOL    HW116979   0.131   0.238   9.128  0.1972  0.7894 -1.4019
 1782SOL    HW216980   0.121   0.138   9.023 -1.1026  3.0148  0.8802
 1783SOL     OW16981   1.123   3.187  12.375  0.2491 -0.1250  0.0594
 1783SOL    HW116982   1.219   3.196  12.377 -0.0401  2.9958 -0.5682
 1783SOL    HW216983   1.104   3.096  12.350  1.0619 -0.2914  0.0254
 1784SOL     OW16984   2.574   1.888  14.666 -0.2501  0.6602  0.4419
 1784SOL    HW116985   2.601   1.979  14.658  0.7833  0.5404  2.5990
 1784SOL    HW216986   2.536   1.877  14.579  1.0429 -0.3527 -0.0040
 1785SOL     OW16987   4.143   0.380   8.092 -0.2738 -0.3974 -0.1419
 1785SOL    HW116988   4.129   0.426   8.175 -0.7376 -0.1238 -0.3715
 1785SOL    HW216989   4.159   0.459   8.040 -2.1024 -0.4075 -0.7160
 1786SOL     OW16990   3.821   4.486  13.750  0.3087  0.2332  0.4477
 1786SOL    HW116991   3.769   4.466  13.828 -0.5913  1.4299  0.1548
 1786SOL    HW216992   3.773   4.567  13.736  0.8049  0.3945 -0.3161
 1787SOL     OW16993   0.566   0.728   8.036  0.0475  0.1698 -0.8554
 1787SOL    HW116994   0.617   0.659   7.993 -1.0676 -0.7786 -0.6524
 1787SOL    HW216995   0.603   0.751   8.121  0.9458  1.4312 -1.5807
 1788SOL     OW16996   4.359   3.552   7.921 -0.0037 -0.2349  0.2008
 1788SOL    HW116997   4.341   3.590   8.007 -0.1493 -0.3407  0.2177
 1788SOL    HW216998   4.360   3.630   7.866 -2.3179 -1.6446 -1.8050
 1789SOL     OW16999   0.496   3.355  17.643 -0.0892 -0.0349  0.2955
 1789SOL    HW117000   0.460   3.268  17.621 -2.6726  1.0669  0.1291
 1789SOL    HW217001   0.588   3.331  17.643  0.1851  1.0275  0.8372
 1790SOL     OW17002   2.305   1.947   8.772  0.2469 -0.2268  0.1461
 1790SOL    HW117003   2.318   1.978   8.683  1.1228 -2.5015 -0.5159
 1790SOL    HW217004   2.303   2.033   8.814  1.6072 -0.2370  0.2193
 1791SOL     OW17005   1.386   1.982   1.681 -0.1246 -0.7466 -0.3473
 1791SOL    HW117006   1.332   1.907   1.660 -0.1062 -1.0526  0.7007
 1791SOL    HW217007   1.339   2.004   1.762 -0.5092 -0.2278 -0.7169
 1792SOL     OW17008   1.978   4.688   7.596 -0.0763  0.1286 -0.5001
 1792SOL    HW117009   1.888   4.672   7.624  0.9089 -0.9399  2.0469
 1792SOL    HW217010   1.986   4.652   7.508 -1.7733 -0.9291 -0.2297
 1793SOL     OW17011   2.406   3.087   2.372  0.4728 -0.2795  0.2385
 1793SOL    HW117012   2.347   3.110   2.443  0.8842 -0.2127  0.5625
 1793SOL    HW217013   2.445   3.174   2.360  0.2271 -0.1295  0.5450
 1794SOL     OW17014   4.272   4.039   5.167  0.3305 -0.1542  0.4000
 1794SOL    HW117015   4.287   4.091   5.246  2.0249  2.0485 -1.3737
 1794SOL    HW217016   4.176   4.043   5.167  0.2719 -1.5563 -0.9162
 1795SOL     OW17017   2.282   4.085  14.115  0.4390 -0.0927 -0.2183
 1795SOL    HW117018   2.245   4.053  14.032  1.0447  0.8418 -0.8399
 1795SOL    HW217019   2.213   4.078  14.181  0.4857  1.1434 -0.0393
 1796SOL     OW17020   2.549   0.602   7.866  0.5012  0.7167 -0.0277
 1796SOL    HW117021   2.572   0.685   7.908 -1.2276  1.9554 -1.5709
 1796SOL    HW217022   2.621   0.615   7.804  0.2713 -0.8762 -0.6160
 1797SOL     OW17023   3.888   0.109   3.259 -0.5503  0.1374  0.3393
 1797SOL    HW117024   3.810   0.160   3.282  0.8163  1.5722  1.8080
 1797SOL    HW217025   3.875   0.038   3.321 -0.1247 -0.5295 -0.3340
 1798SOL     OW17026   0.397   4.341   6.847 -0.0484  0.2082  0.1427
 1798SOL    HW117027   0.348   4.260   6.864  2.1235 -1.2293 -0.4715
 1798SOL    HW217028   0.473   4.312   6.798 -1.3248  0.7763 -2.1728
 1799SOL     OW17029   2.420   3.791   8.437  0.4886  0.1848 -0.2330
 1799SOL    HW117030   2.445   3.863   8.379 -1.1113  0.2230 -0.8585
 1799SOL    HW217031   2.472   3.718   8.403 -0.7727 -1.6206  1.7613
 1800SOL     OW17032   3.102   0.809   9.679  0.3213  0.2026 -0.0840
 1800SOL    HW117033   3.192   0.818   9.711 -0.1929  0.1497  1.3715
 1800SOL    HW217034   3.061   0.889   9.712  1.0017  2.1766 -4.0062
 1801SOL     OW17035   0.861   2.106   1.943  0.0633 -0.4709 -0.2512
 1801SOL    HW117036   0.839   2.012   1.940 -1.6736  0.0308 -2.9848
 1801SOL    HW217037   0.936   2.105   1.883  0.7061  0.2519  0.5376
 1802SOL     OW17038   2.344   1.265   9.080 -0.0684  0.3769  0.5924
 1802SOL    HW117039   2.395   1.327   9.028  2.1059  0.5266  2.8850
 1802SOL    HW217040   2.406   1.199   9.112 -1.1105 -0.6094  0.5554
 1803SOL     OW17041   3.053   1.349   9.986 -0.0948 -0.4848 -0.4061
 1803SOL    HW117042   3.114   1.324   9.917 -0.9926  0.9006 -1.7110
 1803SOL    HW217043   3.057   1.445   9.988  2.0576 -0.6088  1.4692
 1804SOL     OW17044   4.614   3.884   5.474 -0.5834 -0.1919 -0.0740
 1804SOL    HW117045   4.535   3.911   5.427  0.5038  3.0526 -0.0343
 1804SOL    HW217046   4.659   3.821   5.418 -1.8244 -2.7123  1.7579
 1805SOL     OW17047   0.763   1.750   9.650 -0.2307  0.0260  0.3748
 1805SOL    HW117048   0.831   1.780   9.709  1.5109 -1.7526 -0.7537
 1805SOL    HW217049   0.772   1.655   9.650  0.5040  0.1049  0.9030
 1806SOL     OW17050   4.256   4.483  17.228  0.3217 -0.1093  0.4961
 1806SOL    HW117051   4.225   4.571  17.205 -1.9708 -0.3157  2.8054
 1806SOL    HW217052   4.179   4.433  17.253 -0.3364  1.0258  0.7546
 1807SOL     OW17053   3.131   4.030   3.603 -0.4834  0.3999 -0.0097
 1807SOL    HW117054   3.172   3.945   3.618  1.7453  1.8544  2.0560
 1807SOL    HW217055   3.205   4.070   3.558 -1.1785 -0.1986 -1.6815
 1808SOL     OW17056   2.263   3.867   3.477  0.3113 -0.0640 -0.3217
 1808SOL    HW117057   2.285   3.870   3.384  0.0726 -1.7160 -0.4192
 1808SOL    HW217058   2.336   3.904   3.527 -2.2074  1.7186  2.0741
 1809SOL     OW17059   4.207   1.773   5.142 -0.2823  0.7849 -0.5881
 1809SOL    HW117060   4.225   1.830   5.216 -2.2375 -0.7076  1.0337
 1809SOL    HW217061   4.290   1.787   5.096 -0.8757  1.1049 -1.5767
 1810SOL     OW17062   0.485   4.429  12.247 -0.0277  0.4549 -0.6099
 1810SOL    HW117063   0.560   4.397  12.196 -0.0594  1.0149 -1.0191
 1810SOL    HW217064   0.523   4.494  12.307  3.2753 -2.5025  0.4858
 1811SOL     OW17065   0.346   3.233   1.352  0.7389 -0.3320 -0.0905
 1811SOL    HW117066   0.299   3.151   1.337  0.5318 -0.1039 -0.6741
 1811SOL    HW217067   0.436   3.216   1.322  0.0328 -2.0978 -1.2006
 1812SOL     OW17068   0.831   0.008  14.460 -0.4764 -0.1860  0.4625
 1812SOL    HW117069   0.896   0.060  14.508 -1.3732  1.1213  0.2457
 1812SOL    HW217070   0.878   4.664  14.473 -2.5424 -1.4735 -0.2532
 1813SOL     OW17071   4.455   0.022   1.771 -0.5431  0.4775  0.5726
 1813SOL    HW117072   4.410   0.033   1.855 -0.3706  0.7971  0.6232
 1813SOL    HW217073   4.386   0.036   1.707 -1.0588  1.9331  1.4481
 1814SOL     OW17074   3.220   4.030   8.942 -0.7292  0.0477 -0.5516
 1814SOL    HW117075   3.138   4.020   8.991 -2.4886  0.4370 -3.3942
 1814SOL    HW217076   3.184   4.051   8.856 -1.9151 -2.8264 -0.7585
 1815SOL     OW17077   4.243   3.410   7.248  0.3900 -0.3648 -0.0966
 1815SOL    HW117078   4.312   3.375   7.305 -1.5955 -0.8881  1.9958
 1815SOL    HW217079   4.181   3.443   7.313 -0.1217 -0.7433 -0.3919
 1816SOL     OW17080   0.216   3.447   0.828 -0.0436  0.0093 -0.0562
 1816SOL    HW117081   0.305   3.480   0.820 -0.4319  1.3633  1.2963
 1816SOL    HW217082   0.171   3.509   0.886  1.4189  0.8134  0.2335
 1817SOL     OW17083   0.402   2.600  11.273  0.3123 -0.0663 -0.5642
 1817SOL    HW117084   0.496   2.583  11.275  0.6383  1.6668 -1.5259
 1817SOL    HW217085   0.389   2.630  11.363 -1.2078  0.1439 -0.8520
 1818SOL     OW17086   3.823   0.000  10.585 -1.0432  0.3017 -0.5178
 1818SOL    HW117087   3.814   4.710  10.676  0.6826  1.0680 -0.1150
 1818SOL    HW217088   3.741   4.704  10.550 -1.2725 -0.8951  1.2131
 1819SOL     OW17089   3.836   3.213   3.906  0.2708  0.0881 -0.2958
 1819SOL    HW117090   3.777   3.191   3.833 -0.3149  0.7200 -0.0123
 1819SOL    HW217091   3.784   3.182   3.980 -2.4136  0.0905 -2.1973
 1820SOL     OW17092   1.573   3.466   6.499 -0.5354 -0.0000 -0.0056
 1820SOL    HW117093   1.623   3.391   6.466  2.9290  1.4337  1.9521
 1820SOL    HW217094   1.498   3.429   6.545 -1.6375  1.4165 -0.6965
 1821SOL     OW17095   4.681   2.542   4.866  0.0266  0.3212 -0.0953
 1821SOL    HW117096   0.011   2.606   4.886  0.0370 -0.0504  1.0425
 1821SOL    HW217097   4.737   2.465   4.878 -0.6395 -0.0890  0.3801
 1822SOL     OW17098   4.194   3.486  16.193 -0.0827  0.3736  0.1227
 1822SOL    HW117099   4.254   3.560  16.201 -0.1341  0.4567 -0.2444
 1822SOL    HW217100   4.112   3.537  16.188 -0.5710 -0.6463 -2.2634
 1823SOL     OW17101   2.501   4.118   4.937 -0.3946  0.5012  0.3354
 1823SOL    HW117102   2.498   4.185   5.005  1.0900  1.0382 -0.1282
 1823SOL    HW217103   2.551   4.155   4.864  1.8402 -1.5960  0.8015
 1824SOL     OW17104   3.920   0.827   6.889  0.0518 -0.3818 -0.0483
 1824SOL    HW117105   3.960   0.914   6.882  1.0552 -0.6526  2.5045
 1824SOL    HW217106   3.827   0.850   6.894  0.4798  1.6865 -1.4087
 1825SOL     OW17107   2.386   3.800   4.743 -0.1443 -0.2937  0.2353
 1825SOL    HW117108   2.405   3.845   4.826 -0.1485  2.2550 -1.1346
 1825SOL    HW217109   2.291   3.808   4.735  0.0833  0.9019 -1.1371
 1826SOL     OW17110   3.946   2.072   9.101 -0.1311  0.3992 -0.0735
 1826SOL    HW117111   3.945   1.992   9.050  0.6512  0.8723 -0.8192
 1826SOL    HW217112   3.882   2.048   9.168  0.4353  0.7669  0.6007
 1827SOL     OW17113   4.240   0.769   8.916  0.4412  0.3732  0.1175
 1827SOL    HW117114   4.247   0.828   8.841  2.8497 -1.1853 -0.8923
 1827SOL    HW217115   4.148   0.743   8.909  0.3467  0.7427 -0.0224
 1828SOL     OW17116   0.396   0.332   8.269 -0.4613  0.3211 -0.0968
 1828SOL    HW117117   0.403   0.415   8.317  1.0752  0.2204 -0.1388
 1828SOL    HW217118   0.362   0.274   8.337 -0.3592 -0.1703 -0.4647
 1829SOL     OW17119   0.431   0.924   5.272  0.0189  0.4933  0.7029
 1829SOL    HW117120   0.476   0.992   5.222  0.8305 -0.6853 -0.1902
 1829SOL    HW217121   0.498   0.857   5.260  0.5691  1.3028 -0.6817
 1830SOL     OW17122   3.559   1.791   9.587 -0.9701 -0.2651  0.6074
 1830SOL    HW117123   3.583   1.883   9.592  0.0113 -0.6782  2.9826
 1830SOL    HW217124   3.642   1.746   9.603 -1.9665 -2.4335 -0.2483
 1831SOL     OW17125   3.386   0.585   5.540  0.4445 -0.3437 -0.5505
 1831SOL    HW117126   3.457   0.646   5.515 -1.7103  1.9911 -0.9774
 1831SOL    HW217127   3.319   0.627   5.486 -1.5354 -0.4095  1.8913
 1832SOL     OW17128   0.737   1.726   8.801  0.3596 -0.3635 -0.3566
 1832SOL    HW117129   0.701   1.718   8.890  0.3098 -0.4993 -0.3900
 1832SOL    HW217130   0.675   1.682   8.743 -1.5319  1.2529  0.4378
 1833SOL     OW17131   1.198   2.841  10.426 -0.5065  0.1123  0.9961
 1833SOL    HW117132   1.180   2.817  10.516 -2.3040  0.9830  0.8677
 1833SOL    HW217133   1.249   2.773  10.382 -2.0470 -0.2370 -0.2495
 1834SOL     OW17134   4.258   2.539   1.647  0.1379 -0.1741 -0.5560
 1834SOL    HW117135   4.346   2.517   1.678 -0.0151  1.0641  0.7645
 1834SOL    HW217136   4.276   2.630   1.623 -1.0572 -0.1613 -1.3778
 1835SOL     OW17137   0.263   0.162   8.088  0.1754  0.3896  0.4851
 1835SOL    HW117138   0.320   0.178   8.014  1.1442 -0.5503  1.0401
 1835SOL    HW217139   0.271   0.247   8.133 -0.0722  0.4769  0.3684
 1836SOL     OW17140   1.441   0.991   4.634 -0.0327  0.0921 -0.6668
 1836SOL    HW117141   1.455   0.896   4.639 -2.1981 -0.2013 -0.3050
 1836SOL    HW217142   1.515   1.026   4.683 -0.2541 -0.2347 -0.0989
 1837SOL     OW17143   3.298   2.082   7.020 -0.0830 -0.0264 -0.7536
 1837SOL    HW117144   3.324   2.062   7.111 -0.1015  2.6927 -0.1498
 1837SOL    HW217145   3.381   2.114   6.985  0.0174  0.1612 -0.3473
 1838SOL     OW17146   0.310   2.156   6.049  0.2580 -0.2264 -0.7153
 1838SOL    HW117147   0.335   2.248   6.036 -1.3484  0.4528  1.1565
 1838SOL    HW217148   0.380   2.105   6.007  0.2835 -0.8078  0.0342
 1839SOL     OW17149   0.602   3.133   9.190  0.3623 -0.2902 -0.1799
 1839SOL    HW117150   0.633   3.224   9.187  0.9009 -0.4442  1.1208
 1839SOL    HW217151   0.555   3.127   9.273  2.1075  2.0770  0.9942
 1840SOL     OW17152   0.268   4.357   8.505 -0.4929 -0.0089  0.0994
 1840SOL    HW117153   0.301   4.447   8.515  0.4159 -0.6780  3.0759
 1840SOL    HW217154   0.185   4.374   8.462 -0.0924  1.1939 -0.1977
 1841SOL     OW17155   4.687   3.251  10.689 -0.8032  0.3076  0.2808
 1841SOL    HW117156   4.678   3.342  10.661 -0.5878  0.1333 -0.3531
 1841SOL    HW217157   4.701   3.262  10.783 -1.6115  0.3353  0.3938
 1842SOL     OW17158   1.159   1.478  10.100 -0.0707  0.0437 -0.5111
 1842SOL    HW117159   1.135   1.505  10.012  1.7280 -0.9525 -1.3228
 1842SOL    HW217160   1.219   1.548  10.126 -2.2864  1.4640  0.7728
 1843SOL     OW17161   1.162   3.475   7.651 -0.6871 -0.0274  0.0609
 1843SOL    HW117162   1.120   3.390   7.667  0.3496  0.0202  3.0327
 1843SOL    HW217163   1.095   3.535   7.682 -1.3127 -0.8321  0.2817
 1844SOL     OW17164   0.354   3.324  10.015 -0.2491 -0.6847 -0.1518
 1844SOL    HW117165   0.370   3.352  10.105 -0.1805  1.4831 -0.8410
 1844SOL    HW217166   0.330   3.404   9.967 -0.6286 -1.0087 -0.4969
 1845SOL     OW17167   4.247   2.604   5.706  0.2584  0.1089  0.0269
 1845SOL    HW117168   4.294   2.669   5.654 -1.6736  0.4950 -1.2701
 1845SOL    HW217169   4.315   2.599   5.773  0.9882  0.5239 -0.6796
 1846SOL     OW17170   1.874   1.126   4.956 -0.4553 -0.0395 -0.0126
 1846SOL    HW117171   1.931   1.111   4.880  0.1498  1.6793  0.1048
 1846SOL    HW217172   1.862   1.037   4.988  0.2699  0.2967  1.2025
 1847SOL     OW17173   2.007   1.466   5.356  0.4187  0.4551  0.5668
 1847SOL    HW117174   1.988   1.374   5.337 -1.3994  0.0169  4.4713
 1847SOL    HW217175   2.101   1.462   5.337  0.3906  0.2134  0.4766
 1848SOL     OW17176   3.661   4.155   2.879 -0.0836  0.5949 -0.3478
 1848SOL    HW117177   3.583   4.209   2.886  0.9612  2.3830 -2.3851
 1848SOL    HW217178   3.659   4.114   2.792 -0.1019 -1.0908  0.4373
 1849SOL     OW17179   1.899   3.560   5.666  0.2584  0.0725 -0.2517
 1849SOL    HW117180   1.932   3.472   5.683  1.2797  0.2180 -1.4898
 1849SOL    HW217181   1.806   3.538   5.666 -0.1204  1.6992 -2.2672
 1850SOL     OW17182   3.060   4.088  12.138 -0.4148 -0.1488  0.0994
 1850SOL    HW117183   3.008   4.058  12.212 -2.6587  1.1352 -0.9490
 1850SOL    HW217184   3.103   4.168  12.168  0.1262 -0.1551 -0.6767
 1851SOL     OW17185   3.490   2.896   6.218 -0.1742  0.1988  0.3072
 1851SOL    HW117186   3.403   2.858   6.202 -1.4367  2.0342  2.8469
 1851SOL    HW217187   3.501   2.936   6.132  2.9577 -1.5857 -0.1195
 1852SOL     OW17188   0.570   1.632  10.140 -0.5024 -0.0723 -0.0973
 1852SOL    HW117189   0.578   1.541  10.169 -1.1645 -0.1481 -0.1522
 1852SOL    HW217190   0.637   1.639  10.072  0.5274  2.5320  1.1612
 1853SOL     OW17191   3.012   1.499   5.792  0.8691 -0.0420  0.0398
 1853SOL    HW117192   2.951   1.567   5.761  0.9155 -0.2446 -0.4879
 1853SOL    HW217193   3.087   1.558   5.793 -0.9685  2.3559 -0.9873
 1854SOL     OW17194   2.959   0.835   3.538  0.5384  0.0836 -0.5090
 1854SOL    HW117195   2.923   0.859   3.623  1.4040 -3.1199  0.7652
 1854SOL    HW217196   3.052   0.851   3.552  0.6542 -1.1993  0.1560
 1855SOL     OW17197   0.278   3.863  12.733 -0.8269 -0.6023  0.3914
 1855SOL    HW117198   0.269   3.893  12.824 -1.6448 -1.4972  0.6056
 1855SOL    HW217199   0.221   3.930  12.697 -0.5031  0.4321  1.7726
 1856SOL     OW17200   2.385   2.890   1.821  0.0110 -0.8014  0.2445
 1856SOL    HW117201   2.430   2.971   1.846  0.4419 -0.2887 -2.2092
 1856SOL    HW217202   2.432   2.833   1.882  0.0933  0.0302  0.9572
 1857SOL     OW17203   2.324   2.595   2.402  0.6023 -0.1564  0.2938
 1857SOL    HW117204   2.245   2.543   2.414 -0.0296  0.5529 -0.8250
 1857SOL    HW217205   2.309   2.678   2.356  2.2477 -1.0192 -1.8307
 1858SOL     OW17206   4.724   3.175   3.411  0.2132 -0.1593  0.7521
 1858SOL    HW117207   0.021   3.178   3.322 -1.1691  0.1549  0.2024
 1858SOL    HW217208   4.636   3.213   3.401  0.8875  0.4399 -2.7379
 1859SOL     OW17209   3.195   2.678   5.109 -0.1904 -0.1852 -0.1863
 1859SOL    HW117210   3.279   2.695   5.152  0.9075 -4.2447 -0.6455
 1859SOL    HW217211   3.169   2.765   5.079  0.7894  0.1003 -0.2112
 1860SOL     OW17212   0.228   1.177  14.604  0.3831 -0.0663 -0.0278
 1860SOL    HW117213   0.249   1.162  14.512  0.5309  0.4480 -0.0806
 1860SOL    HW217214   0.137   1.148  14.613 -0.0764  1.6564  0.9768
 1861SOL     OW17215   3.025   2.204   2.531  0.1276  0.0408 -0.2327
 1861SOL    HW117216   2.985   2.122   2.501  0.4668 -0.0039 -0.5702
 1861SOL    HW217217   2.992   2.207   2.621  1.5818 -0.0756  0.3140
 1862SOL     OW17218   2.978   0.439   4.109  0.1888  0.3711 -0.3049
 1862SOL    HW117219   3.043   0.369   4.100 -0.6781 -0.7163  1.9221
 1862SOL    HW217220   2.926   0.406   4.183  0.3787 -0.8169 -0.6935
 1863SOL     OW17221   0.576   3.535   9.296  1.2028  0.1971  0.7316
 1863SOL    HW117222   0.494   3.549   9.248  1.9044  3.4871  0.4919
 1863SOL    HW217223   0.581   3.625   9.328  0.9294 -0.0682  1.5182
 1864SOL     OW17224   0.937   4.229   6.607 -0.5192 -0.1499 -0.3070
 1864SOL    HW117225   0.895   4.301   6.656 -3.1238  1.1487 -4.4877
 1864SOL    HW217226   0.868   4.199   6.548 -0.8616  0.8229 -0.4087
 1865SOL     OW17227   2.563   2.120  12.639  0.1719 -0.1450  0.2953
 1865SOL    HW117228   2.532   2.195  12.589  0.9175 -1.0224 -1.5003
 1865SOL    HW217229   2.523   2.131  12.725 -0.3511 -0.7247  0.1274
 1866SOL     OW17230   4.215   1.872   2.682  0.6957  0.5267  0.1624
 1866SOL    HW117231   4.239   1.885   2.590 -1.1351  0.1579 -0.3480
 1866SOL    HW217232   4.125   1.841   2.675  0.2545  1.4285  1.7918
 1867SOL     OW17233   2.495   3.230   5.390  0.2101  0.2828  0.0955
 1867SOL    HW117234   2.520   3.248   5.481  0.9121 -0.0576 -0.0295
 1867SOL    HW217235   2.418   3.176   5.407 -0.4936  1.6733  1.3510
 1868SOL     OW17236   3.641   1.970   2.091  0.0650 -0.6074  0.0446
 1868SOL    HW117237   3.628   1.876   2.078  0.2993 -0.5943 -0.2954
 1868SOL    HW217238   3.736   1.980   2.086  0.0104  1.4535  2.7947
 1869SOL     OW17239   2.769   1.098  15.849 -0.1226  0.1721 -0.1438
 1869SOL    HW117240   2.740   1.078  15.938 -0.2126 -3.0637 -0.8961
 1869SOL    HW217241   2.838   1.031  15.848 -1.1905 -0.9698  2.3384
 1870SOL     OW17242   2.370   2.461  13.559 -0.4880  0.6563  0.4492
 1870SOL    HW117243   2.456   2.437  13.524 -0.4023 -0.8802  1.7202
 1870SOL    HW217244   2.343   2.519  13.487  2.3271 -0.9164 -1.8728
 1871SOL     OW17245   0.454   1.101   6.515 -0.2555 -0.0846  0.3788
 1871SOL    HW117246   0.440   1.030   6.577  0.3126 -2.3425 -2.0851
 1871SOL    HW217247   0.543   1.119   6.546 -1.0084  2.7030  0.9701
 1872SOL     OW17248   4.113   0.495   4.526 -0.5176  0.3655 -0.0983
 1872SOL    HW117249   4.184   0.557   4.509  0.2676 -1.0878 -2.0924
 1872SOL    HW217250   4.159   0.416   4.496  1.9209  1.6952  0.1312
 1873SOL     OW17251   4.669   3.365  15.332  0.3773 -0.5449 -0.2413
 1873SOL    HW117252   4.602   3.431  15.313  2.5706  2.2815  1.9949
 1873SOL    HW217253   4.727   3.380  15.257 -0.8135 -2.5058 -1.5662
 1874SOL     OW17254   2.412   0.558   0.219  0.4695  0.0997 -0.2398
 1874SOL    HW117255   2.349   0.513   0.274 -0.2428  0.2207 -0.9586
 1874SOL    HW217256   2.386   0.549   0.128  0.2899  2.7836 -0.4634
 1875SOL     OW17257   3.614   2.862   5.873 -0.2118 -0.2700 -0.1755
 1875SOL    HW117258   3.548   2.925   5.902  1.0919  1.2794 -0.5453
 1875SOL    HW217259   3.626   2.893   5.783 -0.4486 -2.3119 -0.8968
 1876SOL     OW17260   4.627   2.257   2.397  0.8072 -0.1994 -0.1752
 1876SOL    HW117261   4.677   2.337   2.414  0.7805 -0.3078  0.4276
 1876SOL    HW217262   4.610   2.282   2.306 -4.2153 -1.5994  0.4025
 1877SOL     OW17263   0.785   0.104   8.020 -0.4310 -0.3143  0.7003
 1877SOL    HW117264   0.821   0.034   8.075 -1.1998 -0.6245  0.8080
 1877SOL    HW217265   0.827   0.095   7.935  0.5382 -0.8421  1.2353
 1878SOL     OW17266   0.665   4.233   2.465 -0.0065  0.2921  0.1514
 1878SOL    HW117267   0.711   4.190   2.538 -0.1561  2.4904  1.5409
 1878SOL    HW217268   0.617   4.294   2.522 -1.3258  0.5618 -1.2548
 1879SOL     OW17269   2.644   1.063  14.583 -0.3777 -1.0923  0.5962
 1879SOL    HW117270   2.638   1.062  14.487  1.0520 -0.8803  0.5080
 1879SOL    HW217271   2.655   0.969  14.602 -0.8186 -1.5995 -1.6038
 1880SOL     OW17272   3.427   3.316   5.597  0.2061  0.3857  0.2602
 1880SOL    HW117273   3.436   3.403   5.637  1.1079  1.7346 -2.8870
 1880SOL    HW217274   3.429   3.325   5.502  1.4598 -1.0422  0.1450
 1881SOL     OW17275   2.762   4.278   2.376  0.1707 -0.1669 -0.4528
 1881SOL    HW117276   2.823   4.333   2.425  1.4797 -1.9902 -0.0373
 1881SOL    HW217277   2.686   4.336   2.384  1.2802  0.9509  2.0802
 1882SOL     OW17278   3.102   1.800   2.761 -0.1575  0.2765 -0.1982
 1882SOL    HW117279   3.018   1.836   2.734  0.8231  0.8584 -2.4549
 1882SOL    HW217280   3.143   1.776   2.678  0.2084 -0.2124  0.1221
 1883SOL     OW17281   4.439   3.119   9.596 -0.0672 -0.0980  0.3224
 1883SOL    HW117282   4.484   3.105   9.513 -1.7151 -0.8676 -0.4436
 1883SOL    HW217283   4.441   3.029   9.628  3.2239  0.3116  1.2623
 1884SOL     OW17284   3.774   1.731   0.130 -0.0837 -0.2221  0.7784
 1884SOL    HW117285   3.701   1.756   0.187 -0.1874 -0.1463  0.6118
 1884SOL    HW217286   3.834   1.805   0.141 -0.6666  0.9431 -3.5839
 1885SOL     OW17287   2.862   1.445  10.212 -0.1691  0.4231 -0.2915
 1885SOL    HW117288   2.908   1.483  10.287  0.3145 -0.4192 -0.1604
 1885SOL    HW217289   2.860   1.351  10.230  0.5740  0.3455 -0.6112
 1886SOL     OW17290   4.132   4.492  16.400  0.3042  0.4016 -0.0700
 1886SOL    HW117291   4.177   4.472  16.483 -2.1173 -1.4038  0.8126
 1886SOL    HW217292   4.197   4.454  16.341 -0.0230 -1.2268  0.6157
 1887SOL     OW17293   4.548   4.555   8.328  0.0870  0.1396 -0.0256
 1887SOL    HW117294   4.518   4.519   8.411 -0.4982 -2.4831 -1.3679
 1887SOL    HW217295   4.468   4.602   8.306  0.0596  0.3152  0.4643
 1888SOL     OW17296   0.499   1.275   1.743  0.1312 -0.3205 -0.0353
 1888SOL    HW117297   0.543   1.288   1.659  1.4055 -1.2965  0.4832
 1888SOL    HW217298   0.569   1.257   1.806 -1.8865 -2.5334  1.5492
 1889SOL     OW17299   2.055   2.855   4.286 -0.2870  0.4639 -0.5785
 1889SOL    HW117300   2.063   2.782   4.348  0.0138  0.5182 -0.5563
 1889SOL    HW217301   1.970   2.841   4.245 -0.0928 -0.5798 -0.6279
 1890SOL     OW17302   1.277   0.071  15.909  0.7389  0.6553 -0.5394
 1890SOL    HW117303   1.329   0.151  15.901  1.3197  0.6268  2.9176
 1890SOL    HW217304   1.203   0.091  15.851  0.1186  0.6161  0.2419
 1891SOL     OW17305   2.698   2.597   6.880 -0.3600  0.1463  0.2522
 1891SOL    HW117306   2.738   2.535   6.819  0.1389  0.7924 -0.0799
 1891SOL    HW217307   2.640   2.541   6.931  0.2415 -0.4174  0.3204
 1892SOL     OW17308   0.292   2.127   1.681 -0.0120 -0.4592 -0.1256
 1892SOL    HW117309   0.262   2.046   1.641  2.5286 -1.0866 -0.7835
 1892SOL    HW217310   0.271   2.099   1.771  0.8725  0.2980  0.3222
 1893SOL     OW17311   2.644   3.291   8.228  0.3101  0.9022 -0.0237
 1893SOL    HW117312   2.699   3.369   8.219 -1.8099  2.3051 -0.6254
 1893SOL    HW217313   2.640   3.286   8.323  1.7072  1.2366  0.0629
 1894SOL     OW17314   2.179   0.874   3.850  0.3309  0.4679  0.0125
 1894SOL    HW117315   2.102   0.816   3.844  0.1783  0.7656 -0.8880
 1894SOL    HW217316   2.131   0.956   3.855  1.0128  0.9903 -1.9410
 1895SOL     OW17317   1.791   1.335  13.229  0.1790 -0.0618 -0.3437
 1895SOL    HW117318   1.717   1.280  13.204 -0.0532  0.7143 -1.3640
 1895SOL    HW217319   1.762   1.393  13.299  0.4982  0.2342 -0.4592
 1896SOL     OW17320   0.525   2.763   3.683 -0.2459 -0.1175  0.5767
 1896SOL    HW117321   0.508   2.857   3.675  1.7081  0.0719 -1.3330
 1896SOL    HW217322   0.600   2.761   3.624  0.4732  2.3164  1.4174
 1897SOL     OW17323   4.097   0.656  16.534  0.0054  0.6188 -0.0679
 1897SOL    HW117324   4.116   0.722  16.466  1.1596  1.2091  0.8343
 1897SOL    HW217325   4.011   0.687  16.563 -0.0095 -0.0088  0.5386
 1898SOL     OW17326   0.965   3.922   3.879 -0.2029  0.5535  0.0874
 1898SOL    HW117327   0.913   3.972   3.941  1.1220  1.4880  0.4438
 1898SOL    HW217328   1.018   3.867   3.937  2.2672  2.2551 -0.5888
 1899SOL     OW17329   3.796   4.367  10.565 -0.3440 -0.0083 -0.0103
 1899SOL    HW117330   3.873   4.423  10.559 -0.6223  0.3149 -0.5567
 1899SOL    HW217331   3.730   4.434  10.547 -0.0946  0.1469 -0.3395
 1900SOL     OW17332   0.239   3.642   2.745  0.1211  0.3395 -0.5928
 1900SOL    HW117333   0.258   3.548   2.744  1.3687  0.5798  0.7632
 1900SOL    HW217334   0.161   3.653   2.799  1.4505 -0.3030  1.4314
 1901SOL     OW17335   1.385   4.627  12.679 -0.4029 -0.0625  0.0407
 1901SOL    HW117336   1.365   4.534  12.684 -0.1812 -0.1358 -0.3616
 1901SOL    HW217337   1.476   4.622  12.649 -0.5837 -0.0878 -0.5175
 1902SOL     OW17338   0.694   2.171   3.469  0.3193 -0.0603 -0.0393
 1902SOL    HW117339   0.606   2.206   3.485  0.2937  0.9234 -2.2791
 1902SOL    HW217340   0.675   2.078   3.455 -0.1416 -0.2076  1.6201
 1903SOL     OW17341   3.749   1.178  12.745 -0.2887 -0.0642  0.2618
 1903SOL    HW117342   3.752   1.257  12.690 -1.0875 -0.4059 -0.2831
 1903SOL    HW217343   3.665   1.145  12.713 -0.1578 -1.8009  1.7505
 1904SOL     OW17344   3.709   2.937   4.479  0.2096 -0.4185  0.2758
 1904SOL    HW117345   3.751   2.893   4.553  1.1512  0.1401  0.0590
 1904SOL    HW217346   3.690   3.020   4.522 -0.6442  0.0583 -1.0126
 1905SOL     OW17347   4.337   2.035  16.388  0.3401 -0.1346  0.1108
 1905SOL    HW117348   4.299   1.997  16.468 -1.5707  1.8434  0.1350
 1905SOL    HW217349   4.360   1.958  16.336 -1.8310 -1.1091  0.5876
 1906SOL     OW17350   4.467   3.235   2.376  0.0760 -0.5056 -0.3037
 1906SOL    HW117351   4.503   3.320   2.354 -2.2068  0.7183  0.6633
 1906SOL    HW217352   4.491   3.194   2.293 -1.3594  0.2945 -1.1050
 1907SOL     OW17353   0.549   3.260   2.271 -1.0277  0.1625  0.1452
 1907SOL    HW117354   0.511   3.226   2.352 -2.0250 -0.1968 -0.4582
 1907SOL    HW217355   0.477   3.304   2.224  0.3999 -0.0931 -2.2749
 1908SOL     OW17356   0.799   3.755   6.593 -0.1436 -0.3560 -0.0637
 1908SOL    HW117357   0.831   3.835   6.635  1.3349 -0.4531 -0.9825
 1908SOL    HW217358   0.871   3.693   6.605 -1.1403 -1.9448 -2.3545
 1909SOL     OW17359   2.592   0.777   8.054 -0.2339  0.3966 -0.4045
 1909SOL    HW117360   2.678   0.758   8.093 -0.5010 -0.5460 -0.2799
 1909SOL    HW217361   2.539   0.768   8.133 -0.4969 -0.3598 -0.6686
 1910SOL     OW17362   2.666   0.575  14.040  0.1834 -0.3852 -0.1378
 1910SOL    HW117363   2.645   0.624  14.119  3.0098 -0.6600  0.7744
 1910SOL    HW217364   2.579   0.544  14.015  0.0541 -1.0280  1.0687
 1911SOL     OW17365   3.097   2.919   2.201  0.0679 -0.2129 -0.5110
 1911SOL    HW117366   3.161   2.934   2.272 -0.3500 -0.8756  0.0052
 1911SOL    HW217367   3.099   3.004   2.158 -1.4019 -0.0602 -0.2765
 1912SOL     OW17368   3.803   4.519  12.840 -0.3549  0.4879 -0.2237
 1912SOL    HW117369   3.863   4.471  12.783  1.6428  0.9783  1.4795
 1912SOL    HW217370   3.798   4.609  12.806 -2.6665 -0.3929 -2.1624
 1913SOL     OW17371   2.543   2.568   0.854 -0.5742  0.7606  0.0555
 1913SOL    HW117372   2.570   2.480   0.828 -0.5878  0.7328  0.1368
 1913SOL    HW217373   2.495   2.539   0.931  0.2320 -1.9762 -0.4978
 1914SOL     OW17374   0.659   1.677   9.051  0.0272  0.2259 -0.4211
 1914SOL    HW117375   0.660   1.584   9.074  1.6312  0.6992  1.4780
 1914SOL    HW217376   0.740   1.713   9.087  0.1613  0.5566 -1.0667
 1915SOL     OW17377   1.584   0.650   6.921  0.2418 -0.4134 -0.4470
 1915SOL    HW117378   1.538   0.600   6.989 -0.6574 -2.1330 -2.3085
 1915SOL    HW217379   1.658   0.678   6.975 -1.1037 -0.2675  1.3426
 1916SOL     OW17380   4.416   2.875   1.828  0.6568  0.1264  0.0089
 1916SOL    HW117381   4.370   2.823   1.894  0.0734  1.2160  0.4701
 1916SOL    HW217382   4.369   2.853   1.748 -0.3645 -3.2850  1.5688
 1917SOL     OW17383   2.241   4.555  10.722  0.5877  0.3150 -0.0673
 1917SOL    HW117384   2.181   4.518  10.786  1.0860  0.1850  0.3269
 1917SOL    HW217385   2.236   4.643  10.761 -1.0892 -1.2295  3.2152
 1918SOL     OW17386   0.173   3.385  15.741  0.0412  0.2777  0.9729
 1918SOL    HW117387   0.209   3.366  15.654  0.8776  1.9946  0.9462
 1918SOL    HW217388   0.081   3.368  15.720  0.1480 -0.5547  1.1756
 1919SOL     OW17389   2.246   2.852   7.091 -0.0666  0.2917 -0.2458
 1919SOL    HW117390   2.281   2.798   7.020 -0.7971 -0.6008  0.0710
 1919SOL    HW217391   2.279   2.940   7.073  0.4864  0.1314 -0.0237
 1920SOL     OW17392   2.724   1.075  15.567 -0.3096  0.2398 -0.2867
 1920SOL    HW117393   2.722   1.079  15.662 -0.7206 -1.4147 -0.2203
 1920SOL    HW217394   2.762   0.988  15.554 -2.2235 -0.3696 -1.9143
 1921SOL     OW17395   2.315   1.106  10.392  0.0810  0.3502  0.6926
 1921SOL    HW117396   2.359   1.190  10.403 -0.7964  0.7382  1.2719
 1921SOL    HW217397   2.294   1.115  10.299 -0.5807  1.0667  0.9137
 1922SOL     OW17398   2.003   3.052   2.824  0.0797  0.4704 -0.3443
 1922SOL    HW117399   1.999   2.979   2.886 -0.1411  3.0441  2.6656
 1922SOL    HW217400   1.970   3.118   2.885  0.0365 -0.4799  0.6719
 1923SOL     OW17401   2.254   2.782   2.956 -0.4246 -0.0406  0.4805
 1923SOL    HW117402   2.221   2.794   2.867 -1.7980  0.8557  1.1046
 1923SOL    HW217403   2.240   2.866   2.999  2.1157 -0.7389  2.6596
 1924SOL     OW17404   3.120   0.550   3.802 -0.0381  0.5079 -0.0517
 1924SOL    HW117405   3.038   0.590   3.831  0.3811 -0.1053  1.9719
 1924SOL    HW217406   3.095   0.459   3.785 -0.4672  0.3020  1.6040
 1925SOL     OW17407   1.260   2.421   4.846  0.0244 -0.5737  0.1009
 1925SOL    HW117408   1.338   2.368   4.828 -1.3037 -2.2313 -0.8374
 1925SOL    HW217409   1.222   2.364   4.912 -0.8952  1.4113  1.2794
 1926SOL     OW17410   1.242   4.678   7.784  0.1533 -0.3254 -0.0970
 1926SOL    HW117411   1.155   4.639   7.777 -0.2795  0.7464 -0.6359
 1926SOL    HW217412   1.232   4.727   7.866  2.6931  0.7882 -0.4494
 1927SOL     OW17413   4.455   4.271   9.459  0.2812 -0.0530 -1.0166
 1927SOL    HW117414   4.399   4.283   9.383  2.0147 -1.5268 -2.5222
 1927SOL    HW217415   4.420   4.337   9.519 -0.4590 -0.0428 -1.4591
 1928SOL     OW17416   3.818   1.101  10.810 -0.2997  0.3001  0.5302
 1928SOL    HW117417   3.764   1.179  10.815 -1.6447 -0.6799  1.1637
 1928SOL    HW217418   3.748   1.045  10.777 -1.0386  1.7717 -0.3943
 1929SOL     OW17419   2.337   0.683   3.735 -0.2673 -0.0497  0.1586
 1929SOL    HW117420   2.270   0.720   3.794  0.8181 -1.2422  2.1367
 1929SOL    HW217421   2.318   0.741   3.661 -0.0132 -0.8208 -0.5072
 1930SOL     OW17422   1.601   3.063   9.505  1.0113  0.1233  0.2675
 1930SOL    HW117423   1.541   3.084   9.433 -0.2529 -1.9581  0.7112
 1930SOL    HW217424   1.652   2.991   9.467  2.4477  0.8857  0.7698
 1931SOL     OW17425   3.548   4.316   1.686  0.1972 -0.2820 -0.7347
 1931SOL    HW117426   3.486   4.295   1.616 -1.8362  0.5772  0.7966
 1931SOL    HW217427   3.488   4.311   1.760 -0.3006 -1.3385 -1.2081
 1932SOL     OW17428   2.726   3.174   9.013  0.9491 -0.0492  1.0849
 1932SOL    HW117429   2.674   3.119   9.071 -2.5124  1.5058 -0.4859
 1932SOL    HW217430   2.656   3.235   8.988  3.8692  2.3528 -1.2377
 1933SOL     OW17431   4.636   1.134   4.469 -0.0930  0.4424  0.8222
 1933SOL    HW117432   4.571   1.114   4.401 -0.2102  0.0464  1.0518
 1933SOL    HW217433   4.711   1.138   4.410 -0.5696  2.0990  0.3183
 1934SOL     OW17434   1.386   2.505   0.940 -0.0432  0.0202  0.1137
 1934SOL    HW117435   1.448   2.513   0.867 -1.4702 -1.2412 -1.2290
 1934SOL    HW217436   1.307   2.506   0.886 -2.1382  2.2632  3.2247
 1935SOL     OW17437   0.494   0.337  14.244 -0.2528  0.1535 -0.2353
 1935SOL    HW117438   0.463   0.335  14.153  0.0099 -1.4901 -0.2962
 1935SOL    HW217439   0.487   0.243  14.264 -1.0913 -0.1339 -1.8828
 1936SOL     OW17440   0.201   3.136  15.188  0.4251 -0.0737  0.3022
 1936SOL    HW117441   0.127   3.083  15.218 -0.6927  0.9502 -0.6745
 1936SOL    HW217442   0.155   3.217  15.166  0.6686 -0.1318 -0.4388
 1937SOL     OW17443   4.033   1.449   1.859 -0.0152 -0.1797  0.0630
 1937SOL    HW117444   3.981   1.529   1.857  1.2710  0.6796  1.1017
 1937SOL    HW217445   4.110   1.482   1.905  1.6243 -1.5237 -1.7234
 1938SOL     OW17446   0.198   4.533   4.078 -0.6174  0.1644 -0.5395
 1938SOL    HW117447   0.172   4.539   4.170 -1.3626  1.9889 -0.8840
 1938SOL    HW217448   0.136   4.586   4.028 -1.8726 -1.1418 -0.3964
 1939SOL     OW17449   3.920   3.004   1.366  0.5784  0.1725 -0.9622
 1939SOL    HW117450   3.911   3.096   1.392 -3.5915 -0.0867 -1.4285
 1939SOL    HW217451   3.854   2.994   1.297  1.5357 -1.7250 -1.5999
 1940SOL     OW17452   0.689   1.740   8.293  0.0848  0.0577  0.0519
 1940SOL    HW117453   0.635   1.786   8.357  1.0880 -1.0247  1.6515
 1940SOL    HW217454   0.768   1.793   8.282 -0.6623  1.2088  0.2961
 1941SOL     OW17455   2.837   3.985   3.544  0.1659  0.1899 -0.2533
 1941SOL    HW117456   2.833   3.906   3.490 -1.1424  1.3073 -1.7713
 1941SOL    HW217457   2.927   3.984   3.577 -0.5997 -0.2864  1.7991
 1942SOL     OW17458   3.895   1.777   4.316 -0.2222 -0.2675 -0.6980
 1942SOL    HW117459   3.836   1.836   4.268  1.0457  0.5945 -1.1962
 1942SOL    HW217460   3.959   1.838   4.352  0.7056 -1.1116 -0.9383
 1943SOL     OW17461   2.993   1.891   0.631  0.4982 -0.6546  0.2585
 1943SOL    HW117462   2.928   1.903   0.701 -0.5379  1.6880 -1.1044
 1943SOL    HW217463   2.945   1.844   0.563  0.4452 -1.2522  0.7156
 1944SOL     OW17464   4.304   3.466   6.984 -0.3551 -0.0499  0.3183
 1944SOL    HW117465   4.250   3.462   7.063 -0.0816 -2.2629  0.3855
 1944SOL    HW217466   4.265   3.389   6.942  1.2496 -0.2516 -0.8232
 1945SOL     OW17467   1.820   4.024   1.821  0.4204  0.0264  0.2819
 1945SOL    HW117468   1.831   4.119   1.828  3.9909 -0.3180 -0.6415
 1945SOL    HW217469   1.740   4.019   1.874  1.1414  1.5859  1.5269
 1946SOL     OW17470   4.007   4.635   8.198  0.4181  0.0079  0.0621
 1946SOL    HW117471   3.995   4.549   8.158  0.4294  0.2115 -0.3763
 1946SOL    HW217472   4.019   4.696   8.125  0.3052 -0.5105 -0.3915
 1947SOL     OW17473   4.140   3.475   4.263  0.2555  0.0213 -0.1549
 1947SOL    HW117474   4.178   3.490   4.349 -0.6780 -0.6269  0.3782
 1947SOL    HW217475   4.211   3.455   4.203  0.8207  1.6510 -0.0408
 1948SOL     OW17476   2.054   3.604   6.174  0.1124 -0.0930  0.3144
 1948SOL    HW117477   2.089   3.579   6.259 -2.0588 -0.4029  1.1123
 1948SOL    HW217478   2.066   3.699   6.179  3.2719 -0.5132  1.1064
 1949SOL     OW17479   0.286   2.924  10.052  0.5735 -0.3485  0.0377
 1949SOL    HW117480   0.267   2.979  10.129  0.3008  0.2635 -0.4713
 1949SOL    HW217481   0.238   2.843  10.069 -1.0298  0.8617  1.3139
 1950SOL     OW17482   1.392   1.573   4.194  0.9403 -0.2276  0.2295
 1950SOL    HW117483   1.340   1.586   4.274 -1.9620  0.8847 -1.8534
 1950SOL    HW217484   1.383   1.481   4.169 -0.8797  0.1521 -0.5019
 1951SOL     OW17485   0.912   1.519   3.811  0.5918 -0.0727  0.1298
 1951SOL    HW117486   0.908   1.476   3.726  1.1478  0.7445 -0.3017
 1951SOL    HW217487   0.841   1.582   3.804 -0.0320 -0.4616  2.7280
 1952SOL     OW17488   1.411   0.723   3.002 -0.0634 -0.1163 -0.0220
 1952SOL    HW117489   1.416   0.809   3.045 -2.1961 -1.2742  2.5160
 1952SOL    HW217490   1.321   0.730   2.971  0.5933 -0.5462 -2.0561
 1953SOL     OW17491   4.350   4.660  11.330 -0.0935 -0.0207  0.2955
 1953SOL    HW117492   4.441   4.660  11.362 -0.4872  2.0423  1.4096
 1953SOL    HW217493   4.309   4.738  11.367  0.2448 -0.2146  1.0899
 1954SOL     OW17494   3.681   3.317   0.292 -0.2692 -0.1607  0.3495
 1954SOL    HW117495   3.707   3.378   0.361 -1.0158 -0.3788  0.8234
 1954SOL    HW217496   3.635   3.248   0.339 -0.5053  0.4186  0.9672
 1955SOL     OW17497   3.948   3.941   2.604  0.1504 -0.1496 -0.2750
 1955SOL    HW117498   3.987   3.958   2.690  0.4883 -0.5324 -0.3540
 1955SOL    HW217499   3.862   3.908   2.629 -0.2724  1.5271  0.4536
 1956SOL     OW17500   0.065   0.903   6.803  0.2072 -0.2399  0.0224
 1956SOL    HW117501   0.123   0.970   6.840  1.1910 -1.2711  0.3546
 1956SOL    HW217502   0.079   0.917   6.710 -0.6614 -2.4311 -0.4262
 1957SOL     OW17503   2.685   2.838   6.236 -0.1420  0.1140 -0.0332
 1957SOL    HW117504   2.730   2.811   6.156 -2.8565  0.2924 -1.6100
 1957SOL    HW217505   2.593   2.835   6.209 -0.6000  1.1385  1.3803
 1958SOL     OW17506   1.236   3.285   9.367 -0.3706  0.1236  0.1067
 1958SOL    HW117507   1.241   3.289   9.463  0.3885  1.4030  0.0187
 1958SOL    HW217508   1.184   3.364   9.351  0.8164  1.0003  0.5540
 1959SOL     OW17509   4.473   3.698  10.132  0.4292 -0.3135 -0.1977
 1959SOL    HW117510   4.463   3.624  10.073 -0.0193  0.5425 -1.1887
 1959SOL    HW217511   4.395   3.741  10.097  0.4923 -0.0288  0.0108
 1960SOL     OW17512   4.631   0.874   0.095  0.2486 -0.4052  0.0778
 1960SOL    HW117513   4.587   0.938   0.039  1.5065  1.0620  0.7686
 1960SOL    HW217514   4.548   0.838   0.127 -0.0444  1.1248  1.0240
 1961SOL     OW17515   1.458   2.192   3.559  0.1101 -0.1551 -0.1487
 1961SOL    HW117516   1.549   2.182   3.530 -0.4353  0.9935 -2.3008
 1961SOL    HW217517   1.421   2.247   3.489  1.9525  0.6690 -0.4768
 1962SOL     OW17518   3.312   1.261   0.605  0.1767 -0.0654  0.3025
 1962SOL    HW117519   3.323   1.168   0.586 -0.6017  0.4114 -2.4679
 1962SOL    HW217520   3.255   1.284   0.531 -1.0047 -2.4268  0.5120
 1963SOL     OW17521   4.080   3.780  12.981 -0.3925  0.0405  0.5164
 1963SOL    HW117522   4.152   3.718  12.971 -1.9953 -1.5897 -0.9093
 1963SOL    HW217523   4.028   3.721  13.036 -1.3468  1.1690  0.8268
 1964SOL     OW17524   2.854   1.046   1.386  0.3333 -0.0588 -0.3833
 1964SOL    HW117525   2.823   1.112   1.448  1.7666  0.1867  0.0789
 1964SOL    HW217526   2.835   1.086   1.301 -2.9944  0.5930  0.6650
 1965SOL     OW17527   4.382   2.638   3.500  0.2162  0.0084 -0.1995
 1965SOL    HW117528   4.472   2.671   3.496  0.1430  0.1515 -0.7004
 1965SOL    HW217529   4.364   2.683   3.583 -0.4254  0.8263 -0.7858
 1966SOL     OW17530   2.848   3.928   5.631 -0.0373  0.3857  0.4327
 1966SOL    HW117531   2.887   4.005   5.590  1.2993 -0.0201  0.9484
 1966SOL    HW217532   2.765   3.907   5.587  0.6946  3.5535 -2.3923
 1967SOL     OW17533   2.556   2.188   4.164 -0.1425  0.8317  0.0648
 1967SOL    HW117534   2.637   2.203   4.213 -0.5858 -1.9215  1.6529
 1967SOL    HW217535   2.576   2.247   4.091 -0.0058 -0.9583 -1.3572
 1968SOL     OW17536   2.093   2.201  14.734  0.3566 -0.5596  0.5127
 1968SOL    HW117537   2.117   2.277  14.681 -4.6086  0.6083 -0.0625
 1968SOL    HW217538   2.071   2.252  14.811 -0.2444 -0.9730  0.6185
 1969SOL     OW17539   2.013   1.103   3.909 -0.3359 -0.0123 -0.4394
 1969SOL    HW117540   1.951   1.063   3.970  1.3831 -0.7632  0.8401
 1969SOL    HW217541   2.021   1.187   3.954 -1.8520 -0.5706  0.8644
 1970SOL     OW17542   2.775   3.023  12.950  0.6990  0.2133 -0.4435
 1970SOL    HW117543   2.736   3.002  13.035  0.8712  1.4499 -0.0588
 1970SOL    HW217544   2.806   2.932  12.943  0.4313 -0.0728  2.0194
 1971SOL     OW17545   2.043   2.423   2.952  0.1688  0.7953 -0.4969
 1971SOL    HW117546   2.073   2.511   2.929 -0.0800  0.9399 -0.2655
 1971SOL    HW217547   2.070   2.379   2.871  0.7992  2.7290 -1.3447
 1972SOL     OW17548   0.979   2.954   8.766  0.0988  0.2722 -0.1962
 1972SOL    HW117549   0.919   3.013   8.810 -0.0756  0.0128 -0.0869
 1972SOL    HW217550   0.941   2.874   8.803  3.1176 -0.9585  0.3223
 1973SOL     OW17551   0.144   0.263   5.786 -0.3999 -0.2350  0.4295
 1973SOL    HW117552   0.134   0.344   5.837 -1.0268  0.7110 -1.1948
 1973SOL    HW217553   0.239   0.268   5.791 -0.2049  0.5716 -4.1443
 1974SOL     OW17554   3.156   4.270   4.186 -0.0056  0.4392 -0.4291
 1974SOL    HW117555   3.155   4.235   4.276  3.4225 -1.2797 -1.0847
 1974SOL    HW217556   3.076   4.221   4.166  0.1234 -0.3810  1.0093
 1975SOL     OW17557   1.172   2.309  14.057  0.0701 -0.0422 -0.1429
 1975SOL    HW117558   1.209   2.226  14.026 -0.6787  0.8963 -3.5023
 1975SOL    HW217559   1.079   2.308  14.034  0.2175 -2.3142 -0.6538
 1976SOL     OW17560   3.890   2.961   4.255  0.5888 -0.5138 -0.1443
 1976SOL    HW117561   3.847   3.020   4.193  0.2482 -0.7845 -0.1641
 1976SOL    HW217562   3.842   2.980   4.335 -1.3664  2.7385 -2.1014
 1977SOL     OW17563   2.275   2.321   8.609 -0.1424 -0.3080 -0.7677
 1977SOL    HW117564   2.300   2.262   8.680 -2.9207  0.0776  0.5272
 1977SOL    HW217565   2.313   2.278   8.532 -1.5190 -1.2829 -0.9059
 1978SOL     OW17566   4.614   1.110  17.260 -0.1604 -0.0886 -0.0979
 1978SOL    HW117567   4.558   1.147  17.191  1.7629  0.7299 -1.2492
 1978SOL    HW217568   4.696   1.114  17.209  0.3255  2.5292  0.9002
 1979SOL     OW17569   4.675   4.709  15.729 -0.1083 -0.0803 -0.3648
 1979SOL    HW117570   4.617   0.018  15.669 -1.9388 -2.7038 -0.7174
 1979SOL    HW217571   4.616   4.671  15.794 -0.5108  0.8286 -0.2014
 1980SOL     OW17572   4.525   2.622   3.858 -0.2832 -0.1119  0.1777
 1980SOL    HW117573   4.553   2.672   3.935  1.0138  0.2766 -0.5554
 1980SOL    HW217574   4.460   2.679   3.820  1.7014  1.3378 -1.0231
 1981SOL     OW17575   3.403   3.584   6.727 -0.2280 -0.0398  0.2302
 1981SOL    HW117576   3.424   3.556   6.816 -1.0413 -1.7794 -0.1276
 1981SOL    HW217577   3.433   3.506   6.681 -0.0600  0.4403 -0.4660
 1982SOL     OW17578   4.487   0.443   9.599  0.7300 -0.1804  0.0437
 1982SOL    HW117579   4.433   0.518   9.575  1.8318  0.7225  0.3827
 1982SOL    HW217580   4.565   0.497   9.613  0.2023  1.0053 -1.5832
 1983SOL     OW17581   2.641   2.417   7.174  0.1587  0.5691 -0.2844
 1983SOL    HW117582   2.728   2.379   7.162 -0.4642 -1.7505  2.4682
 1983SOL    HW217583   2.582   2.360   7.124 -0.8813  0.8835  0.5828
 1984SOL     OW17584   3.401   4.285  16.950 -0.2665 -0.2540 -0.6708
 1984SOL    HW117585   3.425   4.274  17.042 -1.4005  0.0893 -0.3234
 1984SOL    HW217586   3.422   4.201  16.909 -1.9014  0.1503 -2.3172
 1985SOL     OW17587   2.934   2.988   5.565  0.8764  0.1069  0.6045
 1985SOL    HW117588   2.919   2.979   5.471  1.7638  1.6924  0.3092
 1985SOL    HW217589   2.952   3.082   5.576 -3.4947  0.8906  1.0920
 1986SOL     OW17590   2.818   0.102   6.538  0.0790  0.1147  0.1140
 1986SOL    HW117591   2.838   0.013   6.569  1.5321  0.7953  1.1058
 1986SOL    HW217592   2.723   0.109   6.553  0.0341  1.1736 -0.6845
 1987SOL     OW17593   0.176   1.582   9.708  0.7303  0.7426  0.0356
 1987SOL    HW117594   0.150   1.497   9.743  3.4909  0.3751  1.1681
 1987SOL    HW217595   0.088   1.620   9.705  0.6186  0.5143  0.3695
 1988SOL     OW17596   0.627   2.735   4.999 -0.0066  0.2290 -0.6162
 1988SOL    HW117597   0.680   2.736   4.919 -0.1954 -1.5586 -0.7539
 1988SOL    HW217598   0.654   2.818   5.038  0.2152  1.0972 -2.5998
 1989SOL     OW17599   4.665   1.863  11.579  0.0412  0.4590  0.1847
 1989SOL    HW117600   0.007   1.869  11.629  1.1957  1.1817 -1.7825
 1989SOL    HW217601   4.668   1.945  11.530  0.7751  0.2454 -0.1268
 1990SOL     OW17602   2.655   1.092   2.445  0.6289  0.9053  0.4555
 1990SOL    HW117603   2.701   1.118   2.365 -0.0348  1.2281  0.1779
 1990SOL    HW217604   2.723   1.059   2.503  0.0394 -3.7326 -1.4621
 1991SOL     OW17605   3.113   4.472   3.655  0.0918  0.4344 -0.4084
 1991SOL    HW117606   3.085   4.396   3.706 -0.0399  0.7953  0.0573
 1991SOL    HW217607   3.096   4.543   3.717  1.6830  0.8860 -0.4792
 1992SOL     OW17608   0.826   4.636   3.633 -0.0908  0.0373  0.0057
 1992SOL    HW117609   0.741   4.597   3.655  0.3683 -0.5517  0.7232
 1992SOL    HW217610   0.864   4.664   3.715  1.8422 -1.9477 -0.2183
 1993SOL     OW17611   0.338   1.348   8.436  0.0486 -0.4175 -0.2400
 1993SOL    HW117612   0.259   1.402   8.432  0.7242  0.5489 -0.5224
 1993SOL    HW217613   0.389   1.399   8.374 -0.1318  2.1473  1.6754
 1994SOL     OW17614   2.245   2.652   3.888 -0.1171 -0.6729 -0.4853
 1994SOL    HW117615   2.229   2.715   3.818 -1.2266  1.3185  1.5813
 1994SOL    HW217616   2.161   2.606   3.895 -1.1450  1.0795 -1.3776
 1995SOL     OW17617   0.370   3.500   4.629 -0.2440 -0.0568 -0.3149
 1995SOL    HW117618   0.423   3.443   4.573 -1.4719 -1.2924 -0.2160
 1995SOL    HW217619   0.436   3.545   4.683 -2.8914  2.9536  0.4560
 1996SOL     OW17620   3.650   1.535   3.577  0.1941  0.9103  0.0121
 1996SOL    HW117621   3.596   1.544   3.655  0.2451  0.3258  0.1155
 1996SOL    HW217622   3.679   1.626   3.588  0.5268  0.9400 -1.0748
 1997SOL     OW17623   4.367   2.203   1.235 -0.0886 -1.1043 -0.0419
 1997SOL    HW117624   4.307   2.130   1.248 -2.1425  0.5919 -0.1062
 1997SOL    HW217625   4.333   2.280   1.281 -0.7303 -2.4488  1.7711
 1998SOL     OW17626   2.375   2.191   6.387 -0.0885 -0.0302  0.2544
 1998SOL    HW117627   2.331   2.213   6.304 -1.0890  0.6303  0.9522
 1998SOL    HW217628   2.297   2.188   6.443  0.1561  1.3983  0.6728
 1999SOL     OW17629   1.234   3.855   4.124  0.1663 -0.4082  0.7008
 1999SOL    HW117630   1.206   3.772   4.163 -2.5420  1.5674  2.9725
 1999SOL    HW217631   1.314   3.844   4.073  1.6852  1.1077  2.7549
 2000SOL     OW17632   2.214   3.599   1.820  0.1914  0.3533  0.9133
 2000SOL    HW117633   2.122   3.574   1.825  0.3859 -0.4750  0.3124
 2000SOL    HW217634   2.239   3.596   1.728 -0.1729  1.9102  0.7680
 2001SOL     OW17635   3.425   2.270   5.951 -0.2043 -0.3049  0.5779
 2001SOL    HW117636   3.346   2.319   5.926  2.9682  2.6378 -3.5697
 2001SOL    HW217637   3.455   2.330   6.019  1.7333 -2.3727  1.5471
 2002SOL     OW17638   3.816   3.976  11.588  0.3270  0.4155 -0.0062
 2002SOL    HW117639   3.753   3.926  11.639  0.5800 -2.5157 -2.5897
 2002SOL    HW217640   3.757   3.999  11.516  1.3883 -1.2870 -1.4055
 2003SOL     OW17641   2.546   0.660   4.025  0.1986  1.1397  0.1035
 2003SOL    HW117642   2.490   0.734   4.003 -1.8527 -0.2331  0.6947
 2003SOL    HW217643   2.544   0.607   3.946 -0.1225  0.5885  0.4758
 2004SOL     OW17644   1.953   0.696   2.737  0.0552  0.4608 -0.1952
 2004SOL    HW117645   1.936   0.740   2.653 -1.1440  2.5125  1.1030
 2004SOL    HW217646   2.026   0.752   2.764  1.2777 -1.9716  1.5319
 2005SOL     OW17647   2.123   1.295   8.135  0.8271 -0.3521  0.3139
 2005SOL    HW117648   2.188   1.236   8.095 -0.5319 -0.2214 -2.1109
 2005SOL    HW217649   2.054   1.283   8.069  1.5309  1.2780 -0.7100
 2006SOL     OW17650   3.387   3.904   5.241 -0.1063 -0.2575  0.2893
 2006SOL    HW117651   3.321   3.959   5.198  3.2871  1.1104 -3.1180
 2006SOL    HW217652   3.446   3.975   5.261 -0.6787  0.3218 -0.0755
 2007SOL     OW17653   1.031   4.326   8.635 -0.0742  0.2374 -0.4382
 2007SOL    HW117654   1.049   4.343   8.728  2.0097  3.1475 -1.3887
 2007SOL    HW217655   1.099   4.258   8.629  0.1661  0.5877 -1.5953
 2008SOL     OW17656   2.946   3.555   3.589 -0.3706 -0.0646 -0.1150
 2008SOL    HW117657   2.951   3.610   3.510  0.5863  0.5623  0.3886
 2008SOL    HW217658   2.945   3.470   3.544  1.3743 -0.7065  1.0713
 2009SOL     OW17659   4.633   1.433   2.892  0.2195 -0.0698  0.0915
 2009SOL    HW117660   4.601   1.515   2.853  1.8589 -1.2318 -3.7859
 2009SOL    HW217661   4.561   1.378   2.861 -2.4093  1.5233  3.4323
 2010SOL     OW17662   0.981   3.591   6.248  0.1659 -0.4177  0.2971
 2010SOL    HW117663   1.049   3.575   6.314  0.8300 -0.3800 -0.3727
 2010SOL    HW217664   0.988   3.507   6.202  3.9435  0.4910 -0.8465
 2011SOL     OW17665   1.921   1.055   0.281 -0.2462  0.0333  0.4388
 2011SOL    HW117666   1.982   1.117   0.240 -1.4273  0.3340 -0.8917
 2011SOL    HW217667   1.956   1.054   0.370 -4.2216  1.9873  2.0036
 2012SOL     OW17668   2.082   2.662  12.936 -0.4675  0.2709 -0.5845
 2012SOL    HW117669   2.124   2.745  12.957 -2.3596  1.6239 -2.1182
 2012SOL    HW217670   2.114   2.637  12.849  0.8279  1.3074 -0.4012
 2013SOL     OW17671   1.307   4.603   5.448  0.1013  0.0402 -0.3615
 2013SOL    HW117672   1.383   4.556   5.482 -1.0671 -0.8580  0.9657
 2013SOL    HW217673   1.340   4.646   5.369 -2.1003 -1.4300 -2.0954
 2014SOL     OW17674   3.132   0.864   0.268 -0.0153 -0.0721 -0.2417
 2014SOL    HW117675   3.143   0.818   0.351 -0.1060 -1.4537 -0.9875
 2014SOL    HW217676   3.059   0.815   0.228  1.6283 -1.4714 -1.5262
 2015SOL     OW17677   2.187   3.033  16.506 -0.2425  0.0528 -0.3345
 2015SOL    HW117678   2.190   3.121  16.470  0.2604 -0.5370 -1.7559
 2015SOL    HW217679   2.280   3.018  16.524 -0.2089  0.0805 -0.4819
 2016SOL     OW17680   1.421   4.639   3.479 -0.0390  0.1757 -0.5622
 2016SOL    HW117681   1.505   4.628   3.435  1.4330  1.6829  1.9002
 2016SOL    HW217682   1.369   4.571   3.436 -0.7286  0.0667  0.4317
 2017SOL     OW17683   2.632   1.163   6.439  0.4912  0.1724  0.5351
 2017SOL    HW117684   2.707   1.143   6.382 -0.2409 -0.2497 -0.2739
 2017SOL    HW217685   2.652   1.112   6.518 -0.8868 -2.4771 -0.8375
 2018SOL     OW17686   3.932   4.469  14.893  0.2177 -0.4955 -0.5808
 2018SOL    HW117687   3.955   4.415  14.817 -0.0911 -0.0850 -0.9647
 2018SOL    HW217688   3.836   4.474  14.896  0.1901 -1.2366 -0.2532
 2019SOL     OW17689   3.395   1.935   2.292 -0.0733  0.5719 -0.0127
 2019SOL    HW117690   3.488   1.919   2.307 -0.6800  0.6755  3.9704
 2019SOL    HW217691   3.361   1.975   2.372  1.1840  0.0011  0.7916
 2020SOL     OW17692   2.264   1.971  14.132 -0.2821  0.2329  0.7195
 2020SOL    HW117693   2.289   1.883  14.103  3.0842  1.3815  0.1209
 2020SOL    HW217694   2.239   2.013  14.050 -0.9198  0.4138  1.0087
 2021SOL     OW17695   4.539   2.311   5.236 -0.2088 -0.5754 -0.0218
 2021SOL    HW117696   4.471   2.311   5.303  0.7010  2.1584  0.8917
 2021SOL    HW217697   4.500   2.283   5.153  1.1928  1.0579 -1.2288
 2022SOL     OW17698   1.916   1.484   3.875  0.7319 -0.4872  0.3501
 2022SOL    HW117699   1.902   1.558   3.816 -2.1923 -2.3001 -1.2521
 2022SOL    HW217700   1.866   1.418   3.827 -1.7395  0.4833  1.6338
 2023SOL     OW17701   1.604   0.250   8.759 -0.2533 -0.0210 -0.5627
 2023SOL    HW117702   1.570   0.337   8.777  0.4836 -0.1558  1.4676
 2023SOL    HW217703   1.526   0.203   8.730 -1.6936  1.1620  1.4428
 2024SOL     OW17704   3.108   3.321   1.798 -0.1297 -0.1565  0.0524
 2024SOL    HW117705   3.199   3.327   1.767  0.3755 -3.5776  0.8728
 2024SOL    HW217706   3.069   3.266   1.730 -0.1580  1.2992 -1.1091
 2025SOL     OW17707   1.793   1.443   6.983 -0.9997 -0.2844 -0.1797
 2025SOL    HW117708   1.750   1.365   6.948 -0.8795  0.3050 -1.6335
 2025SOL    HW217709   1.828   1.423   7.071  1.2192 -3.0311 -1.6711
 2026SOL     OW17710   1.842   2.766  16.747  0.1661 -0.2036  0.4254
 2026SOL    HW117711   1.748   2.749  16.751  0.3623 -0.4618  3.4644
 2026SOL    HW217712   1.864   2.696  16.808 -0.4878 -0.0591  0.8334
 2027SOL     OW17713   3.461   0.907  17.625  0.2505 -0.3044  0.6142
 2027SOL    HW117714   3.379   0.899  17.576 -0.0176  0.2028  0.9955
 2027SOL    HW217715   3.445   0.849  17.699  0.1230 -1.0397  0.0130
 2028SOL     OW17716   4.113   3.131   9.345  0.3001 -0.1051  0.4510
 2028SOL    HW117717   4.128   3.207   9.290  0.0008 -1.9439 -2.1476
 2028SOL    HW217718   4.062   3.080   9.282 -0.8314  0.0144  1.2610
 2029SOL     OW17719   0.396   1.711  13.152  0.0793 -0.2764  0.5167
 2029SOL    HW117720   0.366   1.725  13.062  1.1271  1.7687  0.4698
 2029SOL    HW217721   0.471   1.771  13.159  1.2827 -1.6502 -0.6237
 2030SOL     OW17722   4.336   1.391  15.220  0.0170  0.9034  0.5284
 2030SOL    HW117723   4.420   1.402  15.264 -0.1540  2.7212  0.3955
 2030SOL    HW217724   4.314   1.299  15.233  0.3836  0.9035  1.1868
 2031SOL     OW17725   3.645   0.020   6.514  0.4630 -0.0565  0.4761
 2031SOL    HW117726   3.672   4.730   6.427 -2.8759  1.5275 -1.0910
 2031SOL    HW217727   3.585   0.094   6.503  2.1135  1.6800  2.9577
 2032SOL     OW17728   4.536   3.857  14.745  0.5005  0.2553  0.3836
 2032SOL    HW117729   4.479   3.872  14.670  3.7812 -0.9743 -2.3397
 2032SOL    HW217730   4.538   3.761  14.747  2.4003  0.2334 -2.4345
 2033SOL     OW17731   0.676   3.576  10.292 -0.5798  0.2361  0.6348
 2033SOL    HW117732   0.760   3.614  10.266 -0.0949  0.6493  2.8532
 2033SOL    HW217733   0.642   3.634  10.360 -0.6933  1.7226 -0.6908
 2034SOL     OW17734   0.876   0.519   5.715 -0.2029  0.3834  0.2222
 2034SOL    HW117735   0.837   0.453   5.771  0.6112 -2.1273 -2.1700
 2034SOL    HW217736   0.815   0.587   5.746 -1.0776 -0.6010  0.6333
 2035SOL     OW17737   1.297   1.428  15.321  0.1450 -0.3084 -0.4302
 2035SOL    HW117738   1.333   1.340  15.335  1.3283  0.7548  3.1814
 2035SOL    HW217739   1.375   1.472  15.354 -1.9444  1.7250  1.7781
 2036SOL     OW17740   0.429   1.811   9.010  0.2196 -0.1155  0.0317
 2036SOL    HW117741   0.376   1.743   9.052 -0.5403  0.8779  0.6692
 2036SOL    HW217742   0.511   1.763   9.019 -0.6166 -1.4484  0.5787
 2037SOL     OW17743   2.602   3.234   6.644  0.1352  0.2355 -0.0342
 2037SOL    HW117744   2.573   3.155   6.691  0.0167 -1.0160 -2.2331
 2037SOL    HW217745   2.694   3.228   6.670  0.6149 -0.1120 -1.8618
 2038SOL     OW17746   1.395   0.701   2.288 -0.0449  0.2231 -0.2301
 2038SOL    HW117747   1.486   0.727   2.271  0.8912 -2.5802  0.5208
 2038SOL    HW217748   1.347   0.717   2.207  2.5090  0.8766 -1.6019
 2039SOL     OW17749   1.074   2.259   6.443  0.3977  0.9718  0.0650
 2039SOL    HW117750   1.030   2.295   6.520 -1.1103 -0.0609 -0.3164
 2039SOL    HW217751   1.144   2.323   6.429  0.5404  0.9476  0.6434
 2040SOL     OW17752   3.288   3.142  17.590 -0.1707 -0.2205  0.2393
 2040SOL    HW117753   3.306   3.236  17.594 -3.3544  0.4902 -1.7406
 2040SOL    HW217754   3.351   3.106  17.652 -1.8242 -2.1993  0.7597
 2041SOL     OW17755   1.615   1.822   7.120 -0.0900  0.2309  0.0496
 2041SOL    HW117756   1.697   1.828   7.071  0.2028  1.4240  0.6950
 2041SOL    HW217757   1.652   1.843   7.205  2.1773 -1.7734 -0.4529
 2042SOL     OW17758   1.205   2.069  12.878  0.3002  0.2014  0.0959
 2042SOL    HW117759   1.267   2.059  12.806  0.4554  0.8450  0.1410
 2042SOL    HW217760   1.157   1.987  12.867  0.2217 -0.2795  4.0528
 2043SOL     OW17761   2.502   2.253   2.548 -0.4682  0.0099 -0.3564
 2043SOL    HW117762   2.494   2.302   2.466 -1.3182 -1.3156 -1.0811
 2043SOL    HW217763   2.568   2.308   2.589  2.5679 -3.5127 -0.5252
 2044SOL     OW17764   1.648   3.677   4.691  0.6370 -1.0918  0.2649
 2044SOL    HW117765   1.609   3.754   4.652 -0.2934 -1.5313  0.3378
 2044SOL    HW217766   1.724   3.663   4.634  0.4320 -0.7293 -0.0981
 2045SOL     OW17767   2.181   3.290   0.366 -0.6197 -0.1437 -0.7316
 2045SOL    HW117768   2.254   3.273   0.306  1.4018  0.0306  1.6885
 2045SOL    HW217769   2.223   3.340   0.436 -1.0564  0.1538 -0.6865
 2046SOL     OW17770   0.966   4.619   4.719 -0.1641 -0.5524  0.3835
 2046SOL    HW117771   1.002   4.697   4.761 -0.5062 -0.3303  0.2687
 2046SOL    HW217772   0.993   4.642   4.630 -0.9924 -2.5020 -0.3666
 2047SOL     OW17773   4.146   2.970   8.192 -0.3814  0.3767  0.0737
 2047SOL    HW117774   4.152   2.879   8.221  2.7049  0.6815  0.4797
 2047SOL    HW217775   4.211   3.016   8.246 -1.3556  1.1684  0.5702
 2048SOL     OW17776   0.754   3.172   4.587  0.1082 -0.2447 -0.5554
 2048SOL    HW117777   0.781   3.128   4.667 -2.4043 -0.9058 -0.0585
 2048SOL    HW217778   0.774   3.110   4.517  1.3698  0.9751 -1.2939
 2049SOL     OW17779   2.536   2.286   0.818  0.3319 -0.5152  0.0025
 2049SOL    HW117780   2.482   2.226   0.767 -0.9890 -0.0161  0.8046
 2049SOL    HW217781   2.560   2.225   0.888  0.2252  0.2667  0.7203
 2050SOL     OW17782   1.902   2.978   8.569 -0.5641  0.9054  0.1799
 2050SOL    HW117783   1.899   2.959   8.663  2.9882  1.7461  0.4795
 2050SOL    HW217784   1.996   2.981   8.552 -0.4652 -0.5771  0.4401
 2051SOL     OW17785   2.670   3.816   3.258 -0.2023 -0.4656  0.3692
 2051SOL    HW117786   2.598   3.865   3.298 -2.4530 -1.9495 -1.8814
 2051SOL    HW217787   2.665   3.836   3.165  1.4339  0.3376  0.4418
 2052SOL     OW17788   0.610   0.263   3.749 -0.4524 -0.1596  0.7916
 2052SOL    HW117789   0.579   0.352   3.762  2.0000  1.0102 -1.4568
 2052SOL    HW217790   0.704   0.282   3.755 -0.4510  0.2296 -0.5396
 2053SOL     OW17791   1.149   2.574   7.742 -0.0532 -0.4259 -0.4680
 2053SOL    HW117792   1.155   2.640   7.812 -0.1813  0.4203 -1.2536
 2053SOL    HW217793   1.143   2.495   7.796 -0.6370 -0.5145 -0.6616
 2054SOL     OW17794   2.271   1.140   1.523  0.1313 -0.3254 -0.8750
 2054SOL    HW117795   2.199   1.117   1.464  1.4878  1.6511 -3.2761
 2054SOL    HW217796   2.338   1.126   1.456  0.0019 -2.8269 -0.4843
 2055SOL     OW17797   0.685   3.241   6.594 -0.0004 -1.0409  0.6608
 2055SOL    HW117798   0.599   3.240   6.636  0.8274  3.3691  2.4166
 2055SOL    HW217799   0.719   3.327   6.619 -0.8103 -1.0684  1.8166
 2056SOL     OW17800   2.571   2.294   8.925  1.0223  0.3441 -0.3779
 2056SOL    HW117801   2.639   2.291   8.992  0.0641 -0.8546  0.5482
 2056SOL    HW217802   2.614   2.321   8.843 -0.0191  0.5526 -0.8626
 2057SOL     OW17803   2.221   3.650   6.981  0.0990  0.1761 -0.1169
 2057SOL    HW117804   2.167   3.581   7.021  0.6130 -0.5453 -0.6549
 2057SOL    HW217805   2.303   3.600   6.981 -0.0478 -0.0795 -1.0290
 2058SOL     OW17806   2.918   0.289   2.720  0.0776  0.3493 -0.2403
 2058SOL    HW117807   2.970   0.336   2.785  0.9092 -0.0915 -0.5808
 2058SOL    HW217808   2.987   0.263   2.659  2.4792  2.4591  1.5797
 2059SOL     OW17809   3.208   0.677  10.926  0.2273 -0.0244 -0.1735
 2059SOL    HW117810   3.119   0.652  10.899 -1.0396  1.3961  2.6802
 2059SOL    HW217811   3.191   0.681  11.020  1.1663 -0.8619  0.0256
 2060SOL     OW17812   1.029   0.342  16.695 -0.1400 -0.1346  0.2181
 2060SOL    HW117813   1.033   0.253  16.729  0.3077 -1.1871 -2.5806
 2060SOL    HW217814   0.949   0.331  16.643  0.4223  0.9741 -0.8613
 2061SOL     OW17815   4.738   0.451   9.415  0.1086 -0.8341 -0.4939
 2061SOL    HW117816   4.718   0.472   9.506  0.7035 -0.3831 -0.4719
 2061SOL    HW217817   4.667   0.499   9.372  0.8377  0.2212 -0.4995
 2062SOL     OW17818   1.155   3.509   5.121  0.2482 -0.2263  0.1684
 2062SOL    HW117819   1.234   3.518   5.068 -0.5458 -0.6699 -1.1003
 2062SOL    HW217820   1.114   3.427   5.091 -1.7193  1.2048 -1.0497
 2063SOL     OW17821   2.580   0.610   3.329 -0.5586  0.3325  0.2618
 2063SOL    HW117822   2.608   0.701   3.334  1.0396 -0.2370  1.9245
 2063SOL    HW217823   2.630   0.576   3.404  1.5505  2.0364 -0.3670
 2064SOL     OW17824   0.851   2.118  17.399  0.6627  0.0685  0.4218
 2064SOL    HW117825   0.821   2.040  17.352 -0.6556  1.8340 -1.6596
 2064SOL    HW217826   0.899   2.075  17.470 -0.4601 -2.1432 -0.1283
 2065SOL     OW17827   3.388   2.895  11.294 -0.6460  0.5180 -0.2103
 2065SOL    HW117828   3.362   2.818  11.243  1.5474 -2.2124  2.8401
 2065SOL    HW217829   3.419   2.958  11.229  2.7608  0.2607  1.1591
 2066SOL     OW17830   3.038   4.728   8.637 -0.3269  0.7178 -0.3936
 2066SOL    HW117831   3.094   0.065   8.653 -0.5490  0.0629  3.5538
 2066SOL    HW217832   3.022   4.687   8.722 -2.1320  0.8505 -0.6516
 2067SOL     OW17833   2.850   0.482   6.031 -0.3951 -0.2257  0.2491
 2067SOL    HW117834   2.780   0.498   6.095  0.0825 -0.3370  0.7961
 2067SOL    HW217835   2.838   0.559   5.975 -4.0978 -1.7716 -1.1000
 2068SOL     OW17836   4.581   2.894  10.756  0.2739  0.1394 -0.0137
 2068SOL    HW117837   4.501   2.924  10.799 -0.7794 -0.6341 -1.4435
 2068SOL    HW217838   4.547   2.808  10.733 -1.5576  0.3268  1.9874
 2069SOL     OW17839   1.492   1.591  14.291  0.3362 -0.1899 -0.3307
 2069SOL    HW117840   1.478   1.626  14.203 -1.2560  0.3686  0.1587
 2069SOL    HW217841   1.405   1.569  14.323  0.4959 -0.3043  0.0284
 2070SOL     OW17842   1.926   3.691   5.384 -0.7239  0.3718 -0.5983
 2070SOL    HW117843   1.850   3.670   5.437  1.3351 -0.0223  2.1770
 2070SOL    HW217844   2.002   3.678   5.440  1.0793  1.6811 -2.7096
 2071SOL     OW17845   2.634   0.939   5.349  0.1020 -0.0466 -0.1312
 2071SOL    HW117846   2.729   0.946   5.361  0.0615  1.4354 -0.5859
 2071SOL    HW217847   2.609   0.881   5.421  0.7069  0.4700  0.4989
 2072SOL     OW17848   2.778   4.358   2.883 -0.2088 -0.1503  0.0540
 2072SOL    HW117849   2.809   4.448   2.889 -0.2890 -0.0300 -1.4913
 2072SOL    HW217850   2.817   4.313   2.959 -0.0461 -1.9740 -1.1062
 2073SOL     OW17851   0.368   2.291   5.008  0.1504  0.0350 -0.1209
 2073SOL    HW117852   0.420   2.217   4.978 -2.2658 -1.6887 -0.1098
 2073SOL    HW217853   0.414   2.368   4.977 -1.0095  0.3858 -1.0087
 2074SOL     OW17854   4.138   4.601   8.582  0.2705  0.0369 -0.3202
 2074SOL    HW117855   4.189   4.641   8.651 -0.3969 -0.9561  0.7620
 2074SOL    HW217856   4.069   4.667   8.571 -0.7005 -1.0775 -1.0632
 2075SOL     OW17857   0.290   3.887   2.500 -0.0003  0.0534 -0.0516
 2075SOL    HW117858   0.196   3.877   2.513  0.0643 -0.8565 -0.3086
 2075SOL    HW217859   0.302   3.878   2.406  0.0527  2.1831 -0.2569
 2076SOL     OW17860   4.270   0.034   7.281  0.3710  0.1899  0.1355
 2076SOL    HW117861   4.309   0.019   7.195  0.0015  0.3523 -0.0571
 2076SOL    HW217862   4.255   0.127   7.296  0.1959  0.0574  0.8047
 2077SOL     OW17863   2.000   3.356   8.694 -0.4505  0.0024 -0.6318
 2077SOL    HW117864   1.980   3.449   8.683  1.1390  0.2163 -1.5876
 2077SOL    HW217865   1.911   3.322   8.684 -0.5183  0.8975 -3.0491
 2078SOL     OW17866   1.602   1.060   4.859 -0.2558  0.0324 -0.0589
 2078SOL    HW117867   1.668   0.991   4.857 -0.0462  0.2168  0.4562
 2078SOL    HW217868   1.651   1.135   4.894 -0.9102 -0.6818  2.3860
 2079SOL     OW17869   3.503   0.555   7.993 -0.3887  0.2711  0.2759
 2079SOL    HW117870   3.558   0.571   7.916 -0.7757  0.7350  0.0912
 2079SOL    HW217871   3.513   0.460   7.992  0.5458  0.3934 -1.7776
 2080SOL     OW17872   0.088   1.929   1.342  0.4121 -0.1576 -0.0802
 2080SOL    HW117873   0.179   1.942   1.317  0.7990 -0.8690  0.9213
 2080SOL    HW217874   0.089   1.918   1.437  0.2490  1.7502  0.1315
 2081SOL     OW17875   4.674   2.294  10.505  0.4999 -0.6156  0.2616
 2081SOL    HW117876   4.704   2.327  10.590 -1.0784  1.0689  0.1665
 2081SOL    HW217877   0.005   2.233  10.482  1.1420  0.4253 -0.5141
 2082SOL     OW17878   4.305   3.833   4.412  0.2350  0.0980 -0.5887
 2082SOL    HW117879   4.260   3.917   4.421  0.9270  0.2232  1.6413
 2082SOL    HW217880   4.291   3.803   4.322 -1.7428 -0.9234  0.0703
 2083SOL     OW17881   3.453   3.276  13.463 -0.0561 -0.1800 -0.1286
 2083SOL    HW117882   3.415   3.362  13.480  1.5212  0.0526  2.1984
 2083SOL    HW217883   3.414   3.242  13.382 -0.4803 -1.6340  0.6851
 2084SOL     OW17884   3.408   2.467   1.785  0.0592  0.2444  0.0652
 2084SOL    HW117885   3.333   2.507   1.829  0.0528 -0.9239  1.1258
 2084SOL    HW217886   3.396   2.507   1.699  0.1887  1.5898  0.6837
 2085SOL     OW17887   0.686   0.274   4.603 -0.1968 -0.3579  0.2324
 2085SOL    HW117888   0.633   0.252   4.680  0.1457  1.9973  1.1287
 2085SOL    HW217889   0.697   0.186   4.567 -0.5820 -0.9946  1.6536
 2086SOL     OW17890   4.018   0.244  10.040  0.1602  0.1209 -0.4609
 2086SOL    HW117891   4.016   0.302  10.116  3.9570 -0.6847  0.2058
 2086SOL    HW217892   3.966   0.169  10.069 -2.5684  2.6775  1.3845
 2087SOL     OW17893   0.783   0.294   4.928  0.2109  0.0147 -0.2141
 2087SOL    HW117894   0.735   0.368   4.893 -1.7011 -1.8063 -1.4598
 2087SOL    HW217895   0.743   0.217   4.887  0.3304  0.4593 -1.1530
 2088SOL     OW17896   1.006   2.255  17.125  0.4261 -0.4851  0.0407
 2088SOL    HW117897   0.982   2.298  17.207  0.4372  0.5080 -0.4827
 2088SOL    HW217898   1.074   2.199  17.163  1.6327 -1.9335 -4.2433
 2089SOL     OW17899   2.324   1.423   4.781 -0.3767 -0.5095  0.5912
 2089SOL    HW117900   2.378   1.500   4.765  0.2330 -0.9231  0.6428
 2089SOL    HW217901   2.370   1.392   4.859 -1.1038  0.0463  1.2482
 2090SOL     OW17902   2.307   4.210   1.449  0.0459 -0.6107  0.2743
 2090SOL    HW117903   2.298   4.272   1.521 -0.1849  0.9978 -1.1541
 2090SOL    HW217904   2.385   4.248   1.408 -1.9032  1.0033 -1.9908
 2091SOL     OW17905   1.079   0.917  17.237 -0.4210  1.3373  0.2206
 2091SOL    HW117906   1.165   0.885  17.265 -0.0312 -0.1675 -2.6395
 2091SOL    HW217907   1.024   0.860  17.289  0.3160 -0.8618 -1.4017
 2092SOL     OW17908   0.578   1.557   9.813 -0.2972  0.0653 -0.0811
 2092SOL    HW117909   0.649   1.581   9.873 -0.2008  0.4783 -0.3605
 2092SOL    HW217910   0.506   1.607   9.850 -0.0564 -1.7803  2.9281
 2093SOL     OW17911   0.930   1.168   6.934 -0.3266 -0.2176 -0.3118
 2093SOL    HW117912   0.972   1.100   6.988 -0.4295 -0.6890 -0.8286
 2093SOL    HW217913   0.991   1.242   6.944 -0.5655 -0.3381  2.1872
 2094SOL     OW17914   4.233   0.184  11.482 -0.0891 -0.2862  0.0618
 2094SOL    HW117915   4.185   0.221  11.408  0.7659 -0.4057 -0.5611
 2094SOL    HW217916   4.320   0.221  11.465  0.3215 -0.2607  2.3215
 2095SOL     OW17917   0.182   2.995   7.231 -0.3404 -0.0263 -0.5242
 2095SOL    HW117918   0.133   2.913   7.226 -1.0232  0.2935  1.2163
 2095SOL    HW217919   0.269   2.953   7.227 -0.6461 -0.7486  0.3487
 2096SOL     OW17920   3.612   1.697   8.620 -0.1075  0.0916 -0.2225
 2096SOL    HW117921   3.667   1.772   8.597  2.8937 -1.6814  1.1904
 2096SOL    HW217922   3.525   1.735   8.623 -0.5260 -0.9510  0.8415
 2097SOL     OW17923   0.037   3.157   5.783  0.6107 -0.2285 -0.0560
 2097SOL    HW117924   0.058   3.243   5.749  0.9028 -0.1769  0.2533
 2097SOL    HW217925   0.064   3.179   5.872  0.7635  2.4566 -0.7916
 2098SOL     OW17926   0.586   4.464   9.256 -0.2973 -0.2322  0.5960
 2098SOL    HW117927   0.620   4.497   9.340  2.7931  1.2898 -1.2562
 2098SOL    HW217928   0.496   4.496   9.256  0.4308  1.8195  0.1949
 2099SOL     OW17929   1.680   0.966   2.033 -0.1697  0.6963 -0.0701
 2099SOL    HW117930   1.732   1.003   1.962 -0.3325  0.9205 -0.0730
 2099SOL    HW217931   1.593   1.000   2.012 -1.1987 -2.4092 -0.7302
 2100SOL     OW17932   2.902   1.375   7.132  0.2198  0.5066  0.0835
 2100SOL    HW117933   2.883   1.438   7.202  3.1288  0.6136  0.7723
 2100SOL    HW217934   2.997   1.375   7.122  0.2337  1.6379  0.2251
 2101SOL     OW17935   3.883   1.042   7.765 -0.3418  0.6757  0.0122
 2101SOL    HW117936   3.820   1.114   7.762  0.1948  1.0753 -1.8156
 2101SOL    HW217937   3.954   1.097   7.799 -1.7716  2.0774  0.7293
 2102SOL     OW17938   3.888   4.233   6.539 -0.1295 -0.4533  0.1717
 2102SOL    HW117939   3.968   4.286   6.539 -0.9016  0.6996  0.1500
 2102SOL    HW217940   3.827   4.303   6.560  1.0887  1.6803 -3.5155
 2103SOL     OW17941   1.216   1.956  11.234 -0.2413  0.0268  0.1615
 2103SOL    HW117942   1.270   1.996  11.302 -0.2917 -0.3088  0.3975
 2103SOL    HW217943   1.268   1.992  11.162  1.5165 -3.2878 -0.2664
 2104SOL     OW17944   0.472   4.626   7.794  0.4850  0.2201  0.5823
 2104SOL    HW117945   0.516   4.550   7.832  1.0751  0.2790  0.0195
 2104SOL    HW217946   0.490   4.621   7.700  1.8963 -0.5072  0.8897
 2105SOL     OW17947   0.998   1.498  17.689  0.3551 -0.0686 -0.5017
 2105SOL    HW117948   0.967   1.514  17.600 -1.3013 -1.7284 -0.2130
 2105SOL    HW217949   1.091   1.488  17.668  0.1777 -1.6055 -0.5389
 2106SOL     OW17950   3.511   2.831  10.739 -0.2270  0.0245  0.0403
 2106SOL    HW117951   3.574   2.802  10.804 -0.7889 -0.0274  0.5669
 2106SOL    HW217952   3.429   2.843  10.787 -0.0287 -1.9225  0.8585
 2107SOL     OW17953   1.969   2.848   3.012  0.2305  0.6481 -0.5443
 2107SOL    HW117954   1.896   2.863   3.072  0.5467 -0.1844  0.0477
 2107SOL    HW217955   1.999   2.771   3.060 -1.4560  1.7345  2.2696
 2108SOL     OW17956   2.902   2.638   1.848  0.6028  0.1718 -0.3844
 2108SOL    HW117957   2.869   2.689   1.774 -0.8242 -2.0273 -1.2938
 2108SOL    HW217958   2.870   2.704   1.909  0.6089  0.1076 -0.3120
 2109SOL     OW17959   3.224   2.391   5.641  0.5438 -0.0738  0.1173
 2109SOL    HW117960   3.134   2.408   5.615  1.1597  3.6326  0.4861
 2109SOL    HW217961   3.219   2.439   5.724 -1.3590  1.3529 -0.8419
 2110SOL     OW17962   3.151   4.677   8.386 -0.3941  0.5382 -0.0377
 2110SOL    HW117963   3.226   4.730   8.361  0.8626 -1.4797 -0.6029
 2110SOL    HW217964   3.133   4.718   8.471 -0.0698  0.8193 -0.1044
 2111SOL     OW17965   3.057   0.243   4.316  0.2594 -0.0027  0.2565
 2111SOL    HW117966   3.063   0.149   4.296  1.1295 -0.1425  1.1436
 2111SOL    HW217967   3.020   0.226   4.403 -1.2139 -0.8877 -0.5403
 2112SOL     OW17968   0.434   0.897   3.330  0.4880 -0.2354 -0.1064
 2112SOL    HW117969   0.529   0.909   3.328  0.3625  0.5157 -2.1248
 2112SOL    HW217970   0.428   0.806   3.360 -2.2788 -0.7631 -2.2367
 2113SOL     OW17971   2.007   3.785   1.301 -0.5058  0.5218  0.4612
 2113SOL    HW117972   1.970   3.720   1.362  2.2767  0.4233  2.0178
 2113SOL    HW217973   2.078   3.743   1.253  0.9222  2.3000  1.0237
 2114SOL     OW17974   3.430   0.547  17.389 -0.1150  0.4539 -0.1795
 2114SOL    HW117975   3.421   0.608  17.463  0.6691  1.6480 -1.0646
 2114SOL    HW217976   3.459   0.469  17.436 -2.1832  1.0398  2.0495
 2115SOL     OW17977   4.217   2.337   3.001  0.4846 -0.1798 -0.2823
 2115SOL    HW117978   4.169   2.307   2.924  0.2219  0.1119 -0.2322
 2115SOL    HW217979   4.193   2.262   3.055 -3.4704 -0.0592 -1.8865
 2116SOL     OW17980   1.541   2.647  12.286 -0.2346  0.1650  0.9383
 2116SOL    HW117981   1.558   2.689  12.371  1.1139  1.1693  0.1680
 2116SOL    HW217982   1.605   2.692  12.231 -0.0224  0.3330  1.3239
 2117SOL     OW17983   3.657   1.684   6.141 -0.0747 -0.0884 -0.0949
 2117SOL    HW117984   3.671   1.736   6.220 -1.7691  0.3313 -0.0833
 2117SOL    HW217985   3.563   1.698   6.140  0.0401  0.9768  4.6113
 2118SOL     OW17986   4.718   1.969  13.786 -0.2957 -0.1678 -0.7104
 2118SOL    HW117987   0.021   1.951  13.703 -0.4251  0.7069 -0.9683
 2118SOL    HW217988   4.629   1.942  13.762 -0.8039  1.2410 -0.4634
 2119SOL     OW17989   2.406   1.402  16.863  0.2161  0.2195 -0.2221
 2119SOL    HW117990   2.387   1.494  16.877  0.7951 -0.1235  2.6541
 2119SOL    HW217991   2.406   1.407  16.767 -1.0393  0.8881 -0.1867
 2120SOL     OW17992   3.219   4.483  16.891  0.0748 -0.0608 -0.2505
 2120SOL    HW117993   3.212   4.476  16.986  2.9645  1.9652  0.0985
 2120SOL    HW217994   3.289   4.419  16.879 -1.0197 -0.9091 -2.1382
 2121SOL     OW17995   3.154   2.963   1.798  0.2704  0.1877 -0.2721
 2121SOL    HW117996   3.157   2.894   1.864 -2.3253 -1.5826 -1.9943
 2121SOL    HW217997   3.235   3.011   1.817  0.9221 -1.1717  0.3254
 2122SOL     OW17998   2.152   1.656   2.154  0.3423 -0.1778  0.1373
 2122SOL    HW117999   2.243   1.686   2.153  0.5662 -0.9358 -1.7619
 2122SOL    HW218000   2.158   1.564   2.180 -1.2388 -0.3660 -0.1648
 2123SOL     OW18001   0.942   3.526   3.555 -0.0168  0.0835 -0.0668
 2123SOL    HW118002   0.989   3.605   3.578  0.1685 -0.6364  2.0579
 2123SOL    HW218003   0.944   3.528   3.459 -1.4037 -0.7699 -0.1302
 2124SOL     OW18004   3.274   2.174   8.685  0.4124 -0.4472  0.6515
 2124SOL    HW118005   3.278   2.269   8.698  1.9901 -0.3624 -0.4350
 2124SOL    HW218006   3.241   2.135   8.766  0.7864  3.9963  2.9480
 2125SOL     OW18007   3.333   0.419   1.991 -0.2261  0.4801  0.2825
 2125SOL    HW118008   3.344   0.340   2.043 -3.0979  0.8655  1.4814
 2125SOL    HW218009   3.422   0.419   1.955 -0.5602 -2.5267 -0.5043
 2126SOL     OW18010   2.734   0.104  11.759 -0.2520  0.4913  0.3078
 2126SOL    HW118011   2.655   0.051  11.772 -1.6139  2.5418  0.5061
 2126SOL    HW218012   2.725   0.119  11.664 -0.1045  0.6194  0.3138
 2127SOL     OW18013   4.267   3.890  16.131  0.1939  0.6093 -0.1416
 2127SOL    HW118014   4.314   3.813  16.100  1.3658  1.2576  0.0315
 2127SOL    HW218015   4.182   3.886  16.087  0.8031  1.5258 -1.4092
 2128SOL     OW18016   3.549   3.392   1.060 -0.5563 -0.3809 -0.1748
 2128SOL    HW118017   3.628   3.419   1.013 -0.8897  0.1383 -0.4408
 2128SOL    HW218018   3.483   3.450   1.022 -0.6954 -1.5000 -1.6267
 2129SOL     OW18019   2.432   0.131   2.183 -0.0340 -0.3716  0.1270
 2129SOL    HW118020   2.493   0.158   2.251 -0.2998  0.7003 -0.0500
 2129SOL    HW218021   2.404   0.220   2.161 -3.4818 -0.9947  1.8049
 2130SOL     OW18022   0.096   1.233   2.905 -0.0698  0.1621  0.2009
 2130SOL    HW118023   0.033   1.302   2.885  0.2670  0.3563 -0.1913
 2130SOL    HW218024   0.121   1.203   2.817  3.0607  1.5116  0.6339
 2131SOL     OW18025   2.364   0.872   1.223 -0.3189 -0.0467 -0.2964
 2131SOL    HW118026   2.333   0.802   1.280 -0.9412  0.2305 -0.2907
 2131SOL    HW218027   2.436   0.828   1.179  1.1664  0.6653  1.4296
 2132SOL     OW18028   1.560   2.688   7.602 -0.0235 -0.3398 -0.0872
 2132SOL    HW118029   1.543   2.699   7.695  0.1759  1.7321 -0.2870
 2132SOL    HW218030   1.469   2.663   7.583  0.4816 -2.1432 -0.1630
 2133SOL     OW18031   1.929   3.286  16.281  0.0530 -0.4680 -0.0776
 2133SOL    HW118032   1.930   3.195  16.251  1.8249 -0.2811 -0.5799
 2133SOL    HW218033   1.873   3.320  16.212  2.7636  3.2965 -0.4083
 2134SOL     OW18034   1.221   1.432   2.899 -0.0230  0.1713  0.5243
 2134SOL    HW118035   1.280   1.365   2.935 -1.1927 -0.7384  0.7442
 2134SOL    HW218036   1.161   1.454   2.970  0.4181  1.7120  0.4150
 2135SOL     OW18037   0.099   1.203  12.521  0.5341  0.1615  0.3949
 2135SOL    HW118038   0.075   1.214  12.613 -0.8557 -1.0771  0.1765
 2135SOL    HW218039   0.064   1.115  12.509  1.8520 -0.2290 -0.6022
 2136SOL     OW18040   0.552   4.351  10.254 -0.0220 -0.5816 -0.1454
 2136SOL    HW118041   0.590   4.423  10.304 -2.7942  0.6144  0.2023
 2136SOL    HW218042   0.502   4.409  10.196  0.5886  1.0267  0.9467
 2137SOL     OW18043   1.580   1.363  11.351 -0.5951 -0.0988  0.0829
 2137SOL    HW118044   1.577   1.310  11.430 -2.4012  0.6453  0.5062
 2137SOL    HW218045   1.535   1.308  11.287 -0.0685  0.9813 -1.2294
 2138SOL     OW18046   3.926   0.770   5.245 -0.0404 -0.7729  0.4812
 2138SOL    HW118047   3.958   0.860   5.237 -1.6037 -0.2222  0.5070
 2138SOL    HW218048   3.923   0.740   5.154 -1.0777  0.7777 -0.0001
 2139SOL     OW18049   4.367   2.499   4.241 -0.0358 -0.3222 -0.2738
 2139SOL    HW118050   4.355   2.594   4.245 -1.1286 -0.4033 -1.8891
 2139SOL    HW218051   4.300   2.480   4.175 -0.4042 -0.8549  0.2536
 2140SOL     OW18052   2.599   1.447   7.377  0.3132 -0.0801 -0.1207
 2140SOL    HW118053   2.540   1.491   7.438 -2.8086  0.7676 -3.7283
 2140SOL    HW218054   2.621   1.366   7.424 -1.2388 -1.6404 -2.0668
 2141SOL     OW18055   1.884   3.562  16.946  0.2920  0.0156  0.0700
 2141SOL    HW118056   1.900   3.627  17.015 -1.3789  2.0362 -1.4258
 2141SOL    HW218057   1.801   3.601  16.918  0.4643  0.3091 -0.0376
 2142SOL     OW18058   3.415   1.581   2.507  0.3315 -0.0642  0.3896
 2142SOL    HW118059   3.406   1.489   2.483  0.1540  0.4218 -1.4395
 2142SOL    HW218060   3.473   1.619   2.441 -2.1863  0.6539 -1.4209
 2143SOL     OW18061   0.840   1.059   1.709  0.3061 -0.5550 -0.2601
 2143SOL    HW118062   0.757   1.027   1.674  0.1467  0.8761 -1.1684
 2143SOL    HW218063   0.885   0.981   1.743 -2.0637 -1.3666  1.0361
 2144SOL     OW18064   3.650   2.353   9.276  0.2255  0.1487  0.4494
 2144SOL    HW118065   3.739   2.380   9.298  0.1127 -2.0916  3.5526
 2144SOL    HW218066   3.674   2.315   9.191 -2.0915  0.7715 -0.4930
 2145SOL     OW18067   1.978   2.234   0.006 -0.5823 -0.8486 -0.3910
 2145SOL    HW118068   1.897   2.237  17.708 -2.2233  1.0051  2.2998
 2145SOL    HW218069   2.039   2.206  17.691 -0.2929  2.2754 -1.4008
 2146SOL     OW18070   0.893   1.487   9.685 -0.5286  0.1268  0.0901
 2146SOL    HW118071   0.836   1.410   9.696 -0.0429 -0.3085 -0.4808
 2146SOL    HW218072   0.977   1.444   9.675 -1.2521 -1.0074 -1.1385
 2147SOL     OW18073   0.753   1.978  11.616 -0.1306  0.4320  0.6861
 2147SOL    HW118074   0.682   2.041  11.606 -0.3990  0.0028 -0.1578
 2147SOL    HW218075   0.714   1.937  11.693  0.9679  0.0525  1.0396
 2148SOL     OW18076   1.019   2.816   5.994  0.3943  0.0680  0.3285
 2148SOL    HW118077   0.966   2.892   5.970 -0.3707  0.3786  2.9501
 2148SOL    HW218078   1.054   2.839   6.080  0.9800 -1.3766  0.4776
 2149SOL     OW18079   1.302   3.873   2.357 -0.9431  0.0851 -0.3301
 2149SOL    HW118080   1.346   3.951   2.324 -0.9062  0.8010  1.3983
 2149SOL    HW218081   1.271   3.836   2.274  1.5622 -1.4439 -0.5912
 2150SOL     OW18082   4.603   4.139   7.400  0.3740 -0.2587  0.2084
 2150SOL    HW118083   4.599   4.201   7.473  1.7553  0.1011 -0.0361
 2150SOL    HW218084   4.548   4.188   7.338  0.3442  1.6610  1.7664
 2151SOL     OW18085   3.663   0.741   5.196 -0.0604  0.4039 -0.0403
 2151SOL    HW118086   3.654   0.688   5.117 -2.0034  0.2200  0.3103
 2151SOL    HW218087   3.752   0.717   5.222 -0.0048 -0.8620 -1.3873
 2152SOL     OW18088   4.676   0.598   5.633  0.1826  0.4537  0.2170
 2152SOL    HW118089   4.688   0.519   5.581 -1.3348 -0.0054  0.5801
 2152SOL    HW218090   4.678   0.656   5.557 -0.4445 -1.0433 -0.9435
 2153SOL     OW18091   1.182   0.469   7.304  0.3304 -0.2858 -0.6718
 2153SOL    HW118092   1.186   0.419   7.223  1.6297  0.1811 -0.9002
 2153SOL    HW218093   1.272   0.448   7.327 -0.1992  0.1609  1.7930
 2154SOL     OW18094   0.662   0.078   4.122  0.0784  0.2699 -0.7799
 2154SOL    HW118095   0.657   0.050   4.214 -0.6874 -2.2702 -1.5962
 2154SOL    HW218096   0.751   0.112   4.108  0.2285  1.7667  3.8953
 2155SOL     OW18097   0.028   0.680   5.047  0.6399  0.2998  0.1385
 2155SOL    HW118098   0.061   0.769   5.060 -0.8333  0.9736 -0.7540
 2155SOL    HW218099   0.108   0.644   5.009  1.3543 -0.0582  1.9911
 2156SOL     OW18100   1.408   0.507   4.824 -0.1470 -0.5224  0.1844
 2156SOL    HW118101   1.488   0.477   4.781  0.9184  0.4814  1.4800
 2156SOL    HW218102   1.433   0.531   4.913  0.2650 -0.7131  0.1184
 2157SOL     OW18103   3.248   4.612   4.528 -0.1209 -0.4978 -0.3220
 2157SOL    HW118104   3.315   4.671   4.563  0.2340 -1.0389 -0.0780
 2157SOL    HW218105   3.201   4.583   4.606  0.5251 -0.5706  0.0456
 2158SOL     OW18106   2.075   0.889  14.603 -0.2169  0.5134  0.1967
 2158SOL    HW118107   2.165   0.901  14.572  0.7544 -0.8529  2.5512
 2158SOL    HW218108   2.025   0.875  14.522 -0.8892 -0.9368  0.8785
 2159SOL     OW18109   3.690   1.194  15.655 -0.0455 -0.6319 -0.1862
 2159SOL    HW118110   3.660   1.256  15.722  0.9330  0.1946 -0.5283
 2159SOL    HW218111   3.741   1.245  15.593 -0.4158  1.1608  0.9921
 2160SOL     OW18112   2.312   1.880   2.588 -0.2497  0.2986 -0.0712
 2160SOL    HW118113   2.338   1.802   2.637 -0.9385 -0.1883 -0.4780
 2160SOL    HW218114   2.230   1.841   2.557 -0.2195  0.5266 -0.4353
 2161SOL     OW18115   3.686   4.732   8.235 -0.4416  0.1277 -0.2260
 2161SOL    HW118116   3.616   0.037   8.283  0.1059  2.1543 -1.2661
 2161SOL    HW218117   3.703   0.061   8.169  1.1636 -0.6863 -0.6542
 2162SOL     OW18118   1.980   2.296   4.428 -0.1027  0.2144 -0.1519
 2162SOL    HW118119   2.055   2.236   4.434  0.3233  0.6473 -1.2529
 2162SOL    HW218120   1.919   2.241   4.379 -0.9080  0.9180  0.0604
 2163SOL     OW18121   0.165   0.794   3.470 -0.3187 -0.2269  0.5361
 2163SOL    HW118122   0.174   0.749   3.386  1.4378  1.4860 -0.1937
 2163SOL    HW218123   0.123   0.875   3.440  2.8439  0.6575 -1.4946
 2164SOL     OW18124   0.920   3.841   0.456  0.1983 -0.1617  0.5079
 2164SOL    HW118125   0.876   3.904   0.513 -0.8298 -0.2284 -0.1911
 2164SOL    HW218126   0.987   3.894   0.414  0.9747 -1.1253  0.5446
 2165SOL     OW18127   1.599   1.774   2.241 -0.1818  0.0848 -0.5437
 2165SOL    HW118128   1.667   1.709   2.225 -0.2413  0.2664 -1.5376
 2165SOL    HW218129   1.516   1.725   2.239  0.4300 -1.0114  2.0507
 2166SOL     OW18130   1.764   3.244   8.759  0.1620  0.0085  0.0631
 2166SOL    HW118131   1.779   3.149   8.761  1.0626  0.1506 -0.0417
 2166SOL    HW218132   1.672   3.247   8.730 -0.3947 -0.1089  1.8506
 2167SOL     OW18133   0.378   1.628   0.235  0.4820 -0.5873  0.0358
 2167SOL    HW118134   0.401   1.669   0.318 -0.0129 -0.5461  0.1490
 2167SOL    HW218135   0.428   1.677   0.168  1.0826 -0.5121  0.5347
 2168SOL     OW18136   2.357   4.518   9.639  0.5778 -0.3447 -0.3157
 2168SOL    HW118137   2.378   4.567   9.718 -0.3168  1.7798 -1.4039
 2168SOL    HW218138   2.284   4.466   9.673 -0.7088  0.9185 -1.1554
 2169SOL     OW18139   1.272   3.106   3.869  0.6125  0.1600  0.3415
 2169SOL    HW118140   1.300   3.103   3.960  0.4283  1.9590  0.4555
 2169SOL    HW218141   1.229   3.192   3.865 -1.1348 -0.7596 -0.7048
 2170SOL     OW18142   3.478   4.468   8.290 -0.2475 -0.6597  0.3131
 2170SOL    HW118143   3.520   4.483   8.205  1.6413  0.6733  1.5130
 2170SOL    HW218144   3.479   4.555   8.328 -1.2706 -0.8264  0.7432
 2171SOL     OW18145   3.895   4.415   4.016  0.7396 -0.3081 -0.2209
 2171SOL    HW118146   3.812   4.405   3.970  0.6887 -1.1911  0.0736
 2171SOL    HW218147   3.878   4.365   4.096 -1.5424  1.1654  0.2196
 2172SOL     OW18148   4.275   3.355   3.659 -0.0314 -0.3964 -0.0424
 2172SOL    HW118149   4.211   3.425   3.650  1.8334  1.3360  0.1760
 2172SOL    HW218150   4.224   3.276   3.678  1.8097 -1.1332  1.7549
 2173SOL     OW18151   4.528   3.919   8.722 -0.3311  0.8276 -0.5395
 2173SOL    HW118152   4.522   3.853   8.652 -4.0678  0.2414  0.3491
 2173SOL    HW218153   4.595   3.971   8.678  2.5258 -0.7755  1.8342
 2174SOL     OW18154   3.309   4.533   7.435 -0.1429 -0.3078 -0.1119
 2174SOL    HW118155   3.264   4.533   7.519 -2.4045  0.1638 -1.3145
 2174SOL    HW218156   3.358   4.451   7.429 -1.1772 -0.8513 -1.2233
 2175SOL     OW18157   3.519   0.987   1.063  0.3138  0.3980 -0.4063
 2175SOL    HW118158   3.438   0.936   1.066 -0.4420  1.5448 -1.4143
 2175SOL    HW218159   3.482   1.071   1.039  0.6510  1.2040  1.8950
 2176SOL     OW18160   2.668   3.642   3.696  0.1361  0.2594  0.7477
 2176SOL    HW118161   2.759   3.671   3.685 -0.0396 -0.2501 -2.2906
 2176SOL    HW218162   2.650   3.627   3.603 -1.1812  0.4345  0.9712
 2177SOL     OW18163   2.716   2.379  13.247  0.4430  0.4550 -0.3198
 2177SOL    HW118164   2.655   2.338  13.308 -1.2528  0.8736 -1.7379
 2177SOL    HW218165   2.712   2.472  13.267 -0.8545  0.5986 -1.2151
 2178SOL     OW18166   3.276   0.019   5.409  0.2252  0.8787 -0.0717
 2178SOL    HW118167   3.322   0.084   5.357  1.7652 -0.2356 -0.1192
 2178SOL    HW218168   3.341   0.003   5.478 -0.3354  1.1561  0.5281
 2179SOL     OW18169   4.194   4.538   3.728  0.1773 -0.1578 -0.0864
 2179SOL    HW118170   4.182   4.633   3.727  2.8975  0.1942 -0.0376
 2179SOL    HW218171   4.193   4.525   3.633 -1.0749  1.6427 -0.3288
 2180SOL     OW18172   2.689   2.519  16.444 -0.3157  0.0469  0.9100
 2180SOL    HW118173   2.601   2.538  16.412 -0.3692 -0.4432  0.7646
 2180SOL    HW218174   2.705   2.435  16.402 -1.9257  0.7602 -1.1466
 2181SOL     OW18175   1.382   4.573   4.308 -0.1770  0.1294  0.4721
 2181SOL    HW118176   1.411   4.586   4.218 -0.1907  2.0724  0.7281
 2181SOL    HW218177   1.287   4.569   4.302 -0.1064 -0.2661 -0.3522
 2182SOL     OW18178   4.126   2.740  17.638  0.4956 -0.0991  0.1669
 2182SOL    HW118179   4.130   2.716  17.730 -0.5111  3.6086  1.1672
 2182SOL    HW218180   4.216   2.768  17.620  0.6524  0.0542  1.2095
 2183SOL     OW18181   2.678   0.072   7.676 -0.3373  0.3589 -0.5782
 2183SOL    HW118182   2.767   0.083   7.644  0.7790  0.3012  2.5216
 2183SOL    HW218183   2.677   0.135   7.748  1.9970  0.1240 -0.3570
 2184SOL     OW18184   1.435   2.546   3.387  0.2190 -0.2713  0.4718
 2184SOL    HW118185   1.400   2.595   3.313 -2.1433 -2.8126 -0.0832
 2184SOL    HW218186   1.373   2.474   3.400  1.1563 -0.6404  2.8591
 2185SOL     OW18187   3.363   0.264  15.710  0.0926  0.2139 -0.2039
 2185SOL    HW118188   3.428   0.332  15.727  0.1334  0.7058 -2.2940
 2185SOL    HW218189   3.288   0.321  15.691 -1.9090 -1.5266  2.5321
 2186SOL     OW18190   3.850   0.490   9.663  0.1030 -0.5386  0.5271
 2186SOL    HW118191   3.862   0.442   9.580  3.3771 -1.4966  1.5480
 2186SOL    HW218192   3.832   0.419   9.725  0.4562  0.0110  1.2553
 2187SOL     OW18193   1.463   4.110   2.539  0.1282 -0.2614  0.6478
 2187SOL    HW118194   1.440   4.116   2.446  0.3075 -0.4389  0.5934
 2187SOL    HW218195   1.553   4.141   2.540  0.5173 -1.3632 -0.7191
 2188SOL     OW18196   2.374   0.551   2.677  0.1816 -0.2587  0.2909
 2188SOL    HW118197   2.408   0.466   2.648  0.1233  0.2044 -1.1362
 2188SOL    HW218198   2.363   0.537   2.771  1.0792 -0.4414  0.3694
 2189SOL     OW18199   4.563   1.309   8.383 -0.4565  0.0091 -0.1035
 2189SOL    HW118200   4.594   1.388   8.427 -1.4195  0.9590 -1.1555
 2189SOL    HW218201   4.530   1.355   8.306 -2.8542 -0.8220  0.4377
 2190SOL     OW18202   3.609   2.621   3.795  0.1990  0.0628  0.0510
 2190SOL    HW118203   3.673   2.552   3.781 -1.1223 -1.0377 -0.6363
 2190SOL    HW218204   3.669   2.693   3.814 -1.0261  1.3128 -0.7912
 2191SOL     OW18205   0.381   4.619  16.866  0.2271 -0.1145  0.5041
 2191SOL    HW118206   0.323   4.675  16.919  0.3691  0.3542  0.1668
 2191SOL    HW218207   0.333   4.538  16.849  2.1265 -0.7282 -1.9706
 2192SOL     OW18208   1.924   3.210   8.435  0.0113  0.6649  0.0543
 2192SOL    HW118209   1.901   3.126   8.477  0.6712  0.0200 -0.8826
 2192SOL    HW218210   1.989   3.170   8.377  0.3895  1.6122 -0.1706
 2193SOL     OW18211   2.003   1.067   7.169  0.2680 -0.3964  0.0650
 2193SOL    HW118212   2.040   1.147   7.133  1.4102 -0.2006  1.6614
 2193SOL    HW218213   2.023   0.993   7.111  0.5114 -0.0228 -0.3259
 2194SOL     OW18214   3.023   1.113  14.430 -0.2281  0.1127 -0.0658
 2194SOL    HW118215   3.101   1.167  14.441 -0.8036  0.6866  1.2420
 2194SOL    HW218216   3.052   1.062  14.354 -0.6952 -0.4859  0.1557
 2195SOL     OW18217   3.837   1.694   4.849 -0.1057  0.2454  0.9190
 2195SOL    HW118218   3.886   1.629   4.898  0.2255 -0.0908  0.1431
 2195SOL    HW218219   3.760   1.719   4.899  0.0972  2.0768  0.3307
 2196SOL     OW18220   2.534   0.745   9.441 -0.2134  0.3231 -0.0156
 2196SOL    HW118221   2.531   0.776   9.531  0.4277 -1.9319  0.7822
 2196SOL    HW218222   2.446   0.707   9.435  0.3681 -1.0276  0.1040
 2197SOL     OW18223   2.461   1.918   9.382 -0.0767  0.0660 -1.1079
 2197SOL    HW118224   2.521   1.898   9.310  1.4600  1.9196 -0.3225
 2197SOL    HW218225   2.448   2.012   9.370 -4.6685 -0.3848  0.2828
 2198SOL     OW18226   1.182   1.183   4.315 -0.6133 -0.0998 -0.0514
 2198SOL    HW118227   1.173   1.125   4.391  0.9212  0.7640  0.8051
 2198SOL    HW218228   1.165   1.268   4.356  1.0511 -0.3007  1.0413
 2199SOL     OW18229   2.530   3.726   7.822  0.0259 -0.2883  0.1137
 2199SOL    HW118230   2.619   3.761   7.829 -0.4964  1.1743 -0.6088
 2199SOL    HW218231   2.482   3.798   7.783  0.3632  0.6133  1.3512
 2200SOL     OW18232   3.392   3.326   8.494 -0.2770 -0.0343 -0.0990
 2200SOL    HW118233   3.335   3.372   8.556  2.8679 -1.6133  4.0172
 2200SOL    HW218234   3.384   3.381   8.416  0.0381 -1.2286 -0.9718
 2201SOL     OW18235   0.454   2.158   6.922  0.0945  0.3487 -0.4219
 2201SOL    HW118236   0.542   2.144   6.887  0.6846  1.6986  0.5077
 2201SOL    HW218237   0.471   2.118   7.008 -0.2775 -0.1172 -0.5632
 2202SOL     OW18238   1.131   2.451   3.056 -0.0175 -0.4336 -0.4977
 2202SOL    HW118239   1.158   2.359   3.062 -0.7878 -0.6353 -0.1949
 2202SOL    HW218240   1.214   2.489   3.026  0.2485 -0.8083 -0.2315
 2203SOL     OW18241   4.469   0.957   8.474  0.1784  0.0659 -0.2314
 2203SOL    HW118242   4.469   0.948   8.378 -0.3591  0.1253 -0.2356
 2203SOL    HW218243   4.562   0.979   8.488  0.3286 -0.9726  0.3568
 2204SOL     OW18244   1.977   4.600   8.253 -0.1892  0.1460 -0.0477
 2204SOL    HW118245   1.940   4.597   8.342 -1.4852 -0.8650 -0.6181
 2204SOL    HW218246   1.936   4.517   8.232 -1.1751  0.9019 -1.1210
 2205SOL     OW18247   1.010   2.350   5.766 -0.1972  0.4174  0.4778
 2205SOL    HW118248   1.099   2.357   5.801  0.4867 -0.0340 -1.1400
 2205SOL    HW218249   0.959   2.409   5.821 -0.6289  0.4035  0.0934
 2206SOL     OW18250   3.255   2.991   5.226  0.3146  0.4707  1.0356
 2206SOL    HW118251   3.310   2.954   5.296 -0.2606 -2.2264  0.0219
 2206SOL    HW218252   3.228   3.072   5.271  0.8936  0.7410  0.9001
 2207SOL     OW18253   2.404   3.764   6.758 -0.3746 -0.6794  0.3354
 2207SOL    HW118254   2.398   3.757   6.853 -2.8340 -2.0329  0.0809
 2207SOL    HW218255   2.455   3.688   6.729 -2.2770 -2.1274  0.8114
 2208SOL     OW18256   2.503   4.208   7.849 -0.5324  0.1080  0.2021
 2208SOL    HW118257   2.465   4.253   7.774  1.0212 -0.1502 -0.7415
 2208SOL    HW218258   2.417   4.183   7.884 -1.2289 -0.9926 -2.3474
 2209SOL     OW18259   1.478   4.602   3.754  0.6718  0.1292  0.4063
 2209SOL    HW118260   1.427   4.538   3.703  0.6473 -1.7049  2.7385
 2209SOL    HW218261   1.453   4.681   3.704 -0.6762  0.5901  1.8029
 2210SOL     OW18262   2.418   1.818  12.448  0.0782  0.2591 -0.4456
 2210SOL    HW118263   2.401   1.907  12.417  1.3472 -0.2504 -2.5816
 2210SOL    HW218264   2.500   1.795  12.404  0.5581  1.3209 -0.0915
 2211SOL     OW18265   2.709   1.866  13.954 -0.1703  0.6688 -0.0313
 2211SOL    HW118266   2.701   1.884  13.861  2.1498 -3.6744 -1.0708
 2211SOL    HW218267   2.803   1.866  13.971 -0.8511  0.6293  3.8987
 2212SOL     OW18268   1.701   4.220   5.821 -0.1883  0.0979 -0.1187
 2212SOL    HW118269   1.768   4.287   5.835 -0.6079  0.5503 -0.2685
 2212SOL    HW218270   1.695   4.237   5.727  0.5190 -0.9208 -0.3452
 2213SOL     OW18271   4.522   1.018   3.704  0.0044  0.1192 -0.5832
 2213SOL    HW118272   4.494   1.106   3.678  2.2293  1.1383  0.4441
 2213SOL    HW218273   4.598   1.039   3.758 -0.3722 -0.5671  0.2031
 2214SOL     OW18274   2.430   0.475   7.332  0.0625 -0.5796 -0.1316
 2214SOL    HW118275   2.365   0.406   7.319 -1.3851  0.5694  0.9270
 2214SOL    HW218276   2.402   0.506   7.418 -1.6238  2.5875 -1.8423
 2215SOL     OW18277   3.615   1.540   6.792  0.3194 -0.1869  0.1140
 2215SOL    HW118278   3.643   1.470   6.733  0.2544  0.5564 -0.7991
 2215SOL    HW218279   3.563   1.592   6.731  0.8831  0.9785  0.6320
 2216SOL     OW18280   3.940   0.232  12.124  0.4268 -0.2339  0.1060
 2216SOL    HW118281   3.930   0.315  12.078 -0.4602 -0.7097 -0.5620
 2216SOL    HW218282   3.921   0.169  12.054 -0.5258 -0.1609  0.3024
 2217SOL     OW18283   0.844   2.720   8.861 -0.1689 -0.3446 -0.4113
 2217SOL    HW118284   0.749   2.713   8.860 -0.2198  0.4386 -1.6670
 2217SOL    HW218285   0.862   2.659   8.789  3.6674 -1.4648  1.5091
 2218SOL     OW18286   0.521   1.862   3.842 -0.0202  0.1063 -0.1137
 2218SOL    HW118287   0.437   1.863   3.796 -1.8350  0.3139  3.1771
 2218SOL    HW218288   0.519   1.947   3.886 -0.8777 -1.2111  2.3984
 2219SOL     OW18289   0.558   3.808   2.530  0.8247 -0.5350  0.9594
 2219SOL    HW118290   0.472   3.766   2.531  0.4182  0.2602 -0.7815
 2219SOL    HW218291   0.546   3.896   2.566  0.9808 -0.1977  0.1954
 2220SOL     OW18292   1.077   2.638   5.237 -0.0709 -0.6724  0.1790
 2220SOL    HW118293   1.139   2.653   5.309  1.2948 -0.6813 -0.9966
 2220SOL    HW218294   0.993   2.621   5.280  1.1177  1.4069  3.3114
 2221SOL     OW18295   3.704   4.102   2.593 -0.1134  0.2738 -0.5227
 2221SOL    HW118296   3.648   4.045   2.539 -0.8529  0.7206 -0.2211
 2221SOL    HW218297   3.789   4.060   2.576 -0.4031 -0.2260 -0.7311
 2222SOL     OW18298   2.314   0.536   4.128  0.2234  0.2381  0.1891
 2222SOL    HW118299   2.335   0.444   4.146 -0.1719  0.1706  0.2966
 2222SOL    HW218300   2.400   0.563   4.096 -1.2033  1.2861 -2.8077
 2223SOL     OW18301   4.112   2.188   6.797  0.0369 -0.7997 -0.1794
 2223SOL    HW118302   4.114   2.099   6.832 -0.8403 -0.8606 -0.2794
 2223SOL    HW218303   4.031   2.185   6.746 -0.3753 -0.3961  0.4498
 2224SOL     OW18304   3.416   1.342   6.534 -0.0512 -0.3004  0.2145
 2224SOL    HW118305   3.427   1.437   6.543  0.4971 -0.3587  0.1797
 2224SOL    HW218306   3.429   1.336   6.439 -1.7657 -0.6793  0.0133
 2225SOL     OW18307   2.994   2.160   4.486  0.6538 -0.3551  0.6461
 2225SOL    HW118308   2.903   2.153   4.513  0.1959 -0.2829 -0.8869
 2225SOL    HW218309   3.043   2.146   4.568 -2.3143  0.6478  2.5809
 2226SOL     OW18310   3.896   0.007  14.557 -0.6175  0.3539  0.1507
 2226SOL    HW118311   3.914   4.704  14.641 -2.4423  1.5884  1.1649
 2226SOL    HW218312   3.981   0.045  14.534 -0.2801 -1.0000 -0.8223
 2227SOL     OW18313   0.426   2.278  11.443  0.1122  0.4916  0.1326
 2227SOL    HW118314   0.374   2.255  11.367 -1.2523  0.3996  1.0937
 2227SOL    HW218315   0.505   2.304  11.396 -0.0176  0.6001 -0.0278
 2228SOL     OW18316   3.303   1.121   1.520  0.2967 -0.1514  0.5167
 2228SOL    HW118317   3.330   1.076   1.600 -1.9852  1.4498  2.2054
 2228SOL    HW218318   3.384   1.121   1.469  0.9819  0.2696  1.5973
 2229SOL     OW18319   3.419   2.556   6.679 -0.0016 -0.6825  0.0045
 2229SOL    HW118320   3.423   2.572   6.773 -1.0839 -1.5139  0.1902
 2229SOL    HW218321   3.373   2.639   6.665 -1.2295 -0.9787  2.3294
 2230SOL     OW18322   4.457   0.658   5.263 -0.0220  0.4905 -0.5486
 2230SOL    HW118323   4.378   0.709   5.278 -0.7599 -0.5904 -0.7965
 2230SOL    HW218324   4.444   0.640   5.170 -0.1161 -1.5991 -0.1252
 2231SOL     OW18325   1.567   3.780   2.059 -0.5428  0.0083  0.6006
 2231SOL    HW118326   1.491   3.725   2.077 -0.5715  0.5885  2.2125
 2231SOL    HW218327   1.618   3.756   2.137 -0.3017 -0.4117  0.3153
 2232SOL     OW18328   0.313   1.487   4.947  0.0834 -0.1210 -0.0155
 2232SOL    HW118329   0.256   1.552   4.906 -0.7510 -0.8835 -0.0773
 2232SOL    HW218330   0.377   1.547   4.985  1.2328 -1.8987  0.8540
 2233SOL     OW18331   0.940   2.587   3.294  0.6385  0.5656 -0.1832
 2233SOL    HW118332   0.971   2.539   3.218 -0.2734  0.5396 -0.5455
 2233SOL    HW218333   0.908   2.508   3.338  1.1524  1.2995  1.4988
 2234SOL     OW18334   2.110   2.716   9.204  0.9894 -0.0689 -0.0852
 2234SOL    HW118335   2.090   2.647   9.266  1.3854 -1.7136 -1.7806
 2234SOL    HW218336   2.189   2.689   9.158 -0.2387  1.7246 -3.2658
 2235SOL     OW18337   1.945   3.347   6.493 -0.2249 -0.0962 -0.4921
 2235SOL    HW118338   2.003   3.277   6.465 -1.8709 -1.0505 -1.4723
 2235SOL    HW218339   1.870   3.331   6.436 -0.6630 -0.5791  0.2117
 2236SOL     OW18340   1.182   0.976   1.769  0.2967 -0.1614  0.2754
 2236SOL    HW118341   1.160   0.907   1.707  2.1437 -0.5691  0.0703
 2236SOL    HW218342   1.203   1.055   1.719 -3.0861  0.9459  0.5629
 2237SOL     OW18343   0.595   0.910   2.343  0.1322 -0.8230  0.4644
 2237SOL    HW118344   0.625   0.900   2.434 -0.8210  1.0949  0.9965
 2237SOL    HW218345   0.677   0.907   2.294  1.2895 -2.9762  2.5417
 2238SOL     OW18346   3.649   2.615   7.290  0.0167  0.0874  0.2241
 2238SOL    HW118347   3.730   2.606   7.341  0.5726 -1.1112 -0.8716
 2238SOL    HW218348   3.662   2.707   7.265  0.5104  0.0936  0.4903
 2239SOL     OW18349   0.636   3.383   9.994 -0.0112 -0.3372 -0.1763
 2239SOL    HW118350   0.610   3.389  10.086 -0.4802  1.6918 -0.4447
 2239SOL    HW218351   0.555   3.353   9.953 -0.7261  0.3703  0.7451
 2240SOL     OW18352   3.149   1.778   7.717 -0.1578 -0.2609  0.0773
 2240SOL    HW118353   3.193   1.741   7.794 -0.7630 -0.6459  0.2380
 2240SOL    HW218354   3.067   1.729   7.712  1.6716 -3.3228 -0.6805
 2241SOL     OW18355   0.649   0.762   5.244  0.7652 -0.4676  0.5513
 2241SOL    HW118356   0.724   0.742   5.300 -0.9475 -3.1045  1.8896
 2241SOL    HW218357   0.685   0.767   5.156  3.4451 -1.6160  1.5979
 2242SOL     OW18358   0.254   0.058  15.700  0.5959 -0.0987  0.2376
 2242SOL    HW118359   0.336   0.028  15.738 -0.3956 -1.9054  0.9485
 2242SOL    HW218360   0.277   0.141  15.657  1.5035  0.6242  2.1517
 2243SOL     OW18361   4.475   0.301  11.440 -0.2142  0.2624 -0.5594
 2243SOL    HW118362   4.548   0.272  11.494  0.7676 -0.0530 -2.0481
 2243SOL    HW218363   4.519   0.307  11.355  0.5455  2.1016 -0.0285
 2244SOL     OW18364   4.064   3.938   1.820 -0.4726 -0.0414  0.0611
 2244SOL    HW118365   4.053   3.968   1.910 -2.3083 -2.0108  0.4805
 2244SOL    HW218366   4.048   4.021   1.774  2.5291 -0.5807 -2.0017
 2245SOL     OW18367   0.945   4.646   2.078 -0.0090 -0.0441  0.2577
 2245SOL    HW118368   0.927   4.725   2.028 -0.5333  0.6116  1.4694
 2245SOL    HW218369   0.873   4.659   2.140 -1.4241  0.2515 -1.4509
 2246SOL     OW18370   0.756   3.267   8.364  0.0880 -0.2078  0.1283
 2246SOL    HW118371   0.725   3.198   8.422  0.7754 -0.5361  0.1087
 2246SOL    HW218372   0.679   3.290   8.312  1.2817 -0.0135 -1.5755
 2247SOL     OW18373   1.416   4.697   6.893 -0.0910  0.4607 -0.8255
 2247SOL    HW118374   1.469   0.021   6.941 -0.9983  1.4609 -1.1430
 2247SOL    HW218375   1.464   4.616   6.914 -0.1108  0.6628 -0.0216
 2248SOL     OW18376   2.765   0.901   4.030  0.2395  0.2246 -0.4513
 2248SOL    HW118377   2.850   0.860   4.044  0.0889  0.2311  0.4817
 2248SOL    HW218378   2.708   0.834   3.991 -0.3848  0.5718 -0.1437
 2249SOL     OW18379   0.774   1.222   5.664 -0.1523 -0.2344  0.5233
 2249SOL    HW118380   0.747   1.212   5.756 -0.4167 -2.4145  0.2013
 2249SOL    HW218381   0.691   1.208   5.618  0.1489 -3.4883  1.0201
 2250SOL     OW18382   2.947   1.367   5.490 -0.3290  0.3657  0.2546
 2250SOL    HW118383   2.954   1.434   5.559  0.4545 -1.0399  1.5181
 2250SOL    HW218384   2.961   1.415   5.408  1.2926  0.5481  0.6396
 2251SOL     OW18385   4.044   1.030   8.320 -0.2091  0.2966  0.4083
 2251SOL    HW118386   4.067   1.011   8.229  0.0700  1.3245  0.2608
 2251SOL    HW218387   4.118   0.983   8.359 -1.2613 -2.2007 -0.5589
 2252SOL     OW18388   0.708   3.555   6.299  0.4141  0.0432  0.2519
 2252SOL    HW118389   0.731   3.474   6.253 -0.8305  0.4090 -1.0180
 2252SOL    HW218390   0.798   3.582   6.319  0.1408  1.9997 -1.1980
 2253SOL     OW18391   0.604   4.063  14.035 -0.4786 -0.5139 -0.2283
 2253SOL    HW118392   0.685   4.112  14.025  0.7672 -2.1206  2.0706
 2253SOL    HW218393   0.548   4.099  13.966 -0.2198 -1.7782 -1.0964
 2254SOL     OW18394   2.043   1.065   2.011 -0.5354 -0.3204 -0.6994
 2254SOL    HW118395   2.104   1.095   1.944 -1.6986  0.4404 -1.4153
 2254SOL    HW218396   1.968   1.077   1.954  1.3135 -0.2954 -3.0966
 2255SOL     OW18397   3.302   2.923   3.209 -0.2207 -0.1012 -0.1610
 2255SOL    HW118398   3.319   2.880   3.293 -0.6166  0.7895  0.3752
 2255SOL    HW218399   3.385   2.949   3.170  0.6772  0.2389  2.0204
 2256SOL     OW18400   2.852   1.405   7.569  0.1110  0.4791 -0.2586
 2256SOL    HW118401   2.827   1.313   7.558 -1.0674  0.7664  0.0023
 2256SOL    HW218402   2.803   1.446   7.640 -0.2681 -0.3129 -0.0573
 2257SOL     OW18403   3.539   2.736   7.677 -0.2822 -0.1182  0.1468
 2257SOL    HW118404   3.627   2.706   7.700  0.4839  1.6909 -0.4296
 2257SOL    HW218405   3.559   2.811   7.620 -2.7626  0.6832  0.3455
 2258SOL     OW18406   3.312   1.936   6.749  0.3187 -0.0075  0.0310
 2258SOL    HW118407   3.233   1.981   6.717 -1.1887 -1.2720  1.9405
 2258SOL    HW218408   3.324   1.987   6.829 -1.0133  0.6496 -0.1745
 2259SOL     OW18409   3.320   1.582   4.727 -0.0868 -0.3773  0.0335
 2259SOL    HW118410   3.278   1.534   4.799 -2.2019  0.0149 -0.9450
 2259SOL    HW218411   3.249   1.645   4.718 -1.1746 -1.5615  0.2326
 2260SOL     OW18412   4.596   0.849   6.537 -0.2365  0.0189  0.4256
 2260SOL    HW118413   4.547   0.831   6.617  0.2770 -0.4599  0.6321
 2260SOL    HW218414   4.620   0.761   6.506  1.9034  0.0757  1.9271
 2261SOL     OW18415   2.070   0.650  13.508 -0.3164  0.3511 -0.0003
 2261SOL    HW118416   2.043   0.684  13.594  0.9158  0.6259  0.2772
 2261SOL    HW218417   2.133   0.581  13.530 -0.5535 -0.1722 -0.9736
 2262SOL     OW18418   4.594   4.356   7.672  0.2631  0.4297  0.5318
 2262SOL    HW118419   4.566   4.446   7.656  1.0873  0.4793 -0.6650
 2262SOL    HW218420   4.514   4.303   7.671  0.4586  0.1171  1.1402
 2263SOL     OW18421   0.337   0.952   9.535 -0.4829  0.5995  0.5733
 2263SOL    HW118422   0.312   0.860   9.541  1.3269  0.0841  0.1340
 2263SOL    HW218423   0.257   0.985   9.575 -0.4536  1.7009 -0.2755
 2264SOL     OW18424   3.221   2.578   3.057  0.7270  0.4466  0.4111
 2264SOL    HW118425   3.249   2.534   3.137 -2.2947  1.5376  2.0459
 2264SOL    HW218426   3.304   2.621   3.033 -0.3594  1.2031 -1.9760
 2265SOL     OW18427   3.413   1.757  14.797 -0.0316 -0.1867  0.3122
 2265SOL    HW118428   3.399   1.753  14.892  1.9790  1.9464  0.6740
 2265SOL    HW218429   3.508   1.769  14.795 -0.1308  0.1513 -1.9341
 2266SOL     OW18430   0.574   2.845   4.473  0.5500  0.2153 -0.4825
 2266SOL    HW118431   0.658   2.891   4.477  0.0270  1.2030 -0.8307
 2266SOL    HW218432   0.601   2.758   4.444  0.8467  0.9922 -2.4995
 2267SOL     OW18433   1.901   0.921   8.311 -0.0632 -0.7040  0.3892
 2267SOL    HW118434   1.903   1.005   8.357 -0.8343 -0.4590 -0.0183
 2267SOL    HW218435   1.847   0.868   8.369  1.3424 -2.4509  0.1041
 2268SOL     OW18436   0.644   2.754   8.632 -0.7155 -0.4326 -0.0826
 2268SOL    HW118437   0.671   2.665   8.608 -2.2033 -1.8672  3.4405
 2268SOL    HW218438   0.613   2.765   8.722  1.6195 -0.7937  0.7616
 2269SOL     OW18439   3.433   0.942   4.554  0.0316 -0.2058  0.8301
 2269SOL    HW118440   3.398   0.990   4.479 -0.3137  1.4881  2.0642
 2269SOL    HW218441   3.485   0.878   4.505  0.2646  0.8408 -0.3020
 2270SOL     OW18442   3.715   3.090  17.195 -0.1321 -0.6162  0.3001
 2270SOL    HW118443   3.634   3.123  17.234 -0.2959  0.4977 -1.0077
 2270SOL    HW218444   3.732   3.170  17.146 -0.6421 -0.9667 -0.4409
 2271SOL     OW18445   2.119   0.370  16.778  0.1542 -0.0527  0.1117
 2271SOL    HW118446   2.176   0.330  16.844 -0.3279  0.1374  0.6549
 2271SOL    HW218447   2.056   0.298  16.777  1.7437 -1.4419  0.4125
 2272SOL     OW18448   2.651   4.164   4.704 -0.3184  0.0170 -0.6869
 2272SOL    HW118449   2.618   4.250   4.730 -0.2395  0.3232 -1.6160
 2272SOL    HW218450   2.603   4.130   4.629  3.1011 -2.8661 -1.5613
 2273SOL     OW18451   2.283   3.493   5.730 -0.2311  0.2746 -0.4134
 2273SOL    HW118452   2.239   3.507   5.814  0.5581  0.1441  0.0307
 2273SOL    HW218453   2.372   3.521   5.753 -1.0172  1.8278  0.7384
 2274SOL     OW18454   3.957   2.465   7.172 -1.0595 -0.2103  0.3345
 2274SOL    HW118455   3.940   2.390   7.229 -2.6048 -0.3866 -0.3424
 2274SOL    HW218456   4.047   2.455   7.142 -1.1528  0.9144 -0.3210
 2275SOL     OW18457   3.283   2.518  11.458 -0.2620  0.3960  0.1218
 2275SOL    HW118458   3.210   2.569  11.494  0.3281  1.3006  0.0467
 2275SOL    HW218459   3.251   2.429  11.468 -1.0985  0.7672  0.7883
 2276SOL     OW18460   4.338   0.430   4.785  0.3996  0.0404 -0.0686
 2276SOL    HW118461   4.283   0.379   4.726  0.4764 -0.1472  0.0231
 2276SOL    HW218462   4.368   0.500   4.727 -2.1131 -1.1473 -2.8144
 2277SOL     OW18463   1.175   1.752   3.387 -0.6700 -0.4082  0.3274
 2277SOL    HW118464   1.250   1.811   3.383 -1.8927  1.1542  0.7224
 2277SOL    HW218465   1.171   1.724   3.478 -1.7295  0.6610  0.6046
 2278SOL     OW18466   1.591   4.020   1.946  0.6349  0.6143 -0.0727
 2278SOL    HW118467   1.502   4.043   1.972 -0.3038 -0.4104 -2.3853
 2278SOL    HW218468   1.596   3.944   2.004  0.8790  1.3322  0.8458
 2279SOL     OW18469   1.570   4.517   2.868  0.3246 -0.2558  0.2857
 2279SOL    HW118470   1.508   4.566   2.922 -0.2727 -0.2895 -0.3693
 2279SOL    HW218471   1.524   4.518   2.784  2.7015 -0.1146 -1.0271
 2280SOL     OW18472   0.559   4.464  10.613 -0.0672  0.2940 -0.1254
 2280SOL    HW118473   0.476   4.507  10.635 -0.1554  0.3725 -0.6194
 2280SOL    HW218474   0.521   4.378  10.632 -2.2945  1.8621  2.5726
 2281SOL     OW18475   1.858   0.689   4.656  0.0513 -0.4011 -0.3355
 2281SOL    HW118476   1.816   0.661   4.574  1.4197  0.0959 -1.2093
 2281SOL    HW218477   1.846   0.782   4.639  1.5410 -0.5600 -2.2716
 2282SOL     OW18478   3.883   1.871  17.494  0.0894  0.3874 -0.2138
 2282SOL    HW118479   3.882   1.798  17.557 -3.1792 -0.4496 -1.2346
 2282SOL    HW218480   3.790   1.893  17.494 -0.2597 -1.0529  0.2012
 2283SOL     OW18481   3.061   0.599   0.902 -0.4713 -0.0703 -0.1511
 2283SOL    HW118482   3.039   0.538   0.832 -2.2476  0.8150 -0.3419
 2283SOL    HW218483   2.992   0.665   0.893 -0.9690 -0.3728  1.3563
 2284SOL     OW18484   3.149   0.874   5.102 -0.4411 -0.2781 -0.3855
 2284SOL    HW118485   3.239   0.907   5.103  0.3914 -2.6364  2.5488
 2284SOL    HW218486   3.143   0.783   5.073  0.0355 -0.1956 -0.7363
 2285SOL     OW18487   1.591   3.100   7.847  0.5537 -0.1223 -0.4916
 2285SOL    HW118488   1.513   3.099   7.791  0.3804  1.0258 -0.2642
 2285SOL    HW218489   1.615   3.008   7.854 -0.3749 -0.2538  1.0570
 2286SOL     OW18490   1.575   1.743   5.802 -0.0877 -0.3628  0.2561
 2286SOL    HW118491   1.534   1.791   5.731 -1.1986  0.7391  1.6391
 2286SOL    HW218492   1.663   1.777   5.787 -1.0852  1.5492 -1.2276
 2287SOL     OW18493   3.637   1.009  15.456 -0.0281  0.1859  0.3334
 2287SOL    HW118494   3.667   0.920  15.439 -0.3645 -0.2593  2.1177
 2287SOL    HW218495   3.608   1.013  15.547  0.5584 -0.5132  0.5467
 2288SOL     OW18496   3.077   4.190   2.018 -0.5645 -0.8928 -0.6307
 2288SOL    HW118497   3.074   4.186   2.114 -0.3351 -0.9493 -0.6268
 2288SOL    HW218498   3.036   4.275   2.001  1.1765  0.0341 -0.1777
 2289SOL     OW18499   0.086   0.518   8.400  0.3011  0.5762  0.4152
 2289SOL    HW118500   0.042   0.586   8.349 -0.0078  0.3408  0.3662
 2289SOL    HW218501   0.172   0.559   8.408 -0.4181  1.9251  1.3547
 2290SOL     OW18502   3.830   1.592   2.727 -0.1346  0.5985  0.2739
 2290SOL    HW118503   3.895   1.633   2.670 -2.3473  0.5995 -2.2675
 2290SOL    HW218504   3.743   1.622   2.701 -0.4920  0.4199  1.2726
 2291SOL     OW18505   2.170   3.849  13.474  0.1449 -0.5692  0.6652
 2291SOL    HW118506   2.158   3.825  13.566  0.1662  1.3270  1.1652
 2291SOL    HW218507   2.256   3.810  13.455 -0.6869 -1.5000 -1.1423
 2292SOL     OW18508   1.415   4.132   4.571  0.5396 -0.1307  0.5152
 2292SOL    HW118509   1.325   4.158   4.594  0.5664  0.6293 -0.2315
 2292SOL    HW218510   1.394   4.114   4.479  1.8821  0.1771  0.1564
 2293SOL     OW18511   2.111   0.774   0.509 -0.3846  0.5892  0.0186
 2293SOL    HW118512   2.062   0.694   0.486  1.6698 -0.3196 -1.1456
 2293SOL    HW218513   2.197   0.757   0.471 -0.4817  4.0214 -1.7361
 2294SOL     OW18514   4.243   0.305   7.339 -0.5285  0.1948  0.0712
 2294SOL    HW118515   4.316   0.356   7.374  0.0707  0.1154 -1.0716
 2294SOL    HW218516   4.188   0.294   7.417 -1.6966  1.2608 -0.5967
 2295SOL     OW18517   0.142   4.527   5.045 -0.0084 -0.4094  0.2742
 2295SOL    HW118518   0.086   4.455   5.018  0.0854 -0.4606  0.2209
 2295SOL    HW218519   0.089   4.572   5.111  1.6582 -0.4552  1.6403
 2296SOL     OW18520   2.672   0.098   9.092  0.2319 -0.2502  0.0146
 2296SOL    HW118521   2.595   0.061   9.048  0.2491  1.0157 -1.0708
 2296SOL    HW218522   2.629   0.132   9.170  0.9874  0.6332  0.0414
 2297SOL     OW18523   0.534   2.233   8.857 -0.2327 -0.2072 -0.1787
 2297SOL    HW118524   0.460   2.292   8.872  0.3976  0.8166 -1.1560
 2297SOL    HW218525   0.544   2.181   8.937 -0.5266  1.2369  0.7914
 2298SOL     OW18526   3.763   4.355   9.329  0.3612  0.0543  0.5551
 2298SOL    HW118527   3.745   4.265   9.303 -0.1451  0.1482  0.5760
 2298SOL    HW218528   3.702   4.367   9.402  0.0898  0.5357  0.2541
 2299SOL     OW18529   4.012   4.048   8.142 -0.0400  0.6741 -0.0040
 2299SOL    HW118530   4.046   4.017   8.226  1.1041 -0.5362 -0.9241
 2299SOL    HW218531   4.024   4.143   8.151 -0.7693  0.6861  0.8589
 2300SOL     OW18532   2.340   4.110   2.375  0.5108 -0.1739 -0.6623
 2300SOL    HW118533   2.281   4.035   2.380  0.1503  0.2310  1.2338
 2300SOL    HW218534   2.280   4.184   2.385  1.1258  0.2501 -0.0869
 2301SOL     OW18535   2.205   1.941   1.858 -0.1262  0.2540  0.1148
 2301SOL    HW118536   2.148   1.952   1.934  0.7997 -0.9963  0.9987
 2301SOL    HW218537   2.148   1.881   1.809  0.0152 -1.6034  2.2485
 2302SOL     OW18538   1.748   2.065   0.445  0.1531  0.0779  0.0891
 2302SOL    HW118539   1.689   2.023   0.507  0.5323 -1.5114 -0.6027
 2302SOL    HW218540   1.739   2.018   0.361  1.6676  1.0593 -0.6172
 2303SOL     OW18541   0.110   2.406  11.421 -0.3888  0.1537 -0.0212
 2303SOL    HW118542   0.046   2.374  11.484 -0.0727 -0.8308 -0.2051
 2303SOL    HW218543   0.154   2.460  11.487 -0.5156  1.0063 -0.6283
 2304SOL     OW18544   2.983   0.333  10.938 -0.2063  0.2875 -0.4718
 2304SOL    HW118545   3.071   0.314  10.908 -0.3803  0.5456 -1.1548
 2304SOL    HW218546   2.985   0.420  10.898 -2.3052  0.1082 -0.9688
 2305SOL     OW18547   4.620   2.030   6.993  0.0785  1.1736 -0.2300
 2305SOL    HW118548   4.615   1.965   7.063  2.2984  2.5528  1.2329
 2305SOL    HW218549   4.707   2.009   6.958 -1.1608 -0.8210 -2.0781
 2306SOL     OW18550   0.308   3.393   8.958 -0.0604 -0.1511  0.2233
 2306SOL    HW118551   0.217   3.388   8.985  0.0349 -2.5213  0.1465
 2306SOL    HW218552   0.356   3.445   9.022 -0.4555  0.5978 -0.0947
 2307SOL     OW18553   2.026   2.794  10.353  0.0662 -0.8044  0.2825
 2307SOL    HW118554   2.011   2.884  10.323 -4.5038 -1.1431  1.5494
 2307SOL    HW218555   2.100   2.808  10.412  0.1784  0.0232 -0.0532
 2308SOL     OW18556   2.946   1.744  15.783 -0.0114 -0.4679 -0.3568
 2308SOL    HW118557   2.991   1.663  15.807 -0.9000 -0.3076  1.8932
 2308SOL    HW218558   2.906   1.777  15.864  0.1119  1.1589 -0.9568
 2309SOL     OW18559   1.549   3.011   3.762  0.2010 -0.3988 -0.4478
 2309SOL    HW118560   1.569   3.102   3.742  2.4981 -0.9319 -0.5749
 2309SOL    HW218561   1.472   3.019   3.819  0.0671 -0.7583 -0.5742
 2310SOL     OW18562   2.013   3.343   0.852 -0.8094 -0.2518  0.0771
 2310SOL    HW118563   2.078   3.319   0.918 -0.6823  0.8873  0.3611
 2310SOL    HW218564   1.956   3.386   0.915 -0.9293 -0.6770  0.2581
 2311SOL     OW18565   3.823   0.433   2.066  0.4106  0.2363 -0.0016
 2311SOL    HW118566   3.900   0.435   2.009  0.3523  2.9706  0.0016
 2311SOL    HW218567   3.850   0.364   2.127  0.9136  0.4158 -0.0190
 2312SOL     OW18568   3.572   2.536  17.373 -0.2600 -0.2222 -0.3984
 2312SOL    HW118569   3.625   2.597  17.320 -1.1644 -0.5854 -1.7128
 2312SOL    HW218570   3.527   2.601  17.427 -2.0568 -1.1329 -0.8309
 2313SOL     OW18571   2.646   1.511   4.095 -0.5548 -0.2653 -0.2786
 2313SOL    HW118572   2.574   1.450   4.084 -1.8055  1.4184 -1.4316
 2313SOL    HW218573   2.707   1.457   4.045 -1.3586 -2.7993  1.4833
 2314SOL     OW18574   1.384   0.839  17.101 -0.3384 -0.3990 -0.7468
 2314SOL    HW118575   1.360   0.847  17.193 -0.0173  0.8502 -0.7802
 2314SOL    HW218576   1.298   0.801  17.081 -1.4111  1.1478  0.9274
 2315SOL     OW18577   1.437   4.118   3.960  0.0691 -0.4796 -0.4555
 2315SOL    HW118578   1.519   4.116   4.008 -0.7157 -0.9330  0.8673
 2315SOL    HW218579   1.465   4.162   3.880 -1.4317 -2.2791 -1.9689
 2316SOL     OW18580   1.107   0.478   5.592  0.3275 -0.1924 -0.2434
 2316SOL    HW118581   1.019   0.489   5.628  0.3828  3.2065 -1.1938
 2316SOL    HW218582   1.079   0.409   5.532 -0.0065  0.0889 -0.4136
 2317SOL     OW18583   3.994   3.553  12.712  0.7921 -0.3702 -0.8670
 2317SOL    HW118584   3.956   3.604  12.784  0.3766 -0.4923 -0.9969
 2317SOL    HW218585   4.041   3.482  12.755 -1.7581  0.3844  3.1695
 2318SOL     OW18586   3.808   2.972   6.488  0.5363  0.2607 -0.1681
 2318SOL    HW118587   3.840   3.044   6.542  1.0548  0.1864 -0.3785
 2318SOL    HW218588   3.719   2.993   6.516  0.8624  1.3603  0.0503
 2319SOL     OW18589   2.415   3.375  13.275  0.0767 -0.2281 -0.2055
 2319SOL    HW118590   2.376   3.337  13.354 -0.3039  0.6163  0.0033
 2319SOL    HW218591   2.503   3.338  13.285 -0.4149 -1.5005 -0.5942
 2320SOL     OW18592   3.090   3.542   3.289 -0.3032 -0.4145  0.2377
 2320SOL    HW118593   3.174   3.546   3.243 -0.1249 -0.3361  0.5648
 2320SOL    HW218594   3.093   3.449   3.311 -0.2755 -0.4678  0.0021
 2321SOL     OW18595   4.658   1.419   4.423 -0.6611 -0.2768  0.1501
 2321SOL    HW118596   4.661   1.327   4.395 -2.1947 -1.1293  2.7602
 2321SOL    HW218597   4.600   1.409   4.498  0.6282 -1.0982  1.0397
 2322SOL     OW18598   3.352   4.668   0.666  0.0252 -0.1413 -0.0455
 2322SOL    HW118599   3.443   4.660   0.693  0.4916  0.6808 -1.3695
 2322SOL    HW218600   3.307   4.686   0.749 -1.9149  0.2862 -1.1818
 2323SOL     OW18601   2.865   2.786   1.310  0.1551 -0.3255  1.3832
 2323SOL    HW118602   2.789   2.728   1.300  1.1057 -1.0324 -1.7248
 2323SOL    HW218603   2.904   2.790   1.223 -0.5518 -4.1262  0.9178
 2324SOL     OW18604   3.408   1.065   7.623  0.1429 -0.0312  0.1729
 2324SOL    HW118605   3.462   1.028   7.554 -1.2523 -0.0362 -0.8969
 2324SOL    HW218606   3.373   1.139   7.573  0.6787  1.4812  2.0024
 2325SOL     OW18607   4.152   1.303   4.254 -0.1583 -0.3401  0.1946
 2325SOL    HW118608   4.152   1.271   4.344 -1.0707  0.1556  0.3734
 2325SOL    HW218609   4.105   1.386   4.268 -0.5696 -0.3757 -1.0284
 2326SOL     OW18610   1.556   2.559   1.152 -0.0653 -0.6186 -0.2167
 2326SOL    HW118611   1.507   2.540   1.073 -0.1063 -1.8564  0.1140
 2326SOL    HW218612   1.530   2.482   1.203  0.0537 -0.7808 -0.4022
 2327SOL     OW18613   4.102   1.190  17.289  0.1139 -0.2182 -0.4821
 2327SOL    HW118614   4.032   1.167  17.229  1.1158 -0.8829 -1.4132
 2327SOL    HW218615   4.162   1.240  17.234  1.3201  0.1075  1.1209
 2328SOL     OW18616   1.477   0.461   8.818 -0.2280  1.1676  0.1807
 2328SOL    HW118617   1.393   0.428   8.849  0.9813 -1.7500  0.3091
 2328SOL    HW218618   1.508   0.500   8.900 -1.6792 -1.7668  2.1096
 2329SOL     OW18619   2.337   4.204   4.523 -0.0141  0.4670 -0.1801
 2329SOL    HW118620   2.284   4.271   4.565 -0.2747 -0.5154  1.0487
 2329SOL    HW218621   2.270   4.160   4.470  1.1206  1.7405 -2.6807
 2330SOL     OW18622   1.844   1.545   6.088 -0.4011  0.3041  0.0880
 2330SOL    HW118623   1.783   1.551   6.015 -0.2139 -0.4676 -0.1249
 2330SOL    HW218624   1.910   1.610   6.063 -1.9987  1.2565 -1.5648
 2331SOL     OW18625   3.888   0.516   4.919 -0.0776  0.1309  0.6193
 2331SOL    HW118626   3.973   0.482   4.948  0.8497  0.3449 -1.8117
 2331SOL    HW218627   3.902   0.516   4.824  1.4917 -0.2032  0.8579
 2332SOL     OW18628   2.469   0.261  14.432  0.5024  0.2042  0.4247
 2332SOL    HW118629   2.436   0.185  14.480  1.6844 -1.7918 -1.9187
 2332SOL    HW218630   2.564   0.253  14.446  0.3968  0.6181  1.4251
 2333SOL     OW18631   1.573   1.434   6.382 -0.4299  0.3962 -0.3654
 2333SOL    HW118632   1.607   1.374   6.316  2.6194  0.3229  1.2847
 2333SOL    HW218633   1.536   1.511   6.339  0.0508  0.7991 -0.0602
 2334SOL     OW18634   4.453   2.193  11.640 -0.4217 -0.3129 -0.0649
 2334SOL    HW118635   4.393   2.242  11.585 -0.7318 -0.0026  0.5510
 2334SOL    HW218636   4.411   2.107  11.636 -1.6116  0.2669 -0.1870
 2335SOL     OW18637   3.833   3.714   8.320 -0.1923 -0.4363 -0.3582
 2335SOL    HW118638   3.779   3.696   8.396 -0.5103 -3.3845 -1.3084
 2335SOL    HW218639   3.825   3.809   8.313 -1.6582 -0.3805  2.3949
 2336SOL     OW18640   0.196   1.199   3.159  0.1647 -0.1192 -0.1742
 2336SOL    HW118641   0.213   1.281   3.205 -0.3664 -0.2627  0.2876
 2336SOL    HW218642   0.149   1.219   3.078 -1.2744  0.9637  0.9334
 2337SOL     OW18643   4.217   4.618   4.064 -0.2112  0.3408  0.0516
 2337SOL    HW118644   4.261   4.611   3.980 -0.3517 -0.0659  0.0092
 2337SOL    HW218645   4.224   4.530   4.101  1.1819  1.2645  1.9678
 2338SOL     OW18646   1.874   3.238   2.989 -0.5601 -0.1770  0.3307
 2338SOL    HW118647   1.891   3.331   3.001 -0.0086 -0.2116 -0.1659
 2338SOL    HW218648   1.780   3.236   2.972 -0.4189  1.3380 -0.6209
 2339SOL     OW18649   1.029   2.036   6.340 -0.1808  0.7400  0.0433
 2339SOL    HW118650   1.123   2.021   6.347 -0.4305 -0.3035  1.0769
 2339SOL    HW218651   1.024   2.111   6.399  3.0921  0.0655  1.1453
 2340SOL     OW18652   4.027   3.147   9.605 -0.1670  0.3755  0.5946
 2340SOL    HW118653   4.038   3.147   9.510  1.8468  0.5875  0.8309
 2340SOL    HW218654   4.118   3.121   9.620 -0.2113  0.0654  0.3179
 2341SOL     OW18655   3.319   1.114  11.502  0.1081 -0.0724  0.1841
 2341SOL    HW118656   3.351   1.024  11.503 -1.3795 -0.5830  1.4729
 2341SOL    HW218657   3.225   1.105  11.519  0.1907 -0.0444  0.6614
 2342SOL     OW18658   1.814   2.175   8.514  0.0694  0.2897 -0.2269
 2342SOL    HW118659   1.875   2.238   8.552  0.4496  1.3298 -2.5025
 2342SOL    HW218660   1.751   2.232   8.467 -0.8775 -1.0749 -0.6123
 2343SOL     OW18661   0.549   4.219   8.854 -0.1619  0.4237 -0.3242
 2343SOL    HW118662   0.640   4.243   8.872 -1.0185  1.1111  2.9576
 2343SOL    HW218663   0.517   4.220   8.944  1.4292  0.9604  0.2266
 2344SOL     OW18664   2.240   4.323  16.917 -0.6827 -0.8735 -0.0028
 2344SOL    HW118665   2.333   4.337  16.899 -0.8552  1.7779  1.2016
 2344SOL    HW218666   2.217   4.255  16.855  1.9187 -1.3425 -0.4466
 2345SOL     OW18667   1.188   2.984  14.901  0.3198 -0.0480 -0.1728
 2345SOL    HW118668   1.120   2.928  14.938 -2.0381  3.6244  1.0453
 2345SOL    HW218669   1.137   3.036  14.838 -0.0612 -0.4519 -0.1915
 2346SOL     OW18670   4.382   2.758   4.298  0.2823  0.0997  0.1055
 2346SOL    HW118671   4.368   2.721   4.385 -0.0778  0.3480  0.1567
 2346SOL    HW218672   4.298   2.803   4.286 -0.4574 -1.4532 -0.5255
 2347SOL     OW18673   3.706   4.656  12.086  0.1247  0.2816 -0.3650
 2347SOL    HW118674   3.777   4.718  12.068  3.4377 -3.3276  0.3521
 2347SOL    HW218675   3.753   4.599  12.147 -0.8388 -0.9362 -0.7667
 2348SOL     OW18676   3.953   2.595   8.651  0.2658  0.1310  0.3868
 2348SOL    HW118677   3.975   2.509   8.689 -1.5682  0.0981  1.3576
 2348SOL    HW218678   3.916   2.563   8.568  1.8152  0.6054 -0.4895
 2349SOL     OW18679   3.492   2.455   4.037  0.2132 -0.3180  0.1204
 2349SOL    HW118680   3.435   2.494   4.104  3.2130  3.5364  0.4580
 2349SOL    HW218681   3.511   2.534   3.986  0.3976  0.3314  1.1957
 2350SOL     OW18682   1.171   4.128   4.068 -0.0548  0.2513  0.1624
 2350SOL    HW118683   1.254   4.145   4.024 -0.3098  1.0328 -0.0138
 2350SOL    HW218684   1.185   4.033   4.074  2.8427  0.5529 -1.6290
 2351SOL     OW18685   3.656   1.819   3.645  0.2510  0.6225 -0.1825
 2351SOL    HW118686   3.608   1.849   3.722 -0.5168  0.3086 -0.5353
 2351SOL    HW218687   3.589   1.820   3.577 -0.3845 -0.4944  0.4344
 2352SOL     OW18688   4.580   3.579  12.070 -0.0358 -0.3663  0.1589
 2352SOL    HW118689   4.652   3.558  12.130  0.2857 -3.3713 -1.2811
 2352SOL    HW218690   4.519   3.511  12.097  1.5018 -0.9578  2.1328
 2353SOL     OW18691   0.799   2.927   5.170  0.3192 -0.0210 -0.1737
 2353SOL    HW118692   0.739   2.981   5.222 -0.6432 -0.5798 -0.7244
 2353SOL    HW218693   0.819   2.977   5.092  1.2499 -2.1049 -1.2692
 2354SOL     OW18694   4.392   4.410   3.277 -0.5494 -0.1900  0.4494
 2354SOL    HW118695   4.354   4.349   3.215  0.9430 -1.0982  0.4314
 2354SOL    HW218696   4.460   4.460   3.231 -1.0058  0.0783  0.0728
 2355SOL     OW18697   3.877   1.605   3.793  0.1964 -0.0049 -0.1284
 2355SOL    HW118698   3.956   1.604   3.847 -0.0571 -0.3766  0.2309
 2355SOL    HW218699   3.901   1.653   3.714 -1.1870  1.3348  0.2686
 2356SOL     OW18700   1.542   1.926  14.385 -0.1963 -0.8622 -0.0150
 2356SOL    HW118701   1.563   2.002  14.330 -2.0900  0.0761  0.5651
 2356SOL    HW218702   1.448   1.939  14.396 -0.0461  0.1477  0.1066
 2357SOL     OW18703   2.546   2.579  12.058  0.6185 -0.0938  0.0592
 2357SOL    HW118704   2.512   2.655  12.105  0.3536 -0.8011  1.0275
 2357SOL    HW218705   2.471   2.520  12.056  0.5380 -0.0280  0.9598
 2358SOL     OW18706   2.753   2.135   4.601  0.3973 -0.1857  0.4388
 2358SOL    HW118707   2.771   2.044   4.625  1.6337 -0.3215 -0.9969
 2358SOL    HW218708   2.677   2.117   4.547  1.1669  0.1391 -0.7586
 2359SOL     OW18709   0.961   3.899  12.956 -0.3469 -0.5638  0.3730
 2359SOL    HW118710   0.897   3.970  12.955 -0.2655 -0.4398  3.3274
 2359SOL    HW218711   0.955   3.884  13.051  1.3337  1.2966  0.7799
 2360SOL     OW18712   0.768   4.110   2.688 -0.0732 -0.1014 -0.4311
 2360SOL    HW118713   0.751   4.109   2.782 -3.3143 -2.6062 -1.0301
 2360SOL    HW218714   0.853   4.152   2.696 -1.6598  2.7645  1.2840
 2361SOL     OW18715   0.612   1.622   7.478  0.2769  0.1121 -0.7417
 2361SOL    HW118716   0.617   1.529   7.503  0.8551  0.4179  0.3012
 2361SOL    HW218717   0.533   1.613   7.424 -0.3341 -3.0426  0.6201
 2362SOL     OW18718   3.837   2.024   3.579 -0.0603 -0.3177 -0.0708
 2362SOL    HW118719   3.804   1.939   3.607 -2.0577  0.7763  0.9613
 2362SOL    HW218720   3.749   2.062   3.571 -0.3440 -1.1576 -0.9299
 2363SOL     OW18721   2.139   3.572   6.421  0.8702 -0.7561  0.0143
 2363SOL    HW118722   2.228   3.605   6.433  0.0167  1.6607 -0.3632
 2363SOL    HW218723   2.140   3.489   6.469  0.0553 -0.4221  0.6094
 2364SOL     OW18724   0.732   1.843   4.106  0.1779 -0.7135 -0.2423
 2364SOL    HW118725   0.675   1.890   4.046 -1.9133 -3.0851 -0.1102
 2364SOL    HW218726   0.796   1.910   4.130 -1.3227  1.4031 -2.0936
 2365SOL     OW18727   4.231   1.914   2.418  0.0499  0.0803 -0.3104
 2365SOL    HW118728   4.241   1.995   2.368 -1.2787  1.6607  1.9796
 2365SOL    HW218729   4.180   1.855   2.362 -2.8130  0.1319  2.2474
 2366SOL     OW18730   2.266   0.045  10.266 -0.0363  0.0203  0.0082
 2366SOL    HW118731   2.229   0.120  10.219  1.9500  1.1314  0.2312
 2366SOL    HW218732   2.207   4.717  10.230 -1.2123  1.1263 -0.1489
 2367SOL     OW18733   4.695   2.512   1.063  0.1240  0.2493 -0.1645
 2367SOL    HW118734   4.729   2.600   1.046  0.0472  0.1252 -0.9647
 2367SOL    HW218735   0.039   2.464   1.059 -0.5972 -0.8522 -1.9990
 2368SOL     OW18736   3.097   3.901   2.734  0.0873  0.0030 -0.2484
 2368SOL    HW118737   3.119   3.816   2.695 -0.5230 -0.9354  1.4321
 2368SOL    HW218738   3.024   3.872   2.789  0.4223  2.1874  1.3297
 2369SOL     OW18739   2.952   1.913   6.586  0.0557 -0.4773  0.1826
 2369SOL    HW118740   2.969   1.991   6.640 -2.0673 -0.7176  1.2046
 2369SOL    HW218741   2.949   1.848   6.656  2.3553  1.6108  2.2155
 2370SOL     OW18742   1.909   1.714  14.872 -0.4242  0.5886  0.4382
 2370SOL    HW118743   1.991   1.763  14.876  0.7405 -1.2255 -1.2631
 2370SOL    HW218744   1.851   1.777  14.915  1.6274  1.9093  1.2473
 2371SOL     OW18745   2.753   0.371   3.050 -0.2842  0.0470  0.0452
 2371SOL    HW118746   2.726   0.283   3.023  3.0292 -0.5376 -1.3364
 2371SOL    HW218747   2.840   0.358   3.088 -0.7395 -1.1835  0.6922
 2372SOL     OW18748   0.885   4.480   3.410  0.2715  0.1221 -0.5212
 2372SOL    HW118749   0.842   4.402   3.445 -0.5134  1.3800  1.3238
 2372SOL    HW218750   0.875   4.539   3.485 -1.0486  1.5426 -1.8221
 2373SOL     OW18751   3.700   4.360   2.672 -0.0140  0.4845 -0.0618
 2373SOL    HW118752   3.698   4.281   2.619  0.2444 -0.5750  1.5013
 2373SOL    HW218753   3.608   4.384   2.666 -0.7322 -1.9893  0.9548
 2374SOL     OW18754   2.021   2.851  12.069 -0.1451  0.0172  0.3683
 2374SOL    HW118755   2.108   2.846  12.031  0.4875  0.0289  1.8282
 2374SOL    HW218756   1.973   2.869  11.988  0.4542  0.2570  0.0660
 2375SOL     OW18757   3.747   1.608   2.413 -0.1438  0.3260 -0.1201
 2375SOL    HW118758   3.840   1.585   2.414 -0.5571 -1.3278  0.5472
 2375SOL    HW218759   3.724   1.590   2.322  1.4305  0.4146 -0.5422
 2376SOL     OW18760   4.442   3.087   8.834 -0.1193 -0.3072 -0.1257
 2376SOL    HW118761   4.428   3.020   8.767  0.0758 -1.1695  0.6880
 2376SOL    HW218762   4.393   3.160   8.795 -0.7015 -0.1558  0.9026
 2377SOL     OW18763   2.138   1.069   1.298  0.5777 -0.2179 -0.0221
 2377SOL    HW118764   2.069   1.056   1.233  0.6667 -1.0844  0.0577
 2377SOL    HW218765   2.204   1.012   1.259 -2.5102 -1.0602 -4.0025
 2378SOL     OW18766   3.567   2.347   1.570  0.4733  0.6145  0.2009
 2378SOL    HW118767   3.474   2.361   1.556  0.4611  2.0036  1.6703
 2378SOL    HW218768   3.573   2.282   1.640  0.6433  0.9203  0.4663
 2379SOL     OW18769   0.770   4.255  11.882 -0.1300 -0.0250  0.8705
 2379SOL    HW118770   0.863   4.231  11.890 -0.0511  0.1381  0.4294
 2379SOL    HW218771   0.775   4.315  11.808 -3.0178 -0.5074  0.2776
 2380SOL     OW18772   1.430   1.996  14.678 -0.4150 -0.2451 -0.0845
 2380SOL    HW118773   1.437   1.935  14.751  2.4739  1.3695  0.9869
 2380SOL    HW218774   1.520   2.029  14.679  0.2188 -2.0793  1.8777
 2381SOL     OW18775   3.729   4.176   3.348  0.0841 -0.0678  0.1519
 2381SOL    HW118776   3.726   4.256   3.295  0.3058 -0.6858 -0.7861
 2381SOL    HW218777   3.802   4.181   3.410  1.2923 -0.3007 -1.2672
 2382SOL     OW18778   1.122   0.019   6.022  0.0667  0.3015  0.6452
 2382SOL    HW118779   1.066   4.738   6.097 -1.0447  0.3550 -0.1586
 2382SOL    HW218780   1.097   0.109   6.002 -1.5239 -0.3919 -0.4656
 2383SOL     OW18781   4.546   0.031   6.527  0.4096  0.3804  0.4556
 2383SOL    HW118782   4.575   4.682   6.552  0.3536  0.6047  1.3103
 2383SOL    HW218783   4.455   0.014   6.501  0.3907  0.9304  0.1758
 2384SOL     OW18784   3.951   0.548  15.465  0.3395  0.1949 -0.1712
 2384SOL    HW118785   4.011   0.554  15.539 -0.9561  2.2150  0.7009
 2384SOL    HW218786   3.923   0.456  15.461 -0.6136  0.5509 -1.8163
 2385SOL     OW18787   3.459   0.285   7.954  0.6555 -0.1708 -0.0093
 2385SOL    HW118788   3.430   0.268   7.864 -1.2916 -0.8251  0.7555
 2385SOL    HW218789   3.393   0.242   8.007 -1.0943  1.5725 -0.7606
 2386SOL     OW18790   0.714   0.728   8.842 -0.7947 -0.5848  0.2611
 2386SOL    HW118791   0.744   0.763   8.926 -0.3675  0.4055 -0.2992
 2386SOL    HW218792   0.756   0.642   8.847  0.8085  0.1428 -0.6412
 2387SOL     OW18793   3.946   2.739   9.143  0.2150  0.0962  0.7446
 2387SOL    HW118794   4.039   2.744   9.120  0.9133  0.7277  3.7622
 2387SOL    HW218795   3.960   2.692   9.226  0.5941 -0.4945  0.3503
 2388SOL     OW18796   0.933   1.348   4.386 -0.3109  0.2900 -0.6310
 2388SOL    HW118797   0.862   1.410   4.405 -0.7867 -0.8494  1.2951
 2388SOL    HW218798   0.966   1.387   4.305  0.9901 -0.2541 -0.3631
 2389SOL     OW18799   1.105   1.895  13.175 -0.0977  0.6909  0.4921
 2389SOL    HW118800   1.120   1.966  13.112  0.4943 -0.3919 -0.5967
 2389SOL    HW218801   1.173   1.917  13.239 -1.0220 -0.8812  2.0111
 2390SOL     OW18802   3.838   1.924   6.607 -0.2790 -0.6485 -0.2816
 2390SOL    HW118803   3.820   1.903   6.699 -1.3185 -2.5396 -0.9071
 2390SOL    HW218804   3.846   2.019   6.603  1.1526 -0.7866 -0.6589
 2391SOL     OW18805   3.552   0.198   7.609 -0.1000 -0.1598  0.0619
 2391SOL    HW118806   3.512   0.260   7.548 -0.0561 -1.9700 -1.8162
 2391SOL    HW218807   3.606   0.257   7.663 -1.5187  1.8882 -0.7659
 2392SOL     OW18808   1.859   4.558   3.091 -0.2604 -0.4644  0.9879
 2392SOL    HW118809   1.929   4.611   3.128  0.0247 -0.7368  0.8340
 2392SOL    HW218810   1.870   4.574   2.997  0.8808  1.1621  1.4004
 2393SOL     OW18811   2.675   0.161   7.413  0.1532  0.2444  0.2995
 2393SOL    HW118812   2.751   0.198   7.457 -0.1839  0.7302  0.4808
 2393SOL    HW218813   2.624   0.131   7.489  0.4415  0.5034  0.5949
 2394SOL     OW18814   1.663   2.565  11.884  0.4896 -0.3006 -0.2837
 2394SOL    HW118815   1.580   2.613  11.891  0.4299 -0.4557  0.0779
 2394SOL    HW218816   1.632   2.484  11.842 -2.8126 -0.1021  1.7578
 2395SOL     OW18817   2.150   2.823  16.699 -0.4227  0.4748  0.1458
 2395SOL    HW118818   2.143   2.915  16.722  0.5327  0.4008  0.7228
 2395SOL    HW218819   2.202   2.829  16.619  1.0833 -0.1681  1.0854
 2396SOL     OW18820   2.158   1.140   8.766 -0.5278  0.1584  0.0635
 2396SOL    HW118821   2.231   1.083   8.790  0.6178  0.1347 -3.4795
 2396SOL    HW218822   2.110   1.129   8.848  1.5115 -1.7182  1.0318
 2397SOL     OW18823   2.959   0.510  15.155 -0.3698 -0.9494  0.3840
 2397SOL    HW118824   3.048   0.483  15.175  0.2789  1.3759  0.5652
 2397SOL    HW218825   2.976   0.539  15.066 -1.9204  0.5702  0.5619
 2398SOL     OW18826   1.030   3.798   1.286 -0.0079 -0.0131 -0.0577
 2398SOL    HW118827   1.037   3.870   1.348  3.9501  1.0582 -1.7626
 2398SOL    HW218828   0.961   3.827   1.228  0.9968  2.1696 -0.1406
 2399SOL     OW18829   0.889   1.212   7.680  0.4664  0.3397 -0.7541
 2399SOL    HW118830   0.890   1.122   7.711  0.3356  0.5047 -0.2838
 2399SOL    HW218831   0.947   1.256   7.743 -1.2736  2.2322 -0.4667
 2400SOL     OW18832   2.146   0.934  10.217 -0.4850  0.3724 -0.4199
 2400SOL    HW118833   2.059   0.895  10.222 -0.0783 -0.3733  0.8275
 2400SOL    HW218834   2.197   0.856  10.236 -3.0296 -0.7275  1.7835
 2401SOL     OW18835   2.465   2.691  14.116 -0.2369  0.4111  0.3021
 2401SOL    HW118836   2.416   2.771  14.097  2.0653  1.0879 -2.7763
 2401SOL    HW218837   2.485   2.655  14.030 -2.3421 -0.7195  0.2877
 2402SOL     OW18838   1.720   3.796  16.833 -0.0567  0.2488  0.0116
 2402SOL    HW118839   1.745   3.883  16.801 -2.5346  1.0844  0.2965
 2402SOL    HW218840   1.662   3.820  16.906  1.9300  1.2669  1.2358
 2403SOL     OW18841   1.302   3.811   2.907  0.2678  0.4767  0.0682
 2403SOL    HW118842   1.331   3.844   2.822  0.7761 -0.0837  0.0224
 2403SOL    HW218843   1.249   3.739   2.873 -0.3072  1.9646 -2.1729
 2404SOL     OW18844   0.183   1.270   6.134  0.0305 -1.0235 -0.0393
 2404SOL    HW118845   0.224   1.251   6.050  0.5702 -0.3850  0.0784
 2404SOL    HW218846   0.144   1.184   6.150  0.6323 -1.2356  0.2809
 2405SOL     OW18847   4.239   2.644   1.288 -0.2691 -0.4480  0.6107
 2405SOL    HW118848   4.334   2.632   1.290 -0.1382  0.3278 -0.8077
 2405SOL    HW218849   4.225   2.730   1.247 -0.6616 -0.7450  0.1167
 2406SOL     OW18850   3.501   4.403  11.486  0.1470 -0.5287  0.5275
 2406SOL    HW118851   3.568   4.379  11.549  0.5823 -0.6145  0.0380
 2406SOL    HW218852   3.544   4.392  11.401  0.1686  0.9770  0.3373
 2407SOL     OW18853   1.784   4.492   9.227 -0.3865 -0.1493  0.2469
 2407SOL    HW118854   1.703   4.535   9.253 -0.6934 -1.0367  0.7461
 2407SOL    HW218855   1.844   4.567   9.234 -0.6514  0.1723 -0.9260
 2408SOL     OW18856   0.062   3.727  11.993 -0.7330  0.0239  0.1333
 2408SOL    HW118857   4.726   3.667  11.991 -0.1193 -0.7967  1.8519
 2408SOL    HW218858   0.134   3.664  11.989 -0.5811  0.0914  1.7801
 2409SOL     OW18859   2.208   4.511   2.897  1.0598 -0.1115  0.1329
 2409SOL    HW118860   2.199   4.475   2.985  2.0938 -1.1140 -0.1651
 2409SOL    HW218861   2.286   4.564   2.910  0.4810  1.0265 -1.0740
 2410SOL     OW18862   3.993   1.887  15.923 -0.1341  1.0731  0.3133
 2410SOL    HW118863   4.002   1.860  16.014 -0.2157  1.0765  0.3229
 2410SOL    HW218864   4.053   1.961  15.932 -0.5273  1.1401  2.3728
 2411SOL     OW18865   3.605   1.272  13.309  0.1105  0.5273 -0.1345
 2411SOL    HW118866   3.598   1.270  13.213 -0.5734 -1.4761 -0.0452
 2411SOL    HW218867   3.604   1.363  13.339  1.6680 -0.2106  2.1668
 2412SOL     OW18868   3.559   4.157   5.818 -0.7487  0.0662  0.4624
 2412SOL    HW118869   3.580   4.172   5.726  0.1540 -0.7123  0.5471
 2412SOL    HW218870   3.620   4.218   5.860  1.5012 -3.2931  2.0111
 2413SOL     OW18871   3.371   3.312   2.068 -0.4784  0.0366 -0.0225
 2413SOL    HW118872   3.390   3.234   2.120 -0.5766 -0.3744 -0.6045
 2413SOL    HW218873   3.462   3.327   2.042 -0.4094 -0.8046 -0.2714
 2414SOL     OW18874   0.101   2.667  12.142  0.4615  0.4775 -0.6134
 2414SOL    HW118875   0.006   2.664  12.146  0.4005  1.3837 -1.3341
 2414SOL    HW218876   0.125   2.580  12.111 -0.6855  0.4755 -1.5058
 2415SOL     OW18877   1.704   2.747   5.329  0.0405 -0.8248 -0.1254
 2415SOL    HW118878   1.725   2.746   5.236 -1.0415  0.0586 -0.3784
 2415SOL    HW218879   1.782   2.731   5.383  0.9544 -0.7437 -1.4390
 2416SOL     OW18880   4.293   1.669   8.409 -0.2789 -0.7535  0.0685
 2416SOL    HW118881   4.244   1.679   8.491 -0.4157 -0.5302 -0.0428
 2416SOL    HW218882   4.379   1.709   8.425 -1.2921  1.6649 -0.6815
 2417SOL     OW18883   3.129   3.685  14.302  0.2719  0.4432 -0.3764
 2417SOL    HW118884   3.095   3.767  14.267 -0.2254  0.4815  0.2031
 2417SOL    HW218885   3.087   3.623  14.242  0.1381  0.0630  0.1141
 2418SOL     OW18886   1.419   2.571   5.615  0.0027  0.4751  0.5229
 2418SOL    HW118887   1.450   2.497   5.668 -2.8477 -1.3972 -0.4211
 2418SOL    HW218888   1.459   2.548   5.532 -1.2602 -0.8197  0.2539
 2419SOL     OW18889   0.063   2.184  12.151  0.1280  0.1857  0.1030
 2419SOL    HW118890   0.145   2.194  12.199  1.2585  0.3065 -1.8690
 2419SOL    HW218891   0.063   2.092  12.122  1.4356 -0.0357  0.8085
 2420SOL     OW18892   2.884   4.428   4.866 -0.6539 -0.2004  0.1898
 2420SOL    HW118893   2.954   4.483   4.901 -0.2007 -0.0470 -0.9597
 2420SOL    HW218894   2.806   4.469   4.903 -0.2353  0.8712 -0.1010
 2421SOL     OW18895   0.063   0.747   4.615 -0.9722  0.3524  0.0085
 2421SOL    HW118896   0.002   0.768   4.544  1.5594  0.9504 -1.9759
 2421SOL    HW218897   0.091   0.832   4.649 -1.9653 -0.0177  1.8056
 2422SOL     OW18898   4.088   1.964   3.745  0.2640 -0.2013 -0.7071
 2422SOL    HW118899   4.065   1.900   3.679 -2.5668 -0.3930  0.4624
 2422SOL    HW218900   4.011   1.975   3.800  0.8613  1.9426 -0.2790
 2423SOL     OW18901   3.590   2.254   4.166  0.5348  0.5524 -0.0877
 2423SOL    HW118902   3.665   2.296   4.208  0.4830  2.2278 -1.6726
 2423SOL    HW218903   3.565   2.321   4.102  0.1938  1.2583  0.7962
 2424SOL     OW18904   0.401   2.380   2.868  0.2697 -0.6094 -0.3327
 2424SOL    HW118905   0.410   2.395   2.962  0.0198  0.1318 -0.4245
 2424SOL    HW218906   0.474   2.319   2.858  0.4105 -0.6086  0.7494
 2425SOL     OW18907   4.298   0.729   4.470  0.0589 -0.2782  0.4897
 2425SOL    HW118908   4.322   0.819   4.448 -0.8462 -0.3477 -0.8255
 2425SOL    HW218909   4.246   0.706   4.393  3.4018 -0.5568 -1.6449
 2426SOL     OW18910   0.597   3.688   7.219  0.0524 -0.1923  0.0123
 2426SOL    HW118911   0.555   3.772   7.234  0.7838 -0.1600  1.8764
 2426SOL    HW218912   0.665   3.710   7.157  0.1545 -1.2255 -0.2503
 2427SOL     OW18913   1.443   0.257  14.129  0.3569  0.0013 -0.3688
 2427SOL    HW118914   1.417   0.268  14.037 -0.9941  1.2160  0.1692
 2427SOL    HW218915   1.526   0.210  14.125  1.2490  1.5448  0.0482
 2428SOL     OW18916   3.030   1.273  12.560  0.5010  0.0287 -0.7033
 2428SOL    HW118917   3.064   1.202  12.505 -0.4753 -0.2041 -1.0091
 2428SOL    HW218918   2.937   1.249  12.565  1.1139 -2.4705 -1.4791
 2429SOL     OW18919   2.167   0.861   2.762  1.0318 -0.2234 -0.2045
 2429SOL    HW118920   2.212   0.857   2.846  1.5882 -1.6145 -0.5613
 2429SOL    HW218921   2.228   0.919   2.717  1.6481 -0.6261  0.1075
 2430SOL     OW18922   3.078   2.410   7.653  0.2789  0.1176  0.0674
 2430SOL    HW118923   3.135   2.457   7.713  0.0598  1.3495 -0.6756
 2430SOL    HW218924   3.145   2.382   7.589 -0.2168 -1.0752  0.0805
 2431SOL     OW18925   0.337   2.425   7.946  0.2326  0.4353  0.3250
 2431SOL    HW118926   0.277   2.352   7.933 -1.1281  1.7612 -0.9151
 2431SOL    HW218927   0.410   2.393   7.999 -0.9593  2.4445  3.2072
 2432SOL     OW18928   3.710   3.213   6.271  0.1157 -0.1418 -0.5291
 2432SOL    HW118929   3.640   3.274   6.292 -0.4850 -1.3391  0.8965
 2432SOL    HW218930   3.673   3.127   6.291 -0.7932  0.3634 -0.0635
 2433SOL     OW18931   2.245   2.935   4.048  0.5337  0.0158 -0.1062
 2433SOL    HW118932   2.172   2.975   4.002 -1.6085 -2.6441  0.9452
 2433SOL    HW218933   2.204   2.895   4.125 -1.3619 -0.4356 -1.3458
 2434SOL     OW18934   3.803   1.001   9.754  0.3467  0.3207 -0.4727
 2434SOL    HW118935   3.783   0.913   9.786 -0.9616  0.8370  0.1357
 2434SOL    HW218936   3.753   1.001   9.672  2.2243  0.6892 -1.5939
 2435SOL     OW18937   3.378   3.772   1.995  0.2566 -0.3459  0.1405
 2435SOL    HW118938   3.351   3.687   1.960  0.3894 -0.6086  0.6754
 2435SOL    HW218939   3.306   3.828   1.969 -1.9529 -1.4529  3.9516
 2436SOL     OW18940   1.385   2.052   8.555 -0.1918  0.3521  0.6194
 2436SOL    HW118941   1.332   2.020   8.628 -2.3592  0.7082 -0.8176
 2436SOL    HW218942   1.323   2.113   8.516 -0.8172 -1.2346 -0.8547
 2437SOL     OW18943   4.162   0.776   5.557 -0.1052 -0.7603  0.1473
 2437SOL    HW118944   4.144   0.715   5.629 -1.1456 -1.1073 -0.4187
 2437SOL    HW218945   4.166   0.859   5.606 -1.0177 -0.6572  0.0378
 2438SOL     OW18946   4.486   1.732   3.800 -0.1868 -0.7401  0.1215
 2438SOL    HW118947   4.502   1.689   3.884 -1.7894  1.2681  1.4390
 2438SOL    HW218948   4.420   1.674   3.764 -0.8142  1.3912 -2.1279
 2439SOL     OW18949   0.038   3.307   4.963  0.6416  0.8023 -0.1208
 2439SOL    HW118950   0.025   3.362   4.885  0.5932  0.2999 -0.4670
 2439SOL    HW218951   0.126   3.339   4.982  0.4385  1.1781  0.1737
 2440SOL     OW18952   3.878   0.189   1.716 -0.2356 -0.0663 -0.0412
 2440SOL    HW118953   3.905   0.280   1.729 -0.9962 -0.0958  1.7979
 2440SOL    HW218954   3.824   0.183   1.795 -1.2723  0.6134 -0.6911
 2441SOL     OW18955   4.375   0.507   6.668 -0.3142  0.2208 -0.6820
 2441SOL    HW118956   4.441   0.437   6.665 -1.9227 -1.3739  1.2851
 2441SOL    HW218957   4.336   0.489   6.583  0.0335  0.6444 -0.9304
 2442SOL     OW18958   1.526   0.469   6.019 -0.3544  0.3936  0.0582
 2442SOL    HW118959   1.484   0.552   5.997  0.9941  1.0309 -0.0772
 2442SOL    HW218960   1.461   0.408   5.983 -0.1393  1.4271 -2.0529
 2443SOL     OW18961   4.403   3.109   0.140  0.4245 -0.4887 -0.1811
 2443SOL    HW118962   4.340   3.075   0.204 -0.1694  0.4329 -0.2768
 2443SOL    HW218963   4.443   3.184   0.183 -2.8056  0.4109  1.2581
 2444SOL     OW18964   0.101   2.219  11.073 -0.2581 -0.1305 -0.1924
 2444SOL    HW118965   0.096   2.315  11.077 -1.7098 -0.1296 -2.0844
 2444SOL    HW218966   0.013   2.190  11.098  0.4181 -1.4663  0.6792
 2445SOL     OW18967   2.794   1.465  14.862 -0.2374  0.6146  0.0269
 2445SOL    HW118968   2.814   1.397  14.797 -4.0590 -0.6032  0.1435
 2445SOL    HW218969   2.876   1.479  14.910 -0.9625 -2.0824  2.0670
 2446SOL     OW18970   1.447   2.703   8.992 -0.6075  0.2737 -0.7083
 2446SOL    HW118971   1.516   2.702   8.926 -1.2415 -2.8882 -1.3481
 2446SOL    HW218972   1.368   2.718   8.941 -1.2964  1.1376  0.6103
 2447SOL     OW18973   3.639   2.626   9.866  0.4504  0.3043  0.1987
 2447SOL    HW118974   3.635   2.622   9.962 -1.1929 -1.3508  0.0673
 2447SOL    HW218975   3.554   2.666   9.850 -0.7097 -1.2755  2.4814
 2448SOL     OW18976   1.139   4.342   1.830  0.2557 -0.2836  0.3246
 2448SOL    HW118977   1.067   4.322   1.889 -0.6571  2.4055  0.1201
 2448SOL    HW218978   1.103   4.339   1.741  0.9751  0.1228  0.0191
 2449SOL     OW18979   1.036   2.782   4.044  0.0612 -0.5435 -0.1926
 2449SOL    HW118980   0.950   2.804   4.081  0.4089 -0.2559  0.4552
 2449SOL    HW218981   1.035   2.850   3.977 -0.0834  0.8364  1.2140
 2450SOL     OW18982   4.465   1.186   2.798  0.0553 -0.0076 -0.6484
 2450SOL    HW118983   4.413   1.129   2.742 -0.5875 -0.0509 -0.0106
 2450SOL    HW218984   4.432   1.156   2.883 -1.6140  0.1733 -1.2342
 2451SOL     OW18985   3.801   0.679   2.732  0.8178 -0.3412 -0.2453
 2451SOL    HW118986   3.791   0.701   2.639  1.8779 -0.0107 -0.2862
 2451SOL    HW218987   3.769   0.762   2.767 -0.6635 -1.1231  0.2152
 2452SOL     OW18988   3.738   2.434   6.548 -0.0236  0.3786 -0.0869
 2452SOL    HW118989   3.744   2.530   6.550  3.6654  0.1192  1.3730
 2452SOL    HW218990   3.746   2.425   6.454 -2.4893 -0.9365 -0.1661
 2453SOL     OW18991   1.631   0.064   5.474  0.1136  0.1600 -0.3911
 2453SOL    HW118992   1.627   4.730   5.536 -1.0189 -0.0347 -0.6962
 2453SOL    HW218993   1.589   0.031   5.394 -1.1061  1.7128 -0.3840
 2454SOL     OW18994   0.636   2.667  12.238  0.8487 -0.0137 -0.3893
 2454SOL    HW118995   0.630   2.571  12.239  0.4097  0.0168 -0.0435
 2454SOL    HW218996   0.569   2.693  12.175 -0.0918 -1.0178  0.1823
 2455SOL     OW18997   3.753   1.137  16.327  0.4091 -0.2675  0.4142
 2455SOL    HW118998   3.765   1.200  16.256  0.2022 -1.7130 -0.9076
 2455SOL    HW218999   3.700   1.063  16.298  1.8726 -1.5696  1.0478
 2456SOL     OW19000   4.295   1.900   5.622 -0.2370 -0.3053  0.0664
 2456SOL    HW119001   4.374   1.866   5.665 -0.4078 -0.7599  0.0257
 2456SOL    HW219002   4.242   1.834   5.667 -1.6215 -0.9948 -2.6077
 2457SOL     OW19003   0.857   3.656   5.890  0.0231 -0.0608  0.0843
 2457SOL    HW119004   0.867   3.720   5.960  2.3792 -0.1898 -0.1169
 2457SOL    HW219005   0.950   3.642   5.870 -0.1628  0.0329 -0.8560
 2458SOL     OW19006   2.602   2.551  15.471 -0.4328 -0.1380  0.0660
 2458SOL    HW119007   2.651   2.480  15.430 -0.2912 -0.0087  0.0120
 2458SOL    HW219008   2.622   2.533  15.563 -0.0677  1.3806  0.2825
 2459SOL     OW19009   0.208   4.166   3.652  0.7259  0.2852  0.1347
 2459SOL    HW119010   0.166   4.081   3.641 -2.3822  1.5578  2.0932
 2459SOL    HW219011   0.140   4.217   3.607  1.4564  0.3285 -0.9226
 2460SOL     OW19012   1.016   3.066   9.407 -0.0048  0.9532  0.2653
 2460SOL    HW119013   1.025   3.152   9.448 -0.7707  0.0444  2.3482
 2460SOL    HW219014   0.968   3.021   9.477 -1.4179  0.7343 -0.8608
 2461SOL     OW19015   2.333   3.704   9.308  0.3074  0.8616  0.0819
 2461SOL    HW119016   2.330   3.639   9.238  0.1257  0.2357  0.6687
 2461SOL    HW219017   2.354   3.787   9.265  2.4339  0.2264 -0.1431
 2462SOL     OW19018   0.949   3.660   1.901 -0.0522 -1.1319 -0.2305
 2462SOL    HW119019   0.890   3.628   1.969  0.1594 -0.6317  0.1864
 2462SOL    HW219020   0.875   3.674   1.842  1.3956  0.9889 -1.5443
 2463SOL     OW19021   4.438   1.663  16.710  0.2446  0.4997  0.5759
 2463SOL    HW119022   4.343   1.669  16.718 -0.0019 -0.6981 -1.5005
 2463SOL    HW219023   4.461   1.735  16.768 -1.2578  2.4506 -1.2563
 2464SOL     OW19024   0.826   2.028   4.627  0.4786  0.2987  0.5200
 2464SOL    HW119025   0.847   2.018   4.535  2.0772 -0.9142  1.0034
 2464SOL    HW219026   0.796   2.117   4.642  0.2185  0.3995 -0.6297
 2465SOL     OW19027   2.281   4.708   3.161 -0.0780  0.0868 -0.3431
 2465SOL    HW119028   2.200   0.016   3.142 -0.6774 -1.1609 -0.8469
 2465SOL    HW219029   2.337   0.011   3.096 -2.2528 -0.3604 -2.5162
 2466SOL     OW19030   1.958   3.854   7.266 -0.4008  0.4378 -0.0727
 2466SOL    HW119031   1.984   3.838   7.356  4.4678  1.9488 -1.1847
 2466SOL    HW219032   1.896   3.926   7.279  0.1237  0.6725  1.1249
 2467SOL     OW19033   2.323   3.670   4.059  0.4586  0.0060 -0.1410
 2467SOL    HW119034   2.247   3.710   4.017  1.5920 -0.0691 -2.2282
 2467SOL    HW219035   2.384   3.701   3.993 -0.2898 -1.0849 -1.3538
 2468SOL     OW19036   3.405   2.532   6.408 -0.0960  0.2544 -0.4660
 2468SOL    HW119037   3.416   2.545   6.503 -0.6270  2.6817 -0.7343
 2468SOL    HW219038   3.310   2.518   6.408  0.1327 -1.3113 -3.3216
 2469SOL     OW19039   0.259   4.288  17.188 -0.5296 -0.6599  0.1474
 2469SOL    HW119040   0.174   4.331  17.183  0.1602  0.9808  2.5229
 2469SOL    HW219041   0.262   4.237  17.107  0.2270 -1.7295  0.8525
 2470SOL     OW19042   2.241   1.610   9.867 -0.2850  0.3325  0.2860
 2470SOL    HW119043   2.198   1.560   9.798  2.1738 -0.8076 -0.4351
 2470SOL    HW219044   2.330   1.598   9.834 -0.3860 -1.2435  0.5885
 2471SOL     OW19045   1.671   0.283  12.358 -0.3360 -0.3553 -0.1411
 2471SOL    HW119046   1.737   0.277  12.288 -2.3956 -1.9331 -1.9453
 2471SOL    HW219047   1.619   0.361  12.341  0.7329  0.4184  0.1135
 2472SOL     OW19048   2.033   0.072   3.473 -0.2745  0.1239  0.5246
 2472SOL    HW119049   2.034   0.163   3.502 -1.7082  0.4526 -0.4385
 2472SOL    HW219050   1.944   0.045   3.496 -0.2616  1.2411  1.8908
 2473SOL     OW19051   3.953   0.905  15.206  0.0517  0.5145  0.4258
 2473SOL    HW119052   3.937   0.999  15.200 -0.4395  0.4299  0.3675
 2473SOL    HW219053   3.862   0.877  15.216  0.0785  0.4815  0.5765
 2474SOL     OW19054   2.212   1.044   1.781 -0.1910  0.1314  0.5062
 2474SOL    HW119055   2.275   1.103   1.821  0.3770 -0.8849  1.1010
 2474SOL    HW219056   2.219   1.079   1.692  0.6198 -1.8396 -0.1961
 2475SOL     OW19057   0.747   0.368   7.435  0.3571 -0.2663 -0.7822
 2475SOL    HW119058   0.723   0.312   7.361  0.2779 -1.0059 -0.1930
 2475SOL    HW219059   0.828   0.330   7.469  1.4773  2.2197 -0.6868
 2476SOL     OW19060   0.903   4.260   7.517  0.2446  0.0121  0.6383
 2476SOL    HW119061   0.969   4.191   7.506 -1.1299 -1.0474 -0.9072
 2476SOL    HW219062   0.842   4.219   7.578 -1.1699  0.6606 -0.3701
 2477SOL     OW19063   2.547   4.381   4.797 -0.1556 -0.7408  0.8129
 2477SOL    HW119064   2.485   4.428   4.741  0.2250 -0.3208  0.7367
 2477SOL    HW219065   2.582   4.459   4.841 -0.8278 -0.4112  0.7597
 2478SOL     OW19066   0.184   0.029   4.752 -0.7212  0.0556 -0.4739
 2478SOL    HW119067   0.125   0.070   4.815 -1.6262 -1.5378 -0.2889
 2478SOL    HW219068   0.132   4.698   4.712  0.2459 -1.3521  0.6812
 2479SOL     OW19069   3.533   4.630   9.516  0.0427  0.4463 -0.3481
 2479SOL    HW119070   3.487   4.706   9.481 -1.1889 -0.7653 -1.3546
 2479SOL    HW219071   3.624   4.661   9.520  0.0929  0.4718 -1.5682
 2480SOL     OW19072   4.196   0.262   9.819  0.3884  0.4372 -0.1994
 2480SOL    HW119073   4.127   0.269   9.886  0.3033  0.3783 -0.2806
 2480SOL    HW219074   4.272   0.311   9.849  2.6948 -1.5123 -2.8508
 2481SOL     OW19075   2.204   0.385   8.367  0.4682 -0.4953 -0.0313
 2481SOL    HW119076   2.121   0.414   8.404 -0.9736 -1.5479 -2.4714
 2481SOL    HW219077   2.246   0.347   8.444 -0.2569  1.7403  1.4591
 2482SOL     OW19078   0.049   3.705   6.389 -0.2245 -0.0288 -0.3263
 2482SOL    HW119079   0.057   3.611   6.406 -0.4724  0.0977  0.4759
 2482SOL    HW219080   0.036   3.717   6.295 -2.1359 -0.6215 -0.1376
 2483SOL     OW19081   4.175   1.071   9.180 -0.2388  0.2293 -0.4055
 2483SOL    HW119082   4.164   1.114   9.095 -2.1524  0.3227 -0.1216
 2483SOL    HW219083   4.143   0.982   9.165 -0.3723  0.2019  0.0480
 2484SOL     OW19084   1.114   0.149   3.642  0.2236  0.1305  0.1201
 2484SOL    HW119085   1.129   0.225   3.698 -0.4827 -0.0679  0.5792
 2484SOL    HW219086   1.018   0.154   3.642  0.2134 -0.0726  1.2612
 2485SOL     OW19087   0.612   4.359   4.954  0.7409 -0.2067  0.0880
 2485SOL    HW119088   0.697   4.399   4.937  1.1337 -1.4078 -0.8096
 2485SOL    HW219089   0.642   4.329   5.040 -3.0463 -2.9783  0.4747
 2486SOL     OW19090   1.106   0.902   9.003  0.1442 -0.1584  0.2299
 2486SOL    HW119091   1.130   0.908   8.910  1.7172  1.5001  0.7535
 2486SOL    HW219092   1.018   0.866   8.998  0.5495 -1.3124  1.4043
 2487SOL     OW19093   4.340   4.670   5.294  0.3975 -0.1035 -0.3615
 2487SOL    HW119094   4.343   4.694   5.386  0.9212 -0.3188 -0.3231
 2487SOL    HW219095   4.429   4.648   5.268  1.0910  0.9931  1.0802
 2488SOL     OW19096   3.052   0.883   6.467 -0.8379 -0.5337  0.2134
 2488SOL    HW119097   3.123   0.918   6.520 -1.2500  1.6376 -0.6873
 2488SOL    HW219098   3.019   0.958   6.418 -1.9259 -0.8579  0.4452
 2489SOL     OW19099   3.841   0.148  11.885  0.2655 -0.3848 -0.6393
 2489SOL    HW119100   3.892   0.209  11.831  1.8832  0.0872  1.4080
 2489SOL    HW219101   3.756   0.139  11.843  1.1332 -2.0189 -2.0529
 2490SOL     OW19102   2.206   1.348   1.314  0.1653  0.2317  0.2077
 2490SOL    HW119103   2.177   1.258   1.299 -2.8319  1.3699 -0.7887
 2490SOL    HW219104   2.246   1.369   1.230 -0.5611  1.9420  0.3021
 2491SOL     OW19105   2.465   3.033   2.695  0.2088  0.2512 -0.2757
 2491SOL    HW119106   2.428   3.092   2.761 -1.9489 -2.3097  0.7975
 2491SOL    HW219107   2.526   3.087   2.643 -1.8028  1.5603 -1.2628
 2492SOL     OW19108   3.957   1.527  11.004 -0.8036 -0.0288 -0.3547
 2492SOL    HW119109   4.050   1.553  11.005 -1.0121  0.7278 -1.0242
 2492SOL    HW219110   3.920   1.569  10.927  0.8926  1.3431 -0.4294
 2493SOL     OW19111   1.885   0.520   8.737 -0.0467 -0.4222  0.3585
 2493SOL    HW119112   1.848   0.476   8.814  0.8280  0.2194  1.1487
 2493SOL    HW219113   1.914   0.604   8.772 -1.6321  0.7424 -1.1188
 2494SOL     OW19114   0.634   1.554   3.161 -0.0670  0.4861 -0.2681
 2494SOL    HW119115   0.543   1.565   3.188  0.5979 -1.5562  2.7395
 2494SOL    HW219116   0.629   1.576   3.068  0.9103  0.9711 -0.2083
 2495SOL     OW19117   3.388   1.156   8.618  0.5211 -0.1032  0.0003
 2495SOL    HW119118   3.306   1.121   8.654  0.8396 -1.3106 -0.4494
 2495SOL    HW219119   3.368   1.182   8.528  1.5913 -0.6720 -0.3961
 2496SOL     OW19120   2.176   4.459   3.218  0.6936  0.1393  0.5393
 2496SOL    HW119121   2.215   4.546   3.215  2.0952 -0.3800  4.1121
 2496SOL    HW219122   2.194   4.429   3.307 -0.6617  2.2417  1.5264
 2497SOL     OW19123   3.270   0.829  17.436  0.7341  0.4230 -0.1298
 2497SOL    HW119124   3.281   0.885  17.359 -1.8104  1.5004  0.2988
 2497SOL    HW219125   3.246   0.746  17.393 -0.2539  1.6222 -1.9089
 2498SOL     OW19126   0.192   2.638   4.899 -0.0889  0.1714 -0.5090
 2498SOL    HW119127   0.258   2.578   4.934 -1.4328 -1.1511 -0.2545
 2498SOL    HW219128   0.207   2.635   4.804  1.3649 -0.1118 -0.2757
 2499SOL     OW19129   3.916   4.398   9.111 -0.7852 -0.4877  0.3543
 2499SOL    HW119130   3.885   4.321   9.064 -0.7543 -0.0844 -0.3329
 2499SOL    HW219131   3.872   4.384   9.195  1.0902  1.9058  1.7540
 2500SOL     OW19132   4.488   3.239  12.906  0.2503  0.3885 -0.2556
 2500SOL    HW119133   4.540   3.308  12.947  0.4888 -1.0153  1.8022
 2500SOL    HW219134   4.539   3.159  12.924  0.1787  0.7983  1.7333
 2501SOL     OW19135   1.592   2.026   2.341  0.3445  0.2581  0.1571
 2501SOL    HW119136   1.593   1.936   2.307 -0.7491  1.3687 -2.7205
 2501SOL    HW219137   1.502   2.053   2.327 -0.4069 -1.5192  1.5679
 2502SOL     OW19138   1.314   0.839  13.442 -0.1463  0.7612 -0.4978
 2502SOL    HW119139   1.288   0.835  13.534  1.1822  1.8313 -0.0795
 2502SOL    HW219140   1.237   0.888  13.412  0.1542  0.0984 -2.3710
 2503SOL     OW19141   1.682   0.284   8.301 -0.2668 -0.3228  0.1861
 2503SOL    HW119142   1.711   0.329   8.222  0.3992  0.8575  1.1017
 2503SOL    HW219143   1.587   0.295   8.298 -0.0175  1.5940 -0.7370
 2504SOL     OW19144   0.656   1.342   4.796 -0.3135 -0.0966  0.1388
 2504SOL    HW119145   0.726   1.284   4.766  0.6438  0.1773  1.7974
 2504SOL    HW219146   0.701   1.376   4.874  0.2180 -0.2976 -0.0812
 2505SOL     OW19147   1.128   1.369   0.792  0.1834  0.1708 -0.2800
 2505SOL    HW119148   1.034   1.369   0.808  0.0197 -1.3395 -1.2172
 2505SOL    HW219149   1.152   1.431   0.861 -1.0580  1.3069 -0.8676
 2506SOL     OW19150   1.624   0.171   4.850 -0.6010 -0.1256  0.5133
 2506SOL    HW119151   1.619   0.179   4.945  0.8802 -0.4758  0.6347
 2506SOL    HW219152   1.539   0.134   4.828 -1.2558  0.0669  2.6591
 2507SOL     OW19153   2.690   3.679   6.089  0.1958  0.1636  0.2353
 2507SOL    HW119154   2.719   3.588   6.079 -0.6737 -0.1604  0.6694
 2507SOL    HW219155   2.700   3.714   6.000  3.5192  1.6175  1.1610
 2508SOL     OW19156   2.844   3.920   6.251  0.0556 -0.1284  0.3463
 2508SOL    HW119157   2.907   3.879   6.310  0.8203  0.6650  0.0782
 2508SOL    HW219158   2.826   3.850   6.188 -0.4286  0.3277 -0.0264
 2509SOL     OW19159   1.812   1.220   6.100  0.1753  0.7010  0.0621
 2509SOL    HW119160   1.894   1.203   6.146 -0.0913 -0.5261  0.0848
 2509SOL    HW219161   1.823   1.312   6.076 -1.4587  1.1434  1.0321
 2510SOL     OW19162   4.387   2.586   6.540  0.0801  0.1375 -0.4949
 2510SOL    HW119163   4.363   2.497   6.567  0.3668  0.5874  1.2311
 2510SOL    HW219164   4.469   2.575   6.491 -0.5465  0.1160 -1.5579
 2511SOL     OW19165   3.122   2.629   3.796  0.0288  0.3505  0.0646
 2511SOL    HW119166   3.174   2.669   3.865  0.9729  2.1151 -1.6569
 2511SOL    HW219167   3.137   2.536   3.814 -2.3253  0.0035  0.1916
 2512SOL     OW19168   3.752   1.025   8.331 -0.4442 -0.0620 -0.4051
 2512SOL    HW119169   3.847   1.014   8.333 -0.4599 -0.8427 -2.9463
 2512SOL    HW219170   3.733   0.963   8.261  0.5558 -0.6101 -0.1954
 2513SOL     OW19171   4.252   4.375   9.284 -0.1901 -0.0035 -1.2791
 2513SOL    HW119172   4.168   4.373   9.329  0.1479  0.5801 -0.6252
 2513SOL    HW219173   4.255   4.457   9.236 -2.6298  0.1900 -1.0883
 2514SOL     OW19174   0.978   2.520  14.123  0.2256  0.1708 -0.4527
 2514SOL    HW119175   1.030   2.562  14.192  0.4343 -2.5915  1.0714
 2514SOL    HW219176   1.023   2.543  14.042  0.1452  1.0110 -0.2575
 2515SOL     OW19177   2.543   1.704   3.008 -0.4740  0.3062  0.2583
 2515SOL    HW119178   2.611   1.770   2.991 -0.2055 -0.7379 -2.6548
 2515SOL    HW219179   2.589   1.621   3.020 -3.2336 -1.6076 -2.6179
 2516SOL     OW19180   3.314   0.347   6.232  0.2171  0.5308 -0.1236
 2516SOL    HW119181   3.310   0.438   6.259 -0.1750  0.3449  0.4355
 2516SOL    HW219182   3.285   0.370   6.143 -2.2127 -0.8797  0.2983
 2517SOL     OW19183   0.072   2.940   9.420  0.6979 -0.0941  0.2009
 2517SOL    HW119184   0.142   2.877   9.404 -0.6163 -1.0893 -1.6562
 2517SOL    HW219185   0.117   3.003   9.477  0.5760  0.3801 -0.2326
 2518SOL     OW19186   0.942   3.048   2.749 -0.1142  0.2181  0.0892
 2518SOL    HW119187   0.880   3.016   2.683 -1.0987  1.2868  0.4903
 2518SOL    HW219188   0.892   3.113   2.799 -3.3612 -1.5363 -0.8695
 2519SOL     OW19189   0.045   1.067   9.517  0.2419  0.0872  0.5123
 2519SOL    HW119190   0.036   0.976   9.487 -2.2523  0.1075  1.1271
 2519SOL    HW219191   0.002   1.111   9.444 -0.2635 -1.1764  0.0488
 2520SOL     OW19192   4.467   3.640   2.249 -0.7401 -0.2301  0.0157
 2520SOL    HW119193   4.482   3.727   2.288  1.0055 -0.0029 -1.1515
 2520SOL    HW219194   4.496   3.587   2.323  0.5516  1.4458  0.7191
 2521SOL     OW19195   0.033   2.450   2.483 -0.7058 -0.0409  0.1472
 2521SOL    HW119196   0.078   2.485   2.407  1.2029 -0.5313  1.0427
 2521SOL    HW219197   0.106   2.416   2.535 -2.1531 -1.5639  1.1912
 2522SOL     OW19198   3.741   3.871  13.667 -0.4147 -0.0074 -0.3310
 2522SOL    HW119199   3.658   3.890  13.711  1.7757  1.6311  3.1113
 2522SOL    HW219200   3.719   3.868  13.574  3.2297 -0.6323 -1.1468
 2523SOL     OW19201   4.017   2.138   5.736 -0.5947 -0.4117  0.6937
 2523SOL    HW119202   3.995   2.140   5.829 -1.1411 -0.2070  0.5581
 2523SOL    HW219203   4.000   2.045   5.724  1.4639 -0.8292  0.9890
 2524SOL     OW19204   2.295   3.552  10.459  0.1298 -0.3199  0.4481
 2524SOL    HW119205   2.333   3.547  10.371  0.6450 -2.1768  0.7701
 2524SOL    HW219206   2.313   3.645  10.474  1.5069 -0.5037  0.0106
 2525SOL     OW19207   0.656   3.482  16.168 -0.0430  0.8629  0.4688
 2525SOL    HW119208   0.612   3.545  16.225 -0.9228  1.9303 -1.3857
 2525SOL    HW219209   0.575   3.444  16.131  1.2365 -1.9719  0.5589
 2526SOL     OW19210   0.497   0.434   6.907 -0.6084 -0.2712 -0.3886
 2526SOL    HW119211   0.570   0.422   6.847  1.3036  1.0901  1.6574
 2526SOL    HW219212   0.423   0.458   6.852  0.2910  0.4227 -1.2806
 2527SOL     OW19213   0.308   0.422   5.045 -0.1750 -0.3391 -0.6789
 2527SOL    HW119214   0.315   0.513   5.014 -0.9171 -0.4379 -1.1378
 2527SOL    HW219215   0.346   0.421   5.133  1.7012  0.9727 -1.4457
 2528SOL     OW19216   3.679   4.504   7.293  0.1409  0.2525  0.0478
 2528SOL    HW119217   3.704   4.578   7.348 -1.2628  0.6332  0.1867
 2528SOL    HW219218   3.627   4.450   7.353 -0.0965  1.8388  1.2743
 2529SOL     OW19219   1.272   1.858  17.033  0.8959 -0.6734 -0.2752
 2529SOL    HW119220   1.322   1.886  17.110  0.8174 -1.9273  0.2321
 2529SOL    HW219221   1.289   1.935  16.978 -0.8130 -0.5080 -0.5480
 2530SOL     OW19222   3.052   1.062   9.767 -0.7484 -0.1925  0.0491
 2530SOL    HW119223   3.116   1.132   9.780  0.0234 -0.4321 -2.5022
 2530SOL    HW219224   2.968   1.101   9.792 -1.0064  0.4600 -1.8966
 2531SOL     OW19225   2.124   0.475  13.885 -0.5385  0.2642 -0.0996
 2531SOL    HW119226   2.167   0.475  13.800 -2.3287  1.0140 -1.0213
 2531SOL    HW219227   2.148   0.389  13.920  0.9525  1.4556  1.7725
 2532SOL     OW19228   2.553   2.000  12.915 -0.5962  0.2459 -0.0962
 2532SOL    HW119229   2.610   2.045  12.977 -1.1501 -1.8662  1.9600
 2532SOL    HW219230   2.615   1.973  12.847 -0.8536  1.4826 -0.8166
 2533SOL     OW19231   0.343   0.672   5.788  0.2463  0.5047  0.2829
 2533SOL    HW119232   0.369   0.752   5.833 -1.5553  0.0139  2.1723
 2533SOL    HW219233   0.320   0.698   5.698  0.9462 -1.6521 -0.5223
 2534SOL     OW19234   0.878   0.717  12.268 -0.3765 -0.0654  0.2787
 2534SOL    HW119235   0.833   0.661  12.204 -1.0519  0.9900 -0.1597
 2534SOL    HW219236   0.804   0.735  12.326 -1.1008  2.3648 -1.3698
 2535SOL     OW19237   4.404   2.121  10.287  0.1010  0.3906  0.0742
 2535SOL    HW119238   4.409   2.026  10.293  0.0386  0.1649 -3.3662
 2535SOL    HW219239   4.396   2.138  10.381  3.0723 -0.8063  0.5328
 2536SOL     OW19240   1.266   1.426   0.078  0.4384 -0.0684 -0.1965
 2536SOL    HW119241   1.230   1.436   0.166  1.9266 -0.3927  0.4462
 2536SOL    HW219242   1.228   1.343   0.051 -1.4076  0.6074  0.2718
 2537SOL     OW19243   4.716   2.879   2.996  0.1204 -0.1865 -0.5447
 2537SOL    HW119244   0.037   2.923   3.056 -0.4949  0.3131 -0.2984
 2537SOL    HW219245   4.656   2.830   3.053 -0.7059  0.8117 -0.5590
 2538SOL     OW19246   3.218   1.805   2.132 -0.3453 -0.2928 -0.0663
 2538SOL    HW119247   3.289   1.860   2.165  2.4998 -3.8372 -0.3429
 2538SOL    HW219248   3.143   1.862   2.150  1.0972  1.4954  0.3019
 2539SOL     OW19249   3.265   1.394   7.855  0.3617  0.3591  0.5572
 2539SOL    HW119250   3.237   1.383   7.764 -0.1841 -3.8387  1.2174
 2539SOL    HW219251   3.180   1.395   7.899 -0.0436  0.1788 -0.2105
 2540SOL     OW19252   2.336   1.387   3.527 -0.1756 -0.3545  0.7334
 2540SOL    HW119253   2.281   1.408   3.603 -1.1623 -0.1832 -0.0266
 2540SOL    HW219254   2.294   1.310   3.488  0.0863 -1.1019  1.9204
 2541SOL     OW19255   4.648   3.599  13.191  0.1284  0.7557 -0.1372
 2541SOL    HW119256   4.674   3.559  13.274  1.9810  0.8609 -0.6722
 2541SOL    HW219257   4.565   3.640  13.216 -1.0762 -1.0145 -1.1786
 2542SOL     OW19258   0.976   3.940   1.638 -0.2680 -0.3871  0.4576
 2542SOL    HW119259   0.986   3.987   1.721 -0.7714  1.0121 -0.2791
 2542SOL    HW219260   1.018   3.996   1.573 -1.9643  1.6197  1.1403
 2543SOL     OW19261   0.662   4.604  16.049 -0.7155  0.2835  0.0679
 2543SOL    HW119262   0.658   4.662  16.125 -1.6810 -1.5217  1.3708
 2543SOL    HW219263   0.638   4.516  16.078  2.4436 -0.1162  1.4007
 2544SOL     OW19264   1.622   3.056   5.098  0.3253 -0.2078  0.2325
 2544SOL    HW119265   1.707   3.012   5.095  0.2625 -0.4934  2.2210
 2544SOL    HW219266   1.641   3.150   5.089 -2.5166  0.4881  1.3703
 2545SOL     OW19267   4.598   4.113   6.539 -0.6547 -0.4941 -0.2613
 2545SOL    HW119268   4.673   4.055   6.552 -0.7946 -0.6267 -0.0409
 2545SOL    HW219269   4.533   4.043   6.541 -1.6390  0.3715 -2.2206
 2546SOL     OW19270   0.919   3.075   4.855 -0.0548  0.3224  0.5604
 2546SOL    HW119271   0.976   2.999   4.867  1.0351  1.2429  1.2339
 2546SOL    HW219272   0.835   3.035   4.831 -0.9213  1.7745  1.1455
 2547SOL     OW19273   0.491   0.952  17.539 -0.1630 -0.1482 -0.2375
 2547SOL    HW119274   0.440   1.031  17.522 -0.0149 -0.0661 -0.2988
 2547SOL    HW219275   0.524   0.939  17.450  1.2594  0.3389  0.2133
 2548SOL     OW19276   4.155   2.087  15.982  0.1953 -0.0219 -0.1401
 2548SOL    HW119277   4.235   2.046  16.015 -0.1725  0.5380  1.4720
 2548SOL    HW219278   4.183   2.177  15.969  2.9887 -0.8858 -0.0480
 2549SOL     OW19279   2.713   4.381   0.891  0.3067 -0.0010  0.1590
 2549SOL    HW119280   2.719   4.405   0.983  0.6506  0.2860  0.0597
 2549SOL    HW219281   2.618   4.365   0.890  0.1869  0.9284 -3.1516
 2550SOL     OW19282   3.354   4.262  14.767  0.2514 -0.0585 -0.4766
 2550SOL    HW119283   3.374   4.181  14.813  1.0795  0.0183 -0.7090
 2550SOL    HW219284   3.260   4.254  14.749  0.2028 -0.1413 -0.1790
 2551SOL     OW19285   0.634   0.619  17.370  0.1772 -0.6441  0.0657
 2551SOL    HW119286   0.546   0.657  17.375 -0.4444 -2.2382  1.0866
 2551SOL    HW219287   0.681   0.658  17.444  0.2890  1.4374 -1.1000
 2552SOL     OW19288   2.631   4.347   8.400 -0.0197 -0.2271 -0.2969
 2552SOL    HW119289   2.695   4.325   8.332 -1.2937 -1.6360 -1.0146
 2552SOL    HW219290   2.603   4.433   8.367 -0.0922 -0.6445 -1.3204
 2553SOL     OW19291   4.077   2.814  10.573  0.6854 -0.3578 -0.2496
 2553SOL    HW119292   4.032   2.744  10.525 -1.6878 -0.1257  1.6188
 2553SOL    HW219293   4.146   2.831  10.509  0.6478 -4.5544 -1.4053
 2554SOL     OW19294   1.462   1.374  10.224  0.0806 -0.1780  0.3629
 2554SOL    HW119295   1.542   1.344  10.267 -0.3570 -0.0673  1.2603
 2554SOL    HW219296   1.445   1.307  10.158 -2.8966  0.0718  0.8590
 2555SOL     OW19297   3.419   0.132  12.892  0.6273  0.4864  0.4897
 2555SOL    HW119298   3.392   0.053  12.940  2.7005 -0.4539  0.0871
 2555SOL    HW219299   3.413   0.105  12.801 -2.9869  4.6122 -0.5366
 2556SOL     OW19300   4.247   0.065   8.764 -0.0000 -0.6551 -0.0497
 2556SOL    HW119301   4.240   0.159   8.748  0.9569 -0.4318  0.8837
 2556SOL    HW219302   4.342   0.056   8.757 -0.0606 -0.6100 -0.8671
 2557SOL     OW19303   3.851   2.518   6.837 -0.0935 -0.5328  0.0114
 2557SOL    HW119304   3.925   2.570   6.868 -1.6458  0.7095  1.6200
 2557SOL    HW219305   3.878   2.512   6.745 -0.1016 -3.4231  0.1761
 2558SOL     OW19306   2.897   3.334   2.718  0.9152  0.1466 -0.1813
 2558SOL    HW119307   2.945   3.254   2.698  0.0527 -0.0677 -1.3733
 2558SOL    HW219308   2.834   3.299   2.780  0.1658 -0.4562 -1.2843
 2559SOL     OW19309   0.474   4.168   5.405  0.0653 -0.1692  0.6087
 2559SOL    HW119310   0.391   4.205   5.376  0.5691 -0.0041 -0.6007
 2559SOL    HW219311   0.452   4.095   5.463  0.8673  0.0818  1.2311
 2560SOL     OW19312   4.471   1.592   8.755 -0.0137 -0.2818  0.0270
 2560SOL    HW119313   4.429   1.551   8.831 -0.0819 -1.2032 -0.5027
 2560SOL    HW219314   4.531   1.649   8.803 -1.4992  0.4432  1.0115
 2561SOL     OW19315   4.592   1.736   8.958  0.4254  0.2715  0.8033
 2561SOL    HW119316   4.660   1.742   9.025 -0.2305 -0.2789  1.5123
 2561SOL    HW219317   4.624   1.810   8.905  0.6585 -0.2915  0.1570
 2562SOL     OW19318   1.719   2.270   2.317  0.2671  0.2219 -0.5148
 2562SOL    HW119319   1.701   2.177   2.306 -0.0266 -0.0452  2.2063
 2562SOL    HW219320   1.633   2.311   2.312 -0.5734 -1.5318 -0.3417
 2563SOL     OW19321   0.282   0.204   8.495 -0.3935 -0.0805 -0.6620
 2563SOL    HW119322   0.209   0.213   8.556  0.4802 -3.8765  0.9859
 2563SOL    HW219323   0.356   0.222   8.554  0.7762 -2.1695 -1.4840
 2564SOL     OW19324   2.035   1.711  10.414 -0.2404 -0.6515 -0.4520
 2564SOL    HW119325   2.012   1.802  10.431 -1.7578 -1.0665 -0.2596
 2564SOL    HW219326   2.126   1.725  10.388 -0.6939  0.2437 -1.5570
 2565SOL     OW19327   3.820   0.083   0.164 -0.4079  0.1368  0.2109
 2565SOL    HW119328   3.865   0.008   0.204 -1.1471  0.0122  0.8242
 2565SOL    HW219329   3.891   0.121   0.113 -1.2594  1.4027 -0.0243
 2566SOL     OW19330   2.898   2.027   3.407  0.4387  0.3305  0.2698
 2566SOL    HW119331   2.806   2.002   3.401  0.6134 -0.2205 -0.2192
 2566SOL    HW219332   2.906   2.066   3.320  1.6815  1.4419  0.8915
 2567SOL     OW19333   0.920   2.339   6.921  0.0165  0.2630 -0.0235
 2567SOL    HW119334   0.839   2.287   6.918  0.8528 -1.2096  3.2752
 2567SOL    HW219335   0.949   2.334   7.012 -1.2334 -0.9036  0.3139
 2568SOL     OW19336   4.100   3.084   4.804  0.7220  0.0854  0.4295
 2568SOL    HW119337   4.110   3.007   4.860 -0.6026 -0.8626 -0.6213
 2568SOL    HW219338   4.053   3.040   4.733 -0.5342 -1.3926  2.1743
 2569SOL     OW19339   1.795   1.861   6.624  0.2554 -0.2524 -0.0124
 2569SOL    HW119340   1.722   1.799   6.624 -0.0642  0.1232  0.5979
 2569SOL    HW219341   1.759   1.932   6.678  0.5499  1.0104 -1.4848
 2570SOL     OW19342   4.473   2.089   9.197  0.1337  0.1507 -0.5253
 2570SOL    HW119343   4.484   2.021   9.263  2.5163  0.8097 -0.2258
 2570SOL    HW219344   4.378   2.101   9.199  0.1749  0.4040  0.1004
 2571SOL     OW19345   4.631   1.423  10.044  0.3770  0.5064  0.1474
 2571SOL    HW119346   4.726   1.422  10.058  0.5835  2.0081 -1.0891
 2571SOL    HW219347   4.609   1.332  10.062  1.3350  0.4190  0.8794
 2572SOL     OW19348   0.768   2.049   9.095  0.2702  0.1828 -0.1112
 2572SOL    HW119349   0.675   2.051   9.071 -0.0122  1.5618  1.0825
 2572SOL    HW219350   0.788   2.142   9.092 -2.0565  0.6987  0.6907
 2573SOL     OW19351   2.793   0.249   8.894 -0.0691 -0.5365 -0.0140
 2573SOL    HW119352   2.743   0.171   8.917  1.0779 -1.9509 -2.3336
 2573SOL    HW219353   2.854   0.221   8.826  0.9740 -2.7021  1.8047
 2574SOL     OW19354   2.572   1.230  12.213  0.1824 -0.3665 -0.3786
 2574SOL    HW119355   2.602   1.152  12.261 -1.3335  0.1040  1.3273
 2574SOL    HW219356   2.645   1.290  12.233 -0.4385 -0.4737  2.2127
 2575SOL     OW19357   4.477   1.303  11.198  0.8164  0.0668  0.0982
 2575SOL    HW119358   4.481   1.209  11.216 -0.8769  0.0314  0.2973
 2575SOL    HW219359   4.522   1.300  11.114 -0.1599 -1.3294 -0.3891
 2576SOL     OW19360   1.292   0.330  15.321 -0.0283  0.1753  0.0604
 2576SOL    HW119361   1.223   0.266  15.338  0.3940 -0.3836 -0.2930
 2576SOL    HW219362   1.371   0.284  15.350  0.3353 -0.3125 -1.6488
 2577SOL     OW19363   4.484   3.189   2.900  0.8731 -0.1176  0.0589
 2577SOL    HW119364   4.489   3.174   2.806 -0.3325 -0.2657  0.0180
 2577SOL    HW219365   4.568   3.229   2.922  1.3597 -0.8436 -0.5090
 2578SOL     OW19366   2.505   2.427   4.823 -0.0122 -0.2453  0.3561
 2578SOL    HW119367   2.482   2.409   4.732 -0.9441 -1.2576  0.7861
 2578SOL    HW219368   2.446   2.369   4.871 -1.4936  2.0363  1.3076
 2579SOL     OW19369   2.882   1.597   1.128 -0.3373 -0.6885  0.1071
 2579SOL    HW119370   2.812   1.541   1.161  0.0452 -0.2428  1.6978
 2579SOL    HW219371   2.933   1.536   1.075 -2.3101 -2.2004 -0.0371
 2580SOL     OW19372   0.146   0.488   8.843  0.2369 -0.1468  0.1564
 2580SOL    HW119373   0.116   0.464   8.931 -0.8498 -2.0311 -0.7095
 2580SOL    HW219374   0.160   0.582   8.848 -3.3336  0.4440 -0.7130
 2581SOL     OW19375   2.434   1.137  13.037 -0.0603  0.1269  0.0994
 2581SOL    HW119376   2.363   1.200  13.020 -1.5260 -1.1229  1.5876
 2581SOL    HW219377   2.448   1.158  13.129  1.3486 -1.6092  0.2604
 2582SOL     OW19378   2.483   0.537  14.528  0.0153 -0.2809 -0.0595
 2582SOL    HW119379   2.506   0.445  14.519  2.4986  0.2627  0.7543
 2582SOL    HW219380   2.411   0.514  14.587 -0.0575 -0.6046 -0.2771
 2583SOL     OW19381   0.594   3.146   1.257  0.2395  0.4496  0.3516
 2583SOL    HW119382   0.584   3.159   1.163 -1.5744  0.7155  0.5890
 2583SOL    HW219383   0.687   3.163   1.272  1.0810 -0.2305 -4.3227
 2584SOL     OW19384   0.867   4.197   5.541  0.2767  0.1613 -0.2571
 2584SOL    HW119385   0.949   4.246   5.535 -0.5204  1.4254 -0.8373
 2584SOL    HW219386   0.848   4.213   5.449  5.0290 -0.5154 -1.3839
 2585SOL     OW19387   1.412   2.526   6.801 -0.2883  0.0123  0.5362
 2585SOL    HW119388   1.385   2.500   6.889 -2.0337  0.8244  0.2474
 2585SOL    HW219389   1.485   2.586   6.814  1.5999 -1.9912 -0.7264
 2586SOL     OW19390   4.285   2.335   5.896  0.0537  0.5396 -0.1354
 2586SOL    HW119391   4.344   2.410   5.891 -1.2346  1.5691  0.2239
 2586SOL    HW219392   4.319   2.293   5.817 -1.8748 -1.5532  0.1352
 2587SOL     OW19393   3.281   0.903   2.133 -0.1324 -0.1338 -0.4115
 2587SOL    HW119394   3.326   0.965   2.190 -1.1551  0.8618 -0.6701
 2587SOL    HW219395   3.280   0.946   2.047 -0.1945  1.5792  0.4514
 2588SOL     OW19396   4.058   3.521   7.676 -0.2090  0.0798  0.5719
 2588SOL    HW119397   3.985   3.511   7.736 -1.0286  0.4444 -0.3715
 2588SOL    HW219398   4.108   3.439   7.684  1.4218  0.9857 -0.3171
 2589SOL     OW19399   1.812   3.608   6.630 -0.3897  0.5153 -0.8614
 2589SOL    HW119400   1.843   3.521   6.605 -0.9343 -0.2942  1.2342
 2589SOL    HW219401   1.727   3.607   6.587 -1.0096 -2.9315  0.4073
 2590SOL     OW19402   0.188   3.754   7.279 -0.1231 -0.1017  0.4189
 2590SOL    HW119403   0.162   3.722   7.193 -2.5265  0.7592  0.8315
 2590SOL    HW219404   0.206   3.675   7.331  0.7375  0.8747  1.5930
 2591SOL     OW19405   0.754   2.279   4.883 -0.0264  0.4670  0.0580
 2591SOL    HW119406   0.742   2.349   4.818 -0.9833 -0.2267 -0.5169
 2591SOL    HW219407   0.848   2.267   4.866 -0.4792 -1.5886 -1.0778
 2592SOL     OW19408   2.163   0.344   1.451 -0.7747  0.0821 -0.5574
 2592SOL    HW119409   2.174   0.438   1.440  1.2217 -0.0668  0.0763
 2592SOL    HW219410   2.072   0.330   1.478 -0.4477 -1.5138 -0.2654
 2593SOL     OW19411   4.690   1.770   5.474  0.2978  0.0739 -0.1338
 2593SOL    HW119412   4.732   1.770   5.560  2.2353  0.1444 -1.0739
 2593SOL    HW219413   4.633   1.695   5.490 -0.6228  0.5489 -1.1948
 2594SOL     OW19414   4.601   2.485   5.482 -0.2796  0.0403 -0.0097
 2594SOL    HW119415   4.542   2.412   5.499  0.0878 -0.0317  0.9412
 2594SOL    HW219416   4.583   2.557   5.543 -0.4050  0.4629 -0.5432
 2595SOL     OW19417   1.614   1.892   4.931  0.3311  0.9101 -0.0795
 2595SOL    HW119418   1.699   1.852   4.909  0.2564  0.4026  0.5567
 2595SOL    HW219419   1.586   1.897   4.840  1.3500 -0.3003 -0.4621
 2596SOL     OW19420   0.592   4.399   7.879  0.6227  0.2219  0.3276
 2596SOL    HW119421   0.600   4.345   7.800  0.4482 -1.1242  1.2328
 2596SOL    HW219422   0.655   4.361   7.940 -0.5851  0.1877  1.5297
 2597SOL     OW19423   0.594   1.668   6.317  0.0732  0.0839 -0.0427
 2597SOL    HW119424   0.683   1.659   6.282  0.1807 -1.3210  0.5817
 2597SOL    HW219425   0.549   1.614   6.253  2.9090 -2.7932  0.3990
 2598SOL     OW19426   2.575   1.151  17.271 -0.4910  0.0147  0.0375
 2598SOL    HW119427   2.503   1.179  17.214  0.1861  1.2989 -0.1901
 2598SOL    HW219428   2.562   1.186  17.359 -0.7576  1.7939 -0.7132
 2599SOL     OW19429   1.130   4.684   4.234  0.0701 -0.3803  0.2342
 2599SOL    HW119430   1.124   0.022   4.177 -0.7716 -2.0752 -1.9607
 2599SOL    HW219431   1.089   4.616   4.181 -0.3635 -1.4551  1.9530
 2600SOL     OW19432   1.167   2.522   2.280  0.0880  0.2458  0.1448
 2600SOL    HW119433   1.094   2.491   2.333 -0.4541  0.6277 -0.3911
 2600SOL    HW219434   1.123   2.588   2.227  0.7544  0.0117 -0.7018
 2601SOL     OW19435   1.578   3.374   9.534  0.4606 -0.4046 -0.6389
 2601SOL    HW119436   1.615   3.366   9.446  0.6486 -1.5896 -0.4627
 2601SOL    HW219437   1.593   3.280   9.548  1.1174 -0.3303 -0.8443
 2602SOL     OW19438   3.784   1.006  16.001 -0.2565  0.5781  0.6312
 2602SOL    HW119439   3.878   1.001  15.982 -0.3526  1.8432 -0.2016
 2602SOL    HW219440   3.752   0.920  15.973 -0.6963  0.7069  0.7330
 2603SOL     OW19441   2.920   0.458  11.816  0.0491  0.3728 -0.0731
 2603SOL    HW119442   2.994   0.514  11.839  0.7718  0.2815 -2.1688
 2603SOL    HW219443   2.965   0.373  11.824  0.2180  0.1830 -2.9162
 2604SOL     OW19444   0.219   1.495  15.774 -0.4331  0.5291  0.2272
 2604SOL    HW119445   0.252   1.405  15.780 -0.5647  0.5472  1.1662
 2604SOL    HW219446   0.284   1.541  15.721 -0.2821  0.7758  0.6294
 2605SOL     OW19447   2.948   0.335  12.109  0.5279  0.1748 -0.0221
 2605SOL    HW119448   2.852   0.331  12.118  0.6273  0.1368  1.0925
 2605SOL    HW219449   2.968   0.273  12.040 -3.5730 -0.4278 -0.6916
 2606SOL     OW19450   1.010   2.429   6.681  0.0303  0.0418  0.1370
 2606SOL    HW119451   1.063   2.505   6.704 -0.5660  0.3875  0.3471
 2606SOL    HW219452   0.996   2.385   6.765  1.2725  0.7137  0.6923
 2607SOL     OW19453   2.185   0.019   5.799 -0.2807  0.2900  0.2686
 2607SOL    HW119454   2.103   4.715   5.821  0.7233 -1.1857  1.1810
 2607SOL    HW219455   2.176   0.111   5.826  1.9647 -0.3806  3.3638
 2608SOL     OW19456   3.401   3.536   3.224 -0.2466 -0.1842 -0.2001
 2608SOL    HW119457   3.446   3.452   3.213 -0.5586 -0.4424  0.4530
 2608SOL    HW219458   3.389   3.531   3.319  0.5026 -1.4628 -0.1746
 2609SOL     OW19459   1.825   4.390   8.169  0.3107  0.4264 -0.3014
 2609SOL    HW119460   1.848   4.298   8.158  1.3160  0.8223 -1.4630
 2609SOL    HW219461   1.731   4.390   8.186  0.1730 -1.0622 -1.0836
 2610SOL     OW19462   1.925   3.029   4.979  0.3394  0.4094  0.5701
 2610SOL    HW119463   1.985   3.073   5.038  2.6871 -2.9946  0.6980
 2610SOL    HW219464   1.907   3.103   4.921  0.7412  0.0416 -0.0242
 2611SOL     OW19465   2.407   1.373   1.601 -0.1817 -0.3067  0.7669
 2611SOL    HW119466   2.325   1.346   1.559 -0.4025  1.7994 -0.1290
 2611SOL    HW219467   2.406   1.336   1.689  2.1459 -2.6139 -0.1598
 2612SOL     OW19468   3.490   0.705   4.372  0.0355 -0.6474  0.5758
 2612SOL    HW119469   3.403   0.691   4.408 -0.0652  0.8153  0.8908
 2612SOL    HW219470   3.524   0.617   4.388  1.7957  0.1678  1.4209
 2613SOL     OW19471   3.461   1.870  14.011  0.0044 -0.6430 -0.4887
 2613SOL    HW119472   3.495   1.781  14.000 -3.0144 -1.8476 -0.1028
 2613SOL    HW219473   3.496   1.916  13.934 -0.6418 -1.8567 -1.5191
 2614SOL     OW19474   2.683   1.375   9.657 -0.1352 -0.4433 -0.1233
 2614SOL    HW119475   2.742   1.342   9.589 -1.6528  0.8215 -2.0620
 2614SOL    HW219476   2.735   1.379   9.737  1.4183 -0.9119 -1.1071
 2615SOL     OW19477   2.654   2.964   5.086  0.8810  0.7470 -0.1409
 2615SOL    HW119478   2.684   3.040   5.135  1.1374  0.1069  0.7011
 2615SOL    HW219479   2.689   2.888   5.133  0.7482 -0.5087 -2.0574
 2616SOL     OW19480   0.565   0.536   8.428  0.2782  0.0498 -0.0095
 2616SOL    HW119481   0.503   0.594   8.473  1.2775 -1.6213  3.4673
 2616SOL    HW219482   0.639   0.549   8.487  0.6149 -2.7174  0.1944
 2617SOL     OW19483   2.699   4.015   2.292  0.2118  0.2520 -0.2632
 2617SOL    HW119484   2.712   4.093   2.346 -0.9860  0.7624 -0.6923
 2617SOL    HW219485   2.719   4.044   2.202  0.5138 -2.0437 -0.9219
 2618SOL     OW19486   0.877   1.394  10.107  0.1084  0.5227 -0.1509
 2618SOL    HW119487   0.835   1.424  10.188 -0.0550 -0.6459  0.1993
 2618SOL    HW219488   0.966   1.427  10.100  0.4063 -0.1011  0.6887
 2619SOL     OW19489   3.886   1.595  14.049  0.4974  0.1452 -0.2982
 2619SOL    HW119490   3.926   1.595  14.136  0.0047  0.6861 -0.0701
 2619SOL    HW219491   3.938   1.535  13.996  2.1088  1.5031 -0.2543
 2620SOL     OW19492   3.182   2.572   1.884  0.1426 -0.0057 -0.2371
 2620SOL    HW119493   3.089   2.592   1.869 -0.0826 -1.4942 -0.8074
 2620SOL    HW219494   3.187   2.584   1.979 -0.4290  0.0876 -0.2181
 2621SOL     OW19495   0.606   3.658   1.224  0.1398 -0.3099 -0.5645
 2621SOL    HW119496   0.541   3.727   1.236  1.3552  0.8178 -0.4910
 2621SOL    HW219497   0.646   3.691   1.143  0.7011 -0.9891 -0.5580
 2622SOL     OW19498   4.220   2.285  15.403 -0.8343  0.8597  0.3437
 2622SOL    HW119499   4.205   2.313  15.494 -0.5505  3.6180 -0.4454
 2622SOL    HW219500   4.312   2.259  15.402 -0.6940  1.3336  0.6708
 2623SOL     OW19501   3.374   2.476   2.816  0.2573  0.0734 -0.0662
 2623SOL    HW119502   3.344   2.468   2.726 -1.7391  1.1999  0.5004
 2623SOL    HW219503   3.304   2.422   2.852  0.2838 -2.2047 -3.4583
 2624SOL     OW19504   2.288   1.762  10.321  0.0279  0.2733  0.4302
 2624SOL    HW119505   2.345   1.739  10.394  0.5568 -1.2321 -0.4461
 2624SOL    HW219506   2.357   1.797  10.264 -1.0185  1.7904  0.1107
 2625SOL     OW19507   1.814   4.016   4.617 -0.6309  0.0134 -0.7165
 2625SOL    HW119508   1.811   4.112   4.614  1.1701  0.1017  0.0777
 2625SOL    HW219509   1.908   3.998   4.622 -1.6443 -4.5361  1.5366
 2626SOL     OW19510   1.124   2.766   2.571  0.1061 -0.6856  0.2897
 2626SOL    HW119511   1.109   2.841   2.513  0.8057  0.3318  1.4390
 2626SOL    HW219512   1.052   2.708   2.548 -1.1365  0.5354  1.1622
 2627SOL     OW19513   2.716   0.424   8.387 -0.1071  0.4231 -0.2634
 2627SOL    HW119514   2.754   0.420   8.299 -1.0001 -0.9861 -0.5787
 2627SOL    HW219515   2.676   0.338   8.400 -2.2803  1.3759 -0.7034
 2628SOL     OW19516   0.147   3.412   7.836 -0.1880 -0.4374 -0.1072
 2628SOL    HW119517   0.061   3.433   7.874  0.7523  1.3691  1.0508
 2628SOL    HW219518   0.204   3.446   7.905  1.0466  1.2885 -1.9700
 2629SOL     OW19519   3.579   4.671  15.755 -0.1835 -0.1690  0.1202
 2629SOL    HW119520   3.566   4.586  15.797 -0.3882 -0.2053 -0.0154
 2629SOL    HW219521   3.638   4.707  15.821 -0.1442  1.7773 -0.9831
 2630SOL     OW19522   3.896   4.365   7.411  0.1625  0.1382  0.4083
 2630SOL    HW119523   3.981   4.331   7.382 -0.6539 -0.2989 -1.4645
 2630SOL    HW219524   3.872   4.421   7.338 -0.6239 -1.3310 -0.4465
 2631SOL     OW19525   4.378   4.709   9.006 -0.4950  0.4492  0.2118
 2631SOL    HW119526   4.317   0.009   8.943  1.2197 -0.5511 -2.0817
 2631SOL    HW219527   4.429   0.046   9.033 -1.2635  0.1026  2.5881
 2632SOL     OW19528   2.246   2.952   2.134 -0.1929  0.5553  0.1095
 2632SOL    HW119529   2.265   2.876   2.079 -2.8679 -0.6903  0.8974
 2632SOL    HW219530   2.219   2.916   2.219 -1.6736 -1.8630 -1.3747
 2633SOL     OW19531   4.126   0.166   5.481 -0.3133  0.0603  0.2410
 2633SOL    HW119532   4.146   0.206   5.396  0.8295 -1.2526 -0.1067
 2633SOL    HW219533   4.052   0.221   5.507  0.5842  0.8786  1.1352
 2634SOL     OW19534   2.039   2.537   4.177  0.2425 -0.4940 -0.4322
 2634SOL    HW119535   2.067   2.607   4.118  1.7127  0.3280  1.2239
 2634SOL    HW219536   2.068   2.460   4.128 -0.1755 -1.0791  0.2361
 2635SOL     OW19537   2.344   3.732   4.339  0.1408 -0.0881  0.5645
 2635SOL    HW119538   2.339   3.659   4.401 -1.7809  0.4558  1.0533
 2635SOL    HW219539   2.342   3.696   4.250 -0.1441  0.2158  0.4488
 2636SOL     OW19540   0.091   4.689  16.746 -0.2317 -0.1152  0.0108
 2636SOL    HW119541   0.012   4.638  16.764  0.7356 -1.1848  1.2680
 2636SOL    HW219542   0.100   4.725  16.835  2.9380 -0.1232 -0.3018
 2637SOL     OW19543   3.937   3.026  12.372 -0.5507 -0.1099 -0.2721
 2637SOL    HW119544   3.886   2.976  12.307 -0.7906  0.0211 -0.1845
 2637SOL    HW219545   3.888   3.004  12.451 -3.5295 -1.1075 -2.4090
 2638SOL     OW19546   4.585   2.200  11.132 -0.5018 -0.2774 -0.0909
 2638SOL    HW119547   4.528   2.270  11.163 -0.9914 -1.6957  2.1292
 2638SOL    HW219548   4.521   2.156  11.076 -0.7571 -0.1203  0.0788
 2639SOL     OW19549   0.450   2.321   2.480  0.3228  0.3056  0.3527
 2639SOL    HW119550   0.363   2.310   2.518  0.2811  0.9410  0.4441
 2639SOL    HW219551   0.488   2.392   2.532  1.6416  1.1593 -1.7604
 2640SOL     OW19552   2.511   3.848  16.404 -0.3447 -0.3076  0.5149
 2640SOL    HW119553   2.470   3.923  16.447  0.3784  0.5212 -0.2269
 2640SOL    HW219554   2.439   3.821  16.346  1.6698  0.4932 -2.3752
 2641SOL     OW19555   4.049   4.107   6.744  0.2065  0.2789 -0.2468
 2641SOL    HW119556   4.119   4.161   6.708 -2.2270  1.5371 -3.0246
 2641SOL    HW219557   4.057   4.133   6.836 -3.6160 -1.7362  0.7038
 2642SOL     OW19558   2.551   1.692   6.026  0.1784 -0.0600 -0.0768
 2642SOL    HW119559   2.557   1.610   6.074 -0.0011 -0.1828 -0.2642
 2642SOL    HW219560   2.459   1.712   6.013  0.4503  0.2875 -1.4329
 2643SOL     OW19561   0.227   2.366   3.969  0.0523 -0.4360  0.2387
 2643SOL    HW119562   0.238   2.320   3.886  1.2030 -0.0558  0.1772
 2643SOL    HW219563   0.248   2.295   4.030  1.0920 -2.1516 -2.1580
 2644SOL     OW19564   1.687   4.530   8.719 -0.5494  0.1896 -0.0446
 2644SOL    HW119565   1.724   4.464   8.779  0.0173  0.8111  0.2898
 2644SOL    HW219566   1.669   4.603   8.779 -1.7237  0.8692 -1.2419
 2645SOL     OW19567   0.636   3.065   8.521  0.7806 -0.3417  0.4276
 2645SOL    HW119568   0.682   2.998   8.572  0.1125 -0.4628  0.8769
 2645SOL    HW219569   0.546   3.045   8.548  0.8565  0.2510  1.1013
 2646SOL     OW19570   4.627   0.628   7.615  0.1202  0.0194  0.1740
 2646SOL    HW119571   4.676   0.569   7.672 -0.4357 -2.5808 -2.0204
 2646SOL    HW219572   4.691   0.698   7.610  0.4744 -0.3820 -0.9883
 2647SOL     OW19573   1.464   0.834   5.008  1.1464 -0.2383 -0.5799
 2647SOL    HW119574   1.476   0.747   5.046  1.8696 -0.4794 -1.3757
 2647SOL    HW219575   1.540   0.837   4.950  2.4157 -1.7393  0.9998
 2648SOL     OW19576   3.624   4.309  14.818 -0.2087  0.8003  0.0526
 2648SOL    HW119577   3.616   4.367  14.894 -1.1635 -0.6020  1.0175
 2648SOL    HW219578   3.532   4.283  14.816  0.3805 -1.3624  1.3915
 2649SOL     OW19579   2.962   1.262   8.409 -0.0887 -0.1669  0.0708
 2649SOL    HW119580   2.879   1.252   8.456 -0.0254  1.7222  0.6034
 2649SOL    HW219581   2.939   1.215   8.329 -0.0151  0.0997 -0.1060
 2650SOL     OW19582   2.835   2.672   4.679  0.6851 -0.2027  0.2327
 2650SOL    HW119583   2.865   2.597   4.732 -1.1326 -1.6236 -0.7448
 2650SOL    HW219584   2.842   2.640   4.589 -0.4233  0.0374  0.0697
 2651SOL     OW19585   2.758   0.450  12.899 -0.1164  0.2132 -0.1194
 2651SOL    HW119586   2.672   0.424  12.865  0.9220 -1.7727 -1.2257
 2651SOL    HW219587   2.739   0.452  12.993 -0.3856  0.3210 -0.1759
 2652SOL     OW19588   0.786   3.961   8.257  0.7255  0.2173  0.3895
 2652SOL    HW119589   0.745   4.047   8.250  2.0613  0.8887  0.8762
 2652SOL    HW219590   0.829   3.980   8.340  0.4858 -0.3603  0.6494
 2653SOL     OW19591   1.335   3.379  15.303  0.0273 -0.4150  0.8851
 2653SOL    HW119592   1.287   3.298  15.284  0.6085  0.0000 -2.3475
 2653SOL    HW219593   1.386   3.388  15.223 -0.3100 -2.0644  0.4763
 2654SOL     OW19594   2.177   0.229   5.542 -0.2412 -0.6268  0.2894
 2654SOL    HW119595   2.129   0.169   5.600  0.7930  0.3886  2.2118
 2654SOL    HW219596   2.129   0.224   5.459  0.4912  0.2475 -0.1818
 2655SOL     OW19597   1.496   4.192  17.095 -0.3233  0.5528 -0.1281
 2655SOL    HW119598   1.403   4.194  17.073 -0.0063 -1.6583 -1.6697
 2655SOL    HW219599   1.529   4.279  17.071  0.9873  0.2581  0.5828
 2656SOL     OW19600   2.813   3.518   2.563 -0.4263 -0.3855 -0.1100
 2656SOL    HW119601   2.859   3.443   2.601  1.3958  0.6259 -0.3184
 2656SOL    HW219602   2.738   3.527   2.622 -1.0164  1.8844 -1.2394
 2657SOL     OW19603   0.209   4.102   3.060  0.1424 -0.7867  0.4367
 2657SOL    HW119604   0.157   4.116   2.981 -0.1283  0.6019  0.8532
 2657SOL    HW219605   0.137   4.080   3.120 -2.7477  1.2056 -2.2629
 2658SOL     OW19606   2.914   4.005   4.446 -0.3744 -0.5923  0.2872
 2658SOL    HW119607   2.972   4.070   4.486  0.1942 -0.7860 -0.2134
 2658SOL    HW219608   2.977   3.934   4.435 -0.8161 -1.0079  0.4897
 2659SOL     OW19609   2.606   0.667   8.317  0.3978 -0.6086 -0.5469
 2659SOL    HW119610   2.651   0.585   8.337  0.8346 -0.3309 -0.3776
 2659SOL    HW219611   2.516   0.637   8.322  0.4071 -0.3384  1.0946
 2660SOL     OW19612   4.480   1.640   2.114  0.1881  0.0686 -0.0407
 2660SOL    HW119613   4.554   1.633   2.054  1.5328 -2.9853  1.9716
 2660SOL    HW219614   4.521   1.591   2.186  0.1738 -1.2664 -0.9522
 2661SOL     OW19615   1.321   0.932   0.682  1.0462  0.1459 -0.4617
 2661SOL    HW119616   1.273   1.008   0.714 -1.8881 -1.5039 -1.0168
 2661SOL    HW219617   1.265   0.892   0.616  0.7213  0.6322 -0.4739
 2662SOL     OW19618   0.144   3.029  14.224 -0.0337 -0.6984 -0.4088
 2662SOL    HW119619   0.237   3.039  14.248  0.8420 -1.2140 -3.5296
 2662SOL    HW219620   0.139   3.090  14.150  0.5409  1.5478  1.4239
 2663SOL     OW19621   2.754   1.312   4.361 -0.3292 -0.4354  0.6214
 2663SOL    HW119622   2.844   1.291   4.386  0.8757  0.6692 -2.8879
 2663SOL    HW219623   2.752   1.280   4.271  0.0166 -1.3327  0.9296
 2664SOL     OW19624   0.741   2.323   5.515 -0.4671 -0.5366 -0.1239
 2664SOL    HW119625   0.689   2.330   5.596  0.9830 -2.5811  0.9867
 2664SOL    HW219626   0.802   2.253   5.537 -0.7113 -0.9454 -0.7723
 2665SOL     OW19627   4.162   3.584   2.390 -0.3378  0.0098 -0.2937
 2665SOL    HW119628   4.211   3.527   2.449  0.2500 -1.3343 -2.0772
 2665SOL    HW219629   4.187   3.673   2.413 -0.9196 -0.0902  0.7692
 2666SOL     OW19630   3.899   3.080  10.289 -0.1246 -0.1569 -0.4616
 2666SOL    HW119631   3.818   3.031  10.275  0.4489 -1.3505  0.3785
 2666SOL    HW219632   3.873   3.115  10.374 -0.4626 -1.6722  0.0590
 2667SOL     OW19633   3.844   2.596   7.469  0.3998 -0.1003 -0.1895
 2667SOL    HW119634   3.844   2.648   7.550  1.3447  1.0141 -0.9152
 2667SOL    HW219635   3.935   2.565   7.470  0.0249 -1.2296 -1.2516
 2668SOL     OW19636   0.705   2.925   4.716 -0.6800  0.3889 -0.5598
 2668SOL    HW119637   0.630   2.891   4.666 -0.8886 -1.1368  0.7947
 2668SOL    HW219638   0.760   2.848   4.705 -0.7548  0.5000 -1.7126
 2669SOL     OW19639   1.325   0.154   8.274  0.1552 -0.1090  0.2891
 2669SOL    HW119640   1.364   0.100   8.343  0.1688  1.0946  1.2248
 2669SOL    HW219641   1.240   0.182   8.309 -0.0421  0.1197 -0.3796
 2670SOL     OW19642   1.037   4.368   5.398  0.0449  1.0520  0.2042
 2670SOL    HW119643   1.024   4.462   5.399  0.5751  1.1443 -1.8949
 2670SOL    HW219644   1.074   4.336   5.315 -1.5354  0.2595 -0.2046
 2671SOL     OW19645   3.198   1.225  11.281  0.3180  0.1482  0.6843
 2671SOL    HW119646   3.121   1.208  11.334  0.8478  0.9308  1.7121
 2671SOL    HW219647   3.273   1.207  11.338 -0.5670 -1.9547  1.1594
 2672SOL     OW19648   2.117   4.182   8.381 -0.0070 -0.7104 -0.7008
 2672SOL    HW119649   2.076   4.206   8.464  0.5818  1.6690 -1.1170
 2672SOL    HW219650   2.087   4.091   8.382 -1.3239 -0.2429  1.3479
 2673SOL     OW19651   1.353   4.171   1.474  0.1627  0.1547 -0.0968
 2673SOL    HW119652   1.387   4.250   1.516 -1.7045  1.1132 -0.4038
 2673SOL    HW219653   1.390   4.096   1.521  2.2050  0.9781 -0.3916
 2674SOL     OW19654   4.358   2.820  17.503 -0.1805 -0.1530  0.0556
 2674SOL    HW119655   4.409   2.750  17.463  1.3586  0.2370  1.3335
 2674SOL    HW219656   4.425   2.858  17.560 -0.9036 -1.5108  1.8225
 2675SOL     OW19657   0.070   2.002   5.396  0.4025 -0.6449  0.0791
 2675SOL    HW119658   4.733   2.045   5.436  0.7859  1.6180 -1.5961
 2675SOL    HW219659   0.042   1.911   5.399 -0.1602 -0.3984  2.8874
 2676SOL     OW19660   2.954   3.645  14.516  0.4043  0.2385  0.6508
 2676SOL    HW119661   2.898   3.721  14.532  1.3118  1.1159 -0.3978
 2676SOL    HW219662   3.043   3.679  14.520  0.2951  0.4055  1.6783
 2677SOL     OW19663   3.808   0.470   2.914  0.2430 -0.2153 -0.2076
 2677SOL    HW119664   3.902   0.461   2.901  0.5569  2.2748  0.3610
 2677SOL    HW219665   3.785   0.530   2.843 -1.7718  0.2569  0.8444
 2678SOL     OW19666   0.172   1.649  11.803 -0.7331  0.1910 -0.6576
 2678SOL    HW119667   0.116   1.609  11.737 -1.8142 -0.2038  0.5069
 2678SOL    HW219668   0.144   1.739  11.784  0.7144  1.1002  1.5349
 2679SOL     OW19669   3.452   0.279   8.725 -0.4708 -0.1701 -0.2147
 2679SOL    HW119670   3.424   0.207   8.781 -2.1252 -0.0835 -0.9208
 2679SOL    HW219671   3.529   0.241   8.682 -1.6194 -2.6517 -0.0798
 2680SOL     OW19672   1.898   1.418  17.163  0.7626 -0.0803 -0.0273
 2680SOL    HW119673   1.991   1.408  17.182  0.9412  2.2296  0.3129
 2680SOL    HW219674   1.885   1.392  17.072 -1.1442  0.3240  0.1193
 2681SOL     OW19675   1.088   0.663   3.052  0.6001  0.6674  0.3577
 2681SOL    HW119676   1.094   0.569   3.033  0.7953  0.6510  0.4952
 2681SOL    HW219677   1.035   0.693   2.979  3.4014  0.4927 -1.7100
 2682SOL     OW19678   2.127   2.510   9.427  0.2589 -0.7133  0.3097
 2682SOL    HW119679   2.107   2.419   9.449 -0.4375 -0.5840  0.2025
 2682SOL    HW219680   2.190   2.501   9.355  1.3228  0.4339  1.1033
 2683SOL     OW19681   0.177   3.804   9.024  0.1085  0.3833 -0.0646
 2683SOL    HW119682   0.168   3.826   9.116  2.0364 -0.4191  0.3120
 2683SOL    HW219683   0.089   3.835   9.000  0.2478  1.0929  0.3549
 2684SOL     OW19684   2.471   2.376  10.299  0.3637  0.5240 -0.0261
 2684SOL    HW119685   2.451   2.300  10.243 -2.1561  0.1892  1.3036
 2684SOL    HW219686   2.543   2.425  10.260  0.7047 -0.2298 -0.3622
 2685SOL     OW19687   3.126   1.430   6.212 -0.1451 -0.0405  0.3699
 2685SOL    HW119688   3.198   1.447   6.152  1.0152 -0.5666  1.5975
 2685SOL    HW219689   3.150   1.501   6.271 -0.0982  0.7260 -0.5764
 2686SOL     OW19690   2.283   3.639  12.159 -0.9825  0.0065  0.1364
 2686SOL    HW119691   2.229   3.606  12.231  0.7449  0.0513  1.4487
 2686SOL    HW219692   2.360   3.587  12.181 -1.0849  0.2922  1.1475
 2687SOL     OW19693   1.136   2.880   1.034  0.1347 -0.0771  0.2857
 2687SOL    HW119694   1.186   2.961   1.034  2.5832 -1.5581  1.4007
 2687SOL    HW219695   1.089   2.898   0.953  1.5078 -0.1342 -0.5232
 2688SOL     OW19696   1.446   2.383   7.905 -0.4124 -0.0340 -0.4628
 2688SOL    HW119697   1.455   2.345   7.818  0.1208 -0.2133 -0.3276
 2688SOL    HW219698   1.434   2.304   7.957  0.6157 -1.3254 -2.2090
 2689SOL     OW19699   0.289   1.639   6.531 -0.2183  0.4439 -0.2191
 2689SOL    HW119700   0.374   1.668   6.499 -0.1697 -2.5431 -2.7604
 2689SOL    HW219701   0.258   1.609   6.445  0.4125 -1.2856  0.1567
 2690SOL     OW19702   1.439   2.061   7.786  0.8001  0.3267  0.2769
 2690SOL    HW119703   1.530   2.033   7.793  0.4405 -0.8923  0.1689
 2690SOL    HW219704   1.417   2.092   7.873 -1.0992  0.9288 -0.4152
 2691SOL     OW19705   3.216   3.581   8.089  0.0206  0.0847  0.3323
 2691SOL    HW119706   3.262   3.653   8.046  0.4735  0.2472  1.0872
 2691SOL    HW219707   3.135   3.579   8.038  1.1946 -0.8597 -1.5170
 2692SOL     OW19708   0.249   2.149  17.506 -0.0482 -0.1366 -0.4433
 2692SOL    HW119709   0.248   2.241  17.530  2.6853  0.0876 -1.2440
 2692SOL    HW219710   0.335   2.116  17.531  1.3261  1.1134 -3.5420
 2693SOL     OW19711   3.963   1.597  13.295 -0.5716  0.2265  0.3251
 2693SOL    HW119712   3.908   1.577  13.371  1.5405  0.3433  1.8622
 2693SOL    HW219713   3.995   1.508  13.280  0.4112  0.5325  0.6629
 2694SOL     OW19714   4.200   3.986  17.258  0.2958 -0.4066  0.1025
 2694SOL    HW119715   4.259   4.034  17.317 -0.1060  0.3638 -0.1339
 2694SOL    HW219716   4.125   3.970  17.314  1.9619  0.6869  2.6466
 2695SOL     OW19717   4.139   1.927   7.646  0.0742 -0.8061  0.2510
 2695SOL    HW119718   4.109   2.001   7.592  0.9604 -0.0231  0.8268
 2695SOL    HW219719   4.105   1.848   7.603 -0.7388  0.3582 -1.2527
 2696SOL     OW19720   2.601   3.106   0.548 -0.0374 -0.4000 -0.1914
 2696SOL    HW119721   2.529   3.089   0.488 -1.4231 -0.5866  1.5269
 2696SOL    HW219722   2.614   3.014   0.572 -0.1482 -1.4832 -4.3402
 2697SOL     OW19723   2.201   0.924   8.442 -1.0030 -0.0300  0.0095
 2697SOL    HW119724   2.210   0.852   8.379 -0.8734  0.7479 -0.8604
 2697SOL    HW219725   2.289   0.914   8.478 -0.9534  0.9826  0.1578
 2698SOL     OW19726   0.585   0.419   4.140 -0.3571 -0.2062  0.3257
 2698SOL    HW119727   0.554   0.385   4.224 -0.6359 -0.5954  0.0637
 2698SOL    HW219728   0.524   0.490   4.120  0.9991  1.1273  0.9182
 2699SOL     OW19729   2.936   0.677   2.663  0.6013 -0.0666 -0.0200
 2699SOL    HW119730   2.871   0.606   2.666 -0.0356  0.4639 -1.2824
 2699SOL    HW219731   2.915   0.714   2.577  0.4242 -3.3326 -1.4263
 2700SOL     OW19732   4.429   3.929  11.721 -0.6794  0.2591  1.0063
 2700SOL    HW119733   4.386   3.849  11.751 -1.3852 -0.6570 -2.4059
 2700SOL    HW219734   4.501   3.924  11.784 -0.6026 -0.5141  0.8622
 2701SOL     OW19735   1.399   1.253   7.769  0.1969  0.1534  0.3040
 2701SOL    HW119736   1.320   1.256   7.823  0.3002 -0.0821  0.4658
 2701SOL    HW219737   1.437   1.337   7.797  0.5227  0.4468 -1.0051
 2702SOL     OW19738   2.940   3.148   4.976 -0.3576  0.0226  0.0362
 2702SOL    HW119739   2.935   3.222   5.038 -0.2308 -0.3636  0.5082
 2702SOL    HW219740   2.849   3.145   4.947 -0.3523  3.4481 -0.4187
 2703SOL     OW19741   0.276   2.051  13.157  0.0264 -0.0297  0.0846
 2703SOL    HW119742   0.299   1.983  13.094  0.5879  0.4162 -0.1984
 2703SOL    HW219743   0.279   2.127  13.098 -0.1082 -0.1302 -0.0522
 2704SOL     OW19744   2.955   1.590   3.486  0.4122  0.2068  0.3198
 2704SOL    HW119745   2.947   1.649   3.561  1.6383 -0.6158  1.1030
 2704SOL    HW219746   3.034   1.543   3.511  1.0771  0.8907 -0.4990
 2705SOL     OW19747   4.479   0.230   2.761  0.6084 -0.7111  0.2818
 2705SOL    HW119748   4.493   0.229   2.856 -0.4375  0.5990  0.4504
 2705SOL    HW219749   4.476   0.321   2.734 -4.9164 -0.7481  0.7551
 2706SOL     OW19750   3.645   1.869   2.437  0.1397  0.4879 -0.2481
 2706SOL    HW119751   3.664   1.775   2.443  1.2585  0.7596  0.5438
 2706SOL    HW219752   3.717   1.895   2.379 -0.8868 -0.3943 -1.9152
 2707SOL     OW19753   0.044   3.248   9.590 -0.1357  0.2732 -0.1878
 2707SOL    HW119754   0.046   3.162   9.631 -1.4178 -0.2305 -1.1904
 2707SOL    HW219755   0.133   3.255   9.556 -1.1326 -0.8037 -3.0241
 2708SOL     OW19756   0.757   2.695   3.495 -0.2398  0.0223  0.6244
 2708SOL    HW119757   0.760   2.686   3.399  0.3113  2.7987  0.3788
 2708SOL    HW219758   0.842   2.736   3.512 -0.2755  0.6405 -0.6548
 2709SOL     OW19759   3.037   2.407   8.143  0.4908 -0.2170  0.6049
 2709SOL    HW119760   3.132   2.393   8.137  0.3658  0.2801 -2.2692
 2709SOL    HW219761   3.002   2.371   8.062 -0.9366  1.6647  0.3880
 2710SOL     OW19762   2.502   1.749   6.452 -0.3788  0.1612  0.0415
 2710SOL    HW119763   2.589   1.787   6.447 -0.1820 -0.5678 -2.0332
 2710SOL    HW219764   2.526   1.694   6.527 -0.0889 -1.7020 -1.4229
 2711SOL     OW19765   1.403   3.239   7.372  0.2295  0.7653  0.1573
 2711SOL    HW119766   1.451   3.307   7.419  1.1038  0.1210  0.1864
 2711SOL    HW219767   1.312   3.262   7.392  0.4623  0.9515  0.9970
 2712SOL     OW19768   3.093   0.408   2.899 -0.3680  0.1498  0.3298
 2712SOL    HW119769   3.176   0.455   2.897 -0.1839 -0.2110 -0.9068
 2712SOL    HW219770   3.074   0.387   2.990 -2.4157  1.0596  0.1024
 2713SOL     OW19771   4.146   0.709   4.239  0.2840  0.1406  0.4951
 2713SOL    HW119772   4.057   0.676   4.251 -0.2090  0.7626 -1.3611
 2713SOL    HW219773   4.138   0.766   4.162  0.0602 -2.1890 -1.2220
 2714SOL     OW19774   3.208   0.992   3.100  0.4818  0.1387 -0.3390
 2714SOL    HW119775   3.233   0.917   3.155 -3.1590 -1.8434 -1.3698
 2714SOL    HW219776   3.232   0.969   3.010  0.1650  0.8968 -0.6163
 2715SOL     OW19777   1.883   0.596   1.608  0.0847  0.2722  0.0765
 2715SOL    HW119778   1.881   0.519   1.552 -2.9131  0.1828  0.3012
 2715SOL    HW219779   1.791   0.618   1.620  0.3354  1.3712  0.0703
 2716SOL     OW19780   1.206   3.651   8.752 -0.4335  0.5306 -0.0281
 2716SOL    HW119781   1.218   3.621   8.662  3.2697  0.1826  0.6004
 2716SOL    HW219782   1.220   3.744   8.734 -1.2253  0.0972 -2.8281
 2717SOL     OW19783   4.214   3.570   3.394 -0.2894  0.1156 -0.1533
 2717SOL    HW119784   4.150   3.581   3.464 -0.7985  1.0854 -0.7758
 2717SOL    HW219785   4.296   3.570   3.445 -0.4128 -1.8329  0.0691
 2718SOL     OW19786   3.389   2.974   4.000  0.4480  0.2737 -0.0083
 2718SOL    HW119787   3.419   2.939   3.916  2.8856  0.4566  0.7876
 2718SOL    HW219788   3.323   3.036   3.970 -0.8459 -1.1149  0.0142
 2719SOL     OW19789   0.018   0.851   7.503  0.2691 -0.2989  0.3748
 2719SOL    HW119790   0.090   0.905   7.534  1.6575 -1.6886 -0.4569
 2719SOL    HW219791   4.685   0.910   7.482  0.7942  0.3575  0.4535
 2720SOL     OW19792   0.529   1.338   6.372 -0.5362  0.1568 -0.4671
 2720SOL    HW119793   0.572   1.375   6.449  1.2475 -2.2691 -0.2905
 2720SOL    HW219794   0.463   1.287   6.419  0.1132 -3.2208 -3.2320
 2721SOL     OW19795   0.155   1.539  15.337 -0.5511 -0.6697 -0.7952
 2721SOL    HW119796   0.120   1.593  15.266  1.8981 -1.4463 -2.5694
 2721SOL    HW219797   0.189   1.599  15.404 -0.5301 -0.8294 -0.6623
 2722SOL     OW19798   2.520   0.713  11.259 -0.2381 -0.4649  0.2820
 2722SOL    HW119799   2.522   0.620  11.235  0.4393 -0.6369  0.9861
 2722SOL    HW219800   2.537   0.710  11.354  0.7382 -2.5384  0.0444
 2723SOL     OW19801   1.743   2.641   4.588  0.2561 -0.4598  0.2129
 2723SOL    HW119802   1.689   2.642   4.510  0.1925 -2.2462  0.2266
 2723SOL    HW219803   1.818   2.608   4.539  0.2271 -1.0968  0.5852
 2724SOL     OW19804   0.807   0.051   5.147  0.0465  0.2739  0.0195
 2724SOL    HW119805   0.731   0.009   5.106 -0.1091 -1.5211  2.1127
 2724SOL    HW219806   0.775   0.138   5.126 -0.5316 -0.4352 -2.1288
 2725SOL     OW19807   4.165   4.088   3.778  0.1957  0.0403  0.0320
 2725SOL    HW119808   4.079   4.048   3.790 -0.8296  2.8442  2.1660
 2725SOL    HW219809   4.136   4.175   3.806 -1.2830 -0.4693  0.1144
 2726SOL     OW19810   1.235   1.124   5.295 -0.0973 -0.7188  0.0711
 2726SOL    HW119811   1.234   1.033   5.326  1.3150 -0.5091  0.7239
 2726SOL    HW219812   1.316   1.127   5.245  1.7346 -1.2863  2.9587
 2727SOL     OW19813   2.523   1.236   7.571 -0.0486 -0.8363  0.0116
 2727SOL    HW119814   2.534   1.145   7.546  2.9517 -0.4185 -0.2604
 2727SOL    HW219815   2.501   1.239   7.665 -0.4146  0.1033 -0.0989
 2728SOL     OW19816   0.070   0.634   1.990 -0.6777 -0.1837 -0.2156
 2728SOL    HW119817   0.055   0.624   1.896 -0.7152  0.8048 -0.3187
 2728SOL    HW219818   0.133   0.706   1.989 -2.3850  1.3060 -0.4496
 2729SOL     OW19819   4.557   3.213   9.082 -0.1995 -0.9548  0.2436
 2729SOL    HW119820   4.505   3.202   9.002  0.9201 -3.9671 -0.0885
 2729SOL    HW219821   4.499   3.268   9.135  0.1195 -0.0459 -0.3626
 2730SOL     OW19822   4.576   3.213   6.253 -0.3966  0.1778  0.0555
 2730SOL    HW119823   4.648   3.181   6.307  1.0239  0.0929 -1.8666
 2730SOL    HW219824   4.505   3.171   6.300 -0.5731  1.5070  0.9649
 2731SOL     OW19825   2.449   4.072   6.834 -0.6819 -0.4283 -0.2659
 2731SOL    HW119826   2.409   4.049   6.918  1.1832 -2.0927  0.1673
 2731SOL    HW219827   2.383   4.123   6.788 -0.0958  3.2069  2.8568
 2732SOL     OW19828   4.304   2.486   8.764 -0.0498 -0.7206 -0.0726
 2732SOL    HW119829   4.394   2.456   8.780  0.7479  1.9286  0.3187
 2732SOL    HW219830   4.267   2.417   8.709  1.1541  1.1562 -3.2165
 2733SOL     OW19831   3.870   2.213   6.640  0.2442 -0.3510 -0.0248
 2733SOL    HW119832   3.802   2.280   6.639 -0.9119 -1.5086  2.8812
 2733SOL    HW219833   3.915   2.246   6.562 -1.3188 -0.0910 -0.8002
 2734SOL     OW19834   3.896   0.190   2.528 -0.2806 -0.6456 -0.3528
 2734SOL    HW119835   3.801   0.188   2.541 -0.4344 -0.9071 -1.4507
 2734SOL    HW219836   3.935   0.205   2.613 -3.2074 -0.7830  1.0116
 2735SOL     OW19837   0.457   3.007  17.599 -0.3815  0.2002 -0.5212
 2735SOL    HW119838   0.549   3.027  17.580 -0.9949  1.5342 -2.0498
 2735SOL    HW219839   0.421   3.031  17.513  1.2350  0.9014 -1.0154
 2736SOL     OW19840   2.943   0.735   4.743  0.0679  0.1350 -0.2969
 2736SOL    HW119841   2.853   0.704   4.731  0.2039 -0.9172  1.5154
 2736SOL    HW219842   2.928   0.826   4.717  0.4798  0.5194  0.8286
 2737SOL     OW19843   2.127   3.673   5.080  0.1356 -0.2746  0.4837
 2737SOL    HW119844   2.151   3.590   5.038  0.0701  2.1495 -4.2952
 2737SOL    HW219845   2.206   3.704   5.123 -1.3601  1.8664  1.6578
 2738SOL     OW19846   0.636   2.925   9.537 -0.5408 -0.2570 -0.0648
 2738SOL    HW119847   0.717   2.900   9.580 -0.2294  1.3431  0.2827
 2738SOL    HW219848   0.618   3.002   9.592 -0.3827  0.0004 -0.3677
 2739SOL     OW19849   2.735   1.158   4.120 -0.2648  0.3626  0.3165
 2739SOL    HW119850   2.793   1.210   4.065  1.1490 -1.5713 -0.0386
 2739SOL    HW219851   2.742   1.077   4.069 -3.0424  1.0168 -1.0910
 2740SOL     OW19852   2.742   3.476   5.820  0.5082  0.1230  0.4696
 2740SOL    HW119853   2.750   3.438   5.908 -0.6025  1.8533  1.3214
 2740SOL    HW219854   2.835   3.485   5.800  0.1308 -2.2186 -2.2154
 2741SOL     OW19855   4.352   0.493  17.467  0.5185  0.1913  0.5173
 2741SOL    HW119856   4.429   0.484  17.524  0.9684  1.7621  0.1602
 2741SOL    HW219857   4.287   0.477  17.535  0.7320 -1.2411  0.3901
 2742SOL     OW19858   0.204   3.384  16.742  0.1812 -0.0724  0.1444
 2742SOL    HW119859   0.140   3.327  16.700 -0.4529  1.7914 -1.4537
 2742SOL    HW219860   0.275   3.395  16.678  2.3275 -0.7066  2.3918
 2743SOL     OW19861   0.074   1.804  10.190  0.2590  0.2474  0.0270
 2743SOL    HW119862   0.149   1.754  10.160 -0.0761 -0.2484  0.0193
 2743SOL    HW219863   0.034   1.844  10.113 -1.8527 -2.4215 -0.2497
 2744SOL     OW19864   0.153   2.829   5.907 -0.1508  0.2382  0.2610
 2744SOL    HW119865   0.243   2.837   5.938 -0.5066  0.5217  1.2289
 2744SOL    HW219866   0.112   2.900   5.957 -1.6166 -0.3530 -0.0827
 2745SOL     OW19867   4.568   4.585   7.339 -0.4407 -0.0077 -0.0922
 2745SOL    HW119868   4.518   4.573   7.419 -0.1286 -1.0063 -0.0534
 2745SOL    HW219869   4.544   4.676   7.318 -0.3432  0.1527  0.5079
 2746SOL     OW19870   3.416   2.574   7.496  0.0030 -0.0500 -0.5167
 2746SOL    HW119871   3.496   2.538   7.460  0.4388 -0.9912  1.3971
 2746SOL    HW219872   3.449   2.635   7.562  2.0237 -0.2905 -1.3212
 2747SOL     OW19873   4.377   0.450  15.120 -0.4724 -0.8709 -0.1280
 2747SOL    HW119874   4.316   0.501  15.173 -2.0256 -0.5196 -2.2549
 2747SOL    HW219875   4.460   0.495  15.135 -0.8529 -1.0629  2.6715
 2748SOL     OW19876   0.469   3.604   7.826 -0.4941 -0.4905  0.0007
 2748SOL    HW119877   0.395   3.595   7.886 -0.8279 -1.8515 -0.6187
 2748SOL    HW219878   0.437   3.670   7.764 -2.4124 -2.4401 -1.0818
 2749SOL     OW19879   2.471   0.383   6.005  0.1122 -0.2843 -0.1639
 2749SOL    HW119880   2.535   0.317   5.979 -0.8165 -0.6276 -1.6104
 2749SOL    HW219881   2.519   0.427   6.075 -0.5473 -1.4425  0.9938
 2750SOL     OW19882   0.903   4.151   3.305  0.1840  0.1826 -0.0096
 2750SOL    HW119883   0.818   4.192   3.290  0.6286  1.7325  1.6212
 2750SOL    HW219884   0.910   4.151   3.401 -1.4793  0.5849  0.1132
 2751SOL     OW19885   0.384   2.494   3.689  0.6620  0.0119 -0.0135
 2751SOL    HW119886   0.449   2.563   3.685 -0.1464  0.8701  1.5584
 2751SOL    HW219887   0.419   2.440   3.760  0.0706 -0.1999  0.1197
 2752SOL     OW19888   1.473   2.344   2.337  0.6993  0.4611 -0.7143
 2752SOL    HW119889   1.426   2.424   2.363  1.1656  0.4777  0.0968
 2752SOL    HW219890   1.400   2.282   2.331  0.2505  0.8109  0.8915
 2753SOL     OW19891   0.671   0.151   8.384  0.3268 -0.0119 -0.0306
 2753SOL    HW119892   0.623   0.081   8.339 -0.0635  0.0391  0.3152
 2753SOL    HW219893   0.738   0.100   8.429 -1.0122 -2.8399 -1.2377
 2754SOL     OW19894   1.077   1.827   2.489 -0.2405 -0.5515  0.0525
 2754SOL    HW119895   1.059   1.920   2.474  1.5596 -0.1741  0.2582
 2754SOL    HW219896   1.123   1.800   2.410  0.6084 -0.9208  0.6790
 2755SOL     OW19897   3.444   0.744   4.740 -0.0382  0.3832  0.4007
 2755SOL    HW119898   3.358   0.705   4.726 -0.2113  1.6622 -2.0356
 2755SOL    HW219899   3.427   0.823   4.689 -0.6281  0.0929  0.1523
 2756SOL     OW19900   2.922   3.244  10.881 -0.0942  0.0480 -0.1520
 2756SOL    HW119901   2.827   3.244  10.868 -0.2244  0.8508  0.8442
 2756SOL    HW219902   2.949   3.211  10.795  0.4103 -1.8680  0.7235
 2757SOL     OW19903   3.416   3.536  15.133  0.1537 -0.4519 -0.2499
 2757SOL    HW119904   3.447   3.527  15.042  1.3180 -1.3894  0.2352
 2757SOL    HW219905   3.498   3.514  15.177 -0.0734 -0.4318  0.1765
 2758SOL     OW19906   0.634   3.828   5.724  0.4235  0.4568  0.6677
 2758SOL    HW119907   0.690   3.751   5.737 -0.4123 -0.4124 -0.9063
 2758SOL    HW219908   0.559   3.816   5.783 -0.6342  0.1173 -0.7452
 2759SOL     OW19909   1.723   3.440   2.193 -0.2847 -0.2422  0.0110
 2759SOL    HW119910   1.816   3.424   2.173 -0.3555  1.2897 -1.5939
 2759SOL    HW219911   1.729   3.534   2.206 -0.7294 -0.3894  1.2191
 2760SOL     OW19912   2.986   4.647  16.808 -0.2585  0.5056 -0.0361
 2760SOL    HW119913   2.951   4.562  16.834 -1.6976  0.4442 -2.1176
 2760SOL    HW219914   3.078   4.623  16.799 -0.1020  0.8878  0.5396
 2761SOL     OW19915   3.327   2.615   8.273 -0.0310 -0.2344 -0.2177
 2761SOL    HW119916   3.416   2.628   8.239 -0.4381  1.2346 -0.7226
 2761SOL    HW219917   3.331   2.520   8.260  1.2520 -0.0897 -0.8938
 2762SOL     OW19918   2.315   3.176   8.120 -0.6155  0.3916 -0.7687
 2762SOL    HW119919   2.406   3.148   8.106 -1.2598 -0.2389 -3.5408
 2762SOL    HW219920   2.271   3.133   8.047  1.2797  0.7253 -2.1011
 2763SOL     OW19921   0.130   3.795   4.034 -0.0379  0.2010  0.0085
 2763SOL    HW119922   0.103   3.870   4.086  0.3766 -0.8102  1.6664
 2763SOL    HW219923   0.059   3.732   4.044  0.3239 -0.2197 -0.0611
 2764SOL     OW19924   0.502   0.242   8.996 -0.0481  0.0409 -0.1311
 2764SOL    HW119925   0.588   0.278   9.017 -1.3756  2.2309  1.6581
 2764SOL    HW219926   0.463   0.216   9.080 -1.3092  0.7276 -0.4981
 2765SOL     OW19927   4.158   4.157   7.438  0.1339 -0.4001 -0.5625
 2765SOL    HW119928   4.188   4.066   7.439 -0.9189 -0.6818  3.5690
 2765SOL    HW219929   4.128   4.176   7.526  1.2318  0.8574 -0.4634
 2766SOL     OW19930   1.268   4.532   2.521  0.1378 -0.0263 -0.2485
 2766SOL    HW119931   1.176   4.508   2.517 -0.1820  1.2908 -0.8697
 2766SOL    HW219932   1.269   4.580   2.604 -1.7353  2.7327 -1.7996
 2767SOL     OW19933   2.220   1.525   7.875 -0.0419 -0.5864  0.4041
 2767SOL    HW119934   2.156   1.512   7.805  1.0685  1.3424 -0.9946
 2767SOL    HW219935   2.166   1.535   7.953 -0.5381 -1.9711  0.2311
 2768SOL     OW19936   1.240   0.948   3.064 -0.6305  0.6170  0.1195
 2768SOL    HW119937   1.185   0.935   2.986  1.9090  0.9561 -1.7328
 2768SOL    HW219938   1.181   0.919   3.133  0.9280  2.7274  2.3235
 2769SOL     OW19939   3.159   1.841   7.364  0.5572  0.1970 -0.3008
 2769SOL    HW119940   3.239   1.799   7.396 -0.5269 -1.4353  0.2523
 2769SOL    HW219941   3.182   1.934   7.371  1.3426 -0.3480  4.0715
 2770SOL     OW19942   0.788   2.619   6.253  0.1278  0.1055  0.4345
 2770SOL    HW119943   0.764   2.641   6.163  1.6274 -1.8723 -0.4567
 2770SOL    HW219944   0.828   2.705   6.272 -0.4257  0.5316 -0.3541
 2771SOL     OW19945   3.786   1.169   5.922 -0.4949  0.5067  0.3812
 2771SOL    HW119946   3.792   1.249   5.869  1.2048  0.2087  0.1189
 2771SOL    HW219947   3.739   1.114   5.860 -1.9754  0.5718  1.4665
 2772SOL     OW19948   1.291   2.232  12.416  0.5286  0.7065 -0.5766
 2772SOL    HW119949   1.360   2.172  12.446  0.9184  2.3982  1.9186
 2772SOL    HW219950   1.281   2.207  12.324 -1.4650  2.8834 -0.9550
 2773SOL     OW19951   1.812   0.351  14.618 -0.0653 -0.3516  0.1237
 2773SOL    HW119952   1.758   0.362  14.540  2.2624 -0.9548 -1.5820
 2773SOL    HW219953   1.901   0.376  14.593 -1.0360  1.7647 -1.1617
 2774SOL     OW19954   1.653   1.830   3.846  0.4929  0.2100 -0.0172
 2774SOL    HW119955   1.569   1.811   3.803  1.0899 -1.6670 -0.3471
 2774SOL    HW219956   1.635   1.808   3.937 -1.4211  1.1995 -0.1424
 2775SOL     OW19957   0.123   0.708  16.788 -0.2903 -0.5306 -0.3850
 2775SOL    HW119958   0.100   0.801  16.779  0.5280 -0.2475  0.4628
 2775SOL    HW219959   0.085   0.680  16.871 -0.1341  2.2715  0.6308
 2776SOL     OW19960   2.000   1.565  17.477  0.2072  0.0423  0.3260
 2776SOL    HW119961   1.965   1.599  17.559 -0.4187 -1.3132  0.6322
 2776SOL    HW219962   1.954   1.618  17.412  0.5217 -2.4795 -1.9980
 2777SOL     OW19963   2.170   3.554   1.224 -0.2481 -0.1134 -0.0043
 2777SOL    HW119964   2.130   3.484   1.274 -1.6569  0.6280 -0.0926
 2777SOL    HW219965   2.265   3.546   1.236 -0.3838 -0.7957  0.6154
 2778SOL     OW19966   2.981   4.088   7.895  0.1976  0.0834  0.1361
 2778SOL    HW119967   3.017   4.157   7.840 -0.8646  1.2075  0.8558
 2778SOL    HW219968   3.003   4.103   7.987 -0.4860 -0.2081  0.3509
 2779SOL     OW19969   1.195   0.037   2.267 -0.3154 -0.1396 -0.0643
 2779SOL    HW119970   1.160   4.688   2.249 -0.6011 -0.1780  0.6566
 2779SOL    HW219971   1.111   0.076   2.291 -0.0568  0.6232 -0.3948
 2780SOL     OW19972   2.612   0.066  13.606  0.6619 -0.1300 -0.5925
 2780SOL    HW119973   2.686   0.076  13.547  0.2407  0.5653 -1.0077
 2780SOL    HW219974   2.541   0.085  13.544 -0.0993  1.8094  0.8465
 2781SOL     OW19975   2.440   3.408  11.894 -0.4849 -0.2441  0.4461
 2781SOL    HW119976   2.522   3.437  11.933 -0.4638 -0.9624  0.9405
 2781SOL    HW219977   2.386   3.412  11.973  0.4476  3.0017  0.9127
 2782SOL     OW19978   2.383   3.666   6.441  0.3597 -0.2875 -0.3341
 2782SOL    HW119979   2.413   3.747   6.400 -0.2015 -0.3592 -0.8712
 2782SOL    HW219980   2.445   3.652   6.513 -0.4248  1.7759  0.7272
 2783SOL     OW19981   3.362   4.085  16.784  0.6654  0.0624 -0.1079
 2783SOL    HW119982   3.354   4.150  16.713  2.4704 -1.0719 -1.3569
 2783SOL    HW219983   3.297   4.022  16.752  0.2869 -0.0193  0.8200
 2784SOL     OW19984   3.082   0.136   7.937  0.2305  0.4523 -0.1013
 2784SOL    HW119985   3.083   0.126   7.842 -1.0573 -3.6070  0.3008
 2784SOL    HW219986   3.018   0.066   7.953  1.8689 -0.7237  1.2700
 2785SOL     OW19987   1.807   0.064   9.312 -0.1946 -0.2929  0.4373
 2785SOL    HW119988   1.793   0.153   9.346  0.4385 -0.8450  2.1792
 2785SOL    HW219989   1.793   0.011   9.391 -1.3851  1.5000  1.4479
 2786SOL     OW19990   4.310   0.193   3.961  0.1195  0.7211 -0.2388
 2786SOL    HW119991   4.295   0.193   4.055 -1.9159 -2.6979 -0.5424
 2786SOL    HW219992   4.394   0.238   3.950  0.9712 -1.0066 -0.9114
 2787SOL     OW19993   1.197   1.874   0.861 -0.5039 -0.2772  0.2090
 2787SOL    HW119994   1.251   1.808   0.817  0.4137  1.4528 -1.2474
 2787SOL    HW219995   1.252   1.949   0.840 -0.5485  0.2415  1.8916
 2788SOL     OW19996   1.746   2.730   3.852  0.2614 -0.2159  0.1988
 2788SOL    HW119997   1.651   2.725   3.867 -0.0636  1.7716 -1.2085
 2788SOL    HW219998   1.749   2.704   3.760  1.2015  1.0912 -0.1378
 2789SOL     OW19999   3.903   0.653   3.132  0.1890 -0.4259 -0.7818
 2789SOL    HW120000   3.873   0.591   3.065 -2.1343 -1.5838  1.3453
 2789SOL    HW220001   3.839   0.649   3.203  1.3885  2.5711  0.4333
 2790SOL     OW20002   3.678   1.398  16.786 -0.1688  0.1572 -0.0016
 2790SOL    HW120003   3.747   1.391  16.852  1.7121  2.1200 -1.7634
 2790SOL    HW220004   3.703   1.322  16.732 -0.5186 -0.1110  0.2092
 2791SOL     OW20005   1.186   2.923  12.068 -0.5871  0.8384  0.1795
 2791SOL    HW120006   1.271   2.917  12.026  0.4103  4.1487  1.7664
 2791SOL    HW220007   1.176   3.018  12.072 -0.4298  0.8346  0.5912
 2792SOL     OW20008   4.738   3.455   0.623 -0.3370 -0.0314 -0.3498
 2792SOL    HW120009   0.083   3.428   0.660  1.2386  2.2814 -2.2274
 2792SOL    HW220010   4.729   3.526   0.686 -0.6690  0.8187 -1.3707
 2793SOL     OW20011   3.706   3.499   8.183 -0.6537 -0.0812  0.7777
 2793SOL    HW120012   3.666   3.561   8.123  0.9217  1.9157  1.7939
 2793SOL    HW220013   3.747   3.560   8.244 -3.0745  2.7804 -0.4679
 2794SOL     OW20014   4.370   1.998   3.678 -0.5221  0.1797 -0.1960
 2794SOL    HW120015   4.281   1.966   3.692 -0.0232  0.0441  2.7285
 2794SOL    HW220016   4.396   1.942   3.605 -1.8252 -1.9148  0.9413
 2795SOL     OW20017   3.510   4.504   2.242 -0.3975 -0.6053 -0.1659
 2795SOL    HW120018   3.459   4.584   2.251  2.4190  1.4391 -2.3927
 2795SOL    HW220019   3.502   4.464   2.155  0.3028  0.2170 -0.6101
 2796SOL     OW20020   1.692   3.162   5.406 -0.8769  0.3801  0.1847
 2796SOL    HW120021   1.726   3.194   5.323  0.0579 -0.6896  0.1554
 2796SOL    HW220022   1.642   3.238   5.435 -1.8834  0.6665 -2.3693
 2797SOL     OW20023   2.720   2.974   7.845  0.0649 -0.0316 -0.5812
 2797SOL    HW120024   2.661   2.903   7.821 -0.4656 -0.2377  1.3618
 2797SOL    HW220025   2.652   3.023   7.891  1.7561  2.1238 -0.4084
 2798SOL     OW20026   3.570   3.184   4.840  0.2803  0.9888 -1.1734
 2798SOL    HW120027   3.512   3.237   4.894 -0.1803 -0.6259 -0.0939
 2798SOL    HW220028   3.537   3.098   4.866  0.1218  1.1495 -0.8495
 2799SOL     OW20029   4.007   2.938   6.707 -0.4069 -0.3940  0.1837
 2799SOL    HW120030   4.046   2.961   6.622 -0.5658 -0.5514  0.0660
 2799SOL    HW220031   3.949   3.015   6.710  2.0075  1.5637 -2.6898
 2800SOL     OW20032   4.174   0.526  14.703  0.1627 -0.0445 -0.8592
 2800SOL    HW120033   4.083   0.538  14.678 -0.0240 -0.5985 -0.4510
 2800SOL    HW220034   4.211   0.607  14.740  2.0294 -1.5785  0.6280
 2801SOL     OW20035   2.637   2.251  14.265 -0.0305  0.0653 -0.0402
 2801SOL    HW120036   2.564   2.216  14.214  1.2590  0.3648 -2.1190
 2801SOL    HW220037   2.691   2.173  14.281 -0.1467  0.1405  0.6880
 2802SOL     OW20038   3.647   3.364   0.710  0.5365 -0.1291 -0.2569
 2802SOL    HW120039   3.710   3.297   0.735 -0.0375 -1.1353 -1.5000
 2802SOL    HW220040   3.644   3.413   0.792  1.4682 -1.0766  0.3405
 2803SOL     OW20041   1.052   4.122   9.881 -0.5598 -0.0107 -0.0404
 2803SOL    HW120042   0.968   4.165   9.868 -0.8267  0.3709  3.0862
 2803SOL    HW220043   1.051   4.101   9.974 -0.2547  1.5104  0.3085
 2804SOL     OW20044   4.091   1.514   8.598  0.8161  0.6684 -0.6221
 2804SOL    HW120045   4.027   1.460   8.552  0.7084  2.3094 -2.3846
 2804SOL    HW220046   4.167   1.458   8.585 -0.7699 -2.0130  1.6394
 2805SOL     OW20047   3.801   3.261   3.261 -0.3029  0.6816 -0.5981
 2805SOL    HW120048   3.835   3.349   3.248  2.0247  0.0064  1.0762
 2805SOL    HW220049   3.709   3.274   3.238 -0.2979  2.0146  0.1473
 2806SOL     OW20050   1.051   1.258   5.977  0.3298 -0.6509 -0.0276
 2806SOL    HW120051   1.131   1.291   6.018 -0.1903  2.0583 -1.2358
 2806SOL    HW220052   1.026   1.338   5.931 -0.8991 -2.3624 -2.3331
 2807SOL     OW20053   0.374   1.184   2.347 -0.1998 -0.5974  0.2267
 2807SOL    HW120054   0.422   1.168   2.428  0.4764 -3.1591 -0.6633
 2807SOL    HW220055   0.359   1.278   2.356 -2.1031 -1.0666  1.7774
 2808SOL     OW20056   2.227   2.403   7.141  0.0448  0.2305 -0.1566
 2808SOL    HW120057   2.153   2.462   7.152 -0.0023  0.0309  0.5818
 2808SOL    HW220058   2.291   2.430   7.207  1.8162 -1.5796 -1.1128
 2809SOL     OW20059   0.382   3.513   5.196  0.5661 -0.0888 -0.1440
 2809SOL    HW120060   0.457   3.482   5.246 -0.4483 -0.6565  1.0396
 2809SOL    HW220061   0.316   3.500   5.264  1.1212  0.3628  0.4828
 2810SOL     OW20062   0.610   0.686   7.292  0.1983 -0.3670 -0.8754
 2810SOL    HW120063   0.525   0.713   7.325 -0.2619  1.0671 -3.1858
 2810SOL    HW220064   0.576   0.610   7.244 -0.1540  1.1413 -3.0245
 2811SOL     OW20065   1.726   1.487   7.763  0.4903 -0.0644  0.3930
 2811SOL    HW120066   1.686   1.436   7.834  1.8235 -1.2028  0.3364
 2811SOL    HW220067   1.805   1.435   7.748  0.7203 -0.0712  1.5761
 2812SOL     OW20068   2.883   4.013   1.994 -0.8450 -0.3225  0.2839
 2812SOL    HW120069   2.813   4.072   2.024 -2.9111 -0.7392 -3.6825
 2812SOL    HW220070   2.957   4.072   1.982 -0.4441 -0.6218  1.2869
 2813SOL     OW20071   4.633   1.381   6.065 -0.0712  1.0031 -0.4500
 2813SOL    HW120072   4.723   1.371   6.036 -0.0067 -1.2492  0.4900
 2813SOL    HW220073   4.618   1.474   6.046  0.5220  0.5249 -3.1572
 2814SOL     OW20074   3.884   2.142  17.590 -0.0259  0.4121 -0.0230
 2814SOL    HW120075   3.809   2.128  17.648  1.7831  0.2265  2.2718
 2814SOL    HW220076   3.876   2.060  17.540  0.0539 -0.0531  0.7280
 2815SOL     OW20077   4.053   3.028   2.536 -0.1296  0.3169  0.1293
 2815SOL    HW120078   4.089   2.941   2.521  0.3386  0.4348  0.5805
 2815SOL    HW220079   3.960   3.007   2.526  0.6244 -1.4377 -3.1392
 2816SOL     OW20080   0.225   4.268   5.344 -0.3659  0.0992 -0.1618
 2816SOL    HW120081   0.229   4.240   5.252  0.0366  0.1607 -0.1631
 2816SOL    HW220082   0.179   4.193   5.383  0.5156 -0.1455  0.3909
 2817SOL     OW20083   3.667   4.354  13.980 -0.8906  0.1592 -0.2446
 2817SOL    HW120084   3.645   4.442  14.009  0.7192 -0.3409  2.5301
 2817SOL    HW220085   3.649   4.317  14.067 -1.2231  0.3530 -0.2316
 2818SOL     OW20086   3.178   2.446   4.357  0.1251  0.3004  0.2199
 2818SOL    HW120087   3.099   2.477   4.402 -0.3960  0.3576 -0.7356
 2818SOL    HW220088   3.227   2.404   4.427 -0.7558 -0.7982  0.1722
 2819SOL     OW20089   1.686   2.412   3.702  0.4605  0.1056  0.6757
 2819SOL    HW120090   1.755   2.360   3.745  0.1094 -1.4777 -0.6746
 2819SOL    HW220091   1.697   2.375   3.614 -0.6360  2.0879 -0.2812
 2820SOL     OW20092   3.495   1.986   7.853 -0.3310  0.2345  0.1987
 2820SOL    HW120093   3.406   1.988   7.817 -0.6419  1.4434  1.0464
 2820SOL    HW220094   3.478   1.963   7.944 -3.1329 -0.8409 -0.6164
 2821SOL     OW20095   1.707   1.833   6.033  0.3124 -0.5677 -0.2989
 2821SOL    HW120096   1.638   1.816   5.969 -1.5806 -0.3294  1.6962
 2821SOL    HW220097   1.781   1.824   5.972  0.0560 -0.0551 -0.6860
 2822SOL     OW20098   2.989   3.361   7.614 -0.5064  0.2012  0.3474
 2822SOL    HW120099   2.939   3.284   7.641 -2.4133  0.8882 -1.2670
 2822SOL    HW220100   3.057   3.314   7.565  2.0762  2.3665  1.8376
 2823SOL     OW20101   0.646   1.087   7.858  0.1742  0.3575  0.1577
 2823SOL    HW120102   0.637   0.992   7.856  0.4530  0.3472 -0.7575
 2823SOL    HW220103   0.644   1.111   7.951 -0.7050  0.1186  0.2052
 2824SOL     OW20104   2.295   0.159   1.566  0.0604 -0.0079 -0.1056
 2824SOL    HW120105   2.358   0.164   1.493 -0.9900  1.8308 -0.8751
 2824SOL    HW220106   2.243   0.238   1.552  0.6162  0.4016  0.1425
 2825SOL     OW20107   0.924   0.771   2.851  0.1406  0.8132  0.3013
 2825SOL    HW120108   0.918   0.865   2.869  1.6272  0.4647  2.4905
 2825SOL    HW220109   0.832   0.744   2.854  0.2820  0.0969 -1.5671
 2826SOL     OW20110   2.836   1.371   3.232 -0.1449 -0.3788  0.5038
 2826SOL    HW120111   2.918   1.396   3.275 -0.6779 -0.7944  1.7434
 2826SOL    HW220112   2.842   1.275   3.239 -0.1985 -0.3689  0.6784
 2827SOL     OW20113   1.969   3.075  12.607 -0.2842  0.4278  0.0662
 2827SOL    HW120114   1.886   3.083  12.559 -0.3065 -2.3476 -0.4028
 2827SOL    HW220115   1.958   2.986  12.642 -3.5784  0.8437  0.1183
 2828SOL     OW20116   4.188   2.213   3.867 -0.0572  0.3327 -0.6463
 2828SOL    HW120117   4.236   2.145   3.819  0.8965 -0.1515  0.9822
 2828SOL    HW220118   4.107   2.166   3.886  1.4658 -2.1031 -0.0973
 2829SOL     OW20119   3.921   2.869   3.886  0.3902  0.4570 -0.0655
 2829SOL    HW120120   3.855   2.822   3.938  2.7977 -2.4821  0.3472
 2829SOL    HW220121   3.965   2.926   3.949 -1.3372  1.8838 -0.1739
 2830SOL     OW20122   1.895   2.406   9.109 -0.2070 -0.2818  0.5876
 2830SOL    HW120123   1.820   2.455   9.142  0.4499 -0.0691  1.7842
 2830SOL    HW220124   1.868   2.368   9.026  0.9605 -1.7359  0.8845
 2831SOL     OW20125   4.713   1.646   3.257 -0.0726 -0.3658  0.2578
 2831SOL    HW120126   0.016   1.600   3.185 -1.6080  1.1938 -1.6299
 2831SOL    HW220127   0.043   1.648   3.324  0.3753  1.0937 -0.2470
 2832SOL     OW20128   4.393   4.318   2.093 -0.0141  0.9649  0.3618
 2832SOL    HW120129   4.322   4.383   2.100 -0.5653  0.2606  1.3785
 2832SOL    HW220130   4.462   4.374   2.057 -0.2473 -0.0430 -1.5930
 2833SOL     OW20131   1.472   4.194   3.222 -0.4286 -0.9161 -0.0082
 2833SOL    HW120132   1.549   4.233   3.180 -0.4767 -0.9081 -0.0877
 2833SOL    HW220133   1.403   4.238   3.172  1.5288  0.0699 -1.8384
 2834SOL     OW20134   0.925   4.306   6.997 -0.2283 -0.0028  0.1237
 2834SOL    HW120135   0.856   4.240   7.011 -3.5741  4.0418  2.7337
 2834SOL    HW220136   0.904   4.349   6.915 -0.7746 -0.6897 -0.0938
 2835SOL     OW20137   1.727   0.686   4.416 -0.5993 -0.5438  0.0061
 2835SOL    HW120138   1.670   0.737   4.358  1.6600  2.5345  0.4585
 2835SOL    HW220139   1.805   0.729   4.380 -0.2781 -0.0706  1.2703
 2836SOL     OW20140   1.054   1.363   5.635 -0.0260  0.0362  0.0364
 2836SOL    HW120141   1.047   1.426   5.707 -1.4208 -2.4493  2.0849
 2836SOL    HW220142   0.968   1.322   5.642  1.4327 -2.7703  1.5463
 2837SOL     OW20143   3.139   1.145  10.133 -0.0511  0.6950 -0.4580
 2837SOL    HW120144   3.117   1.226  10.088 -0.3021  1.4641  1.0699
 2837SOL    HW220145   3.055   1.131  10.176 -0.4989  2.4799 -0.7771
 2838SOL     OW20146   3.909   4.545   6.266 -0.0851 -0.5748 -0.4672
 2838SOL    HW120147   3.967   4.577   6.336 -1.6802  0.3480  0.4543
 2838SOL    HW220148   3.945   4.457   6.261  1.7040  0.0391  1.4108
 2839SOL     OW20149   0.846   0.448   0.938  0.0120 -0.0620 -0.2436
 2839SOL    HW120150   0.754   0.471   0.930  0.5092  2.4560  0.9347
 2839SOL    HW220151   0.893   0.501   0.873  2.0880 -0.5617  0.8354
 2840SOL     OW20152   3.709   3.330   7.116  0.0785  0.3422 -0.4898
 2840SOL    HW120153   3.790   3.326   7.167 -2.2066  1.8941  3.3077
 2840SOL    HW220154   3.657   3.399   7.159  1.0990  0.9607 -0.2547
 2841SOL     OW20155   1.888   1.846   4.997 -0.3838 -0.0521  0.0293
 2841SOL    HW120156   1.900   1.799   5.080  2.0621 -0.1191 -0.3797
 2841SOL    HW220157   1.864   1.934   5.025 -3.9482 -1.0406  0.1813
 2842SOL     OW20158   3.830   4.518   5.040 -0.6720 -0.1161 -0.0371
 2842SOL    HW120159   3.869   4.529   5.127 -3.1559 -2.0278  1.3115
 2842SOL    HW220160   3.876   4.590   4.996  1.5581 -2.2088 -1.0812
 2843SOL     OW20161   2.972   3.270   3.437 -0.6082 -0.2184 -0.4188
 2843SOL    HW120162   3.044   3.222   3.397  0.7304  1.4070  0.0687
 2843SOL    HW220163   2.960   3.237   3.526  0.4180 -0.8409 -0.5148
 2844SOL     OW20164   0.453   3.429  10.260 -0.2089 -0.0553  0.0234
 2844SOL    HW120165   0.540   3.465  10.278  0.3897  0.1780 -3.3153
 2844SOL    HW220166   0.426   3.373  10.333  0.0002 -1.2660 -0.8230
 2845SOL     OW20167   3.271   3.428   5.938 -0.0559 -0.4536 -0.0267
 2845SOL    HW120168   3.277   3.500   6.000  0.9499  0.1242 -0.7800
 2845SOL    HW220169   3.362   3.422   5.907  0.1673  3.6308 -0.1441
 2846SOL     OW20170   2.108   4.333   6.468 -0.5877  0.5627  0.1366
 2846SOL    HW120171   2.118   4.285   6.386 -0.5042 -0.1967  0.5863
 2846SOL    HW220172   2.179   4.397   6.461  0.9448 -1.0882  0.5050
 2847SOL     OW20173   4.350   0.638   7.570 -0.0540 -0.1299  0.3793
 2847SOL    HW120174   4.397   0.714   7.605 -0.1624 -0.5762  1.4844
 2847SOL    HW220175   4.414   0.567   7.577 -0.3483 -0.4569 -0.2407
 2848SOL     OW20176   3.500   1.441  11.990  0.1447  0.0160 -0.7070
 2848SOL    HW120177   3.579   1.401  12.026 -0.3890  2.1917  2.9079
 2848SOL    HW220178   3.468   1.503  12.055  1.8112  0.2885 -0.1319
 2849SOL     OW20179   3.538   1.040   8.881  0.2131  0.3023 -0.3080
 2849SOL    HW120180   3.446   1.016   8.877  0.6939 -1.9662  2.4326
 2849SOL    HW220181   3.577   1.012   8.798  0.9454  0.7274 -0.1086
 2850SOL     OW20182   0.110   0.301   6.848 -0.9544 -0.0836  0.4412
 2850SOL    HW120183   0.167   0.299   6.925 -2.5653  0.6079  1.6659
 2850SOL    HW220184   0.037   0.250   6.883  0.3437 -2.4089 -0.3055
 2851SOL     OW20185   4.444   1.275   3.427 -0.4821  0.0372  0.0429
 2851SOL    HW120186   4.530   1.252   3.391 -0.8340  0.4397 -1.0576
 2851SOL    HW220187   4.458   1.285   3.521  2.6484 -1.4290 -0.2481
 2852SOL     OW20188   1.263   1.676   5.663 -0.0717 -0.4709 -0.4339
 2852SOL    HW120189   1.300   1.682   5.575 -1.2013 -0.3046 -0.8954
 2852SOL    HW220190   1.221   1.590   5.665  2.0064 -1.4713  0.0230
 2853SOL     OW20191   4.207   0.548   9.352  0.2510  0.0800  0.0101
 2853SOL    HW120192   4.235   0.480   9.291 -1.1757  0.9765 -1.6620
 2853SOL    HW220193   4.172   0.500   9.427  1.1054 -0.4437  0.0701
 2854SOL     OW20194   0.691   0.501   1.220  0.6084  0.1151  0.1870
 2854SOL    HW120195   0.596   0.501   1.215  0.6095  1.6733  0.0115
 2854SOL    HW220196   0.708   0.423   1.168 -4.0593 -0.9325  0.2862
 2855SOL     OW20197   3.750   2.608   5.623 -0.1846 -0.0058 -0.1001
 2855SOL    HW120198   3.657   2.631   5.630 -0.6654 -2.3081  1.4292
 2855SOL    HW220199   3.793   2.690   5.598  1.2599 -0.3709  1.1927
 2856SOL     OW20200   1.192   2.860  14.297 -0.0737 -0.2370  0.4285
 2856SOL    HW120201   1.152   2.852  14.211 -1.9946  0.4345  1.2552
 2856SOL    HW220202   1.139   2.927  14.339 -0.7204  0.7619 -2.0242
 2857SOL     OW20203   2.298   1.574   9.304 -0.6276  0.0141  0.1900
 2857SOL    HW120204   2.225   1.520   9.273 -2.6792  3.1422 -0.5159
 2857SOL    HW220205   2.270   1.604   9.391  1.4557  1.9420  0.1988
 2858SOL     OW20206   4.328   0.509  16.900  0.2869 -0.1955 -0.0076
 2858SOL    HW120207   4.358   0.483  16.986 -1.3519 -0.4090  0.4924
 2858SOL    HW220208   4.273   0.432  16.885  0.7449 -0.9714  2.4007
 2859SOL     OW20209   3.832   4.268  13.593  0.2095  0.4795  0.5755
 2859SOL    HW120210   3.833   4.360  13.620  0.0519  0.8780 -0.7684
 2859SOL    HW220211   3.775   4.226  13.658 -0.2188 -0.5467 -0.4719
 2860SOL     OW20212   1.168   0.856   4.070 -0.4057 -0.6847 -0.2769
 2860SOL    HW120213   1.180   0.950   4.089 -2.1625 -0.2937 -1.0638
 2860SOL    HW220214   1.251   0.843   4.025  0.6497  0.7297  1.2337
 2861SOL     OW20215   3.166   1.095   7.411 -0.5022  0.4589  0.1740
 2861SOL    HW120216   3.150   1.083   7.317 -1.3048  1.6769  0.1587
 2861SOL    HW220217   3.164   1.006   7.448  0.4894  0.3135 -0.1063
 2862SOL     OW20218   4.713   3.987   8.106  0.0231  0.1116 -0.3171
 2862SOL    HW120219   4.684   3.985   8.015 -1.0737 -2.0331  0.0707
 2862SOL    HW220220   0.068   4.004   8.095 -0.0776 -0.4167 -2.0202
 2863SOL     OW20221   3.532   4.480  17.256  0.0682  0.2419 -0.0270
 2863SOL    HW120222   3.505   4.389  17.244 -1.5015  0.1751  4.2113
 2863SOL    HW220223   3.507   4.528  17.176  1.4512 -0.3540 -0.8266
 2864SOL     OW20224   0.296   1.034   8.001  0.0654 -0.1564 -0.2513
 2864SOL    HW120225   0.379   1.081   8.015  1.1492 -2.3657  0.7419
 2864SOL    HW220226   0.310   0.965   7.936  0.6295  1.6883 -2.0875
 2865SOL     OW20227   0.695   3.720   8.451  0.0361  0.3499  0.3940
 2865SOL    HW120228   0.723   3.808   8.477  0.5599 -1.0007  4.4275
 2865SOL    HW220229   0.770   3.674   8.414 -0.5378 -0.8291  0.7203
 2866SOL     OW20230   3.390   1.746   6.125  0.6194  0.0993  0.3730
 2866SOL    HW120231   3.357   1.673   6.072  0.0923  0.5630  0.0682
 2866SOL    HW220232   3.354   1.815   6.069 -0.4524 -0.5008  0.3281
 2867SOL     OW20233   3.828   0.257  14.726 -0.0715 -0.2471 -0.0393
 2867SOL    HW120234   3.901   0.195  14.736 -1.1343 -1.5428 -0.3564
 2867SOL    HW220235   3.756   0.203  14.694  0.2136 -0.6138 -0.0611
 2868SOL     OW20236   4.072   4.667  10.047 -0.1946  0.0990  0.3985
 2868SOL    HW120237   4.131   4.734  10.084 -1.0624  0.4104  1.2256
 2868SOL    HW220238   4.109   4.581  10.069  0.6240  0.2261 -0.5030
 2869SOL     OW20239   0.532   3.138   4.258 -0.4201  0.5206 -0.0031
 2869SOL    HW120240   0.506   3.046   4.258  0.3057  0.3167  0.3192
 2869SOL    HW220241   0.443   3.174   4.249 -0.9581 -0.8939 -0.3836
 2870SOL     OW20242   3.424   2.876   7.300  0.3859  0.6476 -0.5432
 2870SOL    HW120243   3.427   2.908   7.210 -1.7809  0.4797 -0.6719
 2870SOL    HW220244   3.517   2.866   7.317  0.3716 -0.7770 -1.2783
 2871SOL     OW20245   4.707   1.019   3.488  0.6020 -0.5457 -0.5468
 2871SOL    HW120246   4.632   0.990   3.541 -0.7499 -1.5001 -3.0202
 2871SOL    HW220247   0.008   1.093   3.535 -0.4247 -0.5248  0.2885
 2872SOL     OW20248   3.278   2.237   4.850 -0.5910  0.2124 -0.1706
 2872SOL    HW120249   3.200   2.288   4.869  0.9911  2.9203 -0.8562
 2872SOL    HW220250   3.344   2.274   4.908  1.3358 -0.2092 -2.0775
 2873SOL     OW20251   0.518   4.533   7.557  0.4095  0.3872 -0.1783
 2873SOL    HW120252   0.580   4.473   7.516  1.9210  0.4511  2.0506
 2873SOL    HW220253   0.455   4.519   7.486 -1.2453  0.2302  1.3329
 2874SOL     OW20254   0.805   2.630  11.887 -0.6923 -0.4644  0.3813
 2874SOL    HW120255   0.785   2.544  11.925 -0.4860 -0.8070 -0.2994
 2874SOL    HW220256   0.881   2.655  11.940  0.1293 -1.3807 -0.3728
 2875SOL     OW20257   0.224   3.050  15.870 -0.4554  0.6464  0.9059
 2875SOL    HW120258   0.176   3.131  15.854  1.7066  1.7776  0.2306
 2875SOL    HW220259   0.254   3.063  15.959  0.8053 -0.3480  0.6235
 2876SOL     OW20260   3.631   4.160  10.515  0.4040 -0.5554  0.0839
 2876SOL    HW120261   3.570   4.197  10.451  0.0152 -1.4121 -0.0412
 2876SOL    HW220262   3.698   4.228  10.518 -0.4184  0.2918 -0.7714
 2877SOL     OW20263   2.034   3.953  15.822 -0.5337  0.2392 -0.5334
 2877SOL    HW120264   2.099   3.980  15.887  0.2216 -0.8327 -0.8464
 2877SOL    HW220265   1.992   3.874  15.856  1.1581 -0.8251 -0.9042
 2878SOL     OW20266   0.125   4.005   5.999 -0.3054  0.5903 -0.5805
 2878SOL    HW120267   0.066   4.079   6.014  0.3846  1.1413 -0.6241
 2878SOL    HW220268   0.106   3.976   5.909 -1.5639 -0.7956  0.1258
 2879SOL     OW20269   1.375   0.650  13.269  0.4504 -0.2234  0.2338
 2879SOL    HW120270   1.338   0.713  13.330  0.2911  0.4232 -0.5265
 2879SOL    HW220271   1.397   0.575  13.324  1.1484 -0.1532  0.0498
 2880SOL     OW20272   3.999   1.293   2.767  0.5016 -0.1544  0.0507
 2880SOL    HW120273   3.954   1.213   2.739  0.2920  0.9000 -2.5594
 2880SOL    HW220274   3.932   1.357   2.742 -0.8038 -1.0292  1.3063
 2881SOL     OW20275   1.569   0.483   5.363 -0.8582  0.2983 -0.3660
 2881SOL    HW120276   1.496   0.435   5.402 -0.3976 -0.9178 -0.9874
 2881SOL    HW220277   1.558   0.566   5.408 -1.5939 -0.3699  0.6688
 2882SOL     OW20278   4.522   3.468   6.394  0.5332 -0.3194 -0.3273
 2882SOL    HW120279   4.590   3.403   6.381  1.7184  0.8691 -0.0491
 2882SOL    HW220280   4.441   3.426   6.365  0.5310 -1.1255  0.8367
 2883SOL     OW20281   3.181   0.150  10.411 -0.5895  0.2780 -0.5907
 2883SOL    HW120282   3.129   0.156  10.490  0.9627  2.1440  0.3016
 2883SOL    HW220283   3.268   0.162  10.450 -0.1420 -3.3025 -0.5447
 2884SOL     OW20284   1.283   0.011   0.512  0.3429  0.2855  0.0069
 2884SOL    HW120285   1.241   0.067   0.447 -0.0615 -1.2243 -1.0112
 2884SOL    HW220286   1.226   0.027   0.587 -0.9090  0.0693 -0.9016
 2885SOL     OW20287   2.574   4.366   7.498 -0.0129 -0.4601 -0.1067
 2885SOL    HW120288   2.627   4.417   7.558  0.1686  0.0885 -0.7288
 2885SOL    HW220289   2.489   4.364   7.543 -0.7861  0.8935 -1.5032
 2886SOL     OW20290   1.853   0.452  11.642 -0.3441 -0.3679 -0.2957
 2886SOL    HW120291   1.843   0.439  11.736 -1.0911 -0.0487 -0.3337
 2886SOL    HW220292   1.886   0.367  11.612 -0.0963  0.4456 -2.3367
 2887SOL     OW20293   0.904   0.533   0.225 -0.2326 -0.4361 -0.0675
 2887SOL    HW120294   0.836   0.590   0.261  2.0541  2.4905 -0.4619
 2887SOL    HW220295   0.937   0.499   0.308 -0.3776 -1.2191 -0.3211
 2888SOL     OW20296   4.503   1.162  17.027  0.3831  0.1493 -0.2115
 2888SOL    HW120297   4.426   1.177  16.972 -0.1648 -3.5837 -0.4412
 2888SOL    HW220298   4.558   1.106  16.972 -0.3826 -1.0355  0.2409
 2889SOL     OW20299   0.156   0.443  10.018 -0.1108 -0.2498  0.4372
 2889SOL    HW120300   0.250   0.446  10.034 -0.8315  0.7753  4.3695
 2889SOL    HW220301   0.166   0.382   9.945 -1.9620 -0.9440  0.7698
 2890SOL     OW20302   0.330   4.592  10.638  0.2456  0.0586  0.2117
 2890SOL    HW120303   0.376   4.637  10.568  0.7302  0.5359  0.8366
 2890SOL    HW220304   0.281   4.664  10.678 -1.4103 -0.0290 -1.6782
 2891SOL     OW20305   4.296   0.014   2.022 -0.2361 -0.3214 -0.1481
 2891SOL    HW120306   4.211   0.045   1.990  0.1222 -0.5765 -1.3482
 2891SOL    HW220307   4.284   0.042   2.113  1.0259  0.2710 -0.1718
 2892SOL     OW20308   0.196   4.597   8.931  0.0045 -0.2967  0.1681
 2892SOL    HW120309   0.224   4.518   8.977  1.4092  0.0937 -0.0141
 2892SOL    HW220310   0.209   4.663   8.999  0.5269 -0.0038 -0.2124
 2893SOL     OW20311   0.367   4.271  13.973  0.1182  0.1466 -0.0660
 2893SOL    HW120312   0.285   4.320  13.967 -0.9621 -1.8142 -1.2614
 2893SOL    HW220313   0.425   4.320  14.032 -1.1657  0.7643  0.6801
 2894SOL     OW20314   0.191   4.351   9.049  1.0069 -0.7365  0.1836
 2894SOL    HW120315   0.199   4.264   9.010 -1.4418  0.1003 -2.1880
 2894SOL    HW220316   0.105   4.347   9.091  1.1440  0.5566  0.5883
 2895SOL     OW20317   4.020   3.889   9.919 -0.0820  0.3978  0.1597
 2895SOL    HW120318   3.989   3.881   9.829 -0.9173  0.3948  0.4481
 2895SOL    HW220319   3.989   3.971   9.957 -1.7449  0.1664 -0.7257
 2896SOL     OW20320   4.323   2.908   5.979  0.4831 -0.3270 -0.0676
 2896SOL    HW120321   4.391   2.877   6.038  2.4743  0.3598 -1.9897
 2896SOL    HW220322   4.250   2.857   6.015  0.0034  0.6665  0.3698
 2897SOL     OW20323   0.541   2.685   8.126 -0.2251  0.1343  0.4399
 2897SOL    HW120324   0.572   2.767   8.163  0.6745 -0.8324  1.8546
 2897SOL    HW220325   0.496   2.643   8.200  1.5490 -2.9438 -0.2116
 2898SOL     OW20326   3.891   2.010   7.942 -0.7441  0.2551  0.1369
 2898SOL    HW120327   3.944   2.089   7.954 -0.5926  0.1858 -0.0804
 2898SOL    HW220328   3.851   2.014   8.029 -1.3596 -1.5471 -0.0693
 2899SOL     OW20329   1.627   1.309   3.306 -0.1456 -0.0587  0.3371
 2899SOL    HW120330   1.716   1.292   3.273 -0.2389 -0.9242  0.5285
 2899SOL    HW220331   1.650   1.385   3.359 -2.3815  0.4417  0.5600
 2900SOL     OW20332   0.753   1.479   5.463 -0.0562 -0.2101 -0.4903
 2900SOL    HW120333   0.812   1.413   5.428 -0.5852 -1.0266  0.1780
 2900SOL    HW220334   0.665   1.459   5.433 -0.5309 -0.4587  1.0566
 2901SOL     OW20335   1.437   2.835   4.125  0.7058  0.2278 -0.2490
 2901SOL    HW120336   1.412   2.924   4.100 -0.7660  0.8301  3.3618
 2901SOL    HW220337   1.463   2.798   4.041 -0.9348 -2.2414  0.2996
 2902SOL     OW20338   3.897   1.974   2.407 -0.2553 -0.6710 -0.9087
 2902SOL    HW120339   3.926   2.041   2.470  0.2027 -2.0400  0.3309
 2902SOL    HW220340   3.890   2.033   2.332 -2.7950 -1.1440 -1.0436
 2903SOL     OW20341   1.654   1.146   7.862  0.0172 -0.2073  0.0420
 2903SOL    HW120342   1.643   1.063   7.908  0.1000  0.5901  1.5047
 2903SOL    HW220343   1.571   1.155   7.814  0.6125  0.5972 -0.8310
 2904SOL     OW20344   0.301   1.786   1.139  0.0271 -0.1241 -0.1771
 2904SOL    HW120345   0.339   1.711   1.185  0.5241  0.3838  0.2439
 2904SOL    HW220346   0.346   1.855   1.188  0.4781  0.4566 -1.4234
 2905SOL     OW20347   0.080   3.949   6.959 -0.3211  0.4217 -0.8686
 2905SOL    HW120348   0.067   3.854   6.962 -3.2132  0.8179 -0.8460
 2905SOL    HW220349   0.074   3.974   7.051 -0.8670 -3.0351  0.0411
 2906SOL     OW20350   3.201   0.753  14.864 -0.0452  0.5087  0.7425
 2906SOL    HW120351   3.290   0.730  14.890 -0.8365  0.6695  3.6972
 2906SOL    HW220352   3.142   0.697  14.915  0.1747 -1.0121 -0.6829
 2907SOL     OW20353   4.011   0.074   3.001  0.7630  0.3219  0.3273
 2907SOL    HW120354   3.943   0.082   3.067  0.0100 -0.2571 -0.3786
 2907SOL    HW220355   4.093   0.090   3.048  0.3515 -0.0828  1.1616
 2908SOL     OW20356   3.666   0.951   5.793 -0.0675  0.0075 -0.0606
 2908SOL    HW120357   3.712   0.892   5.853  0.2544 -0.6034 -0.9051
 2908SOL    HW220358   3.590   0.894   5.779  0.2718 -0.9248  1.9560
 2909SOL     OW20359   2.594   1.832   8.252 -0.2687 -0.6777 -0.1093
 2909SOL    HW120360   2.562   1.830   8.342  0.2941  0.8116  0.1315
 2909SOL    HW220361   2.528   1.892   8.216  1.4091  1.6536  0.7256
 2910SOL     OW20362   3.323   0.346  13.501 -0.2400 -0.3887  0.2744
 2910SOL    HW120363   3.409   0.341  13.459 -0.3334  3.8906 -0.4591
 2910SOL    HW220364   3.262   0.343  13.427 -1.6632  0.8685  1.4119
 2911SOL     OW20365   1.238   4.141   8.577  0.3470 -0.0935  0.2883
 2911SOL    HW120366   1.275   4.053   8.589  1.1169 -0.1540 -2.5033
 2911SOL    HW220367   1.307   4.187   8.625 -0.0462  1.3943 -0.5885
 2912SOL     OW20368   1.659   1.674  14.011 -0.0558  0.0790  0.3393
 2912SOL    HW120369   1.564   1.684  14.014 -0.1385 -0.8952  0.7949
 2912SOL    HW220370   1.690   1.758  14.045  1.2220 -0.5327  0.7073
 2913SOL     OW20371   0.661   0.244  14.582 -0.5201 -0.7673  0.0628
 2913SOL    HW120372   0.621   0.175  14.530 -0.8756 -0.5147  0.0044
 2913SOL    HW220373   0.753   0.235  14.555 -0.2601 -0.7774  0.9483
 2914SOL     OW20374   4.003   2.073   3.075  0.7233  0.0085  0.3413
 2914SOL    HW120375   4.043   2.127   3.143 -0.2551 -2.4011  2.8580
 2914SOL    HW220376   3.956   2.000   3.116 -0.6518  0.2828 -0.7560
 2915SOL     OW20377   2.275   1.828   9.214  0.0690 -0.5663 -0.2993
 2915SOL    HW120378   2.273   1.734   9.233  3.1824 -1.5157 -4.4947
 2915SOL    HW220379   2.347   1.851   9.272  0.3755  1.2104 -1.3726
 2916SOL     OW20380   0.715   3.613  11.751 -0.2120  0.8646  0.3894
 2916SOL    HW120381   0.641   3.571  11.796 -1.2401 -0.0193 -2.0570
 2916SOL    HW220382   0.726   3.549  11.680 -1.1905 -1.8229  2.6597
 2917SOL     OW20383   4.362   4.036   2.524  0.0518 -0.8473 -0.5850
 2917SOL    HW120384   4.309   4.092   2.581  0.4423 -1.3767  0.2946
 2917SOL    HW220385   4.406   4.105   2.475  1.7813 -1.5426 -0.0064
 2918SOL     OW20386   1.721   3.365   7.758  0.2875 -0.0687 -0.3895
 2918SOL    HW120387   1.721   3.406   7.844  0.2201 -0.6207 -0.1277
 2918SOL    HW220388   1.706   3.273   7.780 -0.0431 -0.3944 -1.9550
 2919SOL     OW20389   2.042   3.915   8.233  0.3792 -0.3483  0.2915
 2919SOL    HW120390   2.064   3.881   8.319 -2.3909 -0.6880  0.8658
 2919SOL    HW220391   2.098   3.874   8.168  1.1202 -2.2829  2.1670
 2920SOL     OW20392   2.608   3.309   5.647  0.1888 -0.0640 -0.3876
 2920SOL    HW120393   2.638   3.371   5.714 -2.5798  0.2433  0.5563
 2920SOL    HW220394   2.584   3.236   5.705 -0.8525  0.1712 -0.5347
 2921SOL     OW20395   1.129   3.799   0.689 -0.0022  0.4896  0.3582
 2921SOL    HW120396   1.213   3.779   0.649 -0.3599  0.3195 -0.3048
 2921SOL    HW220397   1.122   3.894   0.697 -0.3862  0.2958  2.3457
 2922SOL     OW20398   0.893   4.099   7.879 -0.2141 -0.3240 -0.4202
 2922SOL    HW120399   0.969   4.126   7.829  0.3870 -1.0803  0.0960
 2922SOL    HW220400   0.827   4.069   7.816  0.0983 -0.3872 -0.7186
 2923SOL     OW20401   1.056   0.594  14.894 -0.0811  0.5280 -0.1955
 2923SOL    HW120402   1.126   0.571  14.834  0.6337  1.2649  0.3462
 2923SOL    HW220403   0.991   0.625  14.831  1.9409  0.2293 -2.4125
 2924SOL     OW20404   0.902   0.827   8.590 -0.3310 -0.4126 -0.1652
 2924SOL    HW120405   0.929   0.745   8.631  0.8294 -0.3107 -0.7422
 2924SOL    HW220406   0.854   0.862   8.665  1.5178  2.7148 -0.4547
 2925SOL     OW20407   3.172   3.502   2.117  0.2818  0.4021 -0.4977
 2925SOL    HW120408   3.152   3.541   2.032  0.0873  0.5623 -0.3786
 2925SOL    HW220409   3.244   3.445   2.091 -0.0103 -0.8376  1.3491
 2926SOL     OW20410   1.817   1.494   4.768 -0.1581 -0.8766  0.4985
 2926SOL    HW120411   1.835   1.409   4.808  1.0660 -1.0980 -0.5213
 2926SOL    HW220412   1.902   1.538   4.778 -1.4352  1.6474  0.0632
 2927SOL     OW20413   3.558   1.361   6.288  0.6237 -0.5513  0.5876
 2927SOL    HW120414   3.532   1.337   6.199  0.8326  0.9351  0.1163
 2927SOL    HW220415   3.531   1.453   6.298  0.0262 -0.7667  0.9257
 2928SOL     OW20416   4.119   3.863   4.159  0.0975  0.4608 -0.6622
 2928SOL    HW120417   4.087   3.927   4.222 -2.2716 -3.0565  1.7418
 2928SOL    HW220418   4.050   3.797   4.166  0.8287  0.0048  2.1566
 2929SOL     OW20419   2.275   0.069  12.372 -0.1990 -0.0326 -0.1183
 2929SOL    HW120420   2.302   0.080  12.463 -0.4864  1.1162 -0.1738
 2929SOL    HW220421   2.338   0.005  12.337 -0.7983  0.3034 -1.7918
 2930SOL     OW20422   3.081   0.621   5.034  0.1886 -0.2169  0.0367
 2930SOL    HW120423   2.993   0.610   4.997 -0.0433  0.6828  0.3275
 2930SOL    HW220424   3.135   0.585   4.964  1.7257 -0.6789  1.4499
 2931SOL     OW20425   3.581   3.646   8.439  0.0617 -0.2065  0.3561
 2931SOL    HW120426   3.496   3.675   8.472  0.6868  2.7740 -0.6937
 2931SOL    HW220427   3.544   3.578   8.383  0.1293  0.8456 -0.9563
 2932SOL     OW20428   0.680   3.041   5.363 -0.5512  0.1175  0.0530
 2932SOL    HW120429   0.692   3.136   5.366  0.7874 -0.0904  1.0432
 2932SOL    HW220430   0.732   3.013   5.438  2.2259 -0.2472 -2.0146
 2933SOL     OW20431   1.505   0.313   7.123 -0.3075  0.1013  0.1029
 2933SOL    HW120432   1.497   0.249   7.193  2.9990  0.2873  0.6490
 2933SOL    HW220433   1.412   0.328   7.101 -0.8210 -1.4451  1.2758
 2934SOL     OW20434   2.824   1.186   1.626 -0.7904 -0.1940  0.0287
 2934SOL    HW120435   2.792   1.101   1.657  0.5416 -0.4383  0.7581
 2934SOL    HW220436   2.759   1.245   1.662 -1.4959 -1.1546  0.3297
 2935SOL     OW20437   0.217   0.545  15.815 -0.0206  0.1019  0.5279
 2935SOL    HW120438   0.177   0.609  15.757 -1.4715 -0.4635  0.9147
 2935SOL    HW220439   0.137   0.504  15.847  0.7946 -0.4235  1.9085
 2936SOL     OW20440   2.333   2.610   2.659 -0.2027 -0.0754  0.5623
 2936SOL    HW120441   2.374   2.593   2.575 -1.6327 -3.4049  0.5241
 2936SOL    HW220442   2.290   2.694   2.643  1.4447  0.9630  1.6809
 2937SOL     OW20443   0.191   4.199  11.612 -0.1149 -0.4227  0.5667
 2937SOL    HW120444   0.195   4.104  11.609  1.7025 -0.3617  0.8443
 2937SOL    HW220445   0.238   4.229  11.534 -2.2081  0.2578 -0.4388
 2938SOL     OW20446   3.710   1.351  10.823 -0.0257  0.5670  0.2369
 2938SOL    HW120447   3.704   1.409  10.746  0.6187  0.3635  0.0348
 2938SOL    HW220448   3.682   1.414  10.890 -0.9095  0.5420 -0.1079
 2939SOL     OW20449   3.325   4.569   3.049  0.2316 -0.0028 -0.0030
 2939SOL    HW120450   3.294   4.622   2.975  0.9971  0.7457  0.2201
 2939SOL    HW220451   3.266   4.607   3.115 -2.8007 -0.8249 -2.2310
 2940SOL     OW20452   1.738   0.056   7.787  0.3248  0.5484  0.9195
 2940SOL    HW120453   1.690   0.127   7.830 -0.9783  0.4909 -0.4709
 2940SOL    HW220454   1.820   0.105   7.780 -0.6575  1.2768 -4.7651
 2941SOL     OW20455   3.230   2.185  12.371 -0.1584 -0.1113  0.3172
 2941SOL    HW120456   3.210   2.263  12.424 -1.7149  0.0871 -0.5749
 2941SOL    HW220457   3.289   2.147  12.437  1.5275 -0.7506 -1.5632
 2942SOL     OW20458   3.873   1.221   2.316  0.3284  0.4383  0.3139
 2942SOL    HW120459   3.876   1.233   2.221  1.3396  0.8888  0.4013
 2942SOL    HW220460   3.880   1.126   2.306  0.5779  0.4981 -0.0467
 2943SOL     OW20461   4.707   0.834   1.072 -0.3164  0.2827 -0.7711
 2943SOL    HW120462   0.036   0.891   1.036 -2.5887  3.0993 -0.6100
 2943SOL    HW220463   4.655   0.909   1.102 -0.0902 -0.3800  1.2625
 2944SOL     OW20464   3.824   0.774   8.573  0.7299  0.1054  0.3692
 2944SOL    HW120465   3.771   0.726   8.637  0.4198  1.7286  1.3398
 2944SOL    HW220466   3.811   0.863   8.608 -1.0875  0.6057 -1.5577
 2945SOL     OW20467   4.144   0.874   3.981  0.2385 -0.2500  0.4706
 2945SOL    HW120468   4.231   0.909   3.960  0.8463 -0.9592  1.8130
 2945SOL    HW220469   4.109   0.881   3.892 -0.7009 -3.4282  0.5999
 2946SOL     OW20470   2.858   0.238   1.667 -0.4459  0.3251 -0.3907
 2946SOL    HW120471   2.939   0.267   1.709 -1.3336  1.9176  0.2467
 2946SOL    HW220472   2.845   0.294   1.590  2.4070  1.0894 -0.3317
 2947SOL     OW20473   0.428   2.163   2.253 -0.0615 -0.5489  0.1920
 2947SOL    HW120474   0.384   2.245   2.232  2.3104  0.5552 -0.4446
 2947SOL    HW220475   0.454   2.192   2.341  3.1906  2.3511 -1.7048
 2948SOL     OW20476   0.280   2.901  13.968  0.1605  0.2771  0.1936
 2948SOL    HW120477   0.352   2.961  13.987 -0.5078  1.2892 -0.4275
 2948SOL    HW220478   0.220   2.968  13.937  1.4425  0.5178 -1.7677
 2949SOL     OW20479   1.448   2.420  13.298 -0.3564 -0.1878  0.1810
 2949SOL    HW120480   1.469   2.400  13.207 -2.9850 -4.7819  0.5590
 2949SOL    HW220481   1.538   2.431  13.329  0.0990  0.3730 -1.3223
 2950SOL     OW20482   2.613   2.642   7.339  0.4843 -0.2444  0.5065
 2950SOL    HW120483   2.618   2.551   7.308  2.5247  0.2159 -0.5065
 2950SOL    HW220484   2.521   2.646   7.364  0.2321  0.0089 -0.4580
 2951SOL     OW20485   4.627   2.543   4.170  0.3353 -0.3843  0.3474
 2951SOL    HW120486   4.558   2.608   4.180  1.4326  0.6021  1.4672
 2951SOL    HW220487   4.583   2.469   4.212 -0.3615 -1.9575 -3.1561
 2952SOL     OW20488   4.064   0.882   7.562  0.0803 -0.0183 -0.0543
 2952SOL    HW120489   4.070   0.913   7.652 -1.1121  0.8535 -0.2627
 2952SOL    HW220490   4.060   0.787   7.569  0.3076 -0.0712 -0.6217
 2953SOL     OW20491   3.405   2.895   3.758  0.0198  0.1067  0.2736
 2953SOL    HW120492   3.396   2.823   3.696 -1.3957 -0.6077  1.2926
 2953SOL    HW220493   3.434   2.964   3.699 -0.8141 -1.0185 -1.4670
 2954SOL     OW20494   0.289   4.620  16.565 -0.0721 -0.4538 -0.1039
 2954SOL    HW120495   0.363   4.647  16.619  0.5782 -1.6580 -0.3860
 2954SOL    HW220496   0.226   4.661  16.624  0.0484 -0.7090  0.2020
 2955SOL     OW20497   1.198   3.081   9.009 -0.0862  0.2082 -0.1911
 2955SOL    HW120498   1.105   3.074   9.029 -0.1383 -0.0065 -0.5097
 2955SOL    HW220499   1.213   3.175   8.999  1.5671  0.0882  1.2933
 2956SOL     OW20500   0.624   1.858   1.556 -0.3819  0.4061 -0.5386
 2956SOL    HW120501   0.692   1.888   1.496 -0.4189 -0.3614 -0.9612
 2956SOL    HW220502   0.668   1.886   1.637  1.4649 -0.8989 -1.1122
 2957SOL     OW20503   3.628   1.947   1.795 -0.0337 -0.1997  0.1974
 2957SOL    HW120504   3.614   2.028   1.844  0.7694  0.3266 -0.4400
 2957SOL    HW220505   3.690   1.978   1.729  0.2507  0.5406  0.8306
 2958SOL     OW20506   2.259   2.328   3.616  0.1683  0.4120 -0.2700
 2958SOL    HW120507   2.178   2.317   3.665 -0.9870  2.5655 -1.7024
 2958SOL    HW220508   2.321   2.262   3.647  0.9519  0.2431 -2.1785
 2959SOL     OW20509   1.979   2.588   3.902 -0.5050  0.4802  0.0987
 2959SOL    HW120510   1.890   2.621   3.891 -0.2605  1.6524  1.5837
 2959SOL    HW220511   1.961   2.497   3.923 -0.4386  1.0234  2.5163
 2960SOL     OW20512   3.567   0.511   5.787 -0.0050 -0.0615  0.4488
 2960SOL    HW120513   3.578   0.442   5.852 -1.2374 -0.5529  0.1254
 2960SOL    HW220514   3.568   0.472   5.700 -0.0283 -0.4100  0.6041
 2961SOL     OW20515   0.818   0.023   0.668 -0.9763 -0.0556  0.2492
 2961SOL    HW120516   0.809   0.111   0.631 -0.4075 -1.0291 -2.2754
 2961SOL    HW220517   0.736   4.724   0.638 -0.1550 -2.3356  0.8435
 2962SOL     OW20518   4.134   3.975  15.093  0.3673 -0.5279 -0.5080
 2962SOL    HW120519   4.077   4.013  15.160 -2.9652 -0.9322 -3.1549
 2962SOL    HW220520   4.205   3.935  15.144 -0.2149 -0.6285  0.2277
 2963SOL     OW20521   3.762   1.940   9.254  0.2568  0.1848 -0.1753
 2963SOL    HW120522   3.672   1.911   9.246 -0.1090  0.5093  2.6431
 2963SOL    HW220523   3.805   1.855   9.264  2.0914  0.9426 -1.6314
 2964SOL     OW20524   4.639   2.384  12.136  0.5946 -0.4497 -0.5205
 2964SOL    HW120525   4.592   2.392  12.219 -0.6215 -1.3740 -1.1193
 2964SOL    HW220526   4.708   2.321  12.158 -1.5587 -4.3793 -5.0528
 2965SOL     OW20527   1.303   0.914   8.125 -0.0419  0.0012  0.1545
 2965SOL    HW120528   1.323   0.836   8.176  2.3040  1.7540  1.9106
 2965SOL    HW220529   1.309   0.875   8.037 -2.9454 -1.9558  0.8387
 2966SOL     OW20530   3.525   3.870   7.844  0.0756 -0.5102  0.1646
 2966SOL    HW120531   3.454   3.819   7.882 -0.4169  0.4129  0.4625
 2966SOL    HW220532   3.491   3.907   7.762  0.3746 -0.4219  0.0794
 2967SOL     OW20533   0.207   1.056  16.416 -0.2092 -0.5552  0.1899
 2967SOL    HW120534   0.114   1.055  16.440 -0.7664 -1.5258 -1.9812
 2967SOL    HW220535   0.248   1.139  16.441  1.1122 -1.0642 -0.2976
 2968SOL     OW20536   2.586   3.632  17.099 -0.0191 -0.2751 -0.3061
 2968SOL    HW120537   2.675   3.660  17.081  1.1136 -1.2940  3.6924
 2968SOL    HW220538   2.588   3.551  17.048 -1.6804  1.2069 -2.7131
 2969SOL     OW20539   1.311   1.839   5.357 -0.1102  0.2317 -0.3016
 2969SOL    HW120540   1.397   1.813   5.323 -0.4367 -0.7133 -0.4145
 2969SOL    HW220541   1.255   1.780   5.307  0.5995 -2.9272  2.6294
 2970SOL     OW20542   3.989   2.577   1.220  0.4606  0.2475 -0.3673
 2970SOL    HW120543   3.952   2.627   1.293 -1.1098  0.2171 -1.1394
 2970SOL    HW220544   4.080   2.591   1.246 -0.7240  3.0319  2.3011
 2971SOL     OW20545   2.411   3.763  13.688 -0.8205  0.0347 -0.2874
 2971SOL    HW120546   2.384   3.845  13.647 -4.0200 -1.8353 -1.8774
 2971SOL    HW220547   2.410   3.709  13.609 -0.4284  0.8074 -0.8184
 2972SOL     OW20548   2.368   1.711  15.131  0.5128 -0.7073  0.0059
 2972SOL    HW120549   2.462   1.725  15.121 -0.0530  3.0490 -0.0024
 2972SOL    HW220550   2.336   1.801  15.135 -0.1434 -0.9827  1.1019
 2973SOL     OW20551   0.069   4.575   6.350 -0.2587 -0.0589 -0.0006
 2973SOL    HW120552   0.139   4.510   6.358 -0.5168 -0.4997 -1.3884
 2973SOL    HW220553   0.054   4.567   6.256  0.0130  0.0182 -0.0501
 2974SOL     OW20554   3.561   2.281   2.496  0.1017 -0.5830 -0.2513
 2974SOL    HW120555   3.580   2.262   2.404 -1.5506 -1.4727 -0.4017
 2974SOL    HW220556   3.593   2.371   2.498 -1.4521 -0.0686  1.3395
 2975SOL     OW20557   4.401   3.533   2.824 -0.3224  0.0178 -0.2067
 2975SOL    HW120558   4.467   3.602   2.821 -1.4206  1.0573 -0.1139
 2975SOL    HW220559   4.401   3.521   2.919  0.4847  0.2185 -0.1848
 2976SOL     OW20560   0.241   3.393   2.932 -0.2033 -0.6645  0.2793
 2976SOL    HW120561   0.332   3.364   2.925 -0.0565 -0.1516  0.0814
 2976SOL    HW220562   0.227   3.418   3.023  1.0884 -0.5823  0.4650
 2977SOL     OW20563   2.784   1.320   8.805 -0.8704  0.1949 -0.2910
 2977SOL    HW120564   2.794   1.283   8.893  3.3941 -1.1883 -1.3512
 2977SOL    HW220565   2.872   1.308   8.769 -0.2188 -0.1478  1.4031
 2978SOL     OW20566   1.038   1.691  10.944  0.7165 -0.4286  0.0026
 2978SOL    HW120567   1.027   1.733  11.030 -2.0757 -0.3163 -0.4059
 2978SOL    HW220568   1.100   1.622  10.971  0.2023 -0.2767  1.5566
 2979SOL     OW20569   0.682   2.629   4.359  0.0385 -0.0903 -0.5003
 2979SOL    HW120570   0.767   2.617   4.316 -0.9056 -0.3666 -2.2625
 2979SOL    HW220571   0.629   2.568   4.310 -0.3919 -0.0922 -0.0352
 2980SOL     OW20572   1.895   2.028   7.627  1.1090 -0.6984  0.0204
 2980SOL    HW120573   1.919   2.092   7.695  1.5970 -1.5352  0.6328
 2980SOL    HW220574   1.852   1.959   7.677  1.0244  0.1632  1.1672
 2981SOL     OW20575   4.288   3.381  10.184  0.7929 -0.3696  0.2188
 2981SOL    HW120576   4.332   3.406  10.266  1.5455 -1.5673  0.1854
 2981SOL    HW220577   4.355   3.403  10.119 -0.5887 -2.3780 -1.9103
 2982SOL     OW20578   1.014   2.415   6.167  0.1089  0.0171  0.8860
 2982SOL    HW120579   0.979   2.503   6.185 -0.6884 -0.1350  0.0629
 2982SOL    HW220580   1.049   2.436   6.081  1.7491 -0.8299  1.3457
 2983SOL     OW20581   3.136   3.223   6.023  0.3277 -0.4397 -0.5811
 2983SOL    HW120582   3.087   3.277   6.085 -0.6548 -2.0177 -0.0045
 2983SOL    HW220583   3.199   3.287   5.991 -0.4462 -0.0909 -1.4382
 2984SOL     OW20584   3.294   0.811   6.295 -0.1179 -0.0230 -0.2080
 2984SOL    HW120585   3.349   0.740   6.328 -0.9189 -0.9742 -0.9231
 2984SOL    HW220586   3.211   0.797   6.340 -0.4862  0.7459 -0.6400
 2985SOL     OW20587   4.471   3.390   1.814  0.0830 -0.4374 -0.0921
 2985SOL    HW120588   4.426   3.316   1.853 -0.1904  1.2392  2.8136
 2985SOL    HW220589   4.482   3.362   1.724  0.5347 -0.8405  0.0896
 2986SOL     OW20590   1.542   2.780   1.574 -0.0657 -0.4146 -0.1164
 2986SOL    HW120591   1.490   2.763   1.496  1.6696  2.5460 -1.9071
 2986SOL    HW220592   1.565   2.873   1.572  0.5381 -0.6013 -1.9579
 2987SOL     OW20593   0.444   2.893  16.025  0.4889  0.2483 -0.1716
 2987SOL    HW120594   0.494   2.912  16.105  3.6386  0.0806 -2.1114
 2987SOL    HW220595   0.473   2.963  15.966  2.6582 -0.3778  0.1638
 2988SOL     OW20596   3.990   0.906   1.877  0.2790  0.5911 -0.2053
 2988SOL    HW120597   3.915   0.940   1.925  0.2262  0.2516 -0.0443
 2988SOL    HW220598   4.061   0.957   1.916 -0.2950  2.4506 -1.6056
 2989SOL     OW20599   4.517   0.328   4.515  0.0542 -0.4957  0.1570
 2989SOL    HW120600   4.604   0.289   4.514  0.6427  0.8969 -1.9125
 2989SOL    HW220601   4.526   0.389   4.588  0.2425 -0.9191  0.4900
 2990SOL     OW20602   3.930   4.183   7.901  0.6742  0.0258 -0.3311
 2990SOL    HW120603   3.836   4.168   7.892  0.7058 -1.2820  1.6327
 2990SOL    HW220604   3.944   4.162   7.993  0.7145 -1.0464 -0.5775
 2991SOL     OW20605   1.448   3.450   8.187 -0.1904 -0.0637 -0.0070
 2991SOL    HW120606   1.395   3.401   8.250 -0.1556 -1.3196 -0.9590
 2991SOL    HW220607   1.383   3.484   8.125  0.4195 -1.9335 -1.6439
 2992SOL     OW20608   4.101   1.328  16.812 -0.0836 -0.4464 -0.5011
 2992SOL    HW120609   4.040   1.364  16.875 -0.5708 -0.0971 -1.1771
 2992SOL    HW220610   4.144   1.409  16.784 -1.2663  0.4734  0.4071
 2993SOL     OW20611   4.136   0.498   3.545 -0.3063 -0.0516  0.0302
 2993SOL    HW120612   4.045   0.481   3.521 -0.0371  0.9968 -1.7415
 2993SOL    HW220613   4.174   0.526   3.461  2.1694 -0.4102  1.0341
 2994SOL     OW20614   0.634   2.967  12.904 -0.1585  0.0985 -0.1691
 2994SOL    HW120615   0.580   2.961  12.983  0.5071 -1.9560  0.1079
 2994SOL    HW220616   0.694   3.038  12.930  0.1591  0.0222 -0.6965
 2995SOL     OW20617   2.912   2.897   2.561  0.4371  0.1526  0.4847
 2995SOL    HW120618   2.832   2.949   2.561  1.0060  1.0345  1.8358
 2995SOL    HW220619   2.885   2.824   2.617  0.8788  0.4587  1.0980
 2996SOL     OW20620   3.628   4.342   5.195  0.2659  0.2795 -0.2338
 2996SOL    HW120621   3.548   4.395   5.195 -0.3372 -0.6160 -0.9243
 2996SOL    HW220622   3.688   4.394   5.141 -0.0354 -1.2965 -2.1009
 2997SOL     OW20623   0.888   0.964   5.785 -0.1118 -1.1840 -0.1526
 2997SOL    HW120624   0.945   0.973   5.861  0.4666 -0.1773 -0.6968
 2997SOL    HW220625   0.869   1.057   5.772 -1.1442 -1.4884 -0.7902
 2998SOL     OW20626   1.388   2.474   6.144  0.3210  0.1631 -0.0708
 2998SOL    HW120627   1.311   2.490   6.090  0.7117 -0.8401 -0.9135
 2998SOL    HW220628   1.452   2.533   6.104 -0.3137  0.0739 -1.1977
 2999SOL     OW20629   0.741   1.850   7.832 -0.2938 -0.5455  0.1207
 2999SOL    HW120630   0.760   1.774   7.777  3.0404  0.1068  0.4101
 2999SOL    HW220631   0.670   1.825   7.891 -1.0029 -4.4320 -2.3522
 3000SOL     OW20632   0.260   1.895   3.772 -0.2056  0.1474 -0.4318
 3000SOL    HW120633   0.236   1.864   3.685  0.0583  1.9200 -1.1406
 3000SOL    HW220634   0.197   1.847   3.825  0.9100 -1.5104 -0.6142
 3001SOL     OW20635   3.300   3.487   0.084 -0.0379  0.1336  0.2032
 3001SOL    HW120636   3.288   3.396   0.111  1.2060  0.2682  1.2141
 3001SOL    HW220637   3.308   3.477  17.742  1.3914  1.5178  0.1697
 3002SOL     OW20638   4.720   2.044   3.519  0.6297 -0.2331 -0.6162
 3002SOL    HW120639   0.023   2.120   3.559 -0.6885  0.5073 -0.6416
 3002SOL    HW220640   0.063   2.006   3.490  2.4213  1.9610  1.5467
 3003SOL     OW20641   4.117   1.857   6.782 -0.1849  0.1230  0.1982
 3003SOL    HW120642   4.137   1.815   6.698 -0.0911  2.2896 -0.8832
 3003SOL    HW220643   4.203   1.857   6.823 -0.8310  1.6592  1.5271
 3004SOL     OW20644   1.425   4.091   5.252 -0.0167 -0.0510 -0.3951
 3004SOL    HW120645   1.375   4.075   5.332 -0.9127  2.0287 -0.5308
 3004SOL    HW220646   1.355   4.112   5.190 -1.6974 -1.3478  1.0695
 3005SOL     OW20647   3.433   3.923   4.846  0.0983  0.1553 -0.2303
 3005SOL    HW120648   3.358   3.982   4.854 -0.2358 -0.3278  0.2155
 3005SOL    HW220649   3.388   3.841   4.829  1.3474 -0.6600  0.3378
 3006SOL     OW20650   4.582   1.296   7.999  0.4041  0.6233  0.1137
 3006SOL    HW120651   4.655   1.260   8.050 -1.8011 -1.1314  2.0330
 3006SOL    HW220652   4.628   1.345   7.931  0.0067  1.9065  0.7800
 3007SOL     OW20653   3.589   2.156   3.645 -0.0901  0.1530 -0.1784
 3007SOL    HW120654   3.555   2.212   3.574 -0.4002  0.7902  0.4685
 3007SOL    HW220655   3.511   2.104   3.664  0.0289  0.9962  2.5974
 3008SOL     OW20656   1.757   3.715   2.263  0.2550 -0.8304  0.9218
 3008SOL    HW120657   1.752   3.720   2.358 -3.1702  3.8793  0.4991
 3008SOL    HW220658   1.839   3.752   2.232 -1.8219  2.9551  0.0045
 3009SOL     OW20659   1.559   3.103   2.276  0.0332 -0.2011  0.2441
 3009SOL    HW120660   1.643   3.074   2.242 -0.3340 -0.8418 -0.1342
 3009SOL    HW220661   1.554   3.037   2.345 -1.1404  0.5623  0.8947
 3010SOL     OW20662   0.653   1.332   3.428 -0.6123 -0.6326  0.1460
 3010SOL    HW120663   0.601   1.271   3.376 -0.0986 -1.1648  0.2557
 3010SOL    HW220664   0.597   1.340   3.505  0.0836 -1.0664  0.7012
 3011SOL     OW20665   3.289   1.661   1.918  0.0693 -0.3772 -0.0982
 3011SOL    HW120666   3.305   1.724   1.988 -1.8135 -2.0766  1.8645
 3011SOL    HW220667   3.230   1.707   1.859 -1.4655 -2.2314 -0.0356
 3012SOL     OW20668   2.730   3.147  17.494 -0.5838 -0.1540 -1.0628
 3012SOL    HW120669   2.733   3.084  17.422 -0.1926  0.4241 -1.5581
 3012SOL    HW220670   2.804   3.124  17.550 -2.4859 -2.4245  0.5162
 3013SOL     OW20671   1.687   0.939   3.918 -0.2529  0.4038 -0.2833
 3013SOL    HW120672   1.725   0.995   3.851 -0.3424 -0.3362 -0.9515
 3013SOL    HW220673   1.749   0.943   3.991  1.1870 -3.4850 -1.3382
 3014SOL     OW20674   1.549   3.331   4.144 -0.2396 -0.1025  0.2741
 3014SOL    HW120675   1.488   3.279   4.196  0.6729 -0.2849  1.1881
 3014SOL    HW220676   1.577   3.386   4.218  4.5948  0.0685 -1.6951
 3015SOL     OW20677   3.325   1.789  12.078  0.3190 -0.2209 -0.3580
 3015SOL    HW120678   3.414   1.821  12.092 -0.4320  1.5115  0.4367
 3015SOL    HW220679   3.278   1.872  12.088 -0.1376 -0.3484 -1.4796
 3016SOL     OW20680   3.237   0.625   2.195 -0.3997  0.2439  0.2178
 3016SOL    HW120681   3.283   0.568   2.134 -0.6295 -2.3393  2.4568
 3016SOL    HW220682   3.290   0.704   2.183 -1.0087  0.4081 -1.3131
 3017SOL     OW20683   1.817   0.966   4.601  0.0534 -0.1591 -0.0212
 3017SOL    HW120684   1.765   1.042   4.630 -0.7180 -0.1642 -1.3996
 3017SOL    HW220685   1.857   0.997   4.521  0.0128 -1.7213 -0.6443
 3018SOL     OW20686   2.609   2.152   5.929  0.3573  0.5555  0.4476
 3018SOL    HW120687   2.524   2.194   5.926  0.0945 -0.1886 -1.9046
 3018SOL    HW220688   2.580   2.086   5.992  2.2487 -1.8694 -1.1823
 3019SOL     OW20689   2.088   0.276   1.091  0.3800 -0.6850  0.0480
 3019SOL    HW120690   2.052   0.357   1.127  1.1606 -1.3931  2.4153
 3019SOL    HW220691   2.122   0.303   1.006 -1.5158  0.6877 -0.2734
 3020SOL     OW20692   3.119   4.075   1.724  0.0273  0.4211  0.0325
 3020SOL    HW120693   3.031   4.079   1.685  0.8556 -1.5914 -2.0272
 3020SOL    HW220694   3.143   3.991   1.685  1.0478  0.3746  0.7694
 3021SOL     OW20695   1.877   2.640  10.524 -0.4217 -0.0727  0.4607
 3021SOL    HW120696   1.933   2.649  10.447  0.1098 -0.3201  0.8131
 3021SOL    HW220697   1.920   2.703  10.582 -0.2760  0.7443 -0.5418
 3022SOL     OW20698   2.328   1.532  14.690 -0.5403  0.3528  0.3172
 3022SOL    HW120699   2.414   1.560  14.720 -0.8092  1.9908 -0.4533
 3022SOL    HW220700   2.274   1.549  14.767 -1.2631  1.7828 -0.5102
 3023SOL     OW20701   3.497   1.595   5.418  0.5899 -0.1213  0.3652
 3023SOL    HW120702   3.484   1.669   5.476  2.1524  0.1371  0.3662
 3023SOL    HW220703   3.409   1.557   5.410  0.5511  0.1811 -0.7249
 3024SOL     OW20704   3.522   2.406   7.982  0.3409 -0.0561 -0.4424
 3024SOL    HW120705   3.546   2.496   8.004 -0.7127 -0.3594  1.9423
 3024SOL    HW220706   3.473   2.369   8.056  2.2254 -2.6960 -0.4986
 3025SOL     OW20707   3.811   3.622   7.299  0.4280  0.2099 -0.1778
 3025SOL    HW120708   3.724   3.584   7.315  0.6330 -0.5651 -0.9287
 3025SOL    HW220709   3.779   3.702   7.257  0.2647 -0.2698 -0.9710
 3026SOL     OW20710   4.601   4.671   4.754  0.0165 -0.3660  0.7575
 3026SOL    HW120711   4.582   4.695   4.844 -0.5105 -1.0450  0.8227
 3026SOL    HW220712   4.584   4.577   4.745 -0.1119 -0.3039  0.3189
 3027SOL     OW20713   2.600   4.166  16.687  0.1424 -0.1194  0.0536
 3027SOL    HW120714   2.683   4.201  16.721  1.0318 -0.2448 -2.0079
 3027SOL    HW220715   2.546   4.211  16.752  0.3481 -0.7176  0.6365
 3028SOL     OW20716   0.331   0.609   3.251 -0.0482  0.1637  0.3005
 3028SOL    HW120717   0.347   0.519   3.281 -1.3302 -0.7873 -1.8824
 3028SOL    HW220718   0.237   0.614   3.234  0.0563 -0.0352 -0.3159
 3029SOL     OW20719   3.345   0.690   6.598 -0.2807 -0.0053 -0.2745
 3029SOL    HW120720   3.345   0.786   6.596 -1.8374 -0.0150 -0.3018
 3029SOL    HW220721   3.306   0.669   6.682  2.2116  0.8256  1.1080
 3030SOL     OW20722   0.596   0.914  17.301 -0.2784  0.0526  0.3783
 3030SOL    HW120723   0.688   0.907  17.274 -0.8562 -0.6917 -1.3526
 3030SOL    HW220724   0.543   0.864  17.239 -0.0570 -0.7923  0.8643
 3031SOL     OW20725   0.750   0.555   2.221 -0.2506  0.1896  0.0474
 3031SOL    HW120726   0.838   0.590   2.211 -0.2123  0.0611 -0.0744
 3031SOL    HW220727   0.772   0.465   2.245  1.3770  0.4521 -0.4989
 3032SOL     OW20728   2.928   2.261   2.775 -0.1182 -0.2631 -0.1418
 3032SOL    HW120729   2.856   2.220   2.824  0.3800 -1.8637 -0.7499
 3032SOL    HW220730   3.008   2.268   2.828  0.3551 -0.5042 -0.8328
 3033SOL     OW20731   3.647   1.397   5.546  0.6787 -0.2765  0.4201
 3033SOL    HW120732   3.709   1.384   5.474  1.4327 -0.9198  1.1845
 3033SOL    HW220733   3.597   1.467   5.503  2.5599  1.8272  1.6878
 3034SOL     OW20734   0.911   3.181  17.096 -0.0388  0.3695 -0.1908
 3034SOL    HW120735   0.827   3.204  17.136  1.5754  3.6344  1.3235
 3034SOL    HW220736   0.958   3.147  17.171  3.0222  0.9637 -1.8411
 3035SOL     OW20737   2.994   2.799   9.081 -0.9114 -0.2825  0.3278
 3035SOL    HW120738   2.951   2.714   9.089 -0.0476 -0.6247  1.2809
 3035SOL    HW220739   2.947   2.836   9.006  0.1325  0.3105 -0.0406
 3036SOL     OW20740   4.343   2.523   2.219 -0.5800 -0.1923  0.0837
 3036SOL    HW120741   4.391   2.566   2.289 -2.1515  2.0049 -0.2005
 3036SOL    HW220742   4.255   2.514   2.255 -0.9157 -2.2717 -1.2263
 3037SOL     OW20743   3.676   1.220   8.554 -0.0604 -0.2197 -0.1249
 3037SOL    HW120744   3.714   1.185   8.474  0.1190 -1.2335  0.4123
 3037SOL    HW220745   3.583   1.226   8.534 -0.1633  1.4447  0.8051
 3038SOL     OW20746   1.827   1.257   1.285  0.1841 -0.4239  0.1144
 3038SOL    HW120747   1.833   1.191   1.216  0.5470  1.3394 -1.5402
 3038SOL    HW220748   1.736   1.246   1.309  0.0794 -0.5734 -0.3413
 3039SOL     OW20749   1.083   0.950  13.342  0.3745  0.0559 -0.1891
 3039SOL    HW120750   1.060   0.867  13.382 -2.3517  1.0954  0.4281
 3039SOL    HW220751   1.005   1.004  13.326  1.3533  1.6515  0.3486
 3040SOL     OW20752   3.893   0.630   6.702  0.9595  0.0909  0.6483
 3040SOL    HW120753   3.935   0.655   6.620  0.2017 -0.8302 -0.0187
 3040SOL    HW220754   3.911   0.703   6.762 -0.2386  0.3231  0.7179
 3041SOL     OW20755   1.090   3.118   2.031 -0.0328 -0.0633  0.4762
 3041SOL    HW120756   1.013   3.170   2.054  0.5135 -0.1147  2.4373
 3041SOL    HW220757   1.161   3.164   2.077 -0.9599 -0.2976  2.1323
 3042SOL     OW20758   1.827   4.432  13.485  0.1155 -0.4307  0.0183
 3042SOL    HW120759   1.769   4.432  13.409  0.5556 -1.9471 -0.3096
 3042SOL    HW220760   1.796   4.515  13.524  0.2937 -0.5597  0.4381
 3043SOL     OW20761   0.161   3.443   3.185 -0.5401 -0.3180  0.1874
 3043SOL    HW120762   0.080   3.480   3.220  0.6416  2.1605  0.2893
 3043SOL    HW220763   0.137   3.351   3.189  0.8988 -0.6809  0.1600
 3044SOL     OW20764   1.472   0.558   8.324  0.0411 -0.2667 -0.3238
 3044SOL    HW120765   1.561   0.537   8.351  0.0549 -1.8763 -1.5943
 3044SOL    HW220766   1.460   0.514   8.240  0.4200  0.7603 -0.9163
 3045SOL     OW20767   4.737   0.155  14.597 -0.1498  0.3731 -0.3161
 3045SOL    HW120768   4.736   0.232  14.653  2.4332 -0.0540  0.3514
 3045SOL    HW220769   4.730   0.080  14.656 -1.3066  0.3562 -0.4783
 3046SOL     OW20770   1.367   3.097  16.171  0.0869  0.4088 -0.4032
 3046SOL    HW120771   1.333   3.185  16.187 -0.4037  0.4660 -1.7548
 3046SOL    HW220772   1.449   3.122  16.129  0.3827  0.2516  0.0713
 3047SOL     OW20773   3.236   3.130   9.091  0.6445  0.6845 -0.3992
 3047SOL    HW120774   3.263   3.079   9.167 -0.6002 -0.1298 -0.4927
 3047SOL    HW220775   3.227   3.054   9.033  0.5492 -0.0186  0.5400
 3048SOL     OW20776   0.318   0.612  17.651  0.0746  0.1406  0.0851
 3048SOL    HW120777   0.227   0.637  17.661  0.1714  1.2284 -1.8904
 3048SOL    HW220778   0.325   0.590  17.558 -2.2572 -1.4819  0.3016
 3049SOL     OW20779   2.943   1.180   8.141 -0.3918 -0.3270 -0.3665
 3049SOL    HW120780   3.009   1.134   8.089 -1.2143  1.2953 -2.8673
 3049SOL    HW220781   2.866   1.128   8.119 -0.3361 -0.6647  0.2697
 3050SOL     OW20782   3.635   0.902  13.050 -0.2063 -0.8054 -0.1919
 3050SOL    HW120783   3.560   0.848  13.076  1.4957 -3.1678 -0.1624
 3050SOL    HW220784   3.682   0.843  12.992 -0.1858 -1.7502  0.7783
 3051SOL     OW20785   2.202   3.186   2.657 -0.4643 -0.1251  0.1444
 3051SOL    HW120786   2.155   3.175   2.740 -1.6110  0.6315 -0.4028
 3051SOL    HW220787   2.222   3.279   2.665  2.0376 -0.3999 -2.8894
 3052SOL     OW20788   2.283   2.897  14.057  0.0551 -0.1059  0.2575
 3052SOL    HW120789   2.204   2.848  14.078 -0.0885  0.3544  0.7719
 3052SOL    HW220790   2.282   2.891  13.961  0.8318 -0.0949  0.2461
 3053SOL     OW20791   2.071   4.184   5.910  0.4722  0.0280 -0.2421
 3053SOL    HW120792   2.016   4.116   5.870 -0.0994 -0.5647  1.5306
 3053SOL    HW220793   2.117   4.216   5.833 -0.2177  0.2736 -0.5594
 3054SOL     OW20794   2.572   1.539   6.258  0.2478 -0.3940  0.5671
 3054SOL    HW120795   2.622   1.499   6.330  1.3461 -0.1213 -0.0505
 3054SOL    HW220796   2.561   1.632   6.279 -1.7373 -0.2583 -1.0828
 3055SOL     OW20797   3.335   3.451  10.541  0.0851  0.3956 -0.3127
 3055SOL    HW120798   3.249   3.460  10.581  0.6988  1.4268  0.7570
 3055SOL    HW220799   3.365   3.380  10.599  1.7717  0.9365 -0.5224
 3056SOL     OW20800   2.343   2.165   8.293 -0.2203  0.4008 -0.1445
 3056SOL    HW120801   2.375   2.255   8.302 -0.2816  0.3551  0.5129
 3056SOL    HW220802   2.365   2.149   8.201  0.2607  0.1204  0.0174
 3057SOL     OW20803   1.218   4.053   8.169  0.2617  0.2366 -0.2653
 3057SOL    HW120804   1.220   4.114   8.095  0.3404  0.8633  0.2555
 3057SOL    HW220805   1.261   3.980   8.124  1.9211  0.4307  1.0211
 3058SOL     OW20806   2.363   1.398  15.647  0.3094 -0.0998  0.0355
 3058SOL    HW120807   2.458   1.412  15.642  0.5073 -1.8637 -1.0065
 3058SOL    HW220808   2.341   1.479  15.693 -0.0118 -0.2297  0.1126
 3059SOL     OW20809   3.327   1.577   5.758 -0.0019 -0.4587 -0.1883
 3059SOL    HW120810   3.419   1.603   5.763 -0.3888  0.7627  0.6186
 3059SOL    HW220811   3.301   1.629   5.681 -1.2949 -1.9189 -0.7494
 3060SOL     OW20812   3.150   1.134   6.048 -0.4128 -0.2108 -0.1767
 3060SOL    HW120813   3.184   1.067   5.988  0.2753  0.5661 -0.6720
 3060SOL    HW220814   3.091   1.182   5.989  1.8508  3.7083  0.7333
 3061SOL     OW20815   0.019   0.169   8.842  0.5321  0.0947  0.1205
 3061SOL    HW120816   0.011   0.243   8.781 -3.1660  0.5404  1.1347
 3061SOL    HW220817   0.065   0.107   8.784 -0.1334 -1.4039  1.2006
 3062SOL     OW20818   3.930   1.741  12.579  0.6789 -0.9010 -0.2690
 3062SOL    HW120819   3.851   1.694  12.603  0.3239 -1.2329 -2.1034
 3062SOL    HW220820   3.944   1.797  12.655  1.1743 -2.1425  0.5567
 3063SOL     OW20821   3.251   3.379   7.209 -0.2756  0.0883 -0.4458
 3063SOL    HW120822   3.211   3.450   7.258  2.0148  0.4185  0.9113
 3063SOL    HW220823   3.223   3.418   7.126  0.1568 -0.5671 -0.8977
 3064SOL     OW20824   4.048   4.559   6.483  0.2838 -0.1131  0.3254
 3064SOL    HW120825   4.027   4.499   6.555  1.5380  0.0478  0.8210
 3064SOL    HW220826   4.079   4.638   6.528 -0.3795  1.5408 -2.1224
 3065SOL     OW20827   4.502   3.675   8.538 -0.0180 -0.2436  0.4740
 3065SOL    HW120828   4.425   3.686   8.483  1.0248 -2.5710 -1.4933
 3065SOL    HW220829   4.569   3.717   8.485 -1.7027  2.2961  0.3681
 3066SOL     OW20830   0.053   1.976  15.764 -0.3466 -0.2945  0.3707
 3066SOL    HW120831   0.061   1.898  15.818 -1.7416 -1.9359 -1.7733
 3066SOL    HW220832   0.037   1.942  15.676 -0.3012 -0.3667  0.3903
 3067SOL     OW20833   3.920   2.745   7.145 -0.0968  0.5754  0.3312
 3067SOL    HW120834   3.950   2.655   7.160 -1.8688 -0.1912 -0.7828
 3067SOL    HW220835   3.973   2.754   7.066  1.4773  2.6885  1.6247
 3068SOL     OW20836   1.256   1.255   8.847 -0.2530  0.3835 -0.0341
 3068SOL    HW120837   1.329   1.268   8.787 -1.6478 -1.4857 -2.1745
 3068SOL    HW220838   1.257   1.160   8.861 -1.0788  0.0691 -2.1032
 3069SOL     OW20839   0.328   2.697   7.893 -0.3415 -0.1652 -0.3818
 3069SOL    HW120840   0.323   2.602   7.905 -0.4919 -0.2224 -0.8827
 3069SOL    HW220841   0.366   2.735   7.972  0.4172 -2.5167  0.3762
 3070SOL     OW20842   2.367   3.762   2.605  0.6924  0.8539 -0.4224
 3070SOL    HW120843   2.415   3.786   2.526  2.0831  1.4843  0.6076
 3070SOL    HW220844   2.305   3.833   2.624  1.4661  1.3354  0.2843
 3071SOL     OW20845   4.088   2.235   7.965  0.7913  0.0231  0.2147
 3071SOL    HW120846   4.177   2.200   7.969  0.5632 -0.5505  0.2184
 3071SOL    HW220847   4.080   2.250   7.871  0.3896 -1.9019 -0.0570
 3072SOL     OW20848   0.948   4.348   2.024 -0.3523  0.7040 -0.4784
 3072SOL    HW120849   0.918   4.306   2.104  1.0215 -0.3492 -0.5292
 3072SOL    HW220850   0.952   4.443   2.038  1.6815  0.1348  2.7135
 3073SOL     OW20851   0.254   4.602   6.754 -0.3490  0.1481 -0.0106
 3073SOL    HW120852   0.292   4.677   6.801 -2.0287  1.0837 -0.1399
 3073SOL    HW220853   0.281   4.521   6.796  0.7538  1.0759  1.0589
 3074SOL     OW20854   0.133   4.546  10.329 -0.0331  0.6123  0.4276
 3074SOL    HW120855   0.194   4.477  10.354  0.6887  0.5561 -1.4921
 3074SOL    HW220856   0.076   4.541  10.405 -0.5681  0.1632 -0.0032
 3075SOL     OW20857   1.102   0.540   8.658  0.3666  0.0589  0.0249
 3075SOL    HW120858   1.159   0.475   8.698  1.1694  1.1792  0.7130
 3075SOL    HW220859   1.158   0.560   8.583 -0.9923  0.8953 -0.7704
 3076SOL     OW20860   0.058   0.309   0.900 -0.0887 -0.2097  0.1001
 3076SOL    HW120861   0.041   0.401   0.922  2.4909  0.2546  0.0759
 3076SOL    HW220862   0.145   0.320   0.862  0.8749 -0.2019  2.2869
 3077SOL     OW20863   2.293   2.427   5.627 -0.1679  0.0296 -0.2059
 3077SOL    HW120864   2.232   2.493   5.662  0.9842 -0.2572  2.3858
 3077SOL    HW220865   2.315   2.472   5.546  3.1598  1.2431  1.3708
 3078SOL     OW20866   4.223   0.669   7.285  0.3474  0.0125 -0.0736
 3078SOL    HW120867   4.187   0.705   7.203 -0.1466 -1.2284 -0.3930
 3078SOL    HW220868   4.185   0.582   7.277 -1.9359  0.9483  0.3824
 3079SOL     OW20869   1.792   0.079   1.219 -0.0788  0.3832 -0.3727
 3079SOL    HW120870   1.788   0.008   1.283  2.3008  0.7383  0.1722
 3079SOL    HW220871   1.876   0.058   1.178  0.1656 -2.6316  1.6629
 3080SOL     OW20872   4.518   2.031   2.434 -0.3453  0.1254 -0.1487
 3080SOL    HW120873   4.554   2.118   2.416  0.6796  0.0426  1.5232
 3080SOL    HW220874   4.519   2.003   2.342 -2.2197  0.4010 -0.2395
 3081SOL     OW20875   3.607   2.287   7.765  0.3853 -0.1026  0.0432
 3081SOL    HW120876   3.560   2.309   7.845  0.7733  0.9483 -0.0167
 3081SOL    HW220877   3.570   2.201   7.746  1.9966 -0.9493  0.7572
 3082SOL     OW20878   0.961   4.337   1.603 -0.1970  0.4505  0.4563
 3082SOL    HW120879   1.024   4.394   1.560  1.0409 -0.5699  0.9200
 3082SOL    HW220880   0.908   4.402   1.648 -1.6635  1.0073 -2.0853
 3083SOL     OW20881   3.124   2.504  10.400 -0.2018 -0.2498 -0.0282
 3083SOL    HW120882   3.079   2.545  10.327 -2.6557 -2.7846  0.0860
 3083SOL    HW220883   3.215   2.525  10.381 -0.7029  0.3693 -1.7519
 3084SOL     OW20884   3.882   3.683   4.224  0.1929  0.2802  0.0363
 3084SOL    HW120885   3.883   3.599   4.177  1.1451  1.0795 -1.3578
 3084SOL    HW220886   3.913   3.658   4.311  1.4460 -0.4761 -0.6154
 3085SOL     OW20887   0.810   2.828  10.340 -0.5641  0.1087 -0.3993
 3085SOL    HW120888   0.828   2.837  10.433 -0.1301  0.4506 -0.5161
 3085SOL    HW220889   0.763   2.745  10.328 -0.6799  0.6836 -4.0709
 3086SOL     OW20890   2.772   2.754  13.261  0.6540  0.3610  0.3835
 3086SOL    HW120891   2.730   2.833  13.228 -0.7495 -1.2778 -1.8277
 3086SOL    HW220892   2.865   2.773  13.252  0.6206  0.4507  0.2259
 3087SOL     OW20893   2.447   4.459   0.171  0.2797 -0.3036  0.6756
 3087SOL    HW120894   2.455   4.422   0.083 -0.4539 -0.9366  0.8702
 3087SOL    HW220895   2.394   4.393   0.217 -1.2182  1.9573  2.1955
 3088SOL     OW20896   0.603   3.409   3.123 -0.2055  0.5502  0.0867
 3088SOL    HW120897   0.691   3.428   3.090 -0.1002  2.3036  1.3923
 3088SOL    HW220898   0.617   3.422   3.217 -2.2888 -0.2074  0.4855
 3089SOL     OW20899   2.888   4.460  16.976  0.7859 -0.2998  0.0291
 3089SOL    HW120900   2.963   4.458  17.035  0.3752  1.2768  0.5861
 3089SOL    HW220901   2.836   4.402  17.032 -0.3782  1.7342  1.0382
 3090SOL     OW20902   3.966   1.945   2.071  0.1561  0.1027 -0.6917
 3090SOL    HW120903   3.968   2.040   2.072 -2.3025  0.1162  1.7660
 3090SOL    HW220904   4.061   1.929   2.074  0.2512  0.2381 -2.8990
 3091SOL     OW20905   4.716   1.680   1.630  0.0213 -0.1610 -0.0349
 3091SOL    HW120906   4.712   1.621   1.555  0.5325  0.8331 -0.8486
 3091SOL    HW220907   0.020   1.626   1.696 -1.2338  1.8171  2.3916
 3092SOL     OW20908   3.526   1.917   3.888 -0.2693 -0.5835 -0.5544
 3092SOL    HW120909   3.461   1.866   3.935  0.2236 -0.7153 -0.0201
 3092SOL    HW220910   3.472   1.968   3.827 -1.0938 -1.4561 -0.5365
 3093SOL     OW20911   3.501   2.080   5.792 -0.0212 -0.0134 -0.4407
 3093SOL    HW120912   3.480   2.153   5.850 -2.0136  0.4165 -1.6988
 3093SOL    HW220913   3.417   2.034   5.791 -0.2416  0.4170 -2.1197
 3094SOL     OW20914   2.362   0.167   2.467  0.3938 -0.6520 -0.0550
 3094SOL    HW120915   2.343   0.234   2.532  0.7325  0.0630 -0.6875
 3094SOL    HW220916   2.301   0.101   2.498  0.9459 -0.3098  1.7693
 3095SOL     OW20917   4.164   3.315   6.133  0.6347  0.2136  0.0422
 3095SOL    HW120918   4.212   3.325   6.215  0.2756 -3.2229  0.6895
 3095SOL    HW220919   4.103   3.245   6.155  1.4184  0.3497  2.6601
 3096SOL     OW20920   1.781   2.486   2.927  0.1211  0.3524 -0.3469
 3096SOL    HW120921   1.871   2.459   2.941 -1.4037 -4.1499  0.6606
 3096SOL    HW220922   1.731   2.431   2.867 -1.6441  1.7572 -0.1595
 3097SOL     OW20923   1.473   0.883   1.421 -0.2316 -0.0800 -0.3218
 3097SOL    HW120924   1.481   0.797   1.380 -1.3406  0.3167 -1.3746
 3097SOL    HW220925   1.540   0.926   1.366 -2.4169  2.0081 -1.3654
 3098SOL     OW20926   1.024   2.469   4.541 -0.1561 -0.4890 -0.1994
 3098SOL    HW120927   1.076   2.444   4.617 -0.4514 -0.2785  0.0726
 3098SOL    HW220928   0.943   2.424   4.564  0.0005  0.4188  2.1186
 3099SOL     OW20929   4.289   1.375  16.493 -0.1395 -0.3065  0.4796
 3099SOL    HW120930   4.204   1.401  16.456 -0.1405  1.4823  1.7341
 3099SOL    HW220931   4.272   1.289  16.532  0.4244 -0.0659  1.2648
 3100SOL     OW20932   3.851   1.504   5.169 -0.0119  0.3735  0.8103
 3100SOL    HW120933   3.762   1.505   5.136  1.2463  1.5871 -2.5595
 3100SOL    HW220934   3.838   1.444   5.243  0.1997 -1.3350 -0.5473
 3101SOL     OW20935   3.798   1.336   6.394 -1.1342  0.2891 -0.1363
 3101SOL    HW120936   3.753   1.371   6.471  0.6171 -0.6657  1.3346
 3101SOL    HW220937   3.741   1.359   6.321 -0.9651  1.1707  0.0062
 3102SOL     OW20938   1.274   2.614  13.346 -0.7644  0.1419  0.6211
 3102SOL    HW120939   1.340   2.558  13.307 -1.6719 -0.0649 -0.6124
 3102SOL    HW220940   1.253   2.659  13.264  2.6103  0.2419 -0.1902
 3103SOL     OW20941   1.310   3.591   6.296 -0.0279 -0.1461  0.1061
 3103SOL    HW120942   1.294   3.669   6.349  3.2229  0.1048  0.7348
 3103SOL    HW220943   1.387   3.615   6.245 -0.0072  0.9628  0.6596
 3104SOL     OW20944   0.281   3.856  13.046  0.8014  0.1847 -0.0217
 3104SOL    HW120945   0.339   3.849  13.122  1.2570 -1.0790 -0.4830
 3104SOL    HW220946   0.280   3.763  13.024  2.2667 -0.6835  3.6155
 3105SOL     OW20947   1.665   4.352  13.261 -0.0119 -0.3538  0.6314
 3105SOL    HW120948   1.666   4.402  13.179 -1.3665  1.4005  1.6803
 3105SOL    HW220949   1.575   4.376  13.283 -0.1912 -0.4921  0.0671
 3106SOL     OW20950   1.513   4.673   1.619  0.1574 -0.1938  0.6374
 3106SOL    HW120951   1.451   4.663   1.547  1.0648  2.5384 -0.5202
 3106SOL    HW220952   1.488   0.024   1.641 -0.9544 -0.5527  0.8014
 3107SOL     OW20953   4.640   1.960   2.169 -0.0145  0.1536  0.1680
 3107SOL    HW120954   4.687   1.983   2.089 -0.4432 -2.5510 -0.8396
 3107SOL    HW220955   4.555   2.002   2.155 -0.4970 -0.2668  1.7760
 3108SOL     OW20956   2.692   3.743   7.438  0.4916 -0.2497  0.3737
 3108SOL    HW120957   2.633   3.669   7.430 -0.9905  0.7615  2.0605
 3108SOL    HW220958   2.640   3.816   7.470 -0.2246 -1.1933  1.3394
 3109SOL     OW20959   3.955   2.093  12.397  0.0486 -0.0805  0.5537
 3109SOL    HW120960   3.918   2.006  12.415 -0.0630 -0.3665 -0.9933
 3109SOL    HW220961   4.036   2.089  12.448 -0.0600 -1.0011  0.6653
 3110SOL     OW20962   3.853   4.479   6.720  0.0994 -0.5219  0.5211
 3110SOL    HW120963   3.906   4.433   6.785  0.7375  0.8597  0.9829
 3110SOL    HW220964   3.825   4.549   6.779 -2.1314 -0.4919 -0.5776
 3111SOL     OW20965   3.410   3.698   5.042  0.4308  0.0172 -0.0892
 3111SOL    HW120966   3.370   3.755   5.108 -0.4805 -0.8641  0.1269
 3111SOL    HW220967   3.336   3.651   5.003 -1.1918  0.0961  2.9110
 3112SOL     OW20968   0.409   1.529   8.227  0.1848  0.2955  0.1920
 3112SOL    HW120969   0.375   1.614   8.254  1.2316  0.1685  1.8936
 3112SOL    HW220970   0.334   1.507   8.171  1.1025  0.1478 -0.9789
 3113SOL     OW20971   3.785   2.201   0.567  0.6496 -0.3028 -0.0352
 3113SOL    HW120972   3.805   2.108   0.560  2.3879  0.0663  0.0184
 3113SOL    HW220973   3.798   2.228   0.658 -1.1049 -0.9328  0.4097
 3114SOL     OW20974   0.056   1.111   1.565  0.3488 -0.7683 -0.2468
 3114SOL    HW120975   0.151   1.119   1.562 -0.1999  5.3628 -0.6851
 3114SOL    HW220976   0.021   1.159   1.490 -1.2975 -0.1236  0.9353
 3115SOL     OW20977   4.025   2.860   9.875  0.1997  0.0273  0.0638
 3115SOL    HW120978   3.999   2.949   9.896 -1.8086 -1.3653  3.4506
 3115SOL    HW220979   4.006   2.815   9.957 -1.4207  0.7925  0.1109
 3116SOL     OW20980   0.334   3.220   5.818  0.2093  0.0817  0.9818
 3116SOL    HW120981   0.334   3.153   5.750 -1.1957  0.8129  0.2672
 3116SOL    HW220982   0.423   3.223   5.853  1.4608 -1.1713 -2.0765
 3117SOL     OW20983   0.278   4.429   6.336  0.2850  0.2097  0.0570
 3117SOL    HW120984   0.327   4.396   6.411 -0.4888 -0.2314  0.3689
 3117SOL    HW220985   0.276   4.355   6.276  0.8164  0.2828 -0.0450
 3118SOL     OW20986   2.918   2.206  14.649 -0.0732  0.1243  0.0221
 3118SOL    HW120987   2.921   2.275  14.715  0.0538  0.8824 -0.7795
 3118SOL    HW220988   2.924   2.261  14.571 -1.0916  0.4209  0.1569
 3119SOL     OW20989   4.166   0.873   7.850 -0.1047 -0.7078 -0.0188
 3119SOL    HW120990   4.130   0.931   7.917  0.0581 -1.3436  0.6214
 3119SOL    HW220991   4.248   0.852   7.894  1.0335  0.5703 -1.5193
 3120SOL     OW20992   0.056   1.374   2.596  0.1417 -0.5498  0.6198
 3120SOL    HW120993   0.118   1.312   2.558 -1.3438 -1.4312 -0.3772
 3120SOL    HW220994   0.115   1.449   2.590  0.5485 -0.8973  0.2653
 3121SOL     OW20995   0.614   4.202   6.745 -0.0737 -0.0726 -0.6496
 3121SOL    HW120996   0.647   4.172   6.830  0.2127  1.9462 -0.0607
 3121SOL    HW220997   0.652   4.144   6.680 -0.0427 -0.0747 -0.6294
 3122SOL     OW20998   1.036   3.639   3.157 -0.0021  0.2907 -0.3784
 3122SOL    HW120999   1.071   3.567   3.209 -0.0535  0.5403  0.0083
 3122SOL    HW221000   0.948   3.655   3.192  1.1456  1.5562  1.9754
 3123SOL     OW21001   0.420   2.181   1.261  0.1305  0.3171  0.7407
 3123SOL    HW121002   0.411   2.095   1.304 -0.3514  0.0518  0.1040
 3123SOL    HW221003   0.471   2.224   1.330  0.8817  0.3887  0.1386
 3124SOL     OW21004   2.707   4.714   3.477  0.2116 -0.5349 -0.7915
 3124SOL    HW121005   2.705   4.673   3.391  2.0154 -0.5546 -0.8155
 3124SOL    HW221006   2.663   0.060   3.467  1.3815  0.3792  1.6552
 3125SOL     OW21007   3.228   1.972   8.869 -0.8552  0.1604  0.3043
 3125SOL    HW121008   3.154   1.943   8.921 -2.3732  2.0357 -0.7987
 3125SOL    HW221009   3.292   2.002   8.933  0.3165  1.0589 -1.2565
 3126SOL     OW21010   4.234   0.591   7.953  0.4674 -0.0067 -0.7436
 3126SOL    HW121011   4.200   0.662   7.899  0.6962  0.0929 -0.7530
 3126SOL    HW221012   4.279   0.649   8.015  0.2625 -0.9536  0.2867
 3127SOL     OW21013   3.491   0.804   0.383  0.0354 -0.6915 -0.2389
 3127SOL    HW121014   3.498   0.710   0.398 -0.7705 -0.5167  1.2403
 3127SOL    HW221015   3.564   0.815   0.322  0.0933 -0.7572 -0.1811
 3128SOL     OW21016   4.719   0.559  17.465 -0.3966  0.3390  0.1720
 3128SOL    HW121017   0.004   0.637  17.515 -0.5655  0.3160  0.2900
 3128SOL    HW221018   4.658   0.515  17.525  0.1776 -2.0008 -0.9844
 3129SOL     OW21019   2.737   3.742  10.066 -0.1593  0.5467 -0.3378
 3129SOL    HW121020   2.716   3.710  10.153  0.1692  1.3040  0.0178
 3129SOL    HW221021   2.712   3.835  10.075  1.4136  1.0329 -1.0635
 3130SOL     OW21022   2.975   2.119   6.772  0.0058  0.1605 -0.6447
 3130SOL    HW121023   2.882   2.098   6.765  0.0798  0.4480 -2.5279
 3130SOL    HW221024   2.968   2.130   6.867  1.2301  1.7842 -0.7482
 3131SOL     OW21025   3.809   1.360   7.713  0.3660  0.8068 -0.2977
 3131SOL    HW121026   3.875   1.357   7.644  0.7335  0.2467  0.0819
 3131SOL    HW221027   3.728   1.392   7.672 -0.6010 -1.9870 -0.5764
 3132SOL     OW21028   2.916   3.755  13.344 -0.4184  0.0468 -0.1023
 3132SOL    HW121029   2.921   3.847  13.370 -1.9870 -0.2299  1.1871
 3132SOL    HW221030   2.838   3.722  13.390  1.1635 -0.9968  1.8446
 3133SOL     OW21031   3.873   1.111  17.122  0.1095  0.4808 -0.3023
 3133SOL    HW121032   3.902   1.033  17.169  0.5034  0.8172  0.0170
 3133SOL    HW221033   3.778   1.111  17.108  0.0483  0.0815  0.1149
 3134SOL     OW21034   1.970   3.734   1.666 -0.5862  0.1282  0.0844
 3134SOL    HW121035   2.021   3.667   1.622  0.3653 -0.3416  1.8880
 3134SOL    HW221036   1.884   3.717   1.627 -0.6898  1.6866 -0.3715
 3135SOL     OW21037   1.917   1.705  11.024  0.1366  0.3679 -0.3442
 3135SOL    HW121038   1.972   1.745  10.957 -0.4494  2.0577  0.1861
 3135SOL    HW221039   1.988   1.665  11.074 -1.8088 -2.4911  0.1530
 3136SOL     OW21040   3.999   1.748   7.857 -0.0698  0.1679 -0.1584
 3136SOL    HW121041   4.055   1.815   7.817 -0.9323  0.1886 -1.3316
 3136SOL    HW221042   3.930   1.807   7.885  1.8336  1.9874  0.7209
 3137SOL     OW21043   0.303   3.044   9.077 -0.2920  0.0884 -0.0999
 3137SOL    HW121044   0.370   3.101   9.114 -0.0124 -0.2101 -0.1491
 3137SOL    HW221045   0.221   3.088   9.100 -0.2556 -0.4111  0.9891
 3138SOL     OW21046   1.889   3.981   9.094 -0.1279 -0.1617  0.4393
 3138SOL    HW121047   1.939   4.050   9.139 -0.0162 -0.9400  1.5232
 3138SOL    HW221048   1.809   4.030   9.077 -0.1104 -0.5349 -0.6795
 3139SOL     OW21049   1.983   0.653   1.006 -0.2052 -0.3445 -0.4446
 3139SOL    HW121050   1.916   0.597   0.968 -0.9044 -0.1622  0.5052
 3139SOL    HW221051   2.002   0.703   0.927  1.3007  1.4670  1.0684
 3140SOL     OW21052   0.574   1.205   8.111  0.1482 -0.4498  0.5541
 3140SOL    HW121053   0.587   1.190   8.205 -0.2676 -1.3429  0.4690
 3140SOL    HW221054   0.609   1.293   8.104 -2.0089  0.4382  0.8521
 3141SOL     OW21055   1.083   2.871   7.210  0.0413  0.0852 -0.6121
 3141SOL    HW121056   1.030   2.792   7.217  1.9649 -1.0429  1.0495
 3141SOL    HW221057   1.104   2.878   7.303 -1.8749 -1.8486 -0.0421
 3142SOL     OW21058   0.317   1.824   0.797 -0.5165  0.1874  0.1160
 3142SOL    HW121059   0.345   1.777   0.876  0.7994  1.0612  0.1696
 3142SOL    HW221060   0.278   1.899   0.842 -0.9413 -0.3021  0.5591
 3143SOL     OW21061   4.364   4.596   5.824 -0.3621  0.1204 -0.5688
 3143SOL    HW121062   4.270   4.607   5.815 -0.4027 -1.8236 -2.5126
 3143SOL    HW221063   4.396   4.682   5.799  0.7378 -0.5670 -1.5455
 3144SOL     OW21064   3.408   4.439   8.690  0.2471  0.1532  0.5506
 3144SOL    HW121065   3.385   4.420   8.781  1.6603  0.0018  0.8827
 3144SOL    HW221066   3.333   4.410   8.638 -1.2226 -0.7791  3.1939
 3145SOL     OW21067   3.631   4.166  13.771 -0.3232  0.1333 -0.1127
 3145SOL    HW121068   3.661   4.222  13.843  2.9503 -1.9668  0.1246
 3145SOL    HW221069   3.567   4.111  13.816 -2.0514  0.9506 -1.5434
 3146SOL     OW21070   3.730   3.726   1.045 -0.1134  0.4060 -0.1698
 3146SOL    HW121071   3.693   3.741   0.958 -0.1655  0.2963 -0.1673
 3146SOL    HW221072   3.721   3.809   1.091  0.6771  0.5770 -0.3141
 3147SOL     OW21073   3.163   1.534   0.041 -0.1793 -0.3202 -0.0113
 3147SOL    HW121074   3.257   1.521   0.030 -0.1812 -0.1859 -0.1892
 3147SOL    HW221075   3.170   1.584   0.122  0.9125 -2.2254  1.0707
 3148SOL     OW21076   1.168   4.169   6.452 -0.0619  0.2020  0.1182
 3148SOL    HW121077   1.191   4.121   6.373  1.0735 -0.6483  0.9669
 3148SOL    HW221078   1.089   4.124   6.483 -0.7088  2.7424  2.1939
 3149SOL     OW21079   2.334   4.380   9.367 -0.2925  0.5093 -0.5168
 3149SOL    HW121080   2.343   4.449   9.433  0.6193  0.3264 -0.4559
 3149SOL    HW221081   2.312   4.309   9.428 -1.9139  0.8684 -0.6861
 3150SOL     OW21082   2.450   0.879   5.996 -0.5176  0.4058  0.4605
 3150SOL    HW121083   2.423   0.787   6.004  0.1708  0.1826  0.2352
 3150SOL    HW221084   2.538   0.875   6.035 -0.6853  2.0343  0.9876
 3151SOL     OW21085   3.469   2.123  13.841  0.8423  0.3059  0.6192
 3151SOL    HW121086   3.507   2.087  13.761 -0.2381 -1.0698  0.7072
 3151SOL    HW221087   3.554   2.135  13.883 -0.5022  1.4002  2.9834
 3152SOL     OW21088   1.804   0.237   8.580 -0.2927  0.0234  0.1941
 3152SOL    HW121089   1.747   0.264   8.652 -2.4004 -0.9198 -1.0935
 3152SOL    HW221090   1.737   0.206   8.518 -0.8933 -1.0803  1.4078
 3153SOL     OW21091   4.042   3.931   2.882 -0.5170  0.5629 -0.0602
 3153SOL    HW121092   3.975   3.879   2.927  0.0298  0.6018  0.7929
 3153SOL    HW221093   4.108   3.861   2.876  1.0948  1.9683  1.4435
 3154SOL     OW21094   3.653   2.924   7.527  0.4000 -0.2362 -0.2274
 3154SOL    HW121095   3.716   2.990   7.556  1.3433 -0.5311 -1.6163
 3154SOL    HW221096   3.685   2.905   7.439 -0.5817  0.3507 -0.7078
 3155SOL     OW21097   0.760   1.889  14.552 -0.0619 -0.1478  1.3397
 3155SOL    HW121098   0.737   1.813  14.605  2.0011 -0.3084  2.0044
 3155SOL    HW221099   0.737   1.951  14.620 -0.7328 -0.4439  1.3851
 3156SOL     OW21100   1.951   0.349  17.092  0.5256  0.0411  0.1776
 3156SOL    HW121101   1.877   0.409  17.091 -0.7456 -1.5313  0.0810
 3156SOL    HW221102   2.023   0.411  17.102 -0.2367  0.5727  2.4885
 3157SOL     OW21103   3.524   4.016  15.936  0.8544 -0.1539 -0.1817
 3157SOL    HW121104   3.513   4.064  15.854 -2.1259 -0.0129  0.3347
 3157SOL    HW221105   3.451   4.050  15.987 -0.5033 -0.9088 -1.6135
 3158SOL     OW21106   2.902   3.100   7.636 -0.1180  0.8611 -0.9689
 3158SOL    HW121107   2.852   3.068   7.711 -1.2434  0.4519 -1.9025
 3158SOL    HW221108   2.977   3.041   7.644 -1.3928 -0.4884  0.9171
 3159SOL     OW21109   2.775   0.054   8.491 -1.0376  0.2293  0.3077
 3159SOL    HW121110   2.729   4.710   8.480 -2.2485  0.7214  1.6492
 3159SOL    HW221111   2.860   0.029   8.527 -1.9432  0.9628  2.9886
 3160SOL     OW21112   0.195   3.336   2.425 -0.5046 -0.3538  0.0656
 3160SOL    HW121113   0.192   3.429   2.448  1.1187  0.0239 -1.2873
 3160SOL    HW221114   0.184   3.341   2.330 -0.0298 -0.6560 -0.0019
 3161SOL     OW21115   3.052   4.135   8.149 -0.0742  0.1827  0.0299
 3161SOL    HW121116   3.101   4.197   8.202  2.3276 -2.1603  0.5835
 3161SOL    HW221117   3.114   4.062   8.145  1.2199  1.2830  0.1391
 3162SOL     OW21118   3.828   0.141   8.803  0.2250  0.3679  0.4605
 3162SOL    HW121119   3.754   0.120   8.860  0.5840 -2.3359 -0.0751
 3162SOL    HW221120   3.839   0.235   8.816 -0.2611  0.9282 -3.0849
 3163SOL     OW21121   1.112   4.090   0.722 -0.0115 -0.2792 -0.2354
 3163SOL    HW121122   1.061   4.166   0.693 -1.2691 -2.2710 -3.2809
 3163SOL    HW221123   1.175   4.079   0.651  0.8050 -1.1041  0.6192
 3164SOL     OW21124   4.559   0.187   9.075 -0.1821  0.1515  0.1203
 3164SOL    HW121125   4.499   0.260   9.090 -0.2934 -0.0162  0.4922
 3164SOL    HW221126   4.639   0.236   9.056 -0.7578  0.6619 -0.9548
 3165SOL     OW21127   0.827   2.006   7.560 -0.4386 -0.1109 -0.2474
 3165SOL    HW121128   0.735   1.988   7.543  0.0905 -2.5113 -0.5919
 3165SOL    HW221129   0.843   1.927   7.613  3.9509  1.4789  0.8390
 3166SOL     OW21130   1.910   0.913  14.064  0.1554 -0.5102 -0.3657
 3166SOL    HW121131   1.984   0.973  14.071 -0.3395  0.0663 -0.1354
 3166SOL    HW221132   1.890   0.892  14.155  1.6700  1.2787  0.3783
 3167SOL     OW21133   1.697   4.568   7.642  0.4081  0.1344 -0.6564
 3167SOL    HW121134   1.718   4.617   7.721  0.5417 -0.1564 -0.5137
 3167SOL    HW221135   1.605   4.585   7.619  0.5917  1.5174 -0.3426
 3168SOL     OW21136   1.612   3.655   6.305  0.0197 -0.2706  0.0809
 3168SOL    HW121137   1.626   3.577   6.360  0.8756  0.4159  0.8295
 3168SOL    HW221138   1.630   3.726   6.366  0.8315 -0.3118 -0.1116
 3169SOL     OW21139   1.238   1.787   6.724  0.3078 -0.6537 -0.3777
 3169SOL    HW121140   1.203   1.798   6.812  2.2782 -0.8489  0.4339
 3169SOL    HW221141   1.160   1.762   6.674  0.3341  0.1427 -0.8241
 3170SOL     OW21142   1.571   0.302   1.629 -0.2829  0.0682 -0.1526
 3170SOL    HW121143   1.648   0.286   1.684 -0.4641  1.2596  0.4344
 3170SOL    HW221144   1.605   0.283   1.542 -0.7981 -1.4420 -0.0305
 3171SOL     OW21145   2.523   1.180   4.446  0.2480 -0.4928  0.2686
 3171SOL    HW121146   2.539   1.086   4.439  1.6729 -0.2325  0.0933
 3171SOL    HW221147   2.607   1.211   4.412  1.8167 -2.3179  2.4718
 3172SOL     OW21148   1.158   1.980   8.281  0.5578 -0.3070  0.2262
 3172SOL    HW121149   1.144   2.022   8.365  0.0350  0.1688 -0.0955
 3172SOL    HW221150   1.129   1.891   8.301 -0.7150  0.0363 -0.1210
 3173SOL     OW21151   0.501   3.623   1.977  0.4160 -0.6673 -0.4904
 3173SOL    HW121152   0.455   3.548   2.013 -1.6240  1.5910  1.5822
 3173SOL    HW221153   0.587   3.593   2.006  0.9184  0.9042 -0.3248
 3174SOL     OW21154   4.454   2.980   7.912 -0.1615 -0.4259 -0.1125
 3174SOL    HW121155   4.359   2.978   7.897 -0.2417  0.2287  0.3556
 3174SOL    HW221156   4.483   2.893   7.886  0.2595 -0.1870 -0.4369
 3175SOL     OW21157   2.420   0.936   0.582  0.2577 -0.2061 -0.0227
 3175SOL    HW121158   2.390   0.891   0.503 -1.0051 -1.7350  1.3474
 3175SOL    HW221159   2.390   1.026   0.566  1.2295 -0.2896 -2.3252
 3176SOL     OW21160   1.887   3.157   5.973  0.6570  0.0529  0.3117
 3176SOL    HW121161   1.869   3.113   6.056 -1.5308 -0.5406 -0.4899
 3176SOL    HW221162   1.883   3.250   5.995 -3.4255  0.4151 -2.0506
 3177SOL     OW21163   2.127   4.510   1.516 -0.2787  0.0509  0.0768
 3177SOL    HW121164   2.196   4.487   1.578 -0.6340  1.4142  0.9873
 3177SOL    HW221165   2.083   4.425   1.518 -1.3685  0.7095  5.5005
 3178SOL     OW21166   2.216   4.012   2.665 -0.1363 -0.3132  0.0151
 3178SOL    HW121167   2.211   4.068   2.743  0.1023  0.8599 -0.8012
 3178SOL    HW221168   2.134   4.046   2.629  1.4496  2.2063 -1.2354
 3179SOL     OW21169   0.535   0.907   7.108 -0.4564 -0.0523 -0.2261
 3179SOL    HW121170   0.614   0.867   7.073  0.1869  0.9333  0.1171
 3179SOL    HW221171   0.553   0.926   7.200  2.0580  1.8071 -1.1149
 3180SOL     OW21172   1.737   4.027   4.914  0.1218 -0.9510  0.6725
 3180SOL    HW121173   1.643   4.009   4.922  0.0412 -0.3509  1.0653
 3180SOL    HW221174   1.768   3.974   4.840 -0.4120  1.4968 -1.3179
 3181SOL     OW21175   4.267   3.106   8.377  0.0498 -0.0044 -0.1302
 3181SOL    HW121176   4.358   3.134   8.388 -0.2158  0.4183  0.9596
 3181SOL    HW221177   4.217   3.172   8.424 -0.4453 -0.5855  0.1577
 3182SOL     OW21178   1.821   0.594  11.085  0.3223  0.2669  0.8253
 3182SOL    HW121179   1.911   0.609  11.113  0.4193 -0.3407  0.8258
 3182SOL    HW221180   1.789   0.548  11.162  3.0616 -1.6859  0.7731
 3183SOL     OW21181   0.334   0.735   5.524 -0.5576  0.5779 -0.1901
 3183SOL    HW121182   0.420   0.776   5.533 -1.1078  2.0401 -1.4899
 3183SOL    HW221183   0.282   0.809   5.492  1.8110  1.7248 -1.3654
 3184SOL     OW21184   0.442   2.814   0.043  0.4676  0.8108 -0.2760
 3184SOL    HW121185   0.431   2.869  17.719 -0.1056  0.6458 -0.3121
 3184SOL    HW221186   0.376   2.848   0.103  0.6149 -0.2602  0.5008
 3185SOL     OW21187   3.204   1.964   3.438  0.4234  0.0729 -0.4216
 3185SOL    HW121188   3.162   2.049   3.423 -0.0158 -0.0801 -0.0780
 3185SOL    HW221189   3.121   1.919   3.456  0.9239 -0.4982  0.4490
 3186SOL     OW21190   3.214   3.586   1.831  0.3544 -0.4681 -0.0143
 3186SOL    HW121191   3.160   3.507   1.822  0.0891 -0.3994  0.9627
 3186SOL    HW221192   3.274   3.574   1.758  1.3479  1.8606  0.4466
 3187SOL     OW21193   4.374   3.065   5.143  0.1947  0.1086 -0.3047
 3187SOL    HW121194   4.301   3.006   5.164  0.3642  0.1021  0.2633
 3187SOL    HW221195   4.442   3.001   5.124 -1.0584 -1.3218  0.0078
 3188SOL     OW21196   2.453   0.945   2.780  0.0237 -0.2338 -0.0229
 3188SOL    HW121197   2.519   0.886   2.817 -0.5962 -0.0148  1.4193
 3188SOL    HW221198   2.419   0.895   2.705  1.3622  0.7439 -1.2754
 3189SOL     OW21199   2.582   2.672   4.328 -0.1456  0.5338 -0.2144
 3189SOL    HW121200   2.659   2.647   4.277  0.0708 -2.2853  1.4945
 3189SOL    HW221201   2.518   2.675   4.257  0.1780 -2.2927 -0.6501
 3190SOL     OW21202   0.226   0.218   3.460 -0.0915 -0.1617 -0.6978
 3190SOL    HW121203   0.213   0.123   3.460  1.6076 -0.4085  1.1563
 3190SOL    HW221204   0.139   0.252   3.479  0.7704  1.6492  0.0031
 3191SOL     OW21205   0.986   0.460  11.643  0.7344 -0.2574 -0.0084
 3191SOL    HW121206   0.980   0.515  11.565  1.1026 -0.6774 -0.3367
 3191SOL    HW221207   1.071   0.485  11.680  1.0359  2.0661 -2.2986
 3192SOL     OW21208   1.672   2.839  16.005  0.2464  0.2089 -0.5160
 3192SOL    HW121209   1.595   2.896  16.009  0.2368  0.2124 -0.7502
 3192SOL    HW221210   1.635   2.751  16.019 -0.4409  0.2865 -1.8099
 3193SOL     OW21211   0.471   2.856   4.186  0.4708 -0.5587  0.6366
 3193SOL    HW121212   0.439   2.805   4.260 -0.9268  0.7386  0.9428
 3193SOL    HW221213   0.506   2.799   4.119 -1.1439  0.2044 -0.8683
 3194SOL     OW21214   1.918   2.593   6.599 -0.4258 -0.1478  0.3102
 3194SOL    HW121215   1.999   2.636   6.626  0.1021 -0.2652 -1.0840
 3194SOL    HW221216   1.935   2.501   6.616  0.0552 -0.5407 -2.2357
 3195SOL     OW21217   1.640   1.496  17.214  0.0008 -0.2403  0.1040
 3195SOL    HW121218   1.613   1.510  17.124 -0.2204  1.7742  0.4820
 3195SOL    HW221219   1.733   1.476  17.204  0.6829  2.8977  0.1755
 3196SOL     OW21220   0.825   0.694   5.436  0.5155  0.4002  0.3898
 3196SOL    HW121221   0.770   0.714   5.512 -2.1349 -0.6308 -1.2371
 3196SOL    HW221222   0.912   0.701   5.476  1.3112 -0.6772 -1.1590
 3197SOL     OW21223   3.063   0.680  11.863 -0.0500 -0.1235  0.1298
 3197SOL    HW121224   3.122   0.630  11.919 -0.2017  0.1590  0.5392
 3197SOL    HW221225   3.053   0.766  11.903  1.9515  0.2079 -0.0706
 3198SOL     OW21226   1.913   3.300   8.076 -0.0173  0.1179 -0.2283
 3198SOL    HW121227   1.967   3.261   8.007  0.5496 -3.1568  2.1163
 3198SOL    HW221228   1.966   3.283   8.153 -0.1103  0.6659 -0.0398
 3199SOL     OW21229   3.466   0.415   6.911  0.3586  0.6764  0.0234
 3199SOL    HW121230   3.403   0.358   6.866  2.7835  0.5458 -3.2156
 3199SOL    HW221231   3.507   0.459   6.836  1.7986  2.8971  2.1155
 3200SOL     OW21232   0.170   0.468  10.865  0.6510 -0.3804 -0.1294
 3200SOL    HW121233   0.249   0.507  10.829  1.0053  0.5000  1.6305
 3200SOL    HW221234   0.174   0.498  10.955 -1.6152  0.2253 -0.2204
 3201SOL     OW21235   4.440   1.576   6.901 -0.5888  0.2046 -0.1290
 3201SOL    HW121236   4.453   1.546   6.811  0.7101  0.5184 -0.0434
 3201SOL    HW221237   4.406   1.663   6.883  2.4629  1.7245  1.3758
 3202SOL     OW21238   0.932   1.623   8.016  0.2797 -0.1673 -0.6395
 3202SOL    HW121239   0.905   1.606   7.926 -0.0876  2.9166 -1.1342
 3202SOL    HW221240   1.027   1.630   8.007  0.0885  2.6939 -0.7185
 3203SOL     OW21241   2.967   2.024  11.180 -0.3583  0.1237  0.1625
 3203SOL    HW121242   2.983   2.049  11.089 -0.4141 -0.1719  0.0727
 3203SOL    HW221243   2.959   2.107  11.227  1.6225  0.1067  0.5515
 3204SOL     OW21244   0.612   0.825   4.143 -0.0106 -0.0145  0.3082
 3204SOL    HW121245   0.636   0.788   4.229 -0.0829  2.5462  1.4374
 3204SOL    HW221246   0.551   0.758   4.115 -1.4577  0.9982  1.0566
 3205SOL     OW21247   1.647   2.119   7.179 -0.0970  0.0048 -0.5045
 3205SOL    HW121248   1.688   2.064   7.245  1.3007  1.2648 -0.3146
 3205SOL    HW221249   1.567   2.068   7.164  0.6753 -1.7462  1.4038
 3206SOL     OW21250   1.099   3.485  11.583 -0.1385  0.2603  0.2215
 3206SOL    HW121251   1.137   3.570  11.559 -0.0295 -0.5916 -2.6376
 3206SOL    HW221252   1.013   3.499  11.545  0.4967  1.0825 -0.9300
 3207SOL     OW21253   0.646   1.351   7.612  0.2153 -0.4026 -0.1061
 3207SOL    HW121254   0.620   1.371   7.702 -2.1828 -0.0873 -0.8742
 3207SOL    HW221255   0.725   1.303   7.639 -0.2891 -0.1799  1.7030
 3208SOL     OW21256   3.741   4.060   9.390  0.0476 -0.4299 -0.5380
 3208SOL    HW121257   3.715   3.997   9.322  0.6415 -1.7132  0.4228
 3208SOL    HW221258   3.837   4.063   9.392  0.0406  0.3234 -1.2838
 3209SOL     OW21259   4.179   0.433   6.461 -0.2396  0.8675  0.3299
 3209SOL    HW121260   4.244   0.407   6.395  1.7827  1.0443  2.2750
 3209SOL    HW221261   4.100   0.431   6.407 -0.9835  2.0523  1.4027
 3210SOL     OW21262   4.488   2.088   5.833  0.3670 -0.5318 -0.4447
 3210SOL    HW121263   4.403   2.111   5.797  0.2474 -0.4670 -0.1250
 3210SOL    HW221264   4.543   2.164   5.814  1.0685 -0.8259  0.3765
 3211SOL     OW21265   0.954   2.338  10.546  0.2830  0.7646  0.3612
 3211SOL    HW121266   0.980   2.246  10.552  2.2865  1.3232  0.2873
 3211SOL    HW221267   1.026   2.386  10.588  1.4410 -1.4300  0.8917
 3212SOL     OW21268   1.011   3.615   7.249  0.4938 -0.5533  0.2234
 3212SOL    HW121269   1.102   3.585   7.247 -0.2287 -2.7068 -0.5800
 3212SOL    HW221270   1.024   3.694   7.196 -1.4396 -1.0632 -1.0013
 3213SOL     OW21271   1.534   3.845  15.228 -0.1809  0.3515  0.0946
 3213SOL    HW121272   1.496   3.821  15.143  3.3957  1.0133 -1.6857
 3213SOL    HW221273   1.557   3.936  15.207 -1.1030  0.4811 -0.3532
 3214SOL     OW21274   4.228   4.138   0.739 -0.6376  0.0901 -0.3987
 3214SOL    HW121275   4.229   4.194   0.661 -2.9060  1.2774  0.4287
 3214SOL    HW221276   4.317   4.103   0.730 -0.6294  0.3889 -1.5136
 3215SOL     OW21277   0.991   3.900   9.005 -0.4181 -0.4661  0.0012
 3215SOL    HW121278   0.917   3.870   8.952 -0.1289 -1.1131 -0.0396
 3215SOL    HW221279   1.016   3.976   8.952  0.0848 -2.1590 -2.2317
 3216SOL     OW21280   3.112   3.036  14.858 -0.0971  0.3322  0.0227
 3216SOL    HW121281   3.049   3.098  14.821 -1.0845 -0.9755 -0.4925
 3216SOL    HW221282   3.176   3.022  14.788 -1.7461 -0.8100 -1.2629
 3217SOL     OW21283   1.239   0.971   4.901 -0.1615 -0.4495 -0.1073
 3217SOL    HW121284   1.231   0.934   4.813  2.1990  1.2283 -1.0379
 3217SOL    HW221285   1.292   0.905   4.944 -0.3781 -0.4289  0.1896
 3218SOL     OW21286   3.728   1.036   5.117 -0.3974  0.0804  0.1464
 3218SOL    HW121287   3.712   0.957   5.168 -1.0412  0.8572  1.1402
 3218SOL    HW221288   3.823   1.045   5.114 -0.5712  1.9151  0.2340
 3219SOL     OW21289   2.699   0.497  10.217 -0.6655  0.4969 -0.0858
 3219SOL    HW121290   2.729   0.411  10.246  1.3879  1.0582 -0.5570
 3219SOL    HW221291   2.691   0.461  10.128  0.6448 -0.2027  0.0819
 3220SOL     OW21292   4.302   0.408   7.759  0.1150 -0.5587  0.8783
 3220SOL    HW121293   4.286   0.471   7.829  2.3272  0.0774  0.7971
 3220SOL    HW221294   4.254   0.455   7.691  0.0207 -0.3933  1.0615
 3221SOL     OW21295   0.698   1.492   8.385  0.4179 -0.2800  0.0931
 3221SOL    HW121296   0.684   1.582   8.356 -2.5523 -0.0334  2.2808
 3221SOL    HW221297   0.641   1.443   8.325 -0.1719  1.6731 -0.9255
 3222SOL     OW21298   4.418   0.738   8.204 -0.0830 -0.7188  0.1711
 3222SOL    HW121299   4.416   0.797   8.129 -3.2867 -1.9864 -0.7105
 3222SOL    HW221300   4.482   0.772   8.267 -0.5874 -0.4187  0.5160
 3223SOL     OW21301   2.428   0.643  13.223 -0.0727  0.0093  0.7710
 3223SOL    HW121302   2.361   0.574  13.220 -0.5870  0.5379  0.0982
 3223SOL    HW221303   2.508   0.594  13.203 -0.4504 -0.6513  0.8608
 3224SOL     OW21304   1.804   2.967  13.854 -0.7409  0.2733 -0.2927
 3224SOL    HW121305   1.792   2.911  13.777  2.6535 -2.0966  0.8799
 3224SOL    HW221306   1.843   2.913  13.923  0.0254 -0.9773 -1.7039
 3225SOL     OW21307   4.034   0.227   7.489  0.6589  0.1365 -0.0634
 3225SOL    HW121308   3.952   0.272   7.509  0.1859 -0.8541  0.2587
 3225SOL    HW221309   4.004   0.193   7.404 -0.1817  0.3447  0.1463
 3226SOL     OW21310   0.645   4.648   9.048  0.1062  0.1382  0.3312
 3226SOL    HW121311   0.657   4.583   9.117 -0.2825  2.0880  2.2674
 3226SOL    HW221312   0.582   4.599   8.996 -0.2369  0.0319  0.8520
 3227SOL     OW21313   0.256   4.482  15.129  0.2116  0.0791  0.2728
 3227SOL    HW121314   0.328   4.419  15.129 -0.1085 -0.2840 -0.1663
 3227SOL    HW221315   0.214   4.458  15.047 -0.1165  1.6608 -0.0101
 3228SOL     OW21316   4.213   1.936  16.617  0.1828  0.7003 -0.4153
 3228SOL    HW121317   4.120   1.943  16.596 -0.1313 -2.0009  0.1654
 3228SOL    HW221318   4.212   1.902  16.706  1.3981 -2.2417 -1.5369
 3229SOL     OW21319   3.256   4.539   5.674 -0.2567 -0.1711  0.0046
 3229SOL    HW121320   3.348   4.519   5.687 -0.2800 -0.4253 -0.2166
 3229SOL    HW221321   3.246   4.627   5.711  1.4509 -0.6895  1.6525
 3230SOL     OW21322   1.150   0.617   7.866  0.1694 -0.0473  0.1732
 3230SOL    HW121323   1.114   0.618   7.777  2.0113 -0.8991 -0.5633
 3230SOL    HW221324   1.072   0.638   7.918  1.7831 -0.1037  2.6045
 3231SOL     OW21325   2.464   3.026   0.335 -0.0014  0.0089  0.1028
 3231SOL    HW121326   2.435   3.103   0.287 -0.8061 -0.8300 -0.7379
 3231SOL    HW221327   2.382   2.978   0.328 -0.3308  0.3037  1.8184
 3232SOL     OW21328   1.826   3.709   3.471 -0.2833  0.0353 -0.3936
 3232SOL    HW121329   1.901   3.729   3.527 -0.6541  0.2296  0.0281
 3232SOL    HW221330   1.790   3.793   3.442 -0.5784  0.3024  0.7560
 3233SOL     OW21331   2.941   2.846   8.753 -0.6589  0.2698  0.2179
 3233SOL    HW121332   2.926   2.941   8.753 -1.1324  0.1844  2.0131
 3233SOL    HW221333   3.032   2.831   8.778 -1.0512 -1.1428  0.7887
 3234SOL     OW21334   2.151   2.079   5.242  0.0772 -0.2703 -0.6766
 3234SOL    HW121335   2.117   2.063   5.154 -0.9919  1.3019 -0.5519
 3234SOL    HW221336   2.114   2.003   5.285  0.1387 -0.1396 -0.3928
 3235SOL     OW21337   3.072   1.598   0.822  0.7977  0.4312  0.2266
 3235SOL    HW121338   3.049   1.509   0.849 -0.8411  1.0049  0.7315
 3235SOL    HW221339   2.987   1.637   0.840  0.7209  0.3076  0.1363
 3236SOL     OW21340   0.934   4.703   3.896 -0.3172 -0.2189  0.5276
 3236SOL    HW121341   0.881   4.648   3.953 -0.5331  2.0404  2.5210
 3236SOL    HW221342   0.917   0.046   3.942 -1.5404 -0.5983  0.7517
 3237SOL     OW21343   4.056   0.507   2.329  0.1577  0.0916 -0.1028
 3237SOL    HW121344   4.061   0.517   2.234 -2.1507  0.2289 -0.2060
 3237SOL    HW221345   3.993   0.577   2.346 -0.0415  0.6073 -3.0162
 3238SOL     OW21346   2.609   3.874   4.058 -0.1727  0.5190 -0.1308
 3238SOL    HW121347   2.555   3.877   3.979 -1.7945 -1.6924  0.8588
 3238SOL    HW221348   2.616   3.779   4.065  3.2770  0.8464  0.5358
 3239SOL     OW21349   4.514   3.794   5.111 -0.2199  0.0592 -0.9049
 3239SOL    HW121350   4.420   3.804   5.122  0.0009 -0.9642  2.0882
 3239SOL    HW221351   4.519   3.712   5.062 -1.7596 -0.3143 -0.4139
 3240SOL     OW21352   2.349   2.230   2.749  0.1713 -0.4874  0.3716
 3240SOL    HW121353   2.413   2.232   2.678 -0.4204  1.6267 -0.1078
 3240SOL    HW221354   2.278   2.283   2.711  1.4397  0.7100 -0.3462
 3241SOL     OW21355   1.122   0.827   6.918 -0.2288 -0.2677  0.4112
 3241SOL    HW121356   1.127   0.909   6.967 -2.2371  0.3392 -0.3969
 3241SOL    HW221357   1.214   0.818   6.893  0.2579  3.3406  0.9755
 3242SOL     OW21358   3.041   1.135   7.791  0.3364  0.1748  0.9667
 3242SOL    HW121359   2.998   1.087   7.720 -0.7995  0.7131  1.2894
 3242SOL    HW221360   3.117   1.077   7.798  1.5545  1.5079 -0.9565
 3243SOL     OW21361   1.073   3.271   5.513 -0.6196 -0.1519  0.3078
 3243SOL    HW121362   1.130   3.195   5.520 -2.0043 -1.2446 -0.4110
 3243SOL    HW221363   1.140   3.338   5.499  0.5500 -1.5355 -0.6755
 3244SOL     OW21364   2.035   1.394   6.777  0.2540  0.4184 -0.2059
 3244SOL    HW121365   1.942   1.380   6.792  0.2775  1.5089  0.9472
 3244SOL    HW221366   2.045   1.489   6.782  0.0634  0.5110 -1.5021
 3245SOL     OW21367   2.126   1.716   0.395 -0.7208  0.4828 -0.4344
 3245SOL    HW121368   2.089   1.700   0.308  0.1693 -2.4618 -0.2771
 3245SOL    HW221369   2.187   1.784   0.369  1.7933 -2.4902 -2.2864
 3246SOL     OW21370   3.479   4.185   4.108  0.1871  0.2169 -0.1006
 3246SOL    HW121371   3.394   4.212   4.142 -0.9526 -0.4090 -2.4534
 3246SOL    HW221372   3.451   4.116   4.048 -0.3580  0.3421  0.0134
 3247SOL     OW21373   3.673   4.518   8.978 -0.5966  0.4879  0.4661
 3247SOL    HW121374   3.764   4.494   8.999 -0.1777  2.9565  1.4547
 3247SOL    HW221375   3.665   4.488   8.887  0.8080 -2.7177  1.3953
 3248SOL     OW21376   3.677   0.201   4.640 -0.2626  0.2669  0.4818
 3248SOL    HW121377   3.765   0.195   4.603 -1.7831 -1.9099 -2.8091
 3248SOL    HW221378   3.694   0.250   4.720 -0.7906 -1.1052  1.4437
 3249SOL     OW21379   0.630   2.323  16.423 -0.4663 -0.1914  0.1038
 3249SOL    HW121380   0.592   2.266  16.490 -0.0328 -0.6477 -0.0357
 3249SOL    HW221381   0.679   2.278  16.354  0.2845  1.4386 -0.4234
 3250SOL     OW21382   2.516   3.358   6.101  0.4515 -0.0447 -0.1521
 3250SOL    HW121383   2.451   3.306   6.052  0.6936 -0.9655  0.5212
 3250SOL    HW221384   2.594   3.345   6.048  0.8923  0.0244  0.4908
 3251SOL     OW21385   0.125   0.740   8.698  0.2919  0.3568 -0.2488
 3251SOL    HW121386   0.119   0.835   8.708  1.6708  0.4281 -0.1658
 3251SOL    HW221387   0.034   0.711   8.709  0.6908 -0.3624  1.1329
 3252SOL     OW21388   1.050   0.560  17.161  0.7002 -0.7707 -0.0680
 3252SOL    HW121389   0.960   0.544  17.131  0.8329 -1.9670  0.1618
 3252SOL    HW221390   1.051   0.526  17.250 -0.8972 -1.0664 -0.1498
 3253SOL     OW21391   2.004   3.499   3.597 -0.5974  0.0495 -0.6075
 3253SOL    HW121392   1.917   3.528   3.567 -0.3818  0.4009 -0.8901
 3253SOL    HW221393   1.976   3.408   3.592  0.9346 -0.4793  0.5816
 3254SOL     OW21394   3.630   4.053  11.420  0.0081  0.2977 -0.1740
 3254SOL    HW121395   3.560   4.010  11.470  0.7587 -1.8450 -0.9458
 3254SOL    HW221396   3.604   4.010  11.339  1.3949 -1.4728  0.3103
 3255SOL     OW21397   0.151   2.862  11.635  0.0735  0.2790  0.6995
 3255SOL    HW121398   0.092   2.834  11.566 -1.0014  2.9483  0.5589
 3255SOL    HW221399   0.092   2.920  11.683 -0.9316  0.1411 -0.3698
 3256SOL     OW21400   4.706   3.913  11.804  0.0871  0.2481  0.8764
 3256SOL    HW121401   4.690   3.998  11.845 -1.3319  2.3239 -4.0564
 3256SOL    HW221402   4.739   3.860  11.877 -2.3508 -0.6918  1.2977
 3257SOL     OW21403   2.435   1.796   8.483  0.2380  0.4429  0.0288
 3257SOL    HW121404   2.344   1.769   8.484  0.6431 -0.8933  0.6655
 3257SOL    HW221405   2.429   1.883   8.524 -2.6447  0.9431 -1.4742
 3258SOL     OW21406   2.792   1.696   9.809 -0.2255  0.3909  0.5192
 3258SOL    HW121407   2.748   1.684   9.725  1.2488  1.1158 -0.3667
 3258SOL    HW221408   2.854   1.766   9.789  1.1606 -0.9862  0.0013
 3259SOL     OW21409   2.399   3.419   5.226 -0.7170  0.1012 -0.4585
 3259SOL    HW121410   2.451   3.353   5.271 -1.3123  1.4018  2.1984
 3259SOL    HW221411   2.354   3.449   5.306 -0.6387  0.2248 -0.4608
 3260SOL     OW21412   3.674   3.004  15.632 -0.0702 -0.0328 -0.4151
 3260SOL    HW121413   3.745   3.028  15.571  1.2779  1.0756  1.5764
 3260SOL    HW221414   3.639   2.924  15.594  3.0878 -1.4013 -0.4791
 3261SOL     OW21415   1.986   1.665   6.808  0.1431  0.1569  0.4183
 3261SOL    HW121416   1.965   1.649   6.900 -0.3096  2.0630  0.6357
 3261SOL    HW221417   1.903   1.704   6.783  0.5884  1.1110  0.4412
 3262SOL     OW21418   3.368   2.981   4.296 -0.1357 -0.5148  0.3731
 3262SOL    HW121419   3.437   2.916   4.283 -0.0541  0.2411 -2.9692
 3262SOL    HW221420   3.333   2.981   4.206 -1.3233 -0.0816  0.8374
 3263SOL     OW21421   1.178   3.968   3.069 -0.2151 -0.1587 -0.5359
 3263SOL    HW121422   1.191   4.042   3.011 -2.9439 -0.2981 -1.3274
 3263SOL    HW221423   1.235   3.906   3.022 -0.9349 -3.6759  3.2047
 3264SOL     OW21424   0.703   0.668  16.584  0.3137 -0.3444 -0.4726
 3264SOL    HW121425   0.710   0.755  16.623 -0.1289  0.2685 -1.7526
 3264SOL    HW221426   0.777   0.616  16.614  1.0996  1.4904  0.7960
 3265SOL     OW21427   3.486   1.134   0.012 -0.3856  0.2950 -0.1466
 3265SOL    HW121428   3.479   1.213  17.712 -0.9148 -0.6145 -1.4426
 3265SOL    HW221429   3.491   1.064  17.700  1.5789  1.5893 -1.3563
 3266SOL     OW21430   3.826   1.616  17.633 -0.0265 -0.4872 -0.4965
 3266SOL    HW121431   3.838   1.670  17.711  3.8816  0.9315 -2.1178
 3266SOL    HW221432   3.770   1.545  17.665 -1.8640  0.2448 -2.0546
 3267SOL     OW21433   0.435   3.029   3.769 -0.0613  0.6923  0.2067
 3267SOL    HW121434   0.395   3.011   3.854 -0.5571  2.6268  0.3944
 3267SOL    HW221435   0.506   3.087   3.798 -1.1141  3.3956 -2.6292
 3268SOL     OW21436   2.459   3.923   6.530  0.5144  0.4914  0.4710
 3268SOL    HW121437   2.519   3.997   6.518 -0.4059  1.3839  1.3899
 3268SOL    HW221438   2.470   3.905   6.623 -2.2076  1.4822  0.9943
 3269SOL     OW21439   0.268   0.688  12.316 -0.1629  0.2004 -0.3218
 3269SOL    HW121440   0.344   0.709  12.372 -1.0053  0.4467  0.7337
 3269SOL    HW221441   0.304   0.605  12.286 -0.8812  0.2678 -1.3331
 3270SOL     OW21442   3.731   4.056  14.843  0.4713 -0.0772  0.3793
 3270SOL    HW121443   3.826   4.051  14.843  0.7553  4.4078 -2.3407
 3270SOL    HW221444   3.726   4.150  14.862 -0.5377 -0.4254  1.8669
 3271SOL     OW21445   1.788   4.109   2.907  0.3697  0.5776 -0.0214
 3271SOL    HW121446   1.784   4.153   2.822 -1.2238 -0.9793 -0.7607
 3271SOL    HW221447   1.736   4.171   2.958  1.3034 -0.2937  1.9824
 3272SOL     OW21448   0.272   1.663   8.631  0.0018  1.2433 -0.5677
 3272SOL    HW121449   0.357   1.650   8.672 -0.4097  0.8384  0.1679
 3272SOL    HW221450   0.237   1.740   8.676 -0.4635  0.1015  1.0292
 3273SOL     OW21451   0.793   1.604  16.484 -0.0574 -0.2451  0.5204
 3273SOL    HW121452   0.811   1.645  16.399  0.4304 -0.5614  0.4682
 3273SOL    HW221453   0.771   1.677  16.542  0.3611  0.5764 -0.3431
 3274SOL     OW21454   1.966   1.670   0.751  0.6424  0.3533  0.0840
 3274SOL    HW121455   1.981   1.734   0.821  2.7946  1.6698 -1.5994
 3274SOL    HW221456   2.011   1.592   0.784 -2.0029 -0.5126  1.7258
 3275SOL     OW21457   4.462   3.789  11.945  0.0491  0.6267  0.4283
 3275SOL    HW121458   4.420   3.830  12.020  1.8227  0.9268  1.2600
 3275SOL    HW221459   4.510   3.716  11.984  0.7893  0.0104 -1.6346
 3276SOL     OW21460   0.948   1.292   2.052  0.2434  0.4139 -0.3231
 3276SOL    HW121461   1.023   1.313   1.997 -0.7292  0.3601 -1.6871
 3276SOL    HW221462   0.964   1.198   2.063  0.9021  0.6760  0.9604
 3277SOL     OW21463   3.424   1.452  13.113 -0.2530  0.0345 -0.0467
 3277SOL    HW121464   3.441   1.382  13.050  1.3145  0.2388  0.1348
 3277SOL    HW221465   3.335   1.484  13.098 -0.2399  1.4569  2.8785
 3278SOL     OW21466   4.596   2.215   1.064  0.2395  0.0242 -0.5525
 3278SOL    HW121467   4.509   2.198   1.101  0.4362 -2.6829 -1.3563
 3278SOL    HW221468   4.589   2.309   1.081 -1.7857 -0.2028 -0.1378
 3279SOL     OW21469   0.145   2.451   5.699  0.3243 -0.0647 -0.0133
 3279SOL    HW121470   0.166   2.524   5.641  2.4125 -0.7086 -0.0718
 3279SOL    HW221471   0.105   2.490   5.777  1.0010 -0.1005  0.3604
 3280SOL     OW21472   2.157   2.110   2.533  0.6432  0.1890  0.3486
 3280SOL    HW121473   2.212   2.049   2.581  1.3697  1.5168  1.2007
 3280SOL    HW221474   2.071   2.068   2.532  0.7163  0.0133  1.4123
 3281SOL     OW21475   0.790   4.426   4.616  0.0475  0.7213  0.1856
 3281SOL    HW121476   0.702   4.453   4.642  0.2460  0.3620  1.2253
 3281SOL    HW221477   0.848   4.489   4.659  0.0749  0.2295  0.8659
 3282SOL     OW21478   3.631   3.863   2.076  0.1353  0.1381 -0.1727
 3282SOL    HW121479   3.637   3.769   2.056 -3.8623 -0.2555  0.6259
 3282SOL    HW221480   3.542   3.884   2.049  0.8622  2.0941 -1.0848
 3283SOL     OW21481   2.756   0.993   8.074 -0.3149  0.4430  0.3729
 3283SOL    HW121482   2.665   0.967   8.083 -0.8988  2.4210  0.0844
 3283SOL    HW221483   2.796   0.907   8.085  1.6314  0.8934 -3.2055
 3284SOL     OW21484   4.477   0.641   9.937  0.2070  0.0788 -0.4945
 3284SOL    HW121485   4.547   0.701   9.961  0.7227 -0.5307 -0.4854
 3284SOL    HW221486   4.414   0.698   9.893 -1.3701 -0.5387  0.9321
 3285SOL     OW21487   3.822   4.541   9.553 -0.0682  0.4772  0.4575
 3285SOL    HW121488   3.758   4.474   9.529  2.0252 -0.8523 -1.3846
 3285SOL    HW221489   3.867   4.493   9.622  2.2383  1.4021 -0.4079
 3286SOL     OW21490   3.078   1.245   2.526 -0.1099  0.2453 -0.3524
 3286SOL    HW121491   3.044   1.334   2.521 -0.4662  0.2116  1.3878
 3286SOL    HW221492   3.164   1.274   2.556  0.2927  0.8820 -2.1563
 3287SOL     OW21493   0.416   0.635   4.660  0.1026  0.1990 -0.7914
 3287SOL    HW121494   0.368   0.603   4.584 -0.5633  1.4387 -0.8768
 3287SOL    HW221495   0.400   0.728   4.645  1.8052  0.5100 -0.7167
 3288SOL     OW21496   2.444   0.180   8.204 -0.5676 -0.3849  0.0744
 3288SOL    HW121497   2.455   0.188   8.298 -0.1525 -2.1979  0.1720
 3288SOL    HW221498   2.410   0.268   8.186 -1.0533 -0.5574  0.1364
 3289SOL     OW21499   0.505   0.201   2.564 -0.0889 -0.2833 -0.5559
 3289SOL    HW121500   0.567   0.268   2.534  0.6882 -1.0794 -0.7119
 3289SOL    HW221501   0.553   0.156   2.633  0.3524  1.0278 -0.0113
 3290SOL     OW21502   0.902   1.728  13.128  0.4462 -0.9222  0.7697
 3290SOL    HW121503   0.932   1.740  13.038  0.0880 -0.4023  0.7176
 3290SOL    HW221504   0.953   1.798  13.169 -0.0927  1.1481 -2.0890
 3291SOL     OW21505   4.212   3.427  12.781  0.1565 -0.1138 -0.3780
 3291SOL    HW121506   4.277   3.356  12.775  1.8443  1.4307 -0.5743
 3291SOL    HW221507   4.246   3.484  12.849 -0.5715  0.4921 -0.5218
 3292SOL     OW21508   2.504   1.062   9.151  0.4955 -0.3641  0.0622
 3292SOL    HW121509   2.473   1.031   9.237  1.8703 -0.8936  0.3735
 3292SOL    HW221510   2.574   0.998   9.137 -0.9159 -1.1376 -3.4198
 3293SOL     OW21511   1.926   1.385   6.303 -0.0386  0.3237 -0.1995
 3293SOL    HW121512   1.883   1.440   6.368  1.3322  0.7662  0.3450
 3293SOL    HW221513   1.898   1.434   6.226  0.9510  1.0380 -0.1110
 3294SOL     OW21514   0.622   0.931   4.561 -0.1261 -0.2465 -0.0667
 3294SOL    HW121515   0.622   0.849   4.511  2.1020 -1.1748  1.4338
 3294SOL    HW221516   0.528   0.936   4.578  0.3056 -1.0262  2.5070
 3295SOL     OW21517   4.696   3.942   8.946 -0.1890  0.5637  0.1735
 3295SOL    HW121518   4.633   3.933   8.875  1.4661  2.9657 -1.5771
 3295SOL    HW221519   4.636   3.990   9.003  0.7466 -1.0652  2.5583
 3296SOL     OW21520   0.211   0.946   4.384  0.0798 -0.0912  0.5925
 3296SOL    HW121521   0.219   1.041   4.375 -0.8147 -0.1584 -0.8704
 3296SOL    HW221522   0.156   0.924   4.309  0.6260  2.7249 -0.6370
 3297SOL     OW21523   1.257   0.808   1.121 -0.3104 -0.2722  0.1701
 3297SOL    HW121524   1.228   0.893   1.088  0.2826  0.3189  1.1651
 3297SOL    HW221525   1.197   0.782   1.191  0.3854 -1.1596  0.4380
 3298SOL     OW21526   4.592   2.904   5.102  0.2299  0.0294 -0.4666
 3298SOL    HW121527   4.544   2.865   5.175  0.4324  0.4673 -0.0924
 3298SOL    HW221528   4.668   2.846   5.107  2.7793  3.4066  0.4378
 3299SOL     OW21529   3.013   3.050  10.161  0.3851  0.0660 -0.4553
 3299SOL    HW121530   3.044   3.108  10.092  3.2237 -1.0100 -0.0500
 3299SOL    HW221531   3.007   2.964  10.119  1.0293 -0.9406  1.5088
 3300SOL     OW21532   0.353   0.040   7.397  0.0332 -0.6842 -0.5577
 3300SOL    HW121533   0.264   0.007   7.391  0.4828 -1.6626 -1.8757
 3300SOL    HW221534   0.339   0.131   7.423 -2.1292 -1.1813 -0.0579
 3301SOL     OW21535   2.905   1.538   8.696 -0.0524  0.1171  0.0913
 3301SOL    HW121536   2.998   1.523   8.681  0.0465  0.9953 -0.1679
 3301SOL    HW221537   2.869   1.463   8.744  3.3470 -2.2795 -1.1140
 3302SOL     OW21538   1.965   0.534   3.154 -0.4473  0.1073  0.4956
 3302SOL    HW121539   1.961   0.622   3.191 -2.2406  0.6204 -0.9371
 3302SOL    HW221540   2.010   0.546   3.070 -0.3164  2.0269  0.8459
 3303SOL     OW21541   4.595   3.927   3.993  0.5609  0.0191  0.0445
 3303SOL    HW121542   4.504   3.940   3.966  1.2571  3.7625 -0.5094
 3303SOL    HW221543   4.583   3.879   4.075  0.0486 -0.9021 -0.5642
 3304SOL     OW21544   0.845   0.861   2.299 -0.1096  0.5017 -0.1020
 3304SOL    HW121545   0.934   0.867   2.263  0.0263 -2.0662 -0.2095
 3304SOL    HW221546   0.855   0.897   2.387  0.0720  0.4807 -0.1152
 3305SOL     OW21547   1.901   1.018   2.798  0.3584  0.1115 -0.1543
 3305SOL    HW121548   1.968   0.950   2.792  0.8155  0.6373 -0.8996
 3305SOL    HW221549   1.909   1.067   2.717  0.1596  1.1336  0.4471
 3306SOL     OW21550   0.568   0.985  14.148 -0.4355  0.4474 -0.3884
 3306SOL    HW121551   0.481   0.970  14.111  0.0779 -0.2352 -1.3171
 3306SOL    HW221552   0.592   1.059  14.092 -2.3278  0.8190 -0.7286
 3307SOL     OW21553   4.360   1.294   8.578  0.1390 -0.4822  0.3044
 3307SOL    HW121554   4.435   1.269   8.632  0.0189 -0.7643  0.3422
 3307SOL    HW221555   4.414   1.312   8.501  0.5891 -0.7378  0.5622
 3308SOL     OW21556   4.589   3.092  17.469 -0.1107  0.2032 -0.3525
 3308SOL    HW121557   4.586   3.012  17.521  3.2762 -0.0648 -0.5449
 3308SOL    HW221558   4.628   3.149  17.535 -1.4656  3.5819 -2.4291
 3309SOL     OW21559   0.402   1.895   1.373 -0.2187  0.5717  0.0124
 3309SOL    HW121560   0.479   1.896   1.430  1.1735  0.0215 -1.8522
 3309SOL    HW221561   0.342   1.848   1.431 -1.8636  2.2317 -0.3575
 3310SOL     OW21562   2.992   3.259   4.614 -0.3227 -0.0181 -0.2222
 3310SOL    HW121563   2.938   3.180   4.614 -0.7988  0.3093 -0.6014
 3310SOL    HW221564   2.973   3.302   4.530  0.0818 -0.8194 -0.7341
 3311SOL     OW21565   1.059   1.950  17.499  0.4303 -0.1058  0.5378
 3311SOL    HW121566   0.990   1.948  17.565  0.4542 -1.5422  0.5225
 3311SOL    HW221567   1.128   1.922  17.560  1.9489  1.4152 -0.4765
 3312SOL     OW21568   0.160   1.898   1.632  0.0425 -0.1446  0.5128
 3312SOL    HW121569   0.187   1.806   1.627  1.2667  0.1885  1.0650
 3312SOL    HW221570   0.073   1.882   1.667  0.1310  1.0009  1.2477
 3313SOL     OW21571   0.209   3.277  15.489  0.0155 -0.4616  0.2739
 3313SOL    HW121572   0.143   3.219  15.452 -1.4646  0.2891  1.7123
 3313SOL    HW221573   0.273   3.274  15.419 -1.3801 -0.5957 -0.9895
 3314SOL     OW21574   0.223   1.871   8.852 -0.6325 -0.0543  0.4256
 3314SOL    HW121575   0.176   1.906   8.928  1.1737  0.2541  1.4140
 3314SOL    HW221576   0.310   1.845   8.882 -0.5346 -0.3783 -0.1442
 3315SOL     OW21577   1.869   0.199   5.505 -0.6401 -0.2707  0.4703
 3315SOL    HW121578   1.869   0.230   5.596 -0.3816  3.0556 -0.6708
 3315SOL    HW221579   1.784   0.155   5.505 -0.3069 -0.9022  2.3612
 3316SOL     OW21580   1.045   3.348   8.432 -1.6604  0.3054  0.1196
 3316SOL    HW121581   1.029   3.407   8.504  0.0542  1.6563 -0.6004
 3316SOL    HW221582   0.958   3.318   8.405 -1.5531 -0.8350  1.0149
 3317SOL     OW21583   3.668   3.385   3.744 -0.4749  0.4336 -0.2862
 3317SOL    HW121584   3.591   3.403   3.797 -0.1634  1.2620 -0.1095
 3317SOL    HW221585   3.664   3.474   3.710  0.4962  0.8134  0.5828
 3318SOL     OW21586   2.080   0.575   3.986  0.5815 -0.1974  0.9276
 3318SOL    HW121587   2.034   0.549   4.066  1.0878  2.0398  1.9489
 3318SOL    HW221588   2.164   0.565   4.031  1.6775  0.0408 -1.1003
 3319SOL     OW21589   0.019   1.410   7.057  0.7513  0.0283  0.4430
 3319SOL    HW121590   4.694   1.479   7.035  2.0013  0.7243 -0.9938
 3319SOL    HW221591   0.077   1.423   6.982  0.5343  2.2907  0.6673
 3320SOL     OW21592   3.431   3.442   2.368 -0.4016  0.4134  0.3634
 3320SOL    HW121593   3.338   3.426   2.381 -0.9413  1.8384 -1.6625
 3320SOL    HW221594   3.431   3.525   2.320  0.6587  0.4238  0.3879
 3321SOL     OW21595   0.731   2.989   8.104  0.2826  0.2147 -0.1725
 3321SOL    HW121596   0.709   2.906   8.146  1.6610 -0.0055  0.0945
 3321SOL    HW221597   0.761   3.047   8.174  0.6011 -0.4621  0.2501
 3322SOL     OW21598   3.508   3.047   2.560  0.0188 -0.0684  0.1950
 3322SOL    HW121599   3.436   3.100   2.595  0.6921  0.3302  0.9714
 3322SOL    HW221600   3.537   3.103   2.488  0.0233 -2.6606 -1.8040
 3323SOL     OW21601   2.845   3.960   5.205  0.7190 -0.4724 -0.5740
 3323SOL    HW121602   2.824   4.042   5.248  2.8811 -1.0912  1.6984
 3323SOL    HW221603   2.895   3.989   5.128  0.9760  0.0106 -0.2209
 3324SOL     OW21604   1.005   3.358   4.445  0.5589 -0.2534  0.2019
 3324SOL    HW121605   0.923   3.366   4.494 -0.7488 -1.8297 -1.7247
 3324SOL    HW221606   1.041   3.444   4.463  3.1179 -1.1051 -0.8922
 3325SOL     OW21607   0.849   4.719  16.911  0.1910  0.6195 -0.1284
 3325SOL    HW121608   0.770   4.694  16.862  0.0022  1.0225 -0.0344
 3325SOL    HW221609   0.809   4.714  16.998 -0.6316  1.3009 -0.4630
 3326SOL     OW21610   1.870   1.317  17.431  0.3108 -0.6186 -0.0909
 3326SOL    HW121611   1.870   1.317  17.335 -3.6699 -0.0967 -0.0868
 3326SOL    HW221612   1.922   1.395  17.449  0.4692 -0.8827  0.6109
 3327SOL     OW21613   2.115   3.899   6.185  0.4273 -0.0960 -0.1653
 3327SOL    HW121614   2.034   3.927   6.226  0.2642  2.8306 -2.4502
 3327SOL    HW221615   2.178   3.935   6.247 -1.5517  1.3460  0.9796
 3328SOL     OW21616   4.113   2.951   1.817  0.0218  0.3313  0.0345
 3328SOL    HW121617   4.162   2.972   1.896 -0.7696 -0.2215  0.6753
 3328SOL    HW221618   4.058   2.879   1.849 -0.9962  1.7090  1.3507
 3329SOL     OW21619   4.727   3.083  10.281  0.3349 -0.5991  0.5826
 3329SOL    HW121620   4.718   3.069  10.375  0.6940  2.8355  1.1292
 3329SOL    HW221621   0.080   3.059  10.270  1.2010  2.4236  1.1986
 3330SOL     OW21622   4.302   1.336   7.449 -0.1366  0.6997 -0.0875
 3330SOL    HW121623   4.359   1.409   7.426  0.8863  0.0783  0.4973
 3330SOL    HW221624   4.227   1.349   7.391  0.1538 -0.9600 -0.8405
 3331SOL     OW21625   0.135   0.402   9.180  0.4467  0.4348  0.0528
 3331SOL    HW121626   0.196   0.472   9.203 -0.5814  1.7403 -1.1638
 3331SOL    HW221627   0.094   0.400   9.266 -1.2420  0.9249 -0.7369
 3332SOL     OW21628   1.343   2.392   7.039 -0.4074 -0.1437 -0.0632
 3332SOL    HW121629   1.361   2.300   7.057  0.7972  0.5727  2.4197
 3332SOL    HW221630   1.367   2.439   7.119 -1.2990 -1.2986  0.8699
 3333SOL     OW21631   4.132   0.101   4.663 -0.1207  0.5472  0.1098
 3333SOL    HW121632   4.155   0.169   4.599  1.7806  0.2278  0.4542
 3333SOL    HW221633   4.215   0.055   4.652 -0.3458 -0.0991  1.1266
 3334SOL     OW21634   4.661   4.374   7.170  0.4547 -0.0904  1.1739
 3334SOL    HW121635   4.631   4.457   7.208  2.3690  0.4633  1.4592
 3334SOL    HW221636   4.575   4.333   7.161  0.4446 -0.3123  2.2344
 3335SOL     OW21637   2.568   1.187   3.329 -0.0678 -0.4275  0.6396
 3335SOL    HW121638   2.574   1.132   3.252  0.5054  1.6267 -0.7951
 3335SOL    HW221639   2.528   1.268   3.298  1.6369  0.4114  0.6201
 3336SOL     OW21640   0.140   1.993   8.236 -0.0875 -0.5224  0.0205
 3336SOL    HW121641   0.120   2.011   8.328  0.5922 -0.4604  0.1583
 3336SOL    HW221642   0.182   1.907   8.244  0.1216 -0.1647  2.8561
 3337SOL     OW21643   2.672   0.956   1.690 -0.3650  0.4081  0.5544
 3337SOL    HW121644   2.584   0.934   1.660  0.2086 -2.3435  0.8700
 3337SOL    HW221645   2.672   0.939   1.784  1.1348  1.3288  0.7124
 3338SOL     OW21646   4.481   2.087   1.862 -0.2987 -0.2727 -0.0453
 3338SOL    HW121647   4.442   2.172   1.884  0.6088 -0.0942  0.9248
 3338SOL    HW221648   4.451   2.083   1.772  0.4108  0.3447 -0.3172
 3339SOL     OW21649   2.116   1.477   0.879 -0.4122 -0.3178  0.3424
 3339SOL    HW121650   2.207   1.455   0.858  0.1498  0.4926  1.8983
 3339SOL    HW221651   2.077   1.393   0.857 -1.9079 -0.0059  1.7798
 3340SOL     OW21652   3.314   1.770  17.609  0.0003  0.1751  0.6968
 3340SOL    HW121653   3.374   1.703  17.643  0.4133 -0.5437 -1.4514
 3340SOL    HW221654   3.350   1.844  17.658 -0.6100 -0.0856  1.5503
 3341SOL     OW21655   0.808   1.239   6.369 -0.2206 -0.0983 -0.2302
 3341SOL    HW121656   0.779   1.267   6.283 -0.3860 -0.2103 -0.2120
 3341SOL    HW221657   0.842   1.315   6.416  3.1991 -0.1745 -2.6289
 3342SOL     OW21658   1.951   0.762   4.282 -0.0950 -0.5992  0.2318
 3342SOL    HW121659   1.980   0.840   4.329  1.0534 -0.2656 -1.0560
 3342SOL    HW221660   2.033   0.716   4.300 -0.6449 -1.2471  1.1172
 3343SOL     OW21661   2.293   4.726   3.425  0.7029  0.0215  0.1273
 3343SOL    HW121662   2.202   0.015   3.437 -0.0092 -1.9806 -0.6540
 3343SOL    HW221663   2.300   4.737   3.331  1.8532 -0.4685  0.1653
 3344SOL     OW21664   0.275   3.839   8.437 -0.2115 -0.2190 -0.4876
 3344SOL    HW121665   0.345   3.893   8.473 -1.4697  1.2078 -0.1590
 3344SOL    HW221666   0.282   3.754   8.481  0.7876 -0.9372 -2.0393
 3345SOL     OW21667   4.528   3.209   8.482 -0.1286 -0.2847  0.3815
 3345SOL    HW121668   4.513   3.210   8.577  0.4576 -0.7975  0.4849
 3345SOL    HW221669   4.609   3.158   8.486 -0.1552 -0.3322  0.3143
 3346SOL     OW21670   0.838   0.703   7.780  0.1055 -0.8326 -0.0952
 3346SOL    HW121671   0.797   0.636   7.835 -1.5398  0.3036  0.0434
 3346SOL    HW221672   0.773   0.701   7.711 -1.3735 -1.0686  1.3011
 3347SOL     OW21673   1.516   4.177   6.219 -0.2222  0.2926  0.2306
 3347SOL    HW121674   1.563   4.257   6.193 -2.0812  1.5345  0.7696
 3347SOL    HW221675   1.573   4.100   6.213 -2.4620 -1.3091 -0.4923
 3348SOL     OW21676   0.386   2.280   7.390 -0.8088  0.7242  0.4149
 3348SOL    HW121677   0.420   2.252   7.475 -0.4941 -2.1917 -0.6372
 3348SOL    HW221678   0.305   2.325   7.414 -3.7309 -2.9185 -2.4177
 3349SOL     OW21679   3.234   2.376   3.607  0.0769 -0.0579 -0.1240
 3349SOL    HW121680   3.225   2.330   3.690  1.8948 -0.1657  0.0028
 3349SOL    HW221681   3.193   2.313   3.548  0.4071 -0.6823  0.3151
 3350SOL     OW21682   4.661   4.577   3.963 -0.0576 -0.2919  0.6735
 3350SOL    HW121683   4.581   4.524   3.966  1.0593 -1.9861  0.7975
 3350SOL    HW221684   4.669   4.592   3.869 -1.3213 -2.3432  0.2464
 3351SOL     OW21685   2.816   4.718   4.719  0.7619 -0.4380 -0.5529
 3351SOL    HW121686   2.743   4.689   4.664  1.8996  1.6694 -3.1421
 3351SOL    HW221687   2.784   4.698   4.807 -1.3766  0.6787 -1.0757
 3352SOL     OW21688   2.286   3.105   5.514  0.4386 -0.5244 -0.5639
 3352SOL    HW121689   2.282   3.080   5.607  1.2288  0.4662 -0.2696
 3352SOL    HW221690   2.203   3.153   5.509 -1.0876 -3.1472 -0.5351
 3353SOL     OW21691   4.230   3.805   2.507 -0.0287 -0.0344  0.5644
 3353SOL    HW121692   4.201   3.793   2.597  1.3634  2.2755  1.3172
 3353SOL    HW221693   4.287   3.880   2.525  0.2520 -0.1594  0.1946
 3354SOL     OW21694   3.659   3.118   4.121 -0.6897 -0.4843 -0.0521
 3354SOL    HW121695   3.633   3.196   4.169  1.2366 -0.8834  1.6510
 3354SOL    HW221696   3.575   3.083   4.093 -0.3083 -2.1316  0.8517
 3355SOL     OW21697   4.553   3.555   3.929 -0.3277  0.0188  0.6511
 3355SOL    HW121698   4.577   3.635   3.882  0.3630 -0.2388  0.5724
 3355SOL    HW221699   4.624   3.499   3.899 -0.7013  1.0031 -2.0342
 3356SOL     OW21700   3.355   2.402  17.246 -0.1131 -0.1438  0.4587
 3356SOL    HW121701   3.291   2.463  17.282 -0.3090 -0.5900  0.8647
 3356SOL    HW221702   3.434   2.444  17.281 -0.2082 -0.0390  0.5466
 3357SOL     OW21703   0.935   2.451   1.148  0.6388  0.0552  0.2221
 3357SOL    HW121704   1.002   2.411   1.092  2.1137  1.1089  1.2485
 3357SOL    HW221705   0.877   2.376   1.163 -2.7378  2.7235  0.4897
 3358SOL     OW21706   3.355   3.288  10.744 -0.3831  0.1761  0.1416
 3358SOL    HW121707   3.282   3.300  10.805 -0.6320 -1.6118  0.2059
 3358SOL    HW221708   3.426   3.268  10.805 -0.4573 -1.9509 -0.4593
 3359SOL     OW21709   4.391   2.009  12.717 -0.4313 -0.2158 -0.1896
 3359SOL    HW121710   4.454   1.975  12.653 -0.0309  1.1598 -0.5410
 3359SOL    HW221711   4.307   2.018  12.672 -0.4438  1.3883  0.1484
 3360SOL     OW21712   0.192   4.356  15.413 -0.3287 -1.1555 -0.2942
 3360SOL    HW121713   0.222   4.402  15.492 -1.2376 -2.1514  0.6220
 3360SOL    HW221714   0.208   4.425  15.349  0.3833  0.3501  1.4816
 3361SOL     OW21715   4.234   2.438   6.775  0.0994  0.2664 -0.0353
 3361SOL    HW121716   4.165   2.465   6.715  0.3622 -0.0076 -0.4629
 3361SOL    HW221717   4.202   2.350   6.795  0.2357  0.5440  1.3645
 3362SOL     OW21718   0.049   3.525  12.270 -0.0772  0.4896  0.3152
 3362SOL    HW121719   0.006   3.460  12.325  1.5415 -0.0867  0.9069
 3362SOL    HW221720   0.061   3.594  12.335  1.8161  0.0587  0.4339
 3363SOL     OW21721   0.742   2.394  12.306 -0.0375  0.1558  0.0714
 3363SOL    HW121722   0.706   2.423  12.390 -1.5259  0.7482 -0.7877
 3363SOL    HW221723   0.834   2.385  12.331  0.2158  2.2863 -0.0627
 3364SOL     OW21724   3.429   2.212   0.116 -0.0224  0.5157 -0.4994
 3364SOL    HW121725   3.429   2.281   0.050  0.1955 -0.8386 -1.9112
 3364SOL    HW221726   3.432   2.259   0.199  0.0461 -0.5566  0.0996
 3365SOL     OW21727   1.160   4.265   3.487  0.2955 -0.2622 -0.0994
 3365SOL    HW121728   1.129   4.336   3.430  0.0721 -0.5094 -0.2848
 3365SOL    HW221729   1.102   4.277   3.562  1.3459 -0.0170  0.6765
 3366SOL     OW21730   0.134   2.031  10.843  0.2611 -0.6085  0.5814
 3366SOL    HW121731   0.106   2.120  10.822  0.8029 -0.3717  0.8534
 3366SOL    HW221732   0.202   2.023  10.776 -1.5866 -0.5011 -1.2844
 3367SOL     OW21733   1.519   0.971  17.682  0.3640  0.3022 -0.5820
 3367SOL    HW121734   1.424   0.964  17.675  0.1304  1.8147  1.0291
 3367SOL    HW221735   1.550   0.974  17.592 -0.3904  2.3962 -0.7747
 3368SOL     OW21736   0.041   0.735   2.655 -0.2004  0.4576  0.4252
 3368SOL    HW121737   0.111   0.710   2.715 -0.3709 -0.7742  0.1069
 3368SOL    HW221738   0.028   0.651   2.611  2.8894  0.0498  0.2989
 3369SOL     OW21739   3.642   1.748  16.893  0.1370  0.2660  0.4187
 3369SOL    HW121740   3.643   1.719  16.985 -3.5511  2.5932  1.1620
 3369SOL    HW221741   3.565   1.703  16.861  0.2300  0.9252 -0.7119
 3370SOL     OW21742   4.257   3.591   4.752  0.2600 -0.9024  0.0599
 3370SOL    HW121743   4.173   3.636   4.752  0.2256 -0.9666  0.5617
 3370SOL    HW221744   4.247   3.532   4.678  0.5063  0.9989 -1.4960
 3371SOL     OW21745   2.973   4.121   5.441  0.4485 -0.5428  0.5881
 3371SOL    HW121746   3.035   4.171   5.494  0.7933 -1.1411  0.7456
 3371SOL    HW221747   3.034   4.103   5.371  1.9535 -0.8570  1.9752
 3372SOL     OW21748   1.651   2.061  14.180  0.8272  0.5523  0.3911
 3372SOL    HW121749   1.595   2.046  14.105  0.2912  0.9912  0.7103
 3372SOL    HW221750   1.647   2.156  14.168  0.1921  0.3762 -0.7049
 3373SOL     OW21751   3.610   4.133   8.649 -0.1536 -0.1456 -0.0987
 3373SOL    HW121752   3.514   4.135   8.644 -0.2857 -0.1886  2.7655
 3373SOL    HW221753   3.626   4.067   8.716  1.2551 -1.9118 -2.2072
 3374SOL     OW21754   3.622   1.216   0.604  0.5043  0.0316 -0.1632
 3374SOL    HW121755   3.644   1.224   0.697 -0.0239  2.1362 -0.2127
 3374SOL    HW221756   3.527   1.216   0.594  0.4069 -0.8857  0.7442
 3375SOL     OW21757   1.033   0.416   2.017  0.0192 -0.2204  0.7746
 3375SOL    HW121758   0.951   0.447   1.977  2.2657  1.4137 -2.4967
 3375SOL    HW221759   1.006   0.325   2.024 -0.5026 -0.2521 -1.4740
 3376SOL     OW21760   1.994   3.170   6.973  0.8004  0.4931 -0.5424
 3376SOL    HW121761   2.009   3.264   6.974  2.2278  0.2649  1.5595
 3376SOL    HW221762   1.956   3.143   7.057  1.5557  0.6245 -0.1627
 3377SOL     OW21763   2.293   3.922   8.972  0.0899  0.1338 -0.6713
 3377SOL    HW121764   2.360   3.971   8.925  2.1845  0.1772  2.3810
 3377SOL    HW221765   2.212   3.966   8.946 -0.7352 -2.2650 -2.1086
 3378SOL     OW21766   4.558   1.123   9.676  0.3460  0.1678 -0.2623
 3378SOL    HW121767   4.634   1.122   9.618 -1.1006 -0.0511 -2.1255
 3378SOL    HW221768   4.524   1.211   9.661 -0.0691  0.0024 -0.2759
 3379SOL     OW21769   4.515   0.173   3.037  0.5363  0.1308  0.2729
 3379SOL    HW121770   4.588   0.222   3.074  2.0202 -2.2998  0.6360
 3379SOL    HW221771   4.554   0.086   3.023 -0.6906 -0.4109  0.2387
 3380SOL     OW21772   0.087   2.316   4.899 -0.1955 -0.0003 -0.3194
 3380SOL    HW121773   0.053   2.248   4.957  1.1861  0.6922  1.3226
 3380SOL    HW221774   0.175   2.320   4.936 -0.5973 -0.2309  0.6539
 3381SOL     OW21775   2.860   0.749   8.131  0.0960  0.1176  0.5825
 3381SOL    HW121776   2.852   0.662   8.170  0.3953 -0.5831 -0.9316
 3381SOL    HW221777   2.954   0.766   8.142  0.3375 -0.3032 -0.8490
 3382SOL     OW21778   1.729   0.363   2.447  0.2382  0.4012 -0.3755
 3382SOL    HW121779   1.733   0.457   2.463 -2.9013  0.2647  1.1827
 3382SOL    HW221780   1.671   0.360   2.371 -2.2149  0.5732  1.5246
 3383SOL     OW21781   2.396   4.335   6.227  0.5211  0.7237 -0.7650
 3383SOL    HW121782   2.475   4.293   6.261  0.5982  2.3637  1.0191
 3383SOL    HW221783   2.359   4.371   6.308  1.2109  0.1922 -0.2134
 3384SOL     OW21784   1.185   3.582   4.480 -0.5402 -0.4279 -0.0899
 3384SOL    HW121785   1.274   3.549   4.491 -0.3377  0.3688  0.6242
 3384SOL    HW221786   1.199   3.663   4.432  1.7349 -0.3863  0.6179
 3385SOL     OW21787   4.312   2.506   7.417 -0.0500  0.1520  0.5255
 3385SOL    HW121788   4.346   2.507   7.328 -0.1941  1.2087  0.4859
 3385SOL    HW221789   4.390   2.466   7.456  0.6420 -1.3865 -2.4407
 3386SOL     OW21790   3.010   2.136   5.185 -0.3345  0.5628  0.6370
 3386SOL    HW121791   2.954   2.198   5.137  1.0496  1.4883  0.2085
 3386SOL    HW221792   2.941   2.091   5.232 -0.0097  0.5374  1.0886
 3387SOL     OW21793   4.243   4.370   4.231 -0.4740 -0.0313 -0.2039
 3387SOL    HW121794   4.259   4.326   4.314 -0.4445  2.2433  1.0019
 3387SOL    HW221795   4.300   4.315   4.177  0.1781 -1.1223  1.6273
 3388SOL     OW21796   2.583   3.404   0.335 -0.2594 -0.2435 -0.7541
 3388SOL    HW121797   2.615   3.460   0.264  1.5003 -1.7401 -1.1610
 3388SOL    HW221798   2.561   3.470   0.400  3.2553 -2.0512  2.2982
 3389SOL     OW21799   3.458   3.066   8.462  0.2242 -0.2316  0.5149
 3389SOL    HW121800   3.424   3.155   8.453 -1.0847 -0.9664 -1.6902
 3389SOL    HW221801   3.519   3.064   8.389 -0.6571  0.1445 -0.2292
 3390SOL     OW21802   1.209   2.183   0.746  0.0406 -0.0892 -0.4879
 3390SOL    HW121803   1.227   2.241   0.672 -0.6493 -0.4843 -0.9777
 3390SOL    HW221804   1.278   2.122   0.718  0.5554  0.9510 -1.4989
 3391SOL     OW21805   0.174   3.150   7.677  0.8513  0.4090 -0.4090
 3391SOL    HW121806   0.198   3.230   7.723 -0.9699  0.7287 -0.0258
 3391SOL    HW221807   0.168   3.098   7.757  1.0078  0.5210 -0.3241
 3392SOL     OW21808   4.290   3.059   4.498 -0.3201  0.7071 -0.2452
 3392SOL    HW121809   4.331   3.005   4.566 -0.4361 -1.0418 -1.5728
 3392SOL    HW221810   4.237   3.130   4.535 -2.7630 -1.0500 -0.3654
 3393SOL     OW21811   1.450   1.132   3.385  0.4157  0.5186 -0.2235
 3393SOL    HW121812   1.499   1.204   3.346 -1.2412  1.3970 -0.6781
 3393SOL    HW221813   1.502   1.055   3.364  0.6117  1.0047 -1.5399
 3394SOL     OW21814   0.954   4.012   2.339 -0.6238 -0.1137  0.1292
 3394SOL    HW121815   0.919   3.923   2.341 -0.0700 -0.3225  0.5794
 3394SOL    HW221816   1.023   4.009   2.405  0.9694 -1.8015 -1.6034
 3395SOL     OW21817   0.440   4.508   0.107 -0.1196 -0.4289  0.1332
 3395SOL    HW121818   0.346   4.527   0.109 -0.3307 -1.5212  0.4264
 3395SOL    HW221819   0.435   4.415   0.085 -0.6412 -0.3949  0.1148
 3396SOL     OW21820   3.732   3.878   7.167  0.0879 -0.0680 -0.2090
 3396SOL    HW121821   3.657   3.925   7.132 -0.0167 -1.1843 -1.4773
 3396SOL    HW221822   3.785   3.955   7.190  0.0200 -0.1014  0.0598
 3397SOL     OW21823   1.445   1.096   5.113 -0.0420  0.5889 -0.3502
 3397SOL    HW121824   1.443   1.021   5.053 -1.1819  0.6867 -0.4281
 3397SOL    HW221825   1.512   1.140   5.062 -0.7569 -0.4670 -2.2031
 3398SOL     OW21826   4.193   0.622  16.170  0.5319 -0.0533  0.0980
 3398SOL    HW121827   4.273   0.674  16.180  0.9029 -1.0784  2.4491
 3398SOL    HW221828   4.120   0.681  16.189  1.8894  1.1194  1.6718
 3399SOL     OW21829   3.570   3.283   3.111  0.2688  0.7378 -0.0551
 3399SOL    HW121830   3.543   3.317   3.025  0.2968  0.4877 -0.1633
 3399SOL    HW221831   3.554   3.190   3.095  1.8504  0.5446 -0.4982
 3400SOL     OW21832   0.225   3.672   5.654  0.0488  0.0325  0.2693
 3400SOL    HW121833   0.269   3.586   5.656  0.5840  0.2738 -1.3128
 3400SOL    HW221834   0.225   3.684   5.749 -0.3453 -0.1193  0.2896
 3401SOL     OW21835   3.047   3.813   6.044 -0.3622 -0.0378  0.0496
 3401SOL    HW121836   2.974   3.829   5.984 -1.0118 -1.1730  0.5351
 3401SOL    HW221837   3.046   3.887   6.106  2.0849 -0.2113  0.2696
 3402SOL     OW21838   2.168   0.664   1.666  0.1121 -0.1074 -0.3911
 3402SOL    HW121839   2.085   0.617   1.667  0.7352 -1.1913  0.5388
 3402SOL    HW221840   2.199   0.652   1.576 -0.4299  0.3239 -0.6364
 3403SOL     OW21841   4.005   4.294   5.132 -0.1921 -0.6770  0.1657
 3403SOL    HW121842   4.057   4.343   5.196 -1.7864  1.6763 -0.3575
 3403SOL    HW221843   3.944   4.362   5.106  0.6822 -0.0793 -0.3288
 3404SOL     OW21844   0.492   0.752   8.687 -0.2876 -0.2133 -0.3507
 3404SOL    HW121845   0.575   0.734   8.731  0.1973 -0.2428 -1.2597
 3404SOL    HW221846   0.440   0.672   8.699 -0.6829 -0.1249 -1.4343
 3405SOL     OW21847   2.571   4.048   4.268 -0.2610 -0.1067 -0.1536
 3405SOL    HW121848   2.575   3.984   4.339 -0.3433  0.3485  0.2540
 3405SOL    HW221849   2.602   3.990   4.198  0.3004  1.5032 -1.2374
 3406SOL     OW21850   2.184   1.261   6.500 -0.6689  0.2003  0.3318
 3406SOL    HW121851   2.264   1.274   6.449  0.6286 -2.6707  1.6250
 3406SOL    HW221852   2.128   1.322   6.453 -1.6515 -1.5845 -0.7576
 3407SOL     OW21853   0.442   3.056   9.395  0.4911  0.3406 -0.2126
 3407SOL    HW121854   0.509   3.066   9.462  0.5366 -2.9890  0.2478
 3407SOL    HW221855   0.427   2.961   9.397 -2.6656  0.8815  1.6251
 3408SOL     OW21856   0.549   1.204   5.513  0.1239  0.2388 -0.6323
 3408SOL    HW121857   0.521   1.251   5.434  0.8971 -0.5502 -1.3777
 3408SOL    HW221858   0.472   1.154   5.539  1.4620 -0.4726  1.9196
 3409SOL     OW21859   4.102   0.200   3.452  0.4458  0.0142 -0.4365
 3409SOL    HW121860   4.023   0.233   3.495  0.5230 -0.0118 -0.2760
 3409SOL    HW221861   4.054   0.157   3.382 -0.5320  0.0207  0.2380
 3410SOL     OW21862   2.350   1.274   9.816  0.0816 -0.0302  0.5917
 3410SOL    HW121863   2.396   1.345   9.861 -0.3393  1.4059 -1.1974
 3410SOL    HW221864   2.411   1.201   9.818 -0.2881 -0.3924 -1.6353
 3411SOL     OW21865   0.795   1.802  16.682  0.3693  0.2732  0.2087
 3411SOL    HW121866   0.888   1.823  16.675  0.6984 -0.8230  1.3877
 3411SOL    HW221867   0.757   1.890  16.693  1.9883  1.3199 -2.6011
 3412SOL     OW21868   4.310   3.398   9.199 -0.7709 -0.2178 -0.0361
 3412SOL    HW121869   4.346   3.434   9.118  0.3069  0.9101  0.9349
 3412SOL    HW221870   4.232   3.352   9.168  0.8249 -2.4783 -0.6959
 3413SOL     OW21871   3.785   1.940   7.713  0.2874  0.4181  0.3092
 3413SOL    HW121872   3.814   1.974   7.798 -0.6288  0.2071  0.7006
 3413SOL    HW221873   3.690   1.944   7.718  0.2569  0.2420 -0.1664
 3414SOL     OW21874   3.217   1.654   6.916  0.2693  0.4472 -0.2557
 3414SOL    HW121875   3.147   1.710   6.883 -0.5158 -0.3519  0.0716
 3414SOL    HW221876   3.186   1.644   7.006 -2.9849 -0.8519 -1.5293
 3415SOL     OW21877   3.966   0.169   7.261  0.3393 -0.4036 -0.5255
 3415SOL    HW121878   3.960   0.144   7.168  0.1460  0.9265 -0.8686
 3415SOL    HW221879   3.951   0.085   7.304  3.8593  0.5984  2.5857
 3416SOL     OW21880   2.836   3.261   0.654  0.4254  0.6832 -0.7574
 3416SOL    HW121881   2.761   3.205   0.634 -0.9212  1.9869  0.6503
 3416SOL    HW221882   2.791   3.346   0.652 -2.8894 -1.0957 -1.7398
 3417SOL     OW21883   0.360   3.443   5.600  0.8223 -0.4032 -0.4059
 3417SOL    HW121884   0.385   3.353   5.620  1.9727 -0.4877 -2.2209
 3417SOL    HW221885   0.312   3.420   5.521  0.0852  0.8458 -0.3297
 3418SOL     OW21886   3.868   2.883   0.948 -0.2954 -0.8648 -0.0441
 3418SOL    HW121887   3.939   2.947   0.952 -0.9866 -0.0736 -0.4284
 3418SOL    HW221888   3.918   2.805   0.922 -0.3364 -0.3910 -1.5562
 3419SOL     OW21889   3.968   1.743   5.269 -0.1674  0.3226  0.2715
 3419SOL    HW121890   3.936   1.673   5.212 -2.7392  1.3865  0.4082
 3419SOL    HW221891   4.024   1.794   5.211 -1.6122  0.0773 -1.3210
 3420SOL     OW21892   4.434   2.565  10.960 -0.0686  0.3380  0.1099
 3420SOL    HW121893   4.467   2.650  10.989  0.7780 -0.7787  2.3892
 3420SOL    HW221894   4.416   2.583  10.868 -0.7810  1.6230  0.4914
 3421SOL     OW21895   4.344   0.458   5.470 -0.3715  0.4269  0.6501
 3421SOL    HW121896   4.255   0.435   5.494 -0.5838  1.8983  1.2602
 3421SOL    HW221897   4.316   0.529   5.413  0.9809  0.6749  0.2824
 3422SOL     OW21898   3.586   2.915  14.740  0.0213 -0.2942  0.0650
 3422SOL    HW121899   3.593   2.835  14.688  1.9185  1.3541 -2.2116
 3422SOL    HW221900   3.492   2.931  14.748  0.0788  0.9870 -1.8028
 3423SOL     OW21901   2.650   3.588   4.136 -0.2311  0.2031  0.5038
 3423SOL    HW121902   2.721   3.627   4.187  1.5742 -0.8466 -1.1776
 3423SOL    HW221903   2.604   3.531   4.198  1.7934  0.8054  2.5674
 3424SOL     OW21904   2.907   3.179  14.747  0.3669  0.0119  0.4638
 3424SOL    HW121905   2.858   3.197  14.827  0.2336  1.4765  0.0605
 3424SOL    HW221906   2.854   3.215  14.676  1.1352  0.2651  0.0168
 3425SOL     OW21907   0.511   2.433  12.033  0.0035  0.1489 -0.0410
 3425SOL    HW121908   0.476   2.360  11.981 -0.7580  1.7235 -1.7276
 3425SOL    HW221909   0.604   2.429  12.013 -0.2957  2.3166 -1.8793
 3426SOL     OW21910   1.497   3.839   5.614  0.1744 -0.8133  0.3262
 3426SOL    HW121911   1.462   3.784   5.544 -0.2698  0.2517 -0.2852
 3426SOL    HW221912   1.437   3.913   5.620 -1.1461 -1.7035 -2.1633
 3427SOL     OW21913   2.268   3.457   5.468 -0.2368 -0.0960 -0.2006
 3427SOL    HW121914   2.295   3.548   5.452  1.3112 -0.5604 -0.2403
 3427SOL    HW221915   2.276   3.457   5.563 -0.0599  0.9057 -0.2074
 3428SOL     OW21916   3.368   2.786   3.435  0.0586 -0.0719 -0.8868
 3428SOL    HW121917   3.415   2.714   3.477  0.4714  0.8254  0.2178
 3428SOL    HW221918   3.282   2.766   3.471  1.1896 -2.6679  0.3487
 3429SOL     OW21919   3.206   0.348   1.004 -1.1034 -0.1839 -0.6494
 3429SOL    HW121920   3.258   0.330   0.926  0.6002 -0.2735  0.5054
 3429SOL    HW221921   3.151   0.421   0.976 -3.2735 -1.2287  0.8777
 3430SOL     OW21922   2.466   2.329  10.844  0.1835  0.1510  0.4945
 3430SOL    HW121923   2.477   2.359  10.754  0.2381  1.1583  0.8369
 3430SOL    HW221924   2.553   2.293  10.864 -0.3236 -1.2349  0.1632
 3431SOL     OW21925   0.720   0.341   7.710 -0.9198  0.3053 -0.2428
 3431SOL    HW121926   0.739   0.251   7.737  2.2107  1.5235  1.5681
 3431SOL    HW221927   0.771   0.353   7.630  2.9776  0.3132  2.2231
 3432SOL     OW21928   1.374   1.189   8.128 -0.0017  0.4739 -0.1035
 3432SOL    HW121929   1.313   1.258   8.152  1.2955  1.4110  0.5207
 3432SOL    HW221930   1.333   1.103   8.134 -1.6811  1.1552 -1.9559
 3433SOL     OW21931   2.311   0.835   3.495  0.1408  0.1138  0.6885
 3433SOL    HW121932   2.380   0.899   3.514  0.5884  0.9928 -3.9901
 3433SOL    HW221933   2.311   0.831   3.399  1.2325  0.7281  0.6668
 3434SOL     OW21934   3.542   2.113   4.399  0.7666  0.0683  0.2013
 3434SOL    HW121935   3.535   2.187   4.339 -4.2336  1.2752  2.2477
 3434SOL    HW221936   3.637   2.111   4.409  0.6673 -0.5027  1.0104
 3435SOL     OW21937   2.212   4.344   2.331 -0.6231 -0.0084  0.0732
 3435SOL    HW121938   2.189   4.424   2.284 -1.3806 -1.1594 -1.5077
 3435SOL    HW221939   2.222   4.379   2.420  1.5173  0.3623 -0.3021
 3436SOL     OW21940   2.851   4.574  13.031  0.8546  0.2119 -0.1998
 3436SOL    HW121941   2.911   4.534  13.094  2.6519  1.6463 -1.0087
 3436SOL    HW221942   2.914   4.594  12.961  0.2850  0.4513 -0.6454
 3437SOL     OW21943   1.563   2.394   4.332 -0.0695  0.0425 -0.8192
 3437SOL    HW121944   1.494   2.411   4.397  1.7962 -0.0504  1.1751
 3437SOL    HW221945   1.614   2.474   4.321  1.0823 -0.2662  2.2397
 3438SOL     OW21946   0.361   2.307   3.184  0.1638 -0.1754 -0.5261
 3438SOL    HW121947   0.316   2.387   3.212  5.2495  1.7401  2.1072
 3438SOL    HW221948   0.288   2.251   3.155 -1.3581  1.7448 -0.3972
 3439SOL     OW21949   3.415   3.492   3.506  0.3635  0.2049 -0.1034
 3439SOL    HW121950   3.359   3.486   3.583  0.5978  1.6102  0.1605
 3439SOL    HW221951   3.484   3.541   3.551  0.3191 -0.9337  1.2002
 3440SOL     OW21952   3.971   3.036   2.249 -0.0740 -0.1659  0.7749
 3440SOL    HW121953   3.964   3.124   2.212 -1.4273 -0.7371 -0.3416
 3440SOL    HW221954   4.057   3.058   2.285 -0.3955  4.1625 -1.1348
 3441SOL     OW21955   0.839   0.982   3.233 -0.3549 -0.8564  0.5037
 3441SOL    HW121956   0.912   0.922   3.246  0.8573  0.7042  0.9445
 3441SOL    HW221957   0.792   0.981   3.317 -1.0658 -1.0091  0.1015
 3442SOL     OW21958   0.788   4.117  12.903  0.2439 -0.4123 -0.5865
 3442SOL    HW121959   0.750   4.205  12.894 -0.4635 -0.5291  1.3600
 3442SOL    HW221960   0.726   4.078  12.964  1.4960  0.0960  0.9786
 3443SOL     OW21961   0.471   4.285   9.119  0.4064 -0.5753  0.3771
 3443SOL    HW121962   0.385   4.322   9.100  0.1733 -0.8843  0.8335
 3443SOL    HW221963   0.518   4.356   9.163 -0.1890 -0.5956  1.0487
 3444SOL     OW21964   1.719   2.094   3.963 -0.4145  0.2528  0.5564
 3444SOL    HW121965   1.685   2.005   3.976 -0.4939  0.4494  1.7172
 3444SOL    HW221966   1.636   2.137   3.942 -0.2079 -0.3510 -1.4546
 3445SOL     OW21967   4.287   0.208   2.564 -0.0117 -0.1184  1.0544
 3445SOL    HW121968   4.348   0.203   2.638  0.1752  1.5546  1.0065
 3445SOL    HW221969   4.214   0.150   2.587 -1.0346  1.1494  1.0029
 3446SOL     OW21970   2.409   0.017   4.104  0.1667  0.7412 -0.0864
 3446SOL    HW121971   2.431   4.719   4.019 -0.9936 -2.6895  1.1008
 3446SOL    HW221972   2.316   0.041   4.095 -0.6263 -2.3970 -0.2514
 3447SOL     OW21973   0.710   4.124  14.422  0.5023  0.6677 -0.8042
 3447SOL    HW121974   0.783   4.063  14.434 -0.6795 -1.0062 -2.2000
 3447SOL    HW221975   0.647   4.069  14.375  1.3086  0.4775 -1.6604
 3448SOL     OW21976   4.004   1.272   3.394 -0.2664 -0.4961 -0.8102
 3448SOL    HW121977   4.043   1.277   3.481 -0.2055  0.1564 -0.8744
 3448SOL    HW221978   4.009   1.354   3.345 -1.7012 -0.0715 -0.2216
 3449SOL     OW21979   1.040   4.334   6.030  0.0211 -0.2624 -0.3474
 3449SOL    HW121980   0.975   4.278   5.987 -1.6282 -0.3970  2.3077
 3449SOL    HW221981   1.118   4.280   6.019 -1.3957 -2.5184  0.8195
 3450SOL     OW21982   1.790   0.001  14.174 -0.2745 -0.8482  0.0312
 3450SOL    HW121983   1.745   0.043  14.100  1.5540 -0.3483 -0.8191
 3450SOL    HW221984   1.768   0.060  14.246  0.1889 -1.8638  0.9907
 3451SOL     OW21985   1.947   4.313   4.071 -0.0315 -0.3429  0.2666
 3451SOL    HW121986   1.991   4.235   4.039  1.5592  0.5594  0.2812
 3451SOL    HW221987   1.899   4.346   3.995  0.8828  1.2330  0.3845
 3452SOL     OW21988   1.092   1.755   1.918  0.1724  0.1124  0.2146
 3452SOL    HW121989   1.162   1.693   1.937  0.6277  1.2863  2.3369
 3452SOL    HW221990   1.015   1.701   1.900 -1.7349  2.2571  1.9529
 3453SOL     OW21991   2.896   4.449   8.035  0.2017 -0.5671 -0.2075
 3453SOL    HW121992   2.803   4.446   8.015 -0.4852  1.6321  2.6102
 3453SOL    HW221993   2.892   4.444   8.131  2.5666 -0.5326 -0.0997
 3454SOL     OW21994   0.936   3.045   7.069 -0.3887  0.1617 -0.4510
 3454SOL    HW121995   0.992   2.979   7.110  0.0837  0.6560 -0.2974
 3454SOL    HW221996   1.007   3.110   7.064  0.9408 -1.2052  0.6940
 3455SOL     OW21997   3.935   1.375   3.982  0.4147 -0.5214 -0.2755
 3455SOL    HW121998   3.856   1.413   3.942 -0.2194 -0.1694  1.3075
 3455SOL    HW221999   4.002   1.441   3.967 -2.2080  1.9307 -1.3078
 3456SOL     OW22000   3.885   1.054   8.672 -0.4175  0.4712 -0.0990
 3456SOL    HW122001   3.974   1.088   8.674 -0.5671  0.8340  0.3441
 3456SOL    HW222002   3.842   1.118   8.615  0.1722 -0.5127 -1.6420
 3457SOL     OW22003   1.264   2.521   9.035 -0.4176  0.1706 -0.1578
 3457SOL    HW122004   1.337   2.584   9.037 -2.6414  2.7611 -1.0593
 3457SOL    HW222005   1.323   2.452   9.005  0.5627  0.3342  1.3999
 3458SOL     OW22006   3.591   1.660   4.193 -0.0825  0.0418 -0.0479
 3458SOL    HW122007   3.677   1.623   4.209  0.4520  0.4638 -2.0237
 3458SOL    HW222008   3.593   1.743   4.241 -0.4452  1.0996 -1.8407
 3459SOL     OW22009   1.685   3.017   8.184  0.4709  0.0557  0.4702
 3459SOL    HW122010   1.684   2.937   8.132  4.3798  0.4485 -0.1947
 3459SOL    HW222011   1.732   3.073   8.123  2.2058  1.1679  2.8185
 3460SOL     OW22012   3.767   3.461   0.918 -0.1541 -0.3208 -0.2411
 3460SOL    HW122013   3.851   3.429   0.885 -0.8382 -1.3796 -0.9563
 3460SOL    HW222014   3.787   3.549   0.950  3.0031 -0.5510 -1.5657
 3461SOL     OW22015   0.145   0.055   3.923  0.2754  0.4464 -0.3765
 3461SOL    HW122016   0.136   0.087   4.013 -1.3420 -0.5416 -0.2020
 3461SOL    HW222017   0.240   0.039   3.919 -0.0223 -1.3946  0.1779
 3462SOL     OW22018   2.868   0.543   8.911  0.3065  0.1684  0.6871
 3462SOL    HW122019   2.783   0.554   8.953 -1.7328  0.2757 -3.4773
 3462SOL    HW222020   2.885   0.458   8.953  0.0276 -0.6896 -0.9249
 3463SOL     OW22021   1.739   2.958   0.357 -0.3712  0.1408 -0.2351
 3463SOL    HW122022   1.717   2.910   0.437  1.1320 -0.9026 -0.4680
 3463SOL    HW222023   1.801   3.016   0.400 -1.6889  0.6361  1.0168
 3464SOL     OW22024   3.412   0.470   7.158 -0.6341 -0.2810  0.6117
 3464SOL    HW122025   3.376   0.387   7.188  1.1905 -1.4040 -0.2834
 3464SOL    HW222026   3.446   0.446   7.071 -1.2463  0.2141  0.2351
 3465SOL     OW22027   1.766   4.379   3.827  0.2976 -0.1078  0.2882
 3465SOL    HW122028   1.687   4.331   3.801 -0.4745  0.9681  0.6461
 3465SOL    HW222029   1.734   4.424   3.905 -0.9111 -1.1297  0.3857
 3466SOL     OW22030   0.086   3.809   4.493 -0.1878  0.4566 -0.0964
 3466SOL    HW122031   0.101   3.816   4.588  0.3734 -0.8040 -0.0952
 3466SOL    HW222032   4.738   3.844   4.478 -0.2769  0.5416  0.5889
 3467SOL     OW22033   1.568   0.903   5.645  0.4656  0.4155  0.0718
 3467SOL    HW122034   1.664   0.904   5.641  0.5197 -0.1081  1.2963
 3467SOL    HW222035   1.552   0.966   5.716 -0.5734 -1.2771  1.3266
 3468SOL     OW22036   2.099   4.459   8.949 -0.6244 -0.0882 -0.0943
 3468SOL    HW122037   2.126   4.519   8.878 -1.2395  0.3299  0.0247
 3468SOL    HW222038   2.181   4.469   8.997 -2.3399  0.5718  2.6877
 3469SOL     OW22039   0.979   0.395   0.507 -0.5469 -0.0749  0.4503
 3469SOL    HW122040   1.013   0.407   0.596  2.8175 -1.3830 -0.6763
 3469SOL    HW222041   1.025   0.317   0.477 -0.2189 -0.0239  0.8161
 3470SOL     OW22042   4.555   0.219   8.536 -0.0433 -0.5329 -0.5880
 3470SOL    HW122043   4.593   0.282   8.474 -2.9972  0.4834 -1.3574
 3470SOL    HW222044   4.465   0.249   8.538  0.1406  0.0144 -0.5485
 3471SOL     OW22045   1.691   4.372   6.828  0.2466 -0.4160 -0.0332
 3471SOL    HW122046   1.626   4.398   6.763 -1.2960 -0.8435  1.3583
 3471SOL    HW222047   1.657   4.394   6.915  1.9620 -0.0217  0.5473
 3472SOL     OW22048   4.678   3.756   6.134  0.6354  0.3224  0.1516
 3472SOL    HW122049   4.653   3.834   6.085 -0.0984  0.5456  0.8754
 3472SOL    HW222050   4.639   3.692   6.075 -1.6532  0.4369  1.5297
 3473SOL     OW22051   0.783   1.457   9.247 -0.3495 -0.4527 -0.9550
 3473SOL    HW122052   0.828   1.499   9.320 -2.1043  2.0714 -1.3099
 3473SOL    HW222053   0.806   1.366   9.262 -2.6964 -0.6602  1.4892
 3474SOL     OW22054   2.495   2.922   4.408  0.2372 -0.2522 -0.0187
 3474SOL    HW122055   2.488   2.953   4.317  1.0564 -2.3298 -0.7817
 3474SOL    HW222056   2.529   2.833   4.395  0.8088  0.0113 -0.3529
 3475SOL     OW22057   1.140   3.253   7.417  0.4254 -0.1584  0.1863
 3475SOL    HW122058   1.057   3.272   7.372  2.5808  1.9074 -2.8748
 3475SOL    HW222059   1.110   3.257   7.508  0.1838  0.6651  0.0729
 3476SOL     OW22060   0.528   2.500   2.658 -0.0696 -0.1468  0.1244
 3476SOL    HW122061   0.468   2.514   2.731 -0.4354 -2.0725  0.1918
 3476SOL    HW222062   0.613   2.513   2.700  0.2777 -0.1951 -0.5570
 3477SOL     OW22063   4.217   4.532   7.386 -0.1359  0.1144 -0.3785
 3477SOL    HW122064   4.305   4.496   7.396  0.9374  2.5142 -1.2234
 3477SOL    HW222065   4.238   4.620   7.355  0.9548 -0.3143 -0.8478
 3478SOL     OW22066   0.811   4.724   8.806  0.0424  0.1523 -0.2788
 3478SOL    HW122067   0.812   4.699   8.899 -2.6676 -0.1286 -0.3380
 3478SOL    HW222068   0.722   4.703   8.779 -0.1370 -0.0785  0.5046
 3479SOL     OW22069   4.164   0.398   9.125 -0.1979 -0.2389  0.0035
 3479SOL    HW122070   4.139   0.317   9.170 -0.8658 -0.3524 -0.5637
 3479SOL    HW222071   4.084   0.422   9.078  0.3014 -0.8315 -1.1550
 3480SOL     OW22072   0.454   3.239   7.569 -0.4060  0.7755 -0.6903
 3480SOL    HW122073   0.442   3.200   7.483  0.2410  1.0014 -0.8849
 3480SOL    HW222074   0.390   3.310   7.581 -1.3764 -0.4996  1.5639
 3481SOL     OW22075   1.124   2.643  12.828  0.3790 -0.0341  0.7681
 3481SOL    HW122076   1.059   2.706  12.860 -0.3676 -1.5791  2.3312
 3481SOL    HW222077   1.096   2.622  12.739  0.5516  2.3948  0.1443
 3482SOL     OW22078   2.254   4.056  10.566  0.6629 -0.8538  0.8604
 3482SOL    HW122079   2.172   4.101  10.590  0.2330 -1.8314  1.2285
 3482SOL    HW222080   2.273   4.017  10.651  0.2922 -0.7746  0.9823
 3483SOL     OW22081   1.946   1.850   8.767  0.8170  0.6168 -0.0533
 3483SOL    HW122082   1.870   1.793   8.781  2.5504 -1.0345  2.7554
 3483SOL    HW222083   2.000   1.814   8.838  0.8786 -1.3148 -1.0674
 3484SOL     OW22084   3.564   3.509   4.556 -0.7035 -0.4458  0.0706
 3484SOL    HW122085   3.495   3.460   4.601 -0.7034  1.0653  1.7054
 3484SOL    HW222086   3.610   3.557   4.625  1.0740  0.0258 -1.4112
 3485SOL     OW22087   4.129   1.181  17.561  0.2755 -0.6917  0.1687
 3485SOL    HW122088   4.170   1.267  17.574 -0.6705  0.1672 -2.4186
 3485SOL    HW222089   4.119   1.180  17.465  2.2148  2.3303 -0.0675
 3486SOL     OW22090   4.323   3.640   6.774 -0.5497  0.2119 -0.3459
 3486SOL    HW122091   4.331   3.735   6.780 -3.9447  0.5781 -2.2760
 3486SOL    HW222092   4.342   3.601   6.860  2.1296  1.6780 -0.2599
 3487SOL     OW22093   1.651   1.474   8.883  0.1361 -0.2769  0.1218
 3487SOL    HW122094   1.682   1.385   8.868 -2.3277 -1.0264 -0.5117
 3487SOL    HW222095   1.700   1.495   8.962 -0.5562 -2.0888  1.0224
 3488SOL     OW22096   2.195   2.745   5.967  0.2819  0.0787 -0.3181
 3488SOL    HW122097   2.137   2.677   6.003 -0.7986  0.1216 -1.9920
 3488SOL    HW222098   2.215   2.710   5.880  1.4380  1.1438 -0.4763
 3489SOL     OW22099   3.687   0.690  15.700 -0.2890  0.0722 -0.5804
 3489SOL    HW122100   3.639   0.770  15.719  0.0906 -0.0765  1.0659
 3489SOL    HW222101   3.692   0.683  15.605  0.7867 -1.3623 -0.4236
 3490SOL     OW22102   0.274   2.158   3.791  0.1069 -0.5721  0.3302
 3490SOL    HW122103   0.278   2.064   3.770 -2.3204 -0.8833  1.2343
 3490SOL    HW222104   0.367   2.179   3.799  0.0623 -0.2870  0.0819
 3491SOL     OW22105   4.480   4.481   6.127 -0.1105 -0.6147  0.0031
 3491SOL    HW122106   4.544   4.438   6.183 -1.8780 -0.0900  2.4411
 3491SOL    HW222107   4.509   4.445   6.043  1.7687  0.2268  0.3053
 3492SOL     OW22108   3.552   3.824   8.225 -0.1584  0.1551  0.0096
 3492SOL    HW122109   3.623   3.761   8.239 -1.0945 -0.2778  2.7119
 3492SOL    HW222110   3.480   3.772   8.259  0.0393 -0.8076 -1.0282
 3493SOL     OW22111   2.764   1.836   1.262 -0.1722  0.2400 -0.0343
 3493SOL    HW122112   2.802   1.828   1.349 -0.8124 -1.2029  0.1125
 3493SOL    HW222113   2.783   1.748   1.229  2.1077  1.4742 -2.0413
 3494SOL     OW22114   3.339   2.658  10.315  0.3261  0.3398  0.7904
 3494SOL    HW122115   3.408   2.607  10.273 -1.1344  0.2161 -1.4364
 3494SOL    HW222116   3.359   2.748  10.288 -1.7344  1.0848  1.7165
 3495SOL     OW22117   3.433   0.567  14.454  0.1952 -0.0300 -0.3633
 3495SOL    HW122118   3.504   0.525  14.406  2.4221  2.1513  0.9618
 3495SOL    HW222119   3.360   0.534  14.402  0.6458 -1.8553  0.1602
 3496SOL     OW22120   4.239   2.831  10.357 -0.2577  0.4076 -0.2712
 3496SOL    HW122121   4.270   2.764  10.296  0.3952  0.5231 -0.0726
 3496SOL    HW222122   4.308   2.897  10.360 -1.5873  1.6749  3.2940
 3497SOL     OW22123   0.146   1.647   4.769 -0.2791  0.4172 -0.1021
 3497SOL    HW122124   0.064   1.660   4.818  0.6165 -1.0084  1.7786
 3497SOL    HW222125   0.109   1.643   4.681 -0.7214 -0.3070  0.1107
 3498SOL     OW22126   0.469   1.446   5.291 -0.2417 -0.4451  0.2401
 3498SOL    HW122127   0.512   1.481   5.212  1.0123 -0.5558  0.8759
 3498SOL    HW222128   0.394   1.506   5.299  0.3594  0.4525 -0.8727
 3499SOL     OW22129   1.016   1.582   7.176  0.2185 -0.4566  0.2303
 3499SOL    HW122130   1.103   1.595   7.213  0.5372  0.4880 -0.8636
 3499SOL    HW222131   0.963   1.634   7.236  4.8147  0.1853  3.6960
 3500SOL     OW22132   4.734   1.981   8.004  0.1132  0.1924 -0.4270
 3500SOL    HW122133   4.731   1.887   8.017  0.5802 -0.0527 -2.1058
 3500SOL    HW222134   0.035   1.999   8.089  1.5066  1.9098 -1.4469
 3501SOL     OW22135   4.023   3.739  16.280 -0.2584  0.1206 -0.3480
 3501SOL    HW122136   4.023   3.775  16.191 -0.9864  1.9834  0.3911
 3501SOL    HW222137   3.997   3.816  16.331  0.0006 -0.1978  0.2518
 3502SOL     OW22138   3.919   1.457   0.205 -0.1371 -0.2019  0.3088
 3502SOL    HW122139   3.924   1.521   0.134  1.6214 -0.1001  0.5156
 3502SOL    HW222140   3.859   1.496   0.268  0.7059  0.9340  0.4119
 3503SOL     OW22141   4.683   0.044   2.604 -0.4746 -0.6685  0.1250
 3503SOL    HW122142   4.701   0.102   2.678  2.2316 -2.3245  0.7634
 3503SOL    HW222143   4.647   0.111   2.545  3.6916  0.6192 -0.9872
 3504SOL     OW22144   0.222   2.680   6.923 -0.3084 -0.0992 -0.0602
 3504SOL    HW122145   0.175   2.696   6.841  1.7169 -1.2934 -1.4321
 3504SOL    HW222146   0.305   2.727   6.918  1.1798 -2.7541  0.0135
 3505SOL     OW22147   3.703   2.825   3.241 -0.1592 -0.2214  0.5303
 3505SOL    HW122148   3.664   2.796   3.323  0.9434  0.2285  1.2115
 3505SOL    HW222149   3.684   2.759   3.174  1.4924  0.0171 -0.2031
 3506SOL     OW22150   0.432   4.543  11.288  0.4430 -0.1910  0.4075
 3506SOL    HW122151   0.404   4.616  11.343 -0.4598  1.5403 -2.3498
 3506SOL    HW222152   0.525   4.539  11.310  0.0324  0.8874  2.4099
 3507SOL     OW22153   3.657   3.209   1.240  0.0740  0.5491 -0.6781
 3507SOL    HW122154   3.605   3.256   1.174  1.7065  0.5461 -1.9797
 3507SOL    HW222155   3.676   3.124   1.200 -1.0278 -0.4350  0.9163
 3508SOL     OW22156   0.134   1.292   4.603  0.0335  0.4675 -0.5973
 3508SOL    HW122157   0.199   1.281   4.673 -0.5131  0.1537 -0.1383
 3508SOL    HW222158   0.053   1.279   4.652  1.2339 -0.0048  1.2745
 3509SOL     OW22159   1.022   2.482   5.509 -0.7015 -0.6073 -0.2535
 3509SOL    HW122160   1.014   2.440   5.595 -1.4489 -0.5088 -0.2693
 3509SOL    HW222161   1.029   2.406   5.452  1.5795 -0.8694  0.3901
 3510SOL     OW22162   2.808   3.388  11.125 -0.5415  0.4046  0.0120
 3510SOL    HW122163   2.846   3.335  11.195 -0.3002  1.0995  0.4090
 3510SOL    HW222164   2.718   3.354  11.125  0.1805 -1.5026  1.7823
 3511SOL     OW22165   4.640   3.382  15.630  0.1423 -0.1990 -0.2055
 3511SOL    HW122166   4.657   3.418  15.543 -2.1990  1.3222 -0.0470
 3511SOL    HW222167   4.603   3.294  15.619  0.5103 -0.4711  0.7005
 3512SOL     OW22168   2.870   0.659   5.300 -0.2760  0.5790  0.1218
 3512SOL    HW122169   2.936   0.595   5.271  2.0655  3.1957 -0.2863
 3512SOL    HW222170   2.792   0.617   5.262 -0.0503  0.7082 -0.4937
 3513SOL     OW22171   1.274   2.363  11.973  0.2015 -0.1295 -0.1690
 3513SOL    HW122172   1.207   2.430  11.958  0.9177  0.9661  1.4873
 3513SOL    HW222173   1.321   2.396  12.050 -0.6607 -0.8217  0.6552
 3514SOL     OW22174   1.340   0.254   6.323 -0.1186  0.7205  0.2530
 3514SOL    HW122175   1.432   0.228   6.330 -0.0219  1.3949  1.4464
 3514SOL    HW222176   1.285   0.179   6.300 -0.5670  1.0022  0.4253
 3515SOL     OW22177   1.877   2.089   6.934 -0.1991  0.3977  0.2324
 3515SOL    HW122178   1.839   2.176   6.928 -1.9033 -0.2645  1.7290
 3515SOL    HW222179   1.931   2.091   6.854 -0.1481  0.0802  0.2553
 3516SOL     OW22180   2.473   2.421   3.442 -0.2915  0.1027  0.0379
 3516SOL    HW122181   2.401   2.446   3.501 -0.8887  0.1389 -0.7103
 3516SOL    HW222182   2.544   2.402   3.503 -0.3470  1.6458  0.5708
 3517SOL     OW22183   3.060   1.491   8.112  0.3204 -0.3722 -0.0579
 3517SOL    HW122184   2.978   1.508   8.158  0.0851  1.2185 -1.0416
 3517SOL    HW222185   3.060   1.398   8.132 -0.8781 -0.3301  0.1506
 3518SOL     OW22186   1.692   0.015   2.284 -0.4871 -0.7297 -0.3597
 3518SOL    HW122187   1.669   0.017   2.191  1.8618 -1.2410 -0.9428
 3518SOL    HW222188   1.604   0.012   2.323 -0.6224 -0.5848 -0.6534
 3519SOL     OW22189   0.110   1.389   3.795 -0.8085  0.5074 -0.3905
 3519SOL    HW122190   0.186   1.430   3.836  1.0872 -0.8189 -2.5853
 3519SOL    HW222191   0.052   1.393   3.871  1.0850 -0.9024  1.1079
 3520SOL     OW22192   1.847   1.570   4.146  0.4203 -0.0493  0.3204
 3520SOL    HW122193   1.877   1.538   4.061 -0.7013  2.7255 -1.1512
 3520SOL    HW222194   1.916   1.633   4.170  0.6137 -0.6830  1.4060
 3521SOL     OW22195   3.834   1.916  12.766 -0.2919 -0.2602 -0.7005
 3521SOL    HW122196   3.811   1.899  12.857 -0.2005 -2.2018 -1.0510
 3521SOL    HW222197   3.773   1.988  12.746  0.9773  1.4974  1.7544
 3522SOL     OW22198   0.740   2.119   8.171 -0.2605  0.8039  0.3556
 3522SOL    HW122199   0.793   2.047   8.138  0.0997  2.0892 -1.9019
 3522SOL    HW222200   0.658   2.087   8.208 -0.1097  0.0966  0.0657
 3523SOL     OW22201   1.258   1.634   7.305 -0.5537  0.2933 -0.2306
 3523SOL    HW122202   1.271   1.575   7.379 -1.6902 -0.6226 -0.7511
 3523SOL    HW222203   1.342   1.648   7.262 -0.1116 -1.7486 -0.0116
 3524SOL     OW22204   4.296   1.911   4.217 -0.2198 -0.5498 -0.6521
 3524SOL    HW122205   4.282   1.817   4.206  3.4360 -1.4078  2.0296
 3524SOL    HW222206   4.324   1.936   4.129  0.4465  2.4192  0.4103
 3525SOL     OW22207   2.216   0.818   7.963 -0.5751 -0.3302  0.0321
 3525SOL    HW122208   2.177   0.770   7.890  0.1898 -0.0847 -0.5370
 3525SOL    HW222209   2.167   0.787   8.039 -0.1465 -0.4128  0.2752
 3526SOL     OW22210   3.411   3.411  16.653 -0.3539 -0.6158  0.0481
 3526SOL    HW122211   3.432   3.490  16.702 -3.2485 -0.5855  1.2493
 3526SOL    HW222212   3.497   3.370  16.644  0.5970  1.1235  1.2046
 3527SOL     OW22213   3.236   3.776   3.599  0.0344 -0.0649  0.2268
 3527SOL    HW122214   3.183   3.700   3.576 -1.0454  0.3880  1.2472
 3527SOL    HW222215   3.322   3.749   3.565 -0.0169 -0.4046  0.3680
 3528SOL     OW22216   0.867   2.018  17.028  0.0379  0.0014  0.0293
 3528SOL    HW122217   0.919   2.080  17.080 -1.2100 -0.3903  1.7173
 3528SOL    HW222218   0.820   2.078  16.970  1.5923  0.4054 -0.8316
 3529SOL     OW22219   3.225   1.693   0.600  0.2047 -0.1549  0.5756
 3529SOL    HW122220   3.150   1.747   0.573  1.8443  1.6831 -0.2844
 3529SOL    HW222221   3.190   1.639   0.671 -0.5672 -1.7879 -1.0412
 3530SOL     OW22222   0.692   0.505   7.911 -0.2342  0.3980 -0.2420
 3530SOL    HW122223   0.654   0.447   7.977 -1.2472 -0.2296 -1.3744
 3530SOL    HW222224   0.691   0.453   7.830  1.1265 -1.0709  0.6881
 3531SOL     OW22225   0.693   2.654   6.522 -0.0964  0.7763 -0.4464
 3531SOL    HW122226   0.646   2.737   6.517 -1.2564  0.1703  0.5984
 3531SOL    HW222227   0.724   2.642   6.432  1.3828  1.0798  0.0209
 3532SOL     OW22228   4.348   3.956  13.106  0.1004  0.8403  0.3415
 3532SOL    HW122229   4.380   3.957  13.016 -0.6304  0.1750  0.0664
 3532SOL    HW222230   4.275   4.019  13.107 -0.3921  0.2885 -0.6370
 3533SOL     OW22231   3.662   4.626   6.261  0.2415  0.8839  0.3120
 3533SOL    HW122232   3.752   4.593   6.266 -0.0677  0.1009  0.5582
 3533SOL    HW222233   3.610   4.550   6.286 -0.5965  1.0535 -0.9025
 3534SOL     OW22234   2.686   3.236   4.871 -0.1937 -0.0274 -0.0076
 3534SOL    HW122235   2.729   3.306   4.823 -1.4775  0.0234 -1.0938
 3534SOL    HW222236   2.655   3.281   4.949 -1.2934  0.0470 -0.4752
 3535SOL     OW22237   3.267   0.946   3.866 -0.0708 -0.3659  0.3907
 3535SOL    HW122238   3.339   0.883   3.858  0.4472  0.2604  0.1181
 3535SOL    HW222239   3.226   0.933   3.780 -0.1628  2.6268  0.0018
 3536SOL     OW22240   4.429   3.590   3.539 -0.5121 -0.2714 -0.2578
 3536SOL    HW122241   4.488   3.664   3.547 -0.1279 -0.6466  0.4219
 3536SOL    HW222242   4.463   3.532   3.607  0.5384  0.6263 -0.0159
 3537SOL     OW22243   2.035   2.022  10.400 -0.3642  0.2628 -0.3009
 3537SOL    HW122244   1.995   2.099  10.359  2.3663  1.9646  0.2709
 3537SOL    HW222245   2.089   1.995  10.326  0.9559 -0.0851  0.7927
 3538SOL     OW22246   2.334   0.295  13.219  1.0128 -0.4928 -0.1036
 3538SOL    HW122247   2.272   0.367  13.209  0.1045 -1.2876 -0.1383
 3538SOL    HW222248   2.291   0.227  13.167 -1.6182 -0.1806  1.6450
 3539SOL     OW22249   2.042   0.997   4.404  0.5603  0.1301 -0.4363
 3539SOL    HW122250   2.105   1.029   4.467 -0.1433 -0.5512  0.6110
 3539SOL    HW222251   2.006   1.077   4.367  1.5448  0.6316 -0.2861
 3540SOL     OW22252   1.846   0.791   0.349 -0.3655  0.1829  0.7227
 3540SOL    HW122253   1.776   0.814   0.410 -0.2075  0.6327  0.7354
 3540SOL    HW222254   1.854   0.880   0.317 -0.5627 -0.0447  0.0365
 3541SOL     OW22255   3.426   0.502   3.560 -0.3371  0.0726  0.2239
 3541SOL    HW122256   3.347   0.464   3.523  0.3358  1.1916 -2.3871
 3541SOL    HW222257   3.498   0.472   3.505  1.3859  4.3031  0.1666
 3542SOL     OW22258   0.785   4.581   6.116  0.3456  0.2094  0.6404
 3542SOL    HW122259   0.765   4.515   6.049  1.0708  2.2024 -1.5807
 3542SOL    HW222260   0.838   4.524   6.171  1.1083 -0.1933 -0.5050
 3543SOL     OW22261   2.355   1.421   0.771 -0.6168  0.8685 -0.1825
 3543SOL    HW122262   2.310   1.457   0.695 -0.8047 -1.4988 -1.1689
 3543SOL    HW222263   2.396   1.346   0.730 -1.6833 -0.0969  0.5012
 3544SOL     OW22264   0.036   0.776   0.302 -0.3033  0.2616  0.0840
 3544SOL    HW122265   0.000   0.774   0.214  0.8024 -0.2529 -0.3551
 3544SOL    HW222266   0.128   0.794   0.284 -0.5837  1.3221 -0.2190
 3545SOL     OW22267   2.213   2.713   7.579  0.1015 -0.1662 -0.2205
 3545SOL    HW122268   2.243   2.759   7.501 -0.0594 -1.7287 -1.1930
 3545SOL    HW222269   2.277   2.753   7.638 -1.1189 -0.7268  1.4924
 3546SOL     OW22270   1.047   3.790   5.079 -0.3081 -0.7717  0.0137
 3546SOL    HW122271   1.139   3.812   5.094 -0.3245  0.9084 -2.3831
 3546SOL    HW222272   1.060   3.695   5.080  0.6688 -0.6358  0.5202
 3547SOL     OW22273   3.899   0.765   8.291  0.1413  0.1114  0.3260
 3547SOL    HW122274   3.938   0.687   8.251 -1.3866  0.4977 -1.9298
 3547SOL    HW222275   3.970   0.795   8.348  0.6597 -2.2013  0.8784
 3548SOL     OW22276   2.755   1.389   1.795  0.2944  0.4928 -0.1601
 3548SOL    HW122277   2.820   1.354   1.856  0.3228  0.9640  0.0786
 3548SOL    HW222278   2.791   1.476   1.779 -0.1005  1.2186  2.9150
 3549SOL     OW22279   2.952   1.745   6.822  0.1924 -0.4349 -0.2891
 3549SOL    HW122280   2.930   1.778   6.909  1.2483 -1.0547  0.2115
 3549SOL    HW222281   2.906   1.663   6.809 -1.7013  0.6774 -0.5679
 3550SOL     OW22282   1.449   0.442   7.389 -0.4337  0.3639  0.3440
 3550SOL    HW122283   1.525   0.385   7.393  0.9343  2.1461 -0.6228
 3550SOL    HW222284   1.477   0.517   7.336  0.4019 -0.8805 -0.9442
 3551SOL     OW22285   0.634   3.801  15.269 -0.0228  0.2974 -0.5939
 3551SOL    HW122286   0.715   3.825  15.314  0.0621 -1.4354  0.1784
 3551SOL    HW222287   0.657   3.710  15.248  0.1862  0.0780  0.5930
 3552SOL     OW22288   3.937   3.805   6.740  0.0686  0.5628 -0.1032
 3552SOL    HW122289   3.850   3.826   6.774 -0.6101  0.5909 -1.8558
 3552SOL    HW222290   3.992   3.848   6.806  0.2527 -1.9423  1.3682
 3553SOL     OW22291   3.072   3.125   4.141  0.1295  0.1349 -0.0263
 3553SOL    HW122292   3.072   3.068   4.218  0.8203 -0.2928 -0.3387
 3553SOL    HW222293   2.978   3.125   4.122 -0.0070 -2.7258  0.6132
 3554SOL     OW22294   3.929   4.726   7.605  0.2048 -0.0624  0.2881
 3554SOL    HW122295   3.847   4.731   7.556 -0.2033 -2.6918  0.7186
 3554SOL    HW222296   3.975   0.069   7.586 -2.6623  1.7171  1.0045
 3555SOL     OW22297   1.487   1.962   1.998 -0.2189 -0.3255  0.5944
 3555SOL    HW122298   1.400   1.927   2.017  0.2107 -1.3531  0.6138
 3555SOL    HW222299   1.476   2.054   2.024 -1.7903 -0.3628  0.1130
 3556SOL     OW22300   0.903   1.647   6.919 -0.0502 -0.2398  0.3150
 3556SOL    HW122301   0.967   1.715   6.941  1.8524 -2.5051  1.7471
 3556SOL    HW222302   0.863   1.624   7.002  0.3268  1.4313  0.9585
 3557SOL     OW22303   1.481   1.321   0.280  0.3497  0.1708  0.2470
 3557SOL    HW122304   1.390   1.310   0.252 -0.3867  0.2922  2.5772
 3557SOL    HW222305   1.524   1.286   0.203 -1.8193 -0.0215 -0.8667
 3558SOL     OW22306   4.666   4.370  13.839  0.1489 -0.0163 -0.1191
 3558SOL    HW122307   4.677   4.275  13.843 -1.6642 -0.2179  0.3310
 3558SOL    HW222308   4.579   4.371  13.879 -1.2819 -2.9895 -3.1423
 3559SOL     OW22309   4.544   1.692   2.804  0.3628 -0.0754 -0.0677
 3559SOL    HW122310   4.528   1.756   2.735  3.1782  0.4933 -0.1826
 3559SOL    HW222311   4.483   1.722   2.872  0.2461 -3.1819  1.1813
 3560SOL     OW22312   1.836   3.013  14.699 -0.0637 -0.2189 -0.0250
 3560SOL    HW122313   1.906   2.958  14.734  0.6172  2.0024  2.0732
 3560SOL    HW222314   1.766   2.998  14.762  0.5934 -1.8340  0.3074
 3561SOL     OW22315   4.513   4.536   8.639  0.1873  0.7326 -0.2389
 3561SOL    HW122316   4.498   4.614   8.693 -1.0971  0.9668 -0.9216
 3561SOL    HW222317   4.592   4.510   8.686 -1.1711  1.6712  2.5870
 3562SOL     OW22318   0.873   0.491   4.092 -0.4001  0.1094  0.3106
 3562SOL    HW122319   0.937   0.500   4.162 -0.4462 -1.3160  0.5384
 3562SOL    HW222320   0.794   0.481   4.144 -0.8521 -1.1314 -0.6109
 3563SOL     OW22321   2.853   2.547   9.125 -0.7754  0.6580  0.6434
 3563SOL    HW122322   2.791   2.541   9.197  1.4061 -0.0302  2.4532
 3563SOL    HW222323   2.915   2.477   9.146 -1.2362  0.8829  2.7271
 3564SOL     OW22324   4.047   0.409   8.580  0.2974  0.2050 -0.2690
 3564SOL    HW122325   4.029   0.452   8.664  2.0008  0.4257 -0.0046
 3564SOL    HW222326   3.964   0.372   8.550 -0.4341  0.8175  1.0018
 3565SOL     OW22327   0.739   4.051   6.932  0.9540 -0.4029 -0.6946
 3565SOL    HW122328   0.794   4.001   6.872  1.7206 -0.2537 -0.1237
 3565SOL    HW222329   0.725   3.999   7.012  0.4540  1.9451  0.7530
 3566SOL     OW22330   0.489   4.064   3.105  0.3534  0.8663  0.0943
 3566SOL    HW122331   0.406   4.069   3.057 -0.2893 -2.0550  0.8704
 3566SOL    HW222332   0.479   3.980   3.151  1.4929  2.4184  3.1454
 3567SOL     OW22333   4.091   0.736   8.534 -0.6388  0.4823  0.2713
 3567SOL    HW122334   4.142   0.724   8.614  1.8505  2.3349 -1.0268
 3567SOL    HW222335   4.003   0.748   8.569  0.1604  1.6169  1.8708
 3568SOL     OW22336   0.533   1.534   7.103 -0.3955  0.1195 -0.3208
 3568SOL    HW122337   0.548   1.439   7.113  1.2040  0.2821 -1.2087
 3568SOL    HW222338   0.517   1.539   7.009  2.0306  0.6997 -0.7228
 3569SOL     OW22339   2.268   2.458   8.195  0.0339 -0.4422 -0.1951
 3569SOL    HW122340   2.356   2.470   8.229 -0.8139  1.4033  1.3499
 3569SOL    HW222341   2.285   2.448   8.101 -2.7580 -2.2317 -0.5279
 3570SOL     OW22342   3.944   3.799   3.236  0.7125  0.4945  0.0782
 3570SOL    HW122343   3.870   3.809   3.176  0.2220  2.0748  0.9380
 3570SOL    HW222344   4.004   3.868   3.208  2.0555 -0.0340  1.6587
 3571SOL     OW22345   4.516   4.050   9.133  0.6322 -0.5329 -0.3045
 3571SOL    HW122346   4.519   3.979   9.197  3.1171 -0.5719 -0.4301
 3571SOL    HW222347   4.457   4.015   9.066  1.2495  1.1233 -1.7116
 3572SOL     OW22348   3.604   2.303   2.214  0.0715 -0.5686 -1.1560
 3572SOL    HW122349   3.629   2.387   2.176  0.6788 -1.1859 -2.1424
 3572SOL    HW222350   3.530   2.272   2.162 -0.5511  0.4154 -0.8445
 3573SOL     OW22351   0.833   2.217   6.248 -0.1466  0.2550  0.1154
 3573SOL    HW122352   0.880   2.134   6.242 -0.8659 -0.2202  1.0752
 3573SOL    HW222353   0.904   2.278   6.228  1.6902 -1.3788  1.5950
 3574SOL     OW22354   1.560   1.015   2.624  0.2221  0.2460  0.3930
 3574SOL    HW122355   1.581   0.964   2.703 -2.0337 -1.1409  0.0855
 3574SOL    HW222356   1.624   1.086   2.630  1.5244 -0.8420 -0.3311
 3575SOL     OW22357   2.180   3.244  10.781 -0.1175  0.1991  0.0697
 3575SOL    HW122358   2.157   3.335  10.767  1.0491  0.8280  2.2101
 3575SOL    HW222359   2.194   3.252  10.876 -0.2930 -1.5428  0.2454
 3576SOL     OW22360   3.916   2.601   3.319  0.1442 -0.1137  0.0424
 3576SOL    HW122361   3.853   2.652   3.369 -0.2770  0.4728 -1.0883
 3576SOL    HW222362   3.994   2.652   3.341  1.2635 -1.0427 -1.7484
 3577SOL     OW22363   4.116   4.583   9.610  0.2420 -0.2490 -0.0840
 3577SOL    HW122364   4.202   4.619   9.628  0.9892 -1.5485 -1.0986
 3577SOL    HW222365   4.061   4.651   9.648  1.0772  0.1883  0.3354
 3578SOL     OW22366   1.569   4.399  13.716  0.3121  0.3864 -0.2884
 3578SOL    HW122367   1.585   4.492  13.732  0.0798  0.5599 -1.0799
 3578SOL    HW222368   1.658   4.365  13.727 -0.4436 -1.2323  0.6854
 3579SOL     OW22369   0.870   2.960   4.426  0.6299  0.3510  0.0254
 3579SOL    HW122370   0.912   3.017   4.362 -0.3035 -2.1016 -2.7731
 3579SOL    HW222371   0.951   2.932   4.470  0.2831 -1.6217 -0.5584
 3580SOL     OW22372   3.301   3.210   2.598 -0.2794 -0.1573 -0.1527
 3580SOL    HW122373   3.280   3.296   2.563 -0.4436  0.0844  0.5243
 3580SOL    HW222374   3.224   3.185   2.650  0.8484 -1.0914  1.0792
 3581SOL     OW22375   0.878   3.261   7.326  0.1068 -0.5306  0.0435
 3581SOL    HW122376   0.833   3.189   7.281  3.2073 -1.9839 -0.7568
 3581SOL    HW222377   0.819   3.335   7.312 -0.6925 -0.6271  2.8475
 3582SOL     OW22378   0.350   1.896  11.932 -0.3630  0.1474  0.1495
 3582SOL    HW122379   0.383   1.820  11.884  2.2230  1.2875  0.0993
 3582SOL    HW222380   0.281   1.916  11.869 -1.3363  0.0231  1.1706
 3583SOL     OW22381   2.468   0.934   7.510  0.1695  0.2233 -0.0358
 3583SOL    HW122382   2.548   0.926   7.561  2.3497 -1.2272 -3.6516
 3583SOL    HW222383   2.424   0.849   7.520 -0.0279  0.2777 -0.4223
 3584SOL     OW22384   2.297   4.592   9.175 -0.2841  0.0487 -0.0184
 3584SOL    HW122385   2.326   4.513   9.221 -0.0222 -0.6919 -1.4470
 3584SOL    HW222386   2.297   4.647   9.253 -1.7651  1.0621 -0.7541
 3585SOL     OW22387   3.695   0.301   7.065 -0.4194 -0.0274  0.5129
 3585SOL    HW122388   3.770   0.346   7.026  0.6619 -2.5434 -0.3501
 3585SOL    HW222389   3.622   0.320   7.005  2.3420 -0.1137 -2.9122
 3586SOL     OW22390   3.043   4.651   2.741 -0.9348  0.3996 -0.0472
 3586SOL    HW122391   3.133   4.619   2.736 -1.5074 -0.9832 -1.0916
 3586SOL    HW222392   3.041   0.007   2.724 -1.9702  0.4869  0.5133
 3587SOL     OW22393   2.116   4.613   6.125 -0.0992 -0.1689 -0.2879
 3587SOL    HW122394   2.193   4.572   6.085 -0.2781 -0.1532 -0.6532
 3587SOL    HW222395   2.063   4.635   6.049  0.2181  1.2141 -0.1014
 3588SOL     OW22396   2.823   0.033   4.185 -0.0347  0.1117  0.4757
 3588SOL    HW122397   2.883   4.712   4.230  0.7312  2.7027  2.9759
 3588SOL    HW222398   2.791   0.079   4.263 -0.3786 -0.9559  0.9651
 3589SOL     OW22399   1.954   1.829   0.985 -0.0702  0.1621 -0.1394
 3589SOL    HW122400   1.873   1.818   1.035  1.2774  0.5914  2.1293
 3589SOL    HW222401   1.992   1.897   1.040  1.4973  0.6406 -1.8329
 3590SOL     OW22402   0.166   1.535   4.200  0.4868 -0.8506 -0.1618
 3590SOL    HW122403   0.221   1.593   4.148 -0.4148 -0.0162 -0.1689
 3590SOL    HW222404   0.229   1.514   4.269  0.2692 -2.7087 -0.5136
 3591SOL     OW22405   4.254   3.607  12.198 -0.3672 -0.4750  0.0813
 3591SOL    HW122406   4.237   3.623  12.291  0.7162 -0.1796  0.2366
 3591SOL    HW222407   4.314   3.533  12.196 -0.1441 -0.2060 -2.7994
 3592SOL     OW22408   3.168   3.202   5.395 -0.4134 -0.3036 -0.4501
 3592SOL    HW122409   3.138   3.225   5.483 -1.8578 -3.4522 -0.1045
 3592SOL    HW222410   3.095   3.222   5.336  0.5200 -2.5475 -2.3307
 3593SOL     OW22411   3.058   4.571  15.677 -0.6248 -0.3057 -0.4693
 3593SOL    HW122412   3.149   4.575  15.706 -0.4765  0.2009 -1.0029
 3593SOL    HW222413   3.006   4.550  15.755 -0.1152  0.3730  0.0513
 3594SOL     OW22414   2.380   0.548  13.991 -0.3857  0.3124  0.4656
 3594SOL    HW122415   2.377   0.613  13.921  2.0373  0.1969  0.2563
 3594SOL    HW222416   2.292   0.509  13.987 -0.6016  1.1763 -3.4677
 3595SOL     OW22417   1.700   3.037  10.959  0.1872 -0.0542 -0.1902
 3595SOL    HW122418   1.752   2.956  10.953  0.5567  0.2247 -0.7211
 3595SOL    HW222419   1.735   3.090  10.888  0.0615  2.2294  1.4367
 3596SOL     OW22420   2.389   4.595  15.909  0.2608  0.3755 -0.1032
 3596SOL    HW122421   2.443   4.627  15.837 -1.8826  0.1962 -1.7911
 3596SOL    HW222422   2.313   4.561  15.862  0.4311 -2.3291  1.5665
 3597SOL     OW22423   3.822   4.042   5.408  0.0160 -0.0775  0.1816
 3597SOL    HW122424   3.780   3.975   5.463 -0.3238  0.9640  1.1861
 3597SOL    HW222425   3.886   4.083   5.467  1.0566 -0.9331 -0.3509
 3598SOL     OW22426   1.330   0.716   9.825  0.7735 -0.1555 -0.1217
 3598SOL    HW122427   1.298   0.806   9.824 -0.7601 -0.6884  2.1147
 3598SOL    HW222428   1.421   0.738   9.805  0.7453  0.2689  0.2279
 3599SOL     OW22429   2.585   2.319   6.532 -0.2268 -0.8559  0.3025
 3599SOL    HW122430   2.656   2.327   6.469 -2.6116  0.8818 -2.1709
 3599SOL    HW222431   2.522   2.294   6.464  0.2363 -2.8536  0.6089
 3600SOL     OW22432   4.319   3.751   2.041 -0.3158  0.4700 -0.1053
 3600SOL    HW122433   4.327   3.831   2.094  1.7639  0.7460 -0.8103
 3600SOL    HW222434   4.389   3.709   2.092  0.0550 -0.4997 -1.4316
 3601SOL     OW22435   0.500   0.583   9.042  0.2954  0.0088 -0.2790
 3601SOL    HW122436   0.517   0.669   9.003  0.2909  0.6480  1.1290
 3601SOL    HW222437   0.444   0.546   8.974 -0.7679  3.3601 -1.2321
 3602SOL     OW22438   4.079   2.252   0.020 -0.5315 -0.3974 -0.6198
 3602SOL    HW122439   4.003   2.244  17.716 -0.1899 -1.3631 -0.9178
 3602SOL    HW222440   4.115   2.165   0.007  0.4537 -0.6045  3.4871
 3603SOL     OW22441   3.444   1.377   8.801  0.2548  0.5665 -0.3775
 3603SOL    HW122442   3.449   1.281   8.794  1.8528  0.6657 -0.4584
 3603SOL    HW222443   3.422   1.395   8.710 -1.5582  0.5847  0.0618
 3604SOL     OW22444   1.551   1.656   6.204  0.3238 -0.2323  0.5546
 3604SOL    HW122445   1.619   1.696   6.149 -0.3748  0.3307  0.1076
 3604SOL    HW222446   1.510   1.735   6.240  1.1854  0.1873  0.6222
 3605SOL     OW22447   3.496   0.490  14.735 -0.6761  0.0618  0.5447
 3605SOL    HW122448   3.474   0.544  14.659  1.8734 -0.6221 -0.7075
 3605SOL    HW222449   3.546   0.423  14.688  0.2270  0.1923  1.3279
 3606SOL     OW22450   3.444   0.798   0.848  0.0900 -0.7530 -0.0089
 3606SOL    HW122451   3.449   0.864   0.917  0.0880 -1.2564  0.4732
 3606SOL    HW222452   3.520   0.818   0.793  1.2286 -0.9355  1.4739
 3607SOL     OW22453   2.973   0.032  12.147  0.4730 -0.1881  0.0934
 3607SOL    HW122454   2.965   0.074  12.061  0.1992  2.6081  1.5084
 3607SOL    HW222455   3.066   0.009  12.150  0.6106  0.8976  3.9348
 3608SOL     OW22456   3.165   2.860   5.678  0.2840 -0.0652 -0.3065
 3608SOL    HW122457   3.208   2.943   5.698 -0.9744  0.3462  0.7256
 3608SOL    HW222458   3.074   2.874   5.649  1.1244  2.2769 -1.8689
 3609SOL     OW22459   1.191   4.612  16.072 -0.1426 -0.1201 -0.2712
 3609SOL    HW122460   1.238   4.677  16.020  0.4571 -0.6121 -0.3472
 3609SOL    HW222461   1.104   4.616  16.032 -0.2863 -1.9648 -0.1551
 3610SOL     OW22462   1.374   4.482   5.765 -0.4232  0.4564  0.2271
 3610SOL    HW122463   1.285   4.498   5.796 -1.5105 -1.9190 -1.7141
 3610SOL    HW222464   1.419   4.488   5.849 -1.5983  2.3717  0.7354
 3611SOL     OW22465   0.382   2.828  11.450  0.6399 -0.4035 -0.1797
 3611SOL    HW122466   0.340   2.807  11.366  0.1542  1.1832 -0.3267
 3611SOL    HW222467   0.310   2.831  11.512 -0.3522  1.5226 -1.4121
 3612SOL     OW22468   4.073   2.873   4.614  0.1711 -0.0425 -0.2892
 3612SOL    HW122469   4.165   2.848   4.609 -0.0976 -0.5389 -2.9975
 3612SOL    HW222470   4.031   2.805   4.561 -3.0664  2.2960 -0.7540
 3613SOL     OW22471   1.942   0.432   8.492 -0.2029 -0.4624  1.1069
 3613SOL    HW122472   1.893   0.350   8.503 -1.8134  0.4908  1.0935
 3613SOL    HW222473   1.942   0.477   8.577  0.0277  0.9083  0.3708
 3614SOL     OW22474   1.732   1.614   0.403 -0.6059  0.3456 -0.1012
 3614SOL    HW122475   1.771   1.691   0.444  0.4425  1.5504 -3.4037
 3614SOL    HW222476   1.800   1.597   0.338  1.7165  2.5792  1.7001
 3615SOL     OW22477   1.246   3.395   3.970 -0.3507 -0.4230 -0.1287
 3615SOL    HW122478   1.164   3.441   3.952 -1.0545 -1.2528  0.9494
 3615SOL    HW222479   1.241   3.405   4.065 -0.3044  2.1278 -0.4032
 3616SOL     OW22480   3.660   0.418   1.651  0.1099 -0.4338  0.2179
 3616SOL    HW122481   3.613   0.484   1.599 -0.9057 -0.4813  1.0580
 3616SOL    HW222482   3.694   0.372   1.575  1.7865  2.5682 -0.8769
 3617SOL     OW22483   4.255   4.000   8.627 -0.5566 -0.3549  0.1332
 3617SOL    HW122484   4.342   4.039   8.629  0.1091 -1.8509 -0.2574
 3617SOL    HW222485   4.208   4.049   8.695  0.6459  0.2702  0.5129
 3618SOL     OW22486   4.600   4.130   3.052 -0.1798 -0.5540 -0.3974
 3618SOL    HW122487   4.650   4.107   3.131 -0.2616  1.5567  0.2610
 3618SOL    HW222488   4.636   4.211   3.017 -2.7068  1.4486  1.6684
 3619SOL     OW22489   3.288   3.817   7.235  0.3444  0.2283  0.4504
 3619SOL    HW122490   3.257   3.755   7.301 -1.1115  0.6898  0.1973
 3619SOL    HW222491   3.225   3.886   7.253 -0.7336 -0.5632 -0.2928
 3620SOL     OW22492   0.882   1.408   3.287  0.1674  0.6237  0.0593
 3620SOL    HW122493   0.855   1.357   3.210 -1.1605 -0.3322  1.1532
 3620SOL    HW222494   0.807   1.384   3.342 -0.2026  1.6538 -0.0060
 3621SOL     OW22495   3.776   4.382   5.508  0.4285 -0.3679 -0.6086
 3621SOL    HW122496   3.728   4.314   5.461 -0.3830 -0.4084  0.2617
 3621SOL    HW222497   3.858   4.334   5.509  0.4837 -0.2480  2.1424
 3622SOL     OW22498   1.556   3.889   4.536  0.0673  0.3050 -0.1510
 3622SOL    HW122499   1.468   3.913   4.565 -0.0046  0.4929 -0.5222
 3622SOL    HW222500   1.610   3.955   4.579  3.2584 -0.6368 -2.6502
 3623SOL     OW22501   3.255   0.773  16.111 -0.1171  0.4837 -0.4147
 3623SOL    HW122502   3.169   0.763  16.070  0.6823 -0.6470 -1.8331
 3623SOL    HW222503   3.258   0.867  16.129 -2.5271  0.4087  0.3419
 3624SOL     OW22504   3.959   1.205   9.708 -0.4104 -0.0650  0.2658
 3624SOL    HW122505   3.918   1.122   9.734  3.0516 -1.9592 -0.2408
 3624SOL    HW222506   3.996   1.187   9.621 -0.6794 -0.2857  0.1956
 3625SOL     OW22507   3.020   3.160  17.612  0.8798 -0.0429  0.1885
 3625SOL    HW122508   3.010   3.248  17.574 -0.5035 -0.2095  0.1760
 3625SOL    HW222509   3.110   3.144  17.584  0.7292 -0.5623 -0.0054
 3626SOL     OW22510   3.851   4.350   4.666 -0.0982 -0.4035  0.0020
 3626SOL    HW122511   3.817   4.389   4.585 -0.0243  3.8376  2.0239
 3626SOL    HW222512   3.933   4.397   4.675  1.3374 -2.4916 -2.0376
 3627SOL     OW22513   1.238   3.622  14.594  0.1117 -0.3910 -0.2091
 3627SOL    HW122514   1.152   3.656  14.569 -0.2114  0.4348  2.0464
 3627SOL    HW222515   1.225   3.548  14.654  1.1791 -1.1001 -0.8589
 3628SOL     OW22516   4.652   2.013   6.038 -0.1062 -0.3072  0.5359
 3628SOL    HW122517   4.732   2.028   5.988 -1.6628  0.7952 -1.6178
 3628SOL    HW222518   4.584   2.013   5.970 -0.7662  0.4497  1.1956
 3629SOL     OW22519   4.289   0.745   3.020  0.1267  0.0550 -0.0454
 3629SOL    HW122520   4.289   0.707   2.932 -0.7246 -1.2872  0.5273
 3629SOL    HW222521   4.384   0.743   3.031  0.3352  1.8073 -1.6394
 3630SOL     OW22522   3.759   1.066   5.527  0.2850 -0.2294  0.1058
 3630SOL    HW122523   3.788   0.979   5.554 -0.8966 -0.4631  0.6296
 3630SOL    HW222524   3.700   1.088   5.600 -0.2372 -0.9377 -0.1044
 3631SOL     OW22525   3.548   2.810   2.260 -0.1094  0.1938  0.0925
 3631SOL    HW122526   3.519   2.777   2.345  0.8274 -1.1632 -0.1324
 3631SOL    HW222527   3.632   2.767   2.247 -0.7870 -1.5319  1.4683
 3632SOL     OW22528   2.242   3.102  17.691  0.0308  0.6111 -0.1230
 3632SOL    HW122529   2.252   3.028  17.749 -2.1193  0.7462  0.4153
 3632SOL    HW222530   2.335   3.123  17.688 -0.0785  1.1804  0.4945
 3633SOL     OW22531   0.368   0.748   3.684 -0.3377  0.4980 -0.2358
 3633SOL    HW122532   0.331   0.836   3.689  3.3752  1.9398  1.5543
 3633SOL    HW222533   0.327   0.723   3.601  0.0783 -0.9251 -0.0170
 3634SOL     OW22534   2.622   1.983  12.231  0.0066  0.0791 -0.6085
 3634SOL    HW122535   2.555   1.922  12.200  0.2258 -0.2893 -0.3629
 3634SOL    HW222536   2.650   1.949  12.316  1.3458 -0.1713 -1.1568
 3635SOL     OW22537   2.247   2.756  11.955  0.0699  0.1252  0.3970
 3635SOL    HW122538   2.307   2.764  11.881  0.7873 -0.5706  0.8940
 3635SOL    HW222539   2.211   2.667  11.950  0.3497  0.0994 -0.9910
 3636SOL     OW22540   1.075   1.158   6.417 -0.1404  0.3386  0.3770
 3636SOL    HW122541   0.980   1.166   6.406 -0.0494  2.1734  0.9507
 3636SOL    HW222542   1.096   1.246   6.385 -0.4795  1.2026  2.5402
 3637SOL     OW22543   4.626   4.583   3.694  0.6141  0.1670  0.1852
 3637SOL    HW122544   4.639   4.494   3.662 -1.2886  0.3954 -1.2691
 3637SOL    HW222545   4.544   4.611   3.652  0.3509 -2.6678 -1.2204
 3638SOL     OW22546   2.255   1.525   2.607 -0.0992 -0.4276  0.2681
 3638SOL    HW122547   2.278   1.533   2.699  2.0640  2.2871 -0.4770
 3638SOL    HW222548   2.189   1.595   2.605 -0.6403 -0.9603 -0.7490
 3639SOL     OW22549   1.666   0.411   4.736  0.3784 -0.1127 -0.3104
 3639SOL    HW122550   1.652   0.335   4.792 -1.1897  1.3178  1.2505
 3639SOL    HW222551   1.739   0.379   4.684  1.8227  1.5134  0.7024
 3640SOL     OW22552   3.407   2.093   3.271  0.4205  0.0110  0.5169
 3640SOL    HW122553   3.319   2.130   3.262  1.1431  1.2749 -1.4545
 3640SOL    HW222554   3.390   2.004   3.302  0.6331 -0.0889  0.3452
 3641SOL     OW22555   3.533   3.424   5.879 -0.2832  0.2895 -0.1237
 3641SOL    HW122556   3.607   3.386   5.927 -0.3044  0.5509  0.1162
 3641SOL    HW222557   3.582   3.472   5.812 -1.5287 -0.0698 -1.2915
 3642SOL     OW22558   0.598   4.359   3.950 -0.7729 -0.5897  0.0151
 3642SOL    HW122559   0.556   4.346   3.865 -0.2483 -0.2928 -0.2943
 3642SOL    HW222560   0.624   4.273   3.983 -2.1705 -1.1016 -0.2458
 3643SOL     OW22561   1.121   2.273   1.024 -0.1009 -0.1458  0.4073
 3643SOL    HW122562   1.195   2.216   1.046  0.7329  1.2757  1.2473
 3643SOL    HW222563   1.101   2.246   0.934 -2.7123  0.9185  0.6728
 3644SOL     OW22564   4.183   1.107   4.469  0.2889 -0.2283  0.6249
 3644SOL    HW122565   4.175   1.038   4.535  0.4433  0.4290  1.3254
 3644SOL    HW222566   4.108   1.165   4.485 -1.4574 -1.4454 -3.1060
 3645SOL     OW22567   0.269   2.649   2.623  0.4622 -0.0149  0.2808
 3645SOL    HW122568   0.331   2.577   2.636 -0.3206 -0.4849  1.3604
 3645SOL    HW222569   0.253   2.640   2.529 -0.7862  1.9537  0.3050
 3646SOL     OW22570   0.714   2.360   5.252  0.2683 -0.3104  0.0187
 3646SOL    HW122571   0.630   2.324   5.280  0.8767 -1.0030  0.9459
 3646SOL    HW222572   0.742   2.363   5.343  3.2288  0.5113 -0.9168
 3647SOL     OW22573   2.416   4.685   5.683  0.3803 -0.2369  0.2044
 3647SOL    HW122574   2.340   4.679   5.741  0.5986 -3.7283  0.0808
 3647SOL    HW222575   2.473   4.618   5.720 -1.2562 -0.4707  2.2374
 3648SOL     OW22576   4.705   3.020   8.500  0.2194 -0.2080 -1.3950
 3648SOL    HW122577   0.026   2.961   8.546  2.0299  2.1842 -0.6797
 3648SOL    HW222578   4.630   2.963   8.485  0.4521 -0.6496 -0.9064
 3649SOL     OW22579   2.701   0.299  12.171  0.0835  0.6719 -0.4674
 3649SOL    HW122580   2.667   0.365  12.233 -0.9895 -0.4439  0.1289
 3649SOL    HW222581   2.632   0.284  12.107  0.0391  0.8703 -0.4670
 3650SOL     OW22582   4.662   2.210  16.789 -0.2891 -0.0249  0.5251
 3650SOL    HW122583   4.583   2.157  16.796  1.0181 -1.5457  4.1791
 3650SOL    HW222584   4.702   2.213  16.877  1.6149 -1.4686 -0.2949
 3651SOL     OW22585   4.313   3.167   5.940 -0.2959  0.2913 -0.2772
 3651SOL    HW122586   4.267   3.200   6.018  1.0328 -1.5767  1.2893
 3651SOL    HW222587   4.294   3.073   5.938 -1.0652  0.4202  0.7077
 3652SOL     OW22588   4.320   4.319   2.984  0.2418 -0.1458  0.4585
 3652SOL    HW122589   4.346   4.228   2.965  2.9199  0.2029  2.3945
 3652SOL    HW222590   4.321   4.362   2.899  0.1576 -1.5854 -0.2791
 3653SOL     OW22591   0.303   2.203  12.936  0.0839 -0.0566 -0.2588
 3653SOL    HW122592   0.382   2.152  12.919  1.3314  1.5267  0.8607
 3653SOL    HW222593   0.323   2.290  12.902  1.4640 -0.2904 -0.0533
 3654SOL     OW22594   2.452   1.390   8.835 -0.1485  0.1210 -0.1948
 3654SOL    HW122595   2.498   1.454   8.890  0.0183 -1.2032  1.2094
 3654SOL    HW222596   2.387   1.446   8.791  1.6453  2.2754 -0.1014
 3655SOL     OW22597   0.693   2.336   4.219 -0.5902 -0.1425 -0.2064
 3655SOL    HW122598   0.623   2.392   4.187  1.4933  2.3011 -0.4181
 3655SOL    HW222599   0.721   2.303   4.134  0.3341 -2.0004  0.7979
 3656SOL     OW22600   3.761   1.449   8.715 -0.1021 -0.6176  0.3657
 3656SOL    HW122601   3.748   1.370   8.663  2.0401  0.3998 -1.7343
 3656SOL    HW222602   3.713   1.522   8.676  0.1210  0.0723  1.3885
 3657SOL     OW22603   3.769   0.975   3.554  0.2771 -0.0704 -0.3640
 3657SOL    HW122604   3.856   0.988   3.516  1.0211 -3.9653 -0.0789
 3657SOL    HW222605   3.782   0.977   3.649  0.3891 -1.7841 -0.3305
 3658SOL     OW22606   4.103   0.694   3.742  0.7765  0.2331  0.5442
 3658SOL    HW122607   4.146   0.754   3.682 -0.5118  0.4484 -0.1663
 3658SOL    HW222608   4.109   0.612   3.693 -0.9162  1.3570 -1.5461
 3659SOL     OW22609   2.537   3.966   8.605  0.0889  0.0881  0.2966
 3659SOL    HW122610   2.583   3.979   8.523  1.9918  2.1006  1.6964
 3659SOL    HW222611   2.484   3.894   8.570 -1.8763  1.3305  0.6752
 3660SOL     OW22612   3.694   1.042   3.303 -0.4625  0.2430  0.2907
 3660SOL    HW122613   3.691   1.001   3.390 -1.0412 -1.7488 -0.6772
 3660SOL    HW222614   3.786   1.031   3.280 -0.5438 -0.8092  0.4654
 3661SOL     OW22615   3.631   3.662   3.709 -0.5522  0.2022 -0.3650
 3661SOL    HW122616   3.613   3.715   3.787 -1.1711 -0.4520 -0.0602
 3661SOL    HW222617   3.602   3.725   3.644 -0.5303  1.4029  0.7823
 3662SOL     OW22618   1.151   3.214   6.707  0.2504 -0.5766 -0.6029
 3662SOL    HW122619   1.077   3.250   6.756  1.2565 -3.6483  3.1505
 3662SOL    HW222620   1.101   3.175   6.635 -1.1792 -3.1387  1.7806
 3663SOL     OW22621   0.444   1.842  12.166  0.2284 -0.0639 -0.1566
 3663SOL    HW122622   0.413   1.873  12.081  0.3414  2.9510  0.9213
 3663SOL    HW222623   0.397   1.896  12.230 -0.5931 -0.5744 -0.3268
 3664SOL     OW22624   1.902   4.441   5.384  0.5516  0.1749 -0.1214
 3664SOL    HW122625   1.853   4.422   5.464 -0.3888 -0.4332 -0.8349
 3664SOL    HW222626   1.843   4.436   5.309  0.2286  0.0585  0.1444
 3665SOL     OW22627   0.680   0.979   7.339  0.0334  0.0307 -0.0218
 3665SOL    HW122628   0.663   0.911   7.404  2.2258 -1.7987 -1.4063
 3665SOL    HW222629   0.771   1.004   7.354  0.4216 -2.0410  1.0616
 3666SOL     OW22630   1.689   2.058   7.909 -0.0595  0.1683  0.3904
 3666SOL    HW122631   1.759   2.121   7.895 -0.8641  0.8059 -0.7194
 3666SOL    HW222632   1.713   2.021   7.995 -1.7568 -2.0265 -0.0629
 3667SOL     OW22633   1.436   1.917   8.162 -0.1943  0.0980  0.4440
 3667SOL    HW122634   1.364   1.939   8.222  0.0277 -1.7467  1.3816
 3667SOL    HW222635   1.509   1.891   8.218  1.1959  0.1187 -1.3711
 3668SOL     OW22636   1.821   4.682  10.094 -0.0852 -0.0057 -0.2724
 3668SOL    HW122637   1.758   4.632  10.042 -1.6724  0.8162  0.8460
 3668SOL    HW222638   1.769   0.023  10.107  0.0437  0.1916 -0.9892
 3669SOL     OW22639   1.360   1.891   6.348  0.5693  0.0617  0.5589
 3669SOL    HW122640   1.336   1.982   6.331 -0.9621 -0.0299  2.1975
 3669SOL    HW222641   1.383   1.912   6.439  0.1121  1.0817  0.4465
 3670SOL     OW22642   0.222   1.114   8.354  0.2747  0.1138  0.2256
 3670SOL    HW122643   0.288   1.044   8.358 -0.1784 -0.3168  0.1460
 3670SOL    HW222644   0.267   1.190   8.390 -2.3186  1.2161  1.1496
 3671SOL     OW22645   1.408   2.626   5.190 -0.6163  0.9680  0.4980
 3671SOL    HW122646   1.494   2.587   5.173 -2.2442 -2.9012  1.2203
 3671SOL    HW222647   1.423   2.665   5.276 -0.6996 -0.3695  1.1099
 3672SOL     OW22648   1.583   2.605   8.765 -0.6496 -0.0349 -0.5642
 3672SOL    HW122649   1.624   2.616   8.679  0.5829  3.1951  0.4431
 3672SOL    HW222650   1.641   2.544   8.811 -1.2161 -1.8077 -2.2431
 3673SOL     OW22651   0.798   3.936   1.444  0.3138 -0.3209 -0.2020
 3673SOL    HW122652   0.706   3.909   1.442  0.6981 -1.4678 -2.1140
 3673SOL    HW222653   0.827   3.927   1.535  1.9532  2.8269 -0.4183
 3674SOL     OW22654   0.689   0.696  14.433  0.1154 -0.1970  0.0112
 3674SOL    HW122655   0.609   0.654  14.402 -0.0918  0.0840  0.1665
 3674SOL    HW222656   0.673   0.714  14.525  1.3447 -0.2656  0.2459
 3675SOL     OW22657   1.341   1.763  10.942 -0.1057  0.6599 -0.1907
 3675SOL    HW122658   1.326   1.840  10.996  3.5914  0.2439  1.4456
 3675SOL    HW222659   1.425   1.741  10.983  0.7784  0.9871 -1.8351
 3676SOL     OW22660   2.841   2.687   7.967  0.7373  0.0965 -0.1559
 3676SOL    HW122661   2.845   2.751   8.038 -1.7317  1.3343 -1.1119
 3676SOL    HW222662   2.931   2.689   7.934  0.3832 -1.3380 -1.2055
 3677SOL     OW22663   4.197   4.652   9.200 -0.5948 -0.1235 -0.0302
 3677SOL    HW122664   4.263   4.653   9.269 -1.2541 -1.0100  0.6207
 3677SOL    HW222665   4.246   4.666   9.119 -0.7238  0.1053 -0.0690
 3678SOL     OW22666   2.887   3.594   2.183  0.3649 -0.0099 -0.2743
 3678SOL    HW122667   2.936   3.664   2.140  0.9779  0.4103  1.1255
 3678SOL    HW222668   2.811   3.597   2.125 -1.2936  0.2351  1.9408
 3679SOL     OW22669   3.604   4.710   7.002 -0.1853  0.4198 -0.4317
 3679SOL    HW122670   3.586   0.020   7.082  1.7790  3.0008 -1.5826
 3679SOL    HW222671   3.671   0.024   6.960 -2.1235  2.2922 -1.1387
 3680SOL     OW22672   4.072   2.107   6.147  0.4716 -0.0350 -0.7773
 3680SOL    HW122673   4.088   2.184   6.092 -0.2351 -0.1436 -1.1404
 3680SOL    HW222674   4.017   2.059   6.084  1.4181  0.0369 -1.6638
 3681SOL     OW22675   2.028   2.412   8.314  0.4647  0.2009  0.3041
 3681SOL    HW122676   2.122   2.425   8.302  0.1634 -0.3820 -2.6170
 3681SOL    HW222677   2.015   2.401   8.409  2.9710 -1.0426  0.5281
 3682SOL     OW22678   0.629   3.061   4.940 -0.4123  0.2971 -0.0266
 3682SOL    HW122679   0.538   3.042   4.963 -0.4487  1.8275  1.0303
 3682SOL    HW222680   0.634   3.033   4.848  0.0667 -0.4925  0.2422
 3683SOL     OW22681   1.550   4.532   5.966 -0.0873 -0.5982  0.8023
 3683SOL    HW122682   1.603   4.507   6.042  0.6046 -1.0545  0.1751
 3683SOL    HW222683   1.496   4.590   6.019 -1.8105 -0.7170 -0.8246
 3684SOL     OW22684   3.258   1.346   2.240  0.0798 -0.6473  0.0218
 3684SOL    HW122685   3.324   1.280   2.260 -0.0648 -1.1956 -1.3308
 3684SOL    HW222686   3.188   1.313   2.297  1.2978 -0.1910  1.7923
 3685SOL     OW22687   3.521   1.411   0.198 -0.2073  0.2299 -0.1719
 3685SOL    HW122688   3.515   1.317   0.213  0.0964  0.4847  1.5646
 3685SOL    HW222689   3.490   1.437   0.284  2.0895 -1.2933  1.1219
 3686SOL     OW22690   0.231   4.524  13.817 -0.2380 -0.0803 -0.0158
 3686SOL    HW122691   0.229   4.604  13.870 -2.1178 -0.5724  0.6775
 3686SOL    HW222692   0.191   4.458  13.874  2.9126 -1.1799  0.8903
 3687SOL     OW22693   4.192   2.337  15.668  0.3931  0.2198 -0.0439
 3687SOL    HW122694   4.097   2.335  15.670  0.4000 -1.1496 -0.9144
 3687SOL    HW222695   4.218   2.333  15.760 -1.5250 -1.0599  0.4349
 3688SOL     OW22696   1.056   1.846   1.114  0.2445  0.4475  0.4011
 3688SOL    HW122697   1.142   1.842   1.156 -0.1216 -0.1631  1.0991
 3688SOL    HW222698   1.087   1.874   1.028  1.9585 -0.3731  0.7481
 3689SOL     OW22699   0.263   1.237  12.325 -0.2477  0.1302  0.2148
 3689SOL    HW122700   0.217   1.231  12.409  1.1042  1.5722  1.0684
 3689SOL    HW222701   0.191   1.263  12.268 -2.0777 -1.9096  1.5605
 3690SOL     OW22702   3.370   0.106  13.755  0.7115 -0.2333 -0.3822
 3690SOL    HW122703   3.364   0.104  13.659 -0.0826 -1.1070 -0.3220
 3690SOL    HW222704   3.370   0.014  13.782 -2.9294 -0.4491 -1.0991
 3691SOL     OW22705   2.447   1.472  16.581  0.4449  0.6161  0.3514
 3691SOL    HW122706   2.434   1.532  16.654 -0.0803 -1.9641  2.3678
 3691SOL    HW222707   2.447   1.542  16.515  2.5253  2.8970  2.7967
 3692SOL     OW22708   4.156   0.792   9.216 -0.0742 -0.4133  0.1477
 3692SOL    HW122709   4.159   0.760   9.126 -0.1621 -0.5874  0.2071
 3692SOL    HW222710   4.167   0.712   9.267 -0.7065 -1.4089 -1.3126
 3693SOL     OW22711   4.073   0.024  10.425  0.5929  0.1323 -0.6918
 3693SOL    HW122712   3.991   0.065  10.450  0.6552 -1.2730  1.8765
 3693SOL    HW222713   4.095   0.089  10.359 -0.0325  0.2100 -0.8164
 3694SOL     OW22714   1.715   2.798   8.028  0.6656  0.1687  0.0862
 3694SOL    HW122715   1.712   2.704   8.044  0.5551  0.0905 -0.3943
 3694SOL    HW222716   1.665   2.800   7.946  0.7617 -0.5483  0.0091
 3695SOL     OW22717   1.724   1.412   4.336 -0.2775  0.1394  0.0462
 3695SOL    HW122718   1.776   1.436   4.413  2.3012  1.4657 -2.1051
 3695SOL    HW222719   1.754   1.479   4.275  0.4917  1.8609  2.3213
 3696SOL     OW22720   3.802   2.535   9.520  0.2901  0.6670 -0.2745
 3696SOL    HW122721   3.833   2.580   9.599  1.9032 -1.6501  0.3924
 3696SOL    HW222722   3.728   2.593   9.505  0.8535  1.2347 -0.9223
 3697SOL     OW22723   1.146   4.562   8.050  0.3371 -0.1426 -0.0340
 3697SOL    HW122724   1.128   4.549   8.143  0.4369 -3.6855 -0.5237
 3697SOL    HW222725   1.192   4.646   8.050  0.2224 -0.0824 -0.9731
 3698SOL     OW22726   3.840   4.652   0.701 -0.0761  0.1417 -0.0073
 3698SOL    HW122727   3.917   4.708   0.706  0.2088 -0.2394 -0.0604
 3698SOL    HW222728   3.770   4.706   0.736 -0.0358 -1.0762  1.9582
 3699SOL     OW22729   0.537   3.957  14.288 -0.1913 -0.6737 -0.2301
 3699SOL    HW122730   0.563   4.000  14.207 -2.0258 -0.3099 -0.6355
 3699SOL    HW222731   0.442   3.951  14.278 -0.1744  1.3349 -1.4353
 3700SOL     OW22732   0.232   2.965   3.139 -0.4793 -0.3025  0.0793
 3700SOL    HW122733   0.284   2.923   3.071  0.3344  0.0431  0.4861
 3700SOL    HW222734   0.298   2.979   3.207 -0.0764  1.0291 -0.5861
 3701SOL     OW22735   3.331   3.613   4.241 -0.2839  0.4473 -0.1425
 3701SOL    HW122736   3.279   3.639   4.165 -0.5036  1.5039  0.3677
 3701SOL    HW222737   3.413   3.657   4.217 -0.0179  1.0826  1.9660
 3702SOL     OW22738   0.432   2.019  10.054 -0.3632 -0.6093 -0.5303
 3702SOL    HW122739   0.446   2.032  10.148 -0.4703  0.6279 -0.6784
 3702SOL    HW222740   0.409   1.926  10.056  1.9171 -1.1846 -0.7288
 3703SOL     OW22741   4.398   1.927  11.707  0.0293 -0.6865 -0.3549
 3703SOL    HW122742   4.378   1.843  11.748  2.0209 -0.2737  1.4695
 3703SOL    HW222743   4.483   1.907  11.669 -0.2405 -1.3154 -0.6117
 3704SOL     OW22744   2.937   0.725   4.096 -0.0457  0.6205  0.3034
 3704SOL    HW122745   3.012   0.738   4.153 -0.5605  1.1374  0.8654
 3704SOL    HW222746   2.959   0.640   4.058  0.8478  0.8324  0.3526
 3705SOL     OW22747   1.932   1.565   5.638 -0.0754 -0.1118 -0.1408
 3705SOL    HW122748   1.958   1.528   5.554  0.5386 -0.4957  0.2126
 3705SOL    HW222749   1.959   1.488   5.688 -2.7870 -1.5783 -0.9354
 3706SOL     OW22750   3.808   3.329   9.857 -0.2244  0.2583 -0.2775
 3706SOL    HW122751   3.839   3.394   9.920  1.0261 -1.0577  0.4631
 3706SOL    HW222752   3.716   3.325   9.882 -0.2319  0.1609 -0.3196
 3707SOL     OW22753   1.565   1.528   5.597  0.1224 -0.3199  0.2507
 3707SOL    HW122754   1.499   1.544   5.530 -1.1555  0.2940  1.6558
 3707SOL    HW222755   1.611   1.612   5.604 -2.1742  1.0417 -1.1480
 3708SOL     OW22756   1.771   3.900   5.599 -0.1343  0.0199  0.5996
 3708SOL    HW122757   1.772   3.931   5.509  0.1580 -0.0884  0.5663
 3708SOL    HW222758   1.680   3.877   5.617  0.0508 -0.5931  0.7499
 3709SOL     OW22759   1.086   0.025  14.130 -0.2631  0.3291 -0.7294
 3709SOL    HW122760   1.122   4.680  14.101  0.5727  0.3237  0.3517
 3709SOL    HW222761   1.150   0.055  14.194  0.6343 -0.5454 -1.2301
 3710SOL     OW22762   1.501   0.252   3.904  0.3395 -0.8976 -0.5834
 3710SOL    HW122763   1.566   0.204   3.854  1.5726  1.2022 -0.9881
 3710SOL    HW222764   1.473   0.310   3.834 -2.6623  1.1673  2.3402
 3711SOL     OW22765   3.505   4.609   5.527 -1.0425 -0.3138  0.3644
 3711SOL    HW122766   3.538   4.566   5.606  2.0820  1.4887  0.0488
 3711SOL    HW222767   3.561   4.686   5.514 -0.9799 -0.3517  0.4136
 3712SOL     OW22768   1.060   2.815   3.340  0.7517  0.1010 -0.2008
 3712SOL    HW122769   1.004   2.740   3.324 -0.1565  0.2649  2.1830
 3712SOL    HW222770   1.042   2.819   3.434  1.7979  3.1068 -0.1322
 3713SOL     OW22771   0.179   4.223  10.608  0.2214  0.1927  0.0942
 3713SOL    HW122772   0.237   4.271  10.667  0.0288  0.2371  0.2494
 3713SOL    HW222773   0.097   4.272  10.613 -0.5062 -1.1589  1.5971
 3714SOL     OW22774   2.570   4.726   1.462 -0.0626  0.3731 -0.1921
 3714SOL    HW122775   2.587   4.715   1.368  0.2799 -2.5231  0.1904
 3714SOL    HW222776   2.481   4.692   1.461  0.7523 -1.7640 -1.4552
 3715SOL     OW22777   2.657   3.530   2.328  0.4314 -0.4538 -0.2332
 3715SOL    HW122778   2.721   3.506   2.395 -2.1215  0.3727  2.4502
 3715SOL    HW222779   2.713   3.587   2.275  0.1272  1.2591  1.3118
 3716SOL     OW22780   2.070   1.612   1.107 -0.7426 -0.2687 -0.5025
 3716SOL    HW122781   2.111   1.548   1.048  0.2897  0.6045 -0.7191
 3716SOL    HW222782   2.036   1.675   1.044 -0.9791  0.8251  0.7244
 3717SOL     OW22783   2.291   3.594  16.217  0.5917 -0.4342 -0.0007
 3717SOL    HW122784   2.281   3.689  16.208 -0.7797 -0.5803 -0.0594
 3717SOL    HW222785   2.304   3.589  16.312  0.3257  0.0871  0.0628
 3718SOL     OW22786   1.398   3.079   4.939 -0.2222 -0.2717  0.3599
 3718SOL    HW122787   1.371   2.989   4.921  1.8232 -0.4638 -1.6841
 3718SOL    HW222788   1.480   3.057   4.982 -0.6008 -1.2291  0.5986
 3719SOL     OW22789   4.037   4.369   1.317 -0.5896  0.4086 -0.2194
 3719SOL    HW122790   4.041   4.275   1.337 -1.3901 -0.1027 -2.4896
 3719SOL    HW222791   3.973   4.395   1.384  1.2500  1.4460  1.1268
 3720SOL     OW22792   2.849   1.108   6.254 -0.1029  0.5077  0.2732
 3720SOL    HW122793   2.910   1.154   6.313  1.0249 -0.2323 -0.3125
 3720SOL    HW222794   2.903   1.129   6.178  0.9067 -0.2635  0.7695
 3721SOL     OW22795   0.145   0.941   5.718  0.2149  0.5645 -0.0287
 3721SOL    HW122796   0.064   0.908   5.679 -0.5050  0.1948  1.7932
 3721SOL    HW222797   0.129   0.923   5.811  1.1025 -1.6801 -0.3011
 3722SOL     OW22798   3.112   1.521   8.937  0.3566  0.3470  0.0399
 3722SOL    HW122799   3.204   1.536   8.917 -0.0222  1.7312 -0.7089
 3722SOL    HW222800   3.105   1.429   8.960 -0.7644  0.3644 -0.2182
 3723SOL     OW22801   3.260   0.776  12.491  0.1215 -0.3423 -0.1579
 3723SOL    HW122802   3.296   0.751  12.406  1.3295  0.0649  0.2371
 3723SOL    HW222803   3.326   0.756  12.557  0.9914  0.3296 -0.8344
 3724SOL     OW22804   3.515   4.390   1.988 -0.0880 -0.0722 -0.0169
 3724SOL    HW122805   3.434   4.389   1.937 -1.2713 -3.3766  1.9262
 3724SOL    HW222806   3.548   4.300   1.980 -0.7195 -0.4774  1.9118
 3725SOL     OW22807   1.319   2.026   2.279 -0.4939  0.0017 -0.3576
 3725SOL    HW122808   1.275   1.944   2.302 -1.6081  0.7374  0.1402
 3725SOL    HW222809   1.241   2.062   2.237 -1.8184  0.4399  2.5078
 3726SOL     OW22810   3.402   2.662   5.253 -0.3176 -0.8304  0.5929
 3726SOL    HW122811   3.436   2.575   5.274 -0.0733 -0.9757 -0.3736
 3726SOL    HW222812   3.479   2.701   5.211  1.2245 -3.3151  1.0934
 3727SOL     OW22813   4.597   2.781   8.700  0.2374 -0.2915  0.4494
 3727SOL    HW122814   4.510   2.815   8.679 -0.6030 -2.6112  0.1899
 3727SOL    HW222815   4.612   2.833   8.779  0.4894 -1.4064  1.1398
 3728SOL     OW22816   3.950   2.330   5.565 -0.4600  0.3955 -0.0450
 3728SOL    HW122817   3.856   2.330   5.584 -0.3910  1.6743  0.2612
 3728SOL    HW222818   3.985   2.260   5.619 -0.3319  1.0465  0.7128
 3729SOL     OW22819   0.969   1.874   3.265  0.5640  0.6427  0.1813
 3729SOL    HW122820   1.032   1.819   3.311  0.9958  1.4140  0.5121
 3729SOL    HW222821   0.902   1.808   3.248  1.6406 -0.7723  1.4603
 3730SOL     OW22822   0.554   2.521   7.504 -0.3003  0.2003 -0.4094
 3730SOL    HW122823   0.553   2.599   7.559  0.4098 -0.9773  1.2476
 3730SOL    HW222824   0.497   2.459   7.549  1.0726  0.5311  1.7598
 3731SOL     OW22825   0.056   2.744   3.800 -0.3569  0.1290  0.3103
 3731SOL    HW122826   4.699   2.745   3.795 -0.3125 -0.9184 -0.8512
 3731SOL    HW222827   0.069   2.666   3.746 -0.2223  0.2677  0.1447
 3732SOL     OW22828   1.586   0.223  13.193 -0.0088 -0.3250 -0.0807
 3732SOL    HW122829   1.673   0.242  13.157  0.4743  1.1620  1.8315
 3732SOL    HW222830   1.580   0.128  13.203 -1.1459 -0.2025  0.4283
 3733SOL     OW22831   4.638   4.439   2.395  0.0904  0.1493 -0.4224
 3733SOL    HW122832   4.554   4.482   2.412  1.6250  2.6827  0.7150
 3733SOL    HW222833   4.686   4.512   2.356  1.0856  1.1798  2.6972
 3734SOL     OW22834   2.943   2.840   8.210  0.3276  0.9517 -0.0759
 3734SOL    HW122835   3.001   2.869   8.139  0.2963  5.3475  1.6855
 3734SOL    HW222836   3.008   2.829   8.279 -0.1790  1.1469  0.4272
 3735SOL     OW22837   3.277   2.191  11.180 -0.0150  0.0453 -0.0159
 3735SOL    HW122838   3.268   2.270  11.126 -0.0580  0.3319  0.4085
 3735SOL    HW222839   3.282   2.123  11.112 -1.3160 -3.8035  3.7830
 3736SOL     OW22840   2.752   1.208   0.278  0.6448 -0.3028  0.3783
 3736SOL    HW122841   2.751   1.237   0.369 -2.3711 -0.0586  0.2582
 3736SOL    HW222842   2.747   1.116   0.305 -2.1079 -0.7358 -1.6499
 3737SOL     OW22843   1.542   4.738   6.529  0.9711 -0.2220 -0.1049
 3737SOL    HW122844   1.522   0.072   6.588 -0.5308 -0.7978  0.1076
 3737SOL    HW222845   1.497   0.026   6.449  1.8989  0.4638 -0.3975
 3738SOL     OW22846   0.355   1.368   1.119 -0.0254  0.1252 -0.0642
 3738SOL    HW122847   0.316   1.335   1.200  0.4430  1.1129  0.5623
 3738SOL    HW222848   0.278   1.395   1.070 -1.0202  0.2257  1.5879
 3739SOL     OW22849   3.759   2.449   2.038 -0.0144 -0.2783 -0.6231
 3739SOL    HW122850   3.700   2.488   1.973 -1.8246  0.3412  1.4000
 3739SOL    HW222851   3.812   2.398   1.976  0.1447  0.0789 -0.7769
 3740SOL     OW22852   1.381   1.698   0.752 -0.0260  0.1645  0.3605
 3740SOL    HW122853   1.380   1.615   0.704  0.3005  0.5658 -0.3351
 3740SOL    HW222854   1.446   1.667   0.815  0.5969  2.5716  0.9006
 3741SOL     OW22855   4.459   3.502   8.978 -0.3764  0.1352  0.0290
 3741SOL    HW122856   4.492   3.569   9.038 -0.3871  2.1392 -2.2285
 3741SOL    HW222857   4.391   3.545   8.926  0.1822  0.1013 -0.7212
 3742SOL     OW22858   0.484   3.287  16.067  0.5844 -0.4886 -0.1675
 3742SOL    HW122859   0.501   3.308  15.975  0.8764  1.5800  0.3685
 3742SOL    HW222860   0.467   3.193  16.057  1.7474 -0.6474 -0.5655
 3743SOL     OW22861   4.725   4.234   2.218 -0.1546 -0.3138 -0.4795
 3743SOL    HW122862   4.722   4.316   2.266 -1.2164 -1.2132  0.9859
 3743SOL    HW222863   4.638   4.197   2.236 -0.1603 -0.2526 -0.3815
 3744SOL     OW22864   0.434   3.092  14.086  0.2867  0.8292 -0.1749
 3744SOL    HW122865   0.440   3.118  14.178  1.8747  0.5871 -0.2100
 3744SOL    HW222866   0.505   3.143  14.049  1.3600 -1.2751 -1.0214
 3745SOL     OW22867   3.485   3.495   2.625 -0.6388 -0.4686  0.6172
 3745SOL    HW122868   3.573   3.531   2.609  0.0320 -2.3668  0.0340
 3745SOL    HW222869   3.455   3.490   2.534  1.8541  1.0803 -0.3229
 3746SOL     OW22870   0.645   4.115   7.708  0.1292 -0.1443 -0.1554
 3746SOL    HW122871   0.605   4.074   7.632 -0.9641 -0.6187  0.6668
 3746SOL    HW222872   0.614   4.052   7.774 -2.0026  0.3201 -0.7135
 3747SOL     OW22873   1.773   0.887   5.015 -0.4201  0.3901 -0.2702
 3747SOL    HW122874   1.771   0.882   5.111  2.3689  0.4640 -0.1881
 3747SOL    HW222875   1.782   0.797   4.986  3.4597  0.9732 -0.9380
 3748SOL     OW22876   0.305   3.022   4.023  0.1303 -0.0689 -0.0524
 3748SOL    HW122877   0.266   3.086   4.083  0.5262 -1.0665  1.2592
 3748SOL    HW222878   0.360   2.971   4.081 -0.8663 -0.9139  0.1544
 3749SOL     OW22879   1.873   1.454   3.088 -0.1380 -0.2251 -0.0988
 3749SOL    HW122880   1.813   1.502   3.030  0.0627  0.8346  0.5626
 3749SOL    HW222881   1.947   1.513   3.101 -2.5375  2.7714  0.0403
 3750SOL     OW22882   2.244   0.566   7.796  0.1979 -0.3559 -0.5672
 3750SOL    HW122883   2.224   0.491   7.851  2.0391 -0.7788 -0.4882
 3750SOL    HW222884   2.340   0.563   7.794  0.2614  0.6441  0.8302
 3751SOL     OW22885   4.516   4.481  10.693 -0.0386 -0.0549  0.4471
 3751SOL    HW122886   4.501   4.424  10.769  0.6546  2.3679  2.4186
 3751SOL    HW222887   4.438   4.537  10.702 -0.2619 -0.1289 -1.0282
 3752SOL     OW22888   1.998   2.865   3.323 -0.0762 -0.0314 -0.1997
 3752SOL    HW122889   1.916   2.893   3.283  0.0625  1.4360  0.5534
 3752SOL    HW222890   1.986   2.770   3.325  0.3732 -0.1240 -2.1703
 3753SOL     OW22891   2.814   2.152   8.677 -0.0065 -0.3600  0.5118
 3753SOL    HW122892   2.890   2.204   8.704 -0.7994  1.1867 -0.2494
 3753SOL    HW222893   2.751   2.224   8.678  0.2693 -0.0923 -1.9955
 3754SOL     OW22894   1.359   2.246   4.206  0.6333 -0.5288 -0.1201
 3754SOL    HW122895   1.381   2.156   4.182  0.9729 -0.1028 -1.4070
 3754SOL    HW222896   1.441   2.292   4.227 -0.4614 -0.1802  3.3594
 3755SOL     OW22897   3.614   0.145   0.794  0.6725 -0.1576  0.2166
 3755SOL    HW122898   3.530   0.188   0.810 -0.1220 -1.5907 -0.0886
 3755SOL    HW222899   3.613   0.151   0.698  1.0038  0.0052  0.2223
 3756SOL     OW22900   3.777   0.394   8.500 -0.3402 -0.4264 -0.5977
 3756SOL    HW122901   3.796   0.392   8.406 -0.7925  2.3964 -0.7711
 3756SOL    HW222902   3.715   0.322   8.508  1.0817 -1.4799  1.2037
 3757SOL     OW22903   3.799   1.715  13.717 -0.0837 -0.1920  0.3510
 3757SOL    HW122904   3.794   1.652  13.645  0.1893  0.1576  0.0233
 3757SOL    HW222905   3.895   1.712  13.720 -0.0505  0.1460 -0.2572
 3758SOL     OW22906   2.385   1.162   3.087  0.6082  0.2585  0.4832
 3758SOL    HW122907   2.402   1.252   3.115 -1.5059  0.9020 -0.2969
 3758SOL    HW222908   2.384   1.171   2.992 -2.1562  2.4354  0.7090
 3759SOL     OW22909   4.661   0.291   1.575  0.1877 -0.3789 -0.6668
 3759SOL    HW122910   4.693   0.213   1.621  1.2867  0.0543 -0.6838
 3759SOL    HW222911   4.676   0.280   1.481 -2.0461  0.7240 -1.1420
 3760SOL     OW22912   3.661   3.824   5.542 -0.5176  0.9252  0.0989
 3760SOL    HW122913   3.688   3.781   5.623 -2.0377  1.2740  0.7853
 3760SOL    HW222914   3.572   3.848   5.568  0.0959  2.9084  0.4251
 3761SOL     OW22915   4.599   1.814   4.629 -0.4656 -0.9156  0.0475
 3761SOL    HW122916   4.574   1.793   4.719 -0.2168 -0.2373  0.2795
 3761SOL    HW222917   4.655   1.749   4.587 -0.4894 -0.7905 -0.1786
 3762SOL     OW22918   4.509   0.877   9.479  0.5764 -0.0921  0.1680
 3762SOL    HW122919   4.480   0.947   9.421 -2.4279  1.2049  3.2457
 3762SOL    HW222920   4.453   0.884   9.556 -0.0038  0.8859 -0.3350
 3763SOL     OW22921   1.186   1.244   9.860  0.0835 -0.0781 -0.3002
 3763SOL    HW122922   1.216   1.193   9.935 -0.2126  0.9465  0.5181
 3763SOL    HW222923   1.122   1.293   9.912  0.3165  0.1273 -0.2065
 3764SOL     OW22924   2.592   1.079   8.687  0.2030  0.1367 -0.2557
 3764SOL    HW122925   2.570   1.165   8.652  0.0182 -0.3351 -1.3268
 3764SOL    HW222926   2.514   1.080   8.742  0.6213  0.7624  0.3271
 3765SOL     OW22927   4.402   1.459  16.900  0.2914  0.7273  0.7831
 3765SOL    HW122928   4.479   1.420  16.858  1.4828  1.0541  2.6307
 3765SOL    HW222929   4.386   1.534  16.843  0.8703  0.6702  0.5462
 3766SOL     OW22930   2.301   1.933   0.995 -0.5144 -0.5850  0.5051
 3766SOL    HW122931   2.344   1.991   0.933 -1.9554 -2.5764 -2.3282
 3766SOL    HW222932   2.311   1.851   0.946 -0.9019 -1.0485  1.1889
 3767SOL     OW22933   3.530   4.373   7.472  0.3502 -0.4427  0.3797
 3767SOL    HW122934   3.562   4.381   7.562 -1.3786 -1.0594  1.0530
 3767SOL    HW222935   3.549   4.279   7.469 -1.4792 -0.7775 -0.9918
 3768SOL     OW22936   3.954   2.998   3.205 -0.4043  0.1012  0.4931
 3768SOL    HW122937   3.888   3.066   3.214 -0.0404  0.8867 -2.9608
 3768SOL    HW222938   3.898   2.921   3.218  0.0800 -0.5586 -1.3094
 3769SOL     OW22939   4.653   0.150   6.128  0.5258 -0.8120  0.4990
 3769SOL    HW122940   4.572   0.101   6.123  0.2044 -0.3783  1.4294
 3769SOL    HW222941   4.634   0.215   6.060 -2.4810 -2.6101 -0.3406
 3770SOL     OW22942   0.330   2.571   6.530 -0.0452 -0.0226 -0.2882
 3770SOL    HW122943   0.349   2.503   6.466  1.4889  0.4224 -0.3095
 3770SOL    HW222944   0.407   2.555   6.584  0.0225  0.6198 -0.1912
 3771SOL     OW22945   1.333   0.786   3.457  0.0554  0.1026  0.0663
 3771SOL    HW122946   1.304   0.699   3.486  2.5308  0.4404  3.5328
 3771SOL    HW222947   1.413   0.761   3.412 -0.2215 -3.0284  1.3457
 3772SOL     OW22948   4.689   1.248   4.878 -0.0615  0.5422 -0.2734
 3772SOL    HW122949   0.018   1.263   4.944  0.6483  1.9737 -1.3051
 3772SOL    HW222950   4.622   1.296   4.927 -2.8670 -0.5048 -3.1375
 3773SOL     OW22951   3.358   0.499   5.186 -0.5665  0.2933 -0.4387
 3773SOL    HW122952   3.363   0.406   5.165 -1.6843  0.4065 -1.1572
 3773SOL    HW222953   3.451   0.522   5.182 -0.2769 -1.2206 -2.1306
 3774SOL     OW22954   2.168   2.212  17.560 -0.1024 -0.0529  0.5649
 3774SOL    HW122955   2.206   2.153  17.495 -1.8045 -0.6926  0.1562
 3774SOL    HW222956   2.235   2.280  17.570 -1.3135  1.0112  1.3985
 3775SOL     OW22957   3.515   0.700   1.516  0.1383 -0.0895 -0.3150
 3775SOL    HW122958   3.541   0.784   1.478 -0.3824  1.2196  2.2353
 3775SOL    HW222959   3.498   0.738   1.602 -0.0556  0.8372 -0.7602
 3776SOL     OW22960   0.459   1.254   4.118 -0.0570 -0.2648  0.0949
 3776SOL    HW122961   0.514   1.186   4.157  1.2234  2.1111  2.4323
 3776SOL    HW222962   0.445   1.306   4.197  0.1607 -1.0240  0.6260
 3777SOL     OW22963   0.161   1.757   7.094  0.0480 -0.0082  0.0587
 3777SOL    HW122964   0.096   1.703   7.049  0.8834  0.0655 -1.2168
 3777SOL    HW222965   0.133   1.735   7.183 -0.2673  2.4075  0.5461
 3778SOL     OW22966   4.134   2.508   8.957 -0.2187  0.4249 -0.4205
 3778SOL    HW122967   4.064   2.496   8.892 -0.9638 -0.9257  0.6273
 3778SOL    HW222968   4.205   2.542   8.902  2.2668 -0.2223  2.3864
 3779SOL     OW22969   0.764   2.695  16.719 -0.2876  0.6213  0.4478
 3779SOL    HW122970   0.744   2.752  16.792  0.1066  1.4376 -0.0818
 3779SOL    HW222971   0.860   2.690  16.726 -0.3203  1.6107  1.4931
 3780SOL     OW22972   1.144   0.666   1.340 -0.3676 -0.0147  0.0786
 3780SOL    HW122973   1.172   0.691   1.427  1.9206 -0.3465 -0.5778
 3780SOL    HW222974   1.055   0.640   1.363 -0.7266  0.3866 -0.8435
 3781SOL     OW22975   1.705   1.277   5.107 -0.2050 -0.0983 -0.1314
 3781SOL    HW122976   1.783   1.247   5.062 -0.3223  0.5909 -0.8051
 3781SOL    HW222977   1.736   1.287   5.197  0.4399 -2.0785 -0.1505
 3782SOL     OW22978   3.233   0.910   3.602 -0.3270 -0.3646  0.3512
 3782SOL    HW122979   3.288   0.986   3.584 -0.5115  0.2626  2.4200
 3782SOL    HW222980   3.275   0.847   3.544 -1.4354 -0.5116 -0.3038
 3783SOL     OW22981   1.355   0.113   8.711 -0.4338  0.1994  0.1582
 3783SOL    HW122982   1.278   0.062   8.735 -1.1399 -0.1756 -2.9365
 3783SOL    HW222983   1.374   0.073   8.626  0.7566  2.3569 -0.6015
 3784SOL     OW22984   1.418   0.344   0.973  0.0107  0.2120 -0.1979
 3784SOL    HW122985   1.338   0.291   0.974 -0.6584  1.2605  1.8512
 3784SOL    HW222986   1.385   0.432   0.955  1.6298  1.0738  1.0563
 3785SOL     OW22987   0.535   1.828   5.801 -0.0978  1.1197  0.2780
 3785SOL    HW122988   0.535   1.917   5.836  0.4718  1.4130 -0.4861
 3785SOL    HW222989   0.629   1.823   5.784 -0.5757 -1.6060 -1.5374
 3786SOL     OW22990   2.231   2.052   9.099  0.0703  0.3076  0.0221
 3786SOL    HW122991   2.136   2.047   9.095  0.1540  1.7976 -3.3356
 3786SOL    HW222992   2.245   1.974   9.153  0.7198 -0.9110 -1.9025
 3787SOL     OW22993   1.098   2.046  12.531 -0.3427  0.1204 -0.6473
 3787SOL    HW122994   1.134   2.127  12.494  0.3894 -0.3617 -0.9872
 3787SOL    HW222995   1.038   2.008  12.467  0.1037  0.1192 -1.0603
 3788SOL     OW22996   0.474   0.739   2.775 -0.4723 -0.0582  0.1003
 3788SOL    HW122997   0.467   0.684   2.697  2.1510  1.3545 -1.1400
 3788SOL    HW222998   0.381   0.736   2.798 -0.7760  3.1245 -0.6339
 3789SOL     OW22999   1.481   1.746   8.885  0.1120 -0.2209  0.3538
 3789SOL    HW123000   1.430   1.733   8.965 -2.2575  0.9731 -0.9527
 3789SOL    HW223001   1.490   1.652   8.866 -0.2915  0.1988 -1.9341
 3790SOL     OW23002   2.009   0.973   7.626  0.0075  0.2298  0.2225
 3790SOL    HW123003   1.914   0.970   7.630 -0.0081  1.6131  1.0135
 3790SOL    HW223004   2.030   0.899   7.683 -2.2392  0.5362  1.4275
 3791SOL     OW23005   0.873   3.752  10.506 -0.0945  0.0691 -0.2411
 3791SOL    HW123006   0.873   3.843  10.535  1.9665 -0.9768  3.0357
 3791SOL    HW223007   0.782   3.730  10.528 -0.2855 -0.7526 -1.8474
 3792SOL     OW23008   0.925   1.464  12.981 -0.3065  0.6156  0.5389
 3792SOL    HW123009   0.894   1.519  13.053 -0.4381  1.7072 -0.3501
 3792SOL    HW223010   0.968   1.391  13.024 -1.1654  0.3739  1.0015
 3793SOL     OW23011   1.903   3.052   0.743  0.2011 -0.1580 -0.2176
 3793SOL    HW123012   1.906   3.138   0.786  4.2523 -0.2115 -0.3341
 3793SOL    HW223013   1.918   3.082   0.653  0.7704 -0.0085 -0.0757
 3794SOL     OW23014   2.023   3.074  10.308 -0.0046 -0.0995  0.3002
 3794SOL    HW123015   2.088   3.072  10.378  0.7527 -0.0181 -0.4071
 3794SOL    HW223016   2.053   3.141  10.247  0.2283 -0.9763 -0.5389
 3795SOL     OW23017   4.660   2.961   5.459 -0.4162 -0.6771  0.1520
 3795SOL    HW123018   4.729   2.936   5.520  0.4495  0.6926 -0.2626
 3795SOL    HW223019   4.610   3.024   5.512  2.5562  2.4627 -0.7829
 3796SOL     OW23020   1.126   4.586  15.500 -0.0624 -0.1299  0.0983
 3796SOL    HW123021   1.180   4.514  15.470  0.3335 -0.2641  1.1409
 3796SOL    HW223022   1.037   4.558  15.478 -0.1382 -0.1141  0.3796
 3797SOL     OW23023   4.473   4.644   2.823 -0.1014  0.2021 -0.2789
 3797SOL    HW123024   4.380   4.660   2.840 -0.0114  0.6610 -0.2058
 3797SOL    HW223025   4.506   4.711   2.763  0.5486  1.7721  1.8350
 3798SOL     OW23026   1.958   2.960   5.417 -0.4874  0.1531 -0.0104
 3798SOL    HW123027   1.986   2.990   5.503 -1.0540 -0.5831  0.4321
 3798SOL    HW223028   1.936   3.035   5.362  1.4265 -0.8037 -2.0779
 3799SOL     OW23029   1.932   2.616   8.697  0.1627  0.2939 -0.0948
 3799SOL    HW123030   1.946   2.701   8.738 -0.3086  0.8474 -1.0928
 3799SOL    HW223031   1.847   2.620   8.653  0.0853 -2.1541 -0.1562
 3800SOL     OW23032   3.056   3.055  17.287  0.5625 -0.9387  0.4443
 3800SOL    HW123033   2.964   3.035  17.302  0.7565 -1.0635  1.4798
 3800SOL    HW223034   3.097   2.996  17.351  0.6282  0.9997  2.2054
 3801SOL     OW23035   2.217   1.042   5.350 -0.3904 -0.2441  0.1858
 3801SOL    HW123036   2.271   1.099   5.295  1.4571 -1.7634  0.4688
 3801SOL    HW223037   2.177   1.110   5.404 -0.0746  0.6320 -0.6732
 3802SOL     OW23038   3.792   1.584   5.933  0.6795  0.0185  0.1957
 3802SOL    HW123039   3.743   1.611   6.011 -0.2118  3.3115 -1.5091
 3802SOL    HW223040   3.877   1.620   5.958  1.3116 -0.5402 -1.1628
 3803SOL     OW23041   2.424   1.735  10.549  0.4368 -0.0593  0.1135
 3803SOL    HW123042   2.359   1.696  10.607  0.4294  0.9037  0.7421
 3803SOL    HW223043   2.415   1.825  10.580 -3.3374 -0.1519 -0.8126
 3804SOL     OW23044   3.308   1.039   4.322 -0.2126  0.1258  0.3128
 3804SOL    HW123045   3.331   0.999   4.238 -1.2298  1.7572 -0.7532
 3804SOL    HW223046   3.309   1.134   4.310 -0.0390  0.1921  0.8755
 3805SOL     OW23047   0.453   0.101   6.184 -0.4292  0.0828  0.0404
 3805SOL    HW123048   0.385   0.125   6.121 -0.9799 -1.5246  0.0214
 3805SOL    HW223049   0.419   0.151   6.258  0.3021  0.3491  0.1909
 3806SOL     OW23050   4.140   2.890  12.210 -0.0023  0.6939 -0.2660
 3806SOL    HW123051   4.091   2.928  12.283  0.2566  0.0798  0.2314
 3806SOL    HW223052   4.072   2.923  12.152 -2.5889 -1.0507  1.7781
 3807SOL     OW23053   1.818   1.030  10.072  0.0597 -0.6615 -0.6289
 3807SOL    HW123054   1.888   1.081  10.112 -0.5702  0.0487 -0.4288
 3807SOL    HW223055   1.861   0.945  10.076 -1.2357 -1.1865  1.7629
 3808SOL     OW23056   4.175   3.718   8.631  0.1740  0.1214  0.4543
 3808SOL    HW123057   4.088   3.754   8.648  0.7871  0.9138  1.9856
 3808SOL    HW223058   4.218   3.798   8.601  1.2838 -0.6645 -0.0293
 3809SOL     OW23059   2.462   4.725   7.158  0.2151 -0.0613  0.1407
 3809SOL    HW123060   2.395   0.026   7.213  1.5722 -0.6332  2.1882
 3809SOL    HW223061   2.519   4.680   7.219  0.4850  0.7796  0.5016
 3810SOL     OW23062   0.640   2.398   6.247  1.1919 -0.1407  0.4018
 3810SOL    HW123063   0.721   2.347   6.253  0.7693 -0.9998 -1.2688
 3810SOL    HW223064   0.684   2.483   6.250 -0.8435  0.8679  1.6191
 3811SOL     OW23065   1.837   0.281   3.912 -0.2933 -0.2032 -0.4919
 3811SOL    HW123066   1.788   0.348   3.961  1.3009  1.8936 -1.7674
 3811SOL    HW223067   1.799   0.205   3.956  0.2682 -0.9756 -1.3651
 3812SOL     OW23068   3.683   3.240  10.145 -0.2478  0.5261 -0.3763
 3812SOL    HW123069   3.775   3.217  10.131 -0.0472  0.8499  0.4323
 3812SOL    HW223070   3.652   3.167  10.199  2.3214  0.2429  0.6991
 3813SOL     OW23071   0.615   3.148   9.669  0.3798  0.3029 -0.4736
 3813SOL    HW123072   0.559   3.129   9.744  0.3282  0.3130 -0.5096
 3813SOL    HW223073   0.586   3.237   9.651  0.3641  0.2841 -0.5435
 3814SOL     OW23074   0.551   4.430   2.617 -0.0756 -0.7465 -0.3235
 3814SOL    HW123075   0.522   4.389   2.699  1.4681  0.2693  0.7068
 3814SOL    HW223076   0.639   4.464   2.632 -1.4547  2.8710 -0.6443
 3815SOL     OW23077   4.689   4.207   5.997 -0.8639 -0.3773 -0.1719
 3815SOL    HW123078   4.650   4.289   5.966 -0.6609 -0.4357 -0.5840
 3815SOL    HW223079   4.610   4.165   6.029 -0.3501 -2.6080 -1.8362
 3816SOL     OW23080   2.923   1.097   5.841 -0.1508 -0.3931 -0.0281
 3816SOL    HW123081   2.995   1.096   5.778 -1.6919  1.1240 -1.8021
 3816SOL    HW223082   2.943   1.022   5.897 -1.2117 -2.2849 -2.1986
 3817SOL     OW23083   4.396   2.078   2.180  0.0061 -0.2160 -0.1211
 3817SOL    HW123084   4.301   2.075   2.176 -0.0850  1.1476  1.2504
 3817SOL    HW223085   4.408   2.165   2.142  2.3384 -1.1604 -1.5624
 3818SOL     OW23086   1.080   3.076   3.236 -0.3589 -0.7053  0.1731
 3818SOL    HW123087   1.055   2.984   3.234  1.1118 -1.1069  0.2908
 3818SOL    HW223088   1.146   3.071   3.167 -0.8313 -0.7647 -0.2774
 3819SOL     OW23089   1.124   3.331   4.766  0.6645 -0.2510  0.4813
 3819SOL    HW123090   1.139   3.260   4.705 -2.2949  0.5517 -1.1577
 3819SOL    HW223091   1.209   3.348   4.808  0.1658  1.9124  0.6449
 3820SOL     OW23092   0.275   2.377   2.197  0.2519  0.0530  0.5112
 3820SOL    HW123093   0.235   2.442   2.255  2.2804  1.6041  0.1599
 3820SOL    HW223094   0.315   2.431   2.129  1.0351 -1.1453  0.0309
 3821SOL     OW23095   2.148   2.213  14.380  0.4559  0.0609  0.1719
 3821SOL    HW123096   2.087   2.200  14.307 -0.0139  0.0819  0.5653
 3821SOL    HW223097   2.191   2.298  14.369  2.4452 -1.1527 -1.4850
 3822SOL     OW23098   4.056   0.165   9.293 -0.4014  0.8353 -0.6527
 3822SOL    HW123099   3.963   0.141   9.284 -0.4125  0.3338  0.6944
 3822SOL    HW223100   4.090   0.077   9.281 -1.2364  1.0040 -4.0982
 3823SOL     OW23101   2.833   1.717   1.480 -0.3546 -0.4924  0.1318
 3823SOL    HW123102   2.927   1.730   1.490 -0.3417 -0.6571  0.2242
 3823SOL    HW223103   2.805   1.671   1.559  2.7602 -0.5849  1.1736
 3824SOL     OW23104   4.131   4.409   8.930 -0.0256  0.1958  0.2345
 3824SOL    HW123105   4.123   4.504   8.915 -1.1118  0.3305  1.6471
 3824SOL    HW223106   4.052   4.408   8.983  1.9660  1.1027  3.2114
 3825SOL     OW23107   2.633   0.174   5.924 -0.1646  0.4202 -0.7975
 3825SOL    HW123108   2.573   0.120   5.977  1.7003 -0.6392  0.2642
 3825SOL    HW223109   2.719   0.138   5.947  0.0268  0.7160 -1.0659
 3826SOL     OW23110   0.500   0.700   1.980  0.0593 -0.6348  0.4260
 3826SOL    HW123111   0.448   0.709   2.060  0.8974 -2.7863  1.2268
 3826SOL    HW223112   0.520   0.607   1.967  0.8892 -0.3941 -0.0509
 3827SOL     OW23113   2.063   1.318  12.376  0.5636  0.3293 -0.5995
 3827SOL    HW123114   2.089   1.407  12.401  0.8701  0.8297 -2.6362
 3827SOL    HW223115   1.972   1.315  12.408  1.2534 -2.4670  1.0493
 3828SOL     OW23116   2.498   3.188  12.121 -0.1687 -0.0184  0.0862
 3828SOL    HW123117   2.545   3.106  12.135  0.4594  0.5256  1.1835
 3828SOL    HW223118   2.444   3.168  12.044 -0.0611 -0.5940  0.1649
 3829SOL     OW23119   0.770   4.020   3.696 -0.1161  0.1820 -0.0296
 3829SOL    HW123120   0.709   4.005   3.769 -3.5423  1.4094 -2.6518
 3829SOL    HW223121   0.852   3.993   3.738  1.8300  2.8681 -2.1415
 3830SOL     OW23122   0.784   3.772  16.109  0.5022 -0.4987 -0.2362
 3830SOL    HW123123   0.741   3.701  16.157 -1.1450  0.4432 -0.2896
 3830SOL    HW223124   0.757   3.845  16.164  1.1023 -1.0494  0.7870
 3831SOL     OW23125   1.007   0.309   6.424  0.4073  0.2483 -0.2929
 3831SOL    HW123126   1.006   0.221   6.388  0.3256  0.1257  0.0104
 3831SOL    HW223127   0.914   0.318   6.445  1.0784 -1.8729  3.5033
 3832SOL     OW23128   1.359   1.768   5.995 -0.2001 -0.0579 -0.3459
 3832SOL    HW123129   1.433   1.739   5.942 -1.1904 -0.4121 -1.5418
 3832SOL    HW223130   1.383   1.859   6.012  1.1322 -0.2444 -1.2593
 3833SOL     OW23131   1.635   2.306   0.601  0.0577  0.4230 -0.3752
 3833SOL    HW123132   1.554   2.293   0.551 -0.8589  3.2797  0.3480
 3833SOL    HW223133   1.681   2.222   0.594  0.2619  0.5584 -0.6590
 3834SOL     OW23134   1.898   0.396   4.254 -0.3664  0.5619 -0.2478
 3834SOL    HW123135   1.857   0.311   4.270  1.1651 -0.7186 -3.1037
 3834SOL    HW223136   1.821   0.453   4.253 -0.2906  0.6972  1.5018
 3835SOL     OW23137   1.945   3.700  12.120 -0.1292 -0.7714  0.2356
 3835SOL    HW123138   1.964   3.614  12.081  0.7365 -0.6611  0.4169
 3835SOL    HW223139   1.980   3.693  12.209  1.2129 -0.9291 -0.3102
 3836SOL     OW23140   3.380   4.463   4.288  0.4127 -0.3060 -0.0081
 3836SOL    HW123141   3.371   4.458   4.383  2.2061  1.6685  0.2651
 3836SOL    HW223142   3.301   4.417   4.258 -0.5311 -0.0329  2.1057
 3837SOL     OW23143   3.358   3.369   4.665 -0.3738 -0.4529 -0.4771
 3837SOL    HW123144   3.314   3.350   4.582 -0.3415  1.0237 -0.8296
 3837SOL    HW223145   3.322   3.306   4.727 -1.3722  0.9089  0.3445
 3838SOL     OW23146   1.677   1.845  15.408 -0.5139 -0.6087  0.0437
 3838SOL    HW123147   1.699   1.789  15.334 -0.6621  1.2980 -1.4267
 3838SOL    HW223148   1.764   1.856  15.448 -0.8492 -1.2184  0.9517
 3839SOL     OW23149   2.192   3.371   2.330  0.4104  0.4695 -0.0853
 3839SOL    HW123150   2.178   3.438   2.397  0.8119 -0.5107  0.9948
 3839SOL    HW223151   2.147   3.412   2.256  1.0703  1.1396 -0.1152
 3840SOL     OW23152   0.730   3.166   2.944 -0.2550 -0.2285 -0.2074
 3840SOL    HW123153   0.723   3.126   3.030 -0.3693 -2.1392 -1.1180
 3840SOL    HW223154   0.797   3.233   2.958 -0.4816  0.2652 -1.5113
 3841SOL     OW23155   1.248   4.650   6.653 -0.0071  0.0546  0.3723
 3841SOL    HW123156   1.252   4.555   6.668  0.6265  0.0136 -0.0593
 3841SOL    HW223157   1.299   4.685   6.726  0.6192 -0.1567  0.0358
 3842SOL     OW23158   4.588   2.931   2.517 -0.0345 -0.4982  0.2940
 3842SOL    HW123159   4.539   3.004   2.555 -0.5447  0.4231 -2.1258
 3842SOL    HW223160   4.652   2.918   2.587 -0.3054 -0.2582  0.5886
 3843SOL     OW23161   2.254   1.697   5.992  0.2839  0.1620 -0.0177
 3843SOL    HW123162   2.174   1.734   6.029  0.0498  0.4353 -0.7866
 3843SOL    HW223163   2.270   1.616   6.041  0.6640 -0.0698 -0.5256
 3844SOL     OW23164   3.980   1.731   7.008 -0.2235 -0.5813  0.3095
 3844SOL    HW123165   3.888   1.756   6.999 -0.2571 -0.3951  1.1376
 3844SOL    HW223166   4.021   1.770   6.931 -1.0969 -0.2461  0.0042
 3845SOL     OW23167   0.349   3.344   4.980 -0.1320 -0.1333 -0.0422
 3845SOL    HW123168   0.365   3.402   5.054 -1.2232  1.3229 -0.9431
 3845SOL    HW223169   0.398   3.397   4.918 -0.6088  2.3540  1.6799
 3846SOL     OW23170   3.040   3.800   4.081  0.2276 -0.0314  0.1319
 3846SOL    HW123171   3.004   3.775   4.166  2.0786  2.0155  1.4940
 3846SOL    HW223172   3.015   3.726   4.025  0.1059  1.3169 -1.6041
 3847SOL     OW23173   3.391   1.878   0.208  0.0109 -0.6821  0.9924
 3847SOL    HW123174   3.408   1.877   0.114  0.8276  0.8877  1.1413
 3847SOL    HW223175   3.296   1.890   0.212  0.4466  1.6940  4.1035
 3848SOL     OW23176   1.718   2.211   3.478 -0.0275 -0.3969 -0.5248
 3848SOL    HW123177   1.793   2.151   3.469  0.4254  0.0918 -0.0583
 3848SOL    HW223178   1.665   2.195   3.400  0.3181  0.8301 -1.0253
 3849SOL     OW23179   0.003   4.370  11.280  0.1350 -0.5238 -0.0125
 3849SOL    HW123180   4.724   4.448  11.227  0.4586 -0.7148 -0.4018
 3849SOL    HW223181   4.659   4.358  11.325  1.9581 -3.2116  2.5441
 3850SOL     OW23182   1.539   1.139   0.660 -0.0099 -0.4858 -0.2146
 3850SOL    HW123183   1.465   1.080   0.677  1.3335 -1.1305  3.4231
 3850SOL    HW223184   1.492   1.205   0.608  1.1888  0.9759  0.5515
 3851SOL     OW23185   2.884   4.406  12.007  0.4602  0.1949 -0.0808
 3851SOL    HW123186   2.929   4.437  12.086 -2.1669  0.1480  1.4391
 3851SOL    HW223187   2.961   4.389  11.952 -0.0607 -0.7140 -0.5235
 3852SOL     OW23188   2.844   0.099   3.922 -1.0448  0.2936 -0.5821
 3852SOL    HW123189   2.821   0.078   4.012  1.5630 -0.8943 -0.2084
 3852SOL    HW223190   2.924   0.049   3.908 -0.5677  1.5567 -2.4519
 3853SOL     OW23191   2.757   3.298  17.110  0.4057  0.0931 -0.1919
 3853SOL    HW123192   2.731   3.208  17.090 -2.1641  0.6913  0.6075
 3853SOL    HW223193   2.709   3.338  17.038  0.9367 -0.7340 -1.0121
 3854SOL     OW23194   0.868   3.057   1.298 -0.5879  0.1608 -0.6066
 3854SOL    HW123195   0.874   3.118   1.224 -1.0787 -2.5807 -2.9141
 3854SOL    HW223196   0.851   3.120   1.368 -2.1380 -1.6635  0.6748
 3855SOL     OW23197   3.687   4.342  11.292  0.2140 -0.3686 -0.0464
 3855SOL    HW123198   3.765   4.370  11.341  0.8069 -0.8076 -0.7489
 3855SOL    HW223199   3.673   4.252  11.322  1.8976 -1.5634 -2.8726
 3856SOL     OW23200   0.875   3.125   5.744  0.6078  0.8628  0.1419
 3856SOL    HW123201   0.860   3.190   5.676  0.9865  0.5596 -0.2320
 3856SOL    HW223202   0.946   3.069   5.712  0.2264 -0.5978  1.8380
 3857SOL     OW23203   1.329   3.171   4.644  0.2266 -0.1989 -0.2908
 3857SOL    HW123204   1.370   3.161   4.730 -0.4855 -0.3379  0.0343
 3857SOL    HW223205   1.307   3.079   4.627  1.2731 -1.0045  2.6798
 3858SOL     OW23206   3.284   0.202   7.207 -0.6754  0.0365 -0.1713
 3858SOL    HW123207   3.305   0.116   7.173  1.6213 -0.8079  3.3547
 3858SOL    HW223208   3.194   0.213   7.176 -0.0635 -0.1053 -2.0133
 3859SOL     OW23209   2.163   3.706   3.676  0.0971  0.5101 -0.0519
 3859SOL    HW123210   2.124   3.623   3.650  1.6489  0.1900 -1.3377
 3859SOL    HW223211   2.197   3.746   3.596 -1.5914 -1.1511 -1.5849
 3860SOL     OW23212   3.867   2.942  12.615 -0.2646 -0.0087  0.4744
 3860SOL    HW123213   3.879   2.847  12.609 -0.5943 -0.1139  1.5413
 3860SOL    HW223214   3.778   2.950  12.649 -0.9905 -0.0653 -1.3626
 3861SOL     OW23215   3.399   3.926   5.537  0.1674 -0.0236  0.4924
 3861SOL    HW123216   3.331   3.903   5.601  0.2935  1.6132  1.2112
 3861SOL    HW223217   3.368   3.878   5.459  0.6328 -0.4484  0.5694
 3862SOL     OW23218   1.964   0.966  14.874  0.3347 -0.1402 -0.0745
 3862SOL    HW123219   1.977   1.057  14.900 -2.2713  0.1916  0.1090
 3862SOL    HW223220   1.988   0.955  14.782  1.4738  2.2192 -0.0480
 3863SOL     OW23221   4.514   2.165   7.704  0.1299  0.0429 -0.3777
 3863SOL    HW123222   4.568   2.189   7.778 -2.0475  0.7368  0.9825
 3863SOL    HW223223   4.535   2.072   7.700  0.3166  0.0398  0.7182
 3864SOL     OW23224   4.202   0.093   2.281 -0.1309  0.3670  0.5362
 3864SOL    HW123225   4.285   0.134   2.306 -0.6904  0.7788  1.6990
 3864SOL    HW223226   4.174   0.042   2.358  0.0998 -0.3979  0.1165
 3865SOL     OW23227   3.389   0.162   5.166 -0.3221 -0.4740 -0.5322
 3865SOL    HW123228   3.371   0.076   5.127  3.4952 -1.4993 -0.0637
 3865SOL    HW223229   3.478   0.143   5.196 -0.7475  0.2770  1.2147
 3866SOL     OW23230   0.467   1.306   4.436 -0.0128  0.2752 -0.8977
 3866SOL    HW123231   0.544   1.317   4.492 -1.1005  0.2939  0.5993
 3866SOL    HW223232   0.489   1.215   4.414  0.0137  0.5976 -2.1899
 3867SOL     OW23233   2.526   2.835   0.089 -0.0368 -0.0711  0.1740
 3867SOL    HW123234   2.434   2.859   0.097 -0.1194 -0.9895  1.9360
 3867SOL    HW223235   2.559   2.858   0.175  3.4683 -0.2589 -1.1265
 3868SOL     OW23236   2.958   3.671   3.023 -0.3887  0.3301  0.0628
 3868SOL    HW123237   2.984   3.748   3.073 -0.4022 -1.4296  2.7362
 3868SOL    HW223238   3.041   3.629   2.999 -0.1723  0.9828 -0.3383
 3869SOL     OW23239   1.576   0.501   5.722 -0.5655 -0.0580  0.1833
 3869SOL    HW123240   1.550   0.426   5.669 -0.2487  0.5635 -0.8638
 3869SOL    HW223241   1.492   0.543   5.739 -0.3024 -0.1657  1.7448
 3870SOL     OW23242   4.036   0.990   0.463 -0.2265  0.3483 -0.4881
 3870SOL    HW123243   3.949   0.997   0.503  0.6882 -1.6696  1.8307
 3870SOL    HW223244   4.086   1.051   0.518  0.3631  0.5296 -1.2334
 3871SOL     OW23245   1.533   2.320   1.313 -0.3098 -0.3862  0.3963
 3871SOL    HW123246   1.498   2.249   1.367 -1.3710 -0.4263 -0.3558
 3871SOL    HW223247   1.627   2.299   1.319 -0.0824  1.1542  2.5345
 3872SOL     OW23248   1.037   1.076   2.659  0.1765  0.0003 -0.3470
 3872SOL    HW123249   1.079   1.028   2.731 -1.4834  2.9259  2.5738
 3872SOL    HW223250   1.034   1.162   2.699  0.0604 -0.1902  0.0563
 3873SOL     OW23251   2.482   0.179   4.528 -0.5093  0.4113 -0.1741
 3873SOL    HW123252   2.459   0.246   4.593 -0.3112 -0.7210  1.0620
 3873SOL    HW223253   2.397   0.156   4.490 -0.8490 -0.7762  1.2805
 3874SOL     OW23254   4.578   1.105   6.859 -0.0986  0.2449  0.3463
 3874SOL    HW123255   4.613   1.020   6.830 -1.8784  0.0527 -1.2291
 3874SOL    HW223256   4.552   1.151   6.779  0.7681 -0.9680 -0.6357
 3875SOL     OW23257   1.559   3.319   4.727  0.0896  0.1367  0.0774
 3875SOL    HW123258   1.651   3.326   4.752  0.6010  0.4090 -1.8634
 3875SOL    HW223259   1.563   3.261   4.651  0.5576 -0.0476  0.2462
 3876SOL     OW23260   1.524   1.374   7.976 -0.1348  0.0522  0.4639
 3876SOL    HW123261   1.497   1.292   8.015  0.4264 -1.1356 -1.6294
 3876SOL    HW223262   1.582   1.409   8.043  2.1737  0.0664 -1.5059
 3877SOL     OW23263   4.393   4.125  16.192 -0.2872 -0.3639  0.2314
 3877SOL    HW123264   4.338   4.047  16.195 -0.9174  0.0909  0.5474
 3877SOL    HW223265   4.426   4.117  16.103  2.2620 -1.1437  1.2249
 3878SOL     OW23266   1.825   4.693   4.903  0.3048 -0.4124  0.2256
 3878SOL    HW123267   1.818   4.618   4.844 -0.1186 -0.5087  0.3961
 3878SOL    HW223268   1.762   0.020   4.871  0.3091 -1.4102 -1.8201
 3879SOL     OW23269   1.275   1.940  10.634  0.2487 -0.1115  0.3681
 3879SOL    HW123270   1.339   1.965  10.701  0.3773 -3.9454  1.6958
 3879SOL    HW223271   1.335   1.939  10.560 -2.8568 -0.8025 -2.1634
 3880SOL     OW23272   3.156   2.908  14.165 -0.0050  0.2605  0.1738
 3880SOL    HW123273   3.112   2.911  14.081  0.9145 -0.2165 -0.3239
 3880SOL    HW223274   3.246   2.896  14.133 -0.0414 -0.4558  0.3379
 3881SOL     OW23275   4.213   2.207   7.413 -0.3610  0.4544 -0.1251
 3881SOL    HW123276   4.297   2.178   7.377  1.7352  4.0685  1.8348
 3881SOL    HW223277   4.215   2.300   7.389  2.1695  0.3225 -0.4788
 3882SOL     OW23278   1.549   2.679   4.325  1.0322  0.5530 -0.5999
 3882SOL    HW123279   1.461   2.660   4.358  0.9593 -0.1191 -1.1921
 3882SOL    HW223280   1.529   2.746   4.259  3.1285  0.0817 -1.7044
 3883SOL     OW23281   4.043   2.113  12.728 -0.2062  0.5373 -0.1154
 3883SOL    HW123282   4.005   2.025  12.725  0.3787  0.2789  0.0939
 3883SOL    HW223283   3.974   2.166  12.769 -0.6834 -1.6037  1.8131
 3884SOL     OW23284   1.873   1.168   5.788  0.4033 -0.0760  0.0024
 3884SOL    HW123285   1.799   1.122   5.826 -0.5527  0.2110 -1.5444
 3884SOL    HW223286   1.832   1.201   5.709 -0.9867  2.3287  1.7340
 3885SOL     OW23287   3.086   2.408  11.132  0.5654 -0.6865 -0.5018
 3885SOL    HW123288   2.996   2.437  11.149  0.9767  0.9145 -1.0903
 3885SOL    HW223289   3.127   2.493  11.142 -0.7191 -0.1670  0.4135
 3886SOL     OW23290   0.414   1.192   5.920  0.6029  0.1969  0.0546
 3886SOL    HW123291   0.499   1.155   5.942 -0.9125 -1.3541  3.4943
 3886SOL    HW223292   0.372   1.112   5.953 -1.7658  2.0632  1.5478
 3887SOL     OW23293   3.206   0.470   5.729 -0.7230 -0.1976 -0.4070
 3887SOL    HW123294   3.257   0.525   5.670  2.7993 -1.5992  1.3152
 3887SOL    HW223295   3.122   0.463   5.683 -0.2760  0.5788 -1.3454
 3888SOL     OW23296   0.946   4.275  12.175  0.1692  0.2420  0.3467
 3888SOL    HW123297   0.991   4.338  12.231  2.1586  0.3203 -1.3181
 3888SOL    HW223298   1.020   4.221  12.147  0.2038  0.1189  0.6866
 3889SOL     OW23299   2.041   2.386   6.786 -0.3983  0.0156 -0.3832
 3889SOL    HW123300   2.089   2.449   6.841  0.0824 -0.9989  0.3592
 3889SOL    HW223301   1.963   2.368   6.838  0.4343 -4.0403 -0.5914
 3890SOL     OW23302   2.944   2.722   2.304 -0.8668  0.4050  0.4023
 3890SOL    HW123303   2.965   2.792   2.243 -1.5410  1.1086  0.9763
 3890SOL    HW223304   2.953   2.770   2.387 -1.9269 -0.7532  1.1956
 3891SOL     OW23305   2.721   4.052   3.791 -0.0682  0.1564  0.7185
 3891SOL    HW123306   2.792   4.059   3.855  0.7180  0.4780 -0.1911
 3891SOL    HW223307   2.765   4.039   3.707  0.8908 -3.2554  1.7460
 3892SOL     OW23308   3.682   1.315   6.658  0.0733  0.8108  0.4866
 3892SOL    HW123309   3.605   1.286   6.608 -1.3125  0.4079  2.8373
 3892SOL    HW223310   3.698   1.241   6.717  2.6531  0.7689 -0.2766
 3893SOL     OW23311   1.274   3.344   2.408  0.5537 -0.4441 -0.0956
 3893SOL    HW123312   1.270   3.320   2.315  1.1201  1.5479 -0.6499
 3893SOL    HW223313   1.368   3.328   2.416  0.4141 -1.6844 -0.9335
 3894SOL     OW23314   1.752   0.685   8.482  0.1271 -0.0939 -0.2811
 3894SOL    HW123315   1.771   0.609   8.537 -2.2310 -1.3382 -1.1997
 3894SOL    HW223316   1.824   0.737   8.517 -0.0744  0.9393 -1.4165
 3895SOL     OW23317   2.079   3.154  17.482  0.8297  0.4790  0.3177
 3895SOL    HW123318   2.156   3.139  17.537  1.6934 -2.0922 -1.5511
 3895SOL    HW223319   2.015   3.128  17.548 -1.0176  0.6817 -1.3703
 3896SOL     OW23320   0.074   3.959   6.376 -0.4266 -0.2864 -0.2179
 3896SOL    HW123321   0.147   3.973   6.315 -1.9209  1.6795 -1.5481
 3896SOL    HW223322   0.064   3.864   6.382  0.7098 -0.4203 -0.5572
 3897SOL     OW23323   0.235   2.715   5.551 -1.0386  0.5511  0.4465
 3897SOL    HW123324   0.192   2.797   5.574 -1.5928 -0.3991  2.7647
 3897SOL    HW223325   0.314   2.746   5.506 -0.1708 -0.3700  1.3219
 3898SOL     OW23326   1.721   4.181  14.784  1.0364 -0.1616 -0.0912
 3898SOL    HW123327   1.761   4.266  14.765  0.1099  0.6693  1.6314
 3898SOL    HW223328   1.790   4.135  14.832 -0.3032  0.9483  2.9442
 3899SOL     OW23329   0.268   0.873   0.222  0.6404 -0.2769  0.5980
 3899SOL    HW123330   0.297   0.964   0.220 -0.4496  0.1022  2.1969
 3899SOL    HW223331   0.288   0.858   0.129  0.3415 -0.2836  0.5320
 3900SOL     OW23332   2.269   4.164   9.527  0.2077  0.2036 -0.0888
 3900SOL    HW123333   2.264   4.069   9.536  1.1647 -0.0456 -2.0868
 3900SOL    HW223334   2.282   4.196   9.616  2.4618  2.3641 -1.1605
 3901SOL     OW23335   0.551   1.603   2.205 -0.3228  0.2854 -0.0076
 3901SOL    HW123336   0.523   1.574   2.118  1.1051 -0.7605 -0.1007
 3901SOL    HW223337   0.645   1.586   2.199  0.1086  2.4425  0.7224
 3902SOL     OW23338   2.601   3.346   6.961  0.1471 -0.4271 -0.4260
 3902SOL    HW123339   2.585   3.345   7.056  1.6593  0.4528 -0.1481
 3902SOL    HW223340   2.655   3.268   6.946  0.5461 -0.3578  0.6029
 3903SOL     OW23341   1.052   0.439   6.888  0.5325  0.7991  0.6512
 3903SOL    HW123342   0.969   0.430   6.841 -0.0829  2.6987  1.3454
 3903SOL    HW223343   1.116   0.411   6.823  2.0295 -1.7990  3.2434
 3904SOL     OW23344   2.682   4.687   3.760 -0.2903  0.6383  0.5000
 3904SOL    HW123345   2.689   4.718   3.670  0.2715 -1.7223 -0.2595
 3904SOL    HW223346   2.735   0.019   3.795  0.5485  0.8068 -1.1551
 3905SOL     OW23347   4.099   2.190   2.082  0.6545  0.2883  0.6852
 3905SOL    HW123348   4.113   2.283   2.060  1.5271 -0.0499 -0.1767
 3905SOL    HW223349   4.094   2.193   2.177 -0.2677 -0.9542  0.6750
 3906SOL     OW23350   1.438   3.705   3.559 -0.2822  0.0803  0.4293
 3906SOL    HW123351   1.371   3.765   3.527 -2.4060 -2.4416  0.0886
 3906SOL    HW223352   1.388   3.624   3.549  1.3935 -1.1981  2.2688
 3907SOL     OW23353   2.396   3.272   7.625 -0.1339  0.0376 -0.1942
 3907SOL    HW123354   2.482   3.290   7.662 -0.4497 -2.1051  1.5597
 3907SOL    HW223355   2.366   3.215   7.696  0.8972  0.5027  0.6140
 3908SOL     OW23356   2.598   0.763   1.100 -0.2585  0.1862 -0.0086
 3908SOL    HW123357   2.589   0.766   1.196  1.0011  0.8804  0.0821
 3908SOL    HW223358   2.689   0.789   1.089  0.0633 -0.6208  0.6979
 3909SOL     OW23359   0.622   4.435   6.344 -0.0336  0.5132  0.2840
 3909SOL    HW123360   0.632   4.459   6.252 -0.1921 -0.1058  0.1052
 3909SOL    HW223361   0.654   4.517   6.383 -0.3978  0.7223  0.1510
 3910SOL     OW23362   3.404   3.700   6.048  0.5001  0.3744  0.3553
 3910SOL    HW123363   3.372   3.646   6.121 -1.9338 -1.4905 -2.1145
 3910SOL    HW223364   3.461   3.763   6.093  1.9220  0.6422 -1.8361
 3911SOL     OW23365   1.021   3.905   4.771 -0.0480  0.3461 -0.2027
 3911SOL    HW123366   0.946   3.965   4.766 -1.7809 -1.6886  1.4398
 3911SOL    HW223367   1.023   3.884   4.864 -2.9276  2.1901  0.2793
 3912SOL     OW23368   3.754   1.172  16.618  0.0720 -0.1596 -0.0397
 3912SOL    HW123369   3.848   1.154  16.618  0.4227  1.6254  0.1044
 3912SOL    HW223370   3.740   1.178  16.523 -1.5565  1.6812  0.3255
 3913SOL     OW23371   3.361   0.530  17.723  0.6733 -0.0796 -0.1641
 3913SOL    HW123372   3.411   0.560   0.046 -0.5712 -1.5664  1.2501
 3913SOL    HW223373   3.294   0.598  17.725  1.2419  0.4723  0.1607
 3914SOL     OW23374   0.086   3.211   7.072  0.3126 -0.0546  0.3206
 3914SOL    HW123375   4.736   3.218   7.108  0.1794 -2.6786  0.4718
 3914SOL    HW223376   0.117   3.126   7.104 -2.3600 -1.0136  0.3857
 3915SOL     OW23377   2.777   0.734   0.507 -0.1441  0.4601 -0.0449
 3915SOL    HW123378   2.868   0.746   0.533 -0.3741  0.0607  0.9167
 3915SOL    HW223379   2.776   0.650   0.462 -0.9944  0.4651 -0.0330
 3916SOL     OW23380   2.654   0.014  15.930 -0.8103  0.5940 -0.0317
 3916SOL    HW123381   2.699   0.026  16.014  0.6397 -1.4256 -0.5049
 3916SOL    HW223382   2.568   0.051  15.949 -1.4845 -1.7427  1.4525
 3917SOL     OW23383   3.896   1.036  12.492 -0.1542  0.3110 -0.3797
 3917SOL    HW123384   3.923   1.128  12.490  0.6192  0.0492 -1.7818
 3917SOL    HW223385   3.835   1.039  12.567  0.3060 -1.3374  0.0613
 3918SOL     OW23386   3.812   2.727   2.623 -0.2627  0.1106  0.0393
 3918SOL    HW123387   3.791   2.799   2.564 -0.9126 -0.4753 -0.4485
 3918SOL    HW223388   3.858   2.763   2.699  1.8624 -0.7298 -0.8599
 3919SOL     OW23389   3.129   0.580   8.313  0.5329  0.4815  0.3212
 3919SOL    HW123390   3.111   0.654   8.371 -1.8582  0.7980 -0.8416
 3919SOL    HW223391   3.186   0.628   8.252 -0.0562  0.4105 -0.2815
 3920SOL     OW23392   1.049   0.714  15.366 -0.7703 -0.1208  0.1554
 3920SOL    HW123393   0.994   0.750  15.436 -1.2988  0.9422 -0.8149
 3920SOL    HW223394   0.979   0.714  15.301  1.8831  0.0011 -2.6609
 3921SOL     OW23395   2.662   3.272  14.647  0.1938 -0.0957  0.3715
 3921SOL    HW123396   2.631   3.212  14.580 -1.6806  1.6274 -0.3109
 3921SOL    HW223397   2.664   3.358  14.606  0.8417 -0.2911 -0.0028
 3922SOL     OW23398   1.301   4.321   5.546 -0.3281 -0.6622 -0.3710
 3922SOL    HW123399   1.301   4.365   5.631  1.7487  0.6691 -1.0509
 3922SOL    HW223400   1.259   4.389   5.494  0.3280 -2.5324 -3.3657
 3923SOL     OW23401   4.609   1.623   4.036  0.5659 -0.2777 -0.0906
 3923SOL    HW123402   4.675   1.602   4.103  0.5899 -1.8494 -0.5928
 3923SOL    HW223403   4.631   1.716   4.029 -0.0357  0.0650  2.5513
 3924SOL     OW23404   1.473   2.262   4.776 -0.7666  0.0335  0.6889
 3924SOL    HW123405   1.499   2.228   4.691 -0.1092  0.3173  0.7697
 3924SOL    HW223406   1.417   2.191   4.805 -1.2321  0.3595  0.5889
 3925SOL     OW23407   3.118   0.377   1.318 -0.3805  0.1575 -0.0610
 3925SOL    HW123408   3.162   0.430   1.384  0.3770 -1.2783  0.5798
 3925SOL    HW223409   3.164   0.409   1.241  1.7274 -1.6008  0.4513
 3926SOL     OW23410   0.449   3.266  15.352 -0.4167  0.2132 -0.3781
 3926SOL    HW123411   0.459   3.298  15.262 -3.0827  0.9059 -0.4395
 3926SOL    HW223412   0.535   3.266  15.392  0.8279  1.7535 -3.0425
 3927SOL     OW23413   1.560   4.236   1.780  0.1727  0.0416 -0.2138
 3927SOL    HW123414   1.592   4.172   1.844  0.3669  0.4691  0.1134
 3927SOL    HW223415   1.547   4.182   1.702 -1.4483 -0.4617  0.3894
 3928SOL     OW23416   3.035   1.281   0.379 -0.4680  0.0272 -0.4828
 3928SOL    HW123417   2.958   1.263   0.325 -0.8749  1.3000 -0.3170
 3928SOL    HW223418   3.098   1.225   0.334 -0.3908 -0.6258  0.4233
 3929SOL     OW23419   3.335   2.440   8.749  0.7289 -0.2643 -0.0325
 3929SOL    HW123420   3.389   2.436   8.828 -2.2639 -0.6598  1.9937
 3929SOL    HW223421   3.365   2.515   8.697  1.3170  0.5683  1.5004
 3930SOL     OW23422   0.081   0.129   4.173  0.0067  0.5015 -0.7016
 3930SOL    HW123423   0.136   0.110   4.249 -1.2284  0.7738  0.2590
 3930SOL    HW223424   4.738   0.086   4.198  2.5686 -3.3412  0.9941
 3931SOL     OW23425   3.221   1.104   8.071  0.1639 -0.1622  0.4545
 3931SOL    HW123426   3.293   1.152   8.112 -1.8909  2.8288  0.5445
 3931SOL    HW223427   3.252   1.068   7.987 -0.3227 -1.8780  1.0018
 3932SOL     OW23428   0.707   3.751   0.964 -0.3387  0.0690 -0.1614
 3932SOL    HW123429   0.763   3.751   0.886 -1.4396 -1.0936 -0.9415
 3932SOL    HW223430   0.747   3.830   1.001 -1.1091 -0.6788  2.2767
 3933SOL     OW23431   4.737   0.581   0.970  0.3868 -0.0363  0.2004
 3933SOL    HW123432   4.709   0.594   0.879  1.1683  3.1695  0.4283
 3933SOL    HW223433   4.724   0.668   1.007 -0.4861  0.8799 -2.2875
 3934SOL     OW23434   1.359   1.081   6.121 -0.1926  0.5882 -0.0868
 3934SOL    HW123435   1.335   1.022   6.192  0.8451  0.4893  0.1778
 3934SOL    HW223436   1.453   1.088   6.137  0.3037 -4.2204 -1.0355
 3935SOL     OW23437   3.635   1.599   8.255 -0.1879 -0.5838  0.4317
 3935SOL    HW123438   3.653   1.561   8.169 -0.4001  0.7015 -0.1857
 3935SOL    HW223439   3.714   1.651   8.271 -0.0307 -0.3775 -0.9936
 3936SOL     OW23440   2.989   1.163   4.603 -0.1423 -0.0779 -0.1865
 3936SOL    HW123441   2.997   1.118   4.687 -2.4112  1.1611  0.6749
 3936SOL    HW223442   2.945   1.090   4.559 -1.7460  1.8100 -1.6983
 3937SOL     OW23443   2.160   3.989  13.895 -0.1165 -0.1063 -0.3386
 3937SOL    HW123444   2.098   4.060  13.878 -0.6154 -0.9015 -1.8314
 3937SOL    HW223445   2.191   3.984  13.804  0.0525  1.8271 -0.3761
 3938SOL     OW23446   1.180   2.807   6.249 -0.3151 -1.0710 -0.3460
 3938SOL    HW123447   1.108   2.763   6.295 -0.3766  0.6192  1.1866
 3938SOL    HW223448   1.261   2.782   6.292  0.8324  0.1448 -1.8227
 3939SOL     OW23449   3.054   1.536  12.608  0.1885  0.1393 -0.5494
 3939SOL    HW123450   3.077   1.443  12.613  0.9061  0.1424 -3.5327
 3939SOL    HW223451   3.110   1.573  12.676 -0.6712 -2.9709  1.8430
 3940SOL     OW23452   2.412   0.124  13.421  0.2763 -0.2096  0.3721
 3940SOL    HW123453   2.340   0.136  13.483  0.4163 -0.2571  0.5428
 3940SOL    HW223454   2.396   0.198  13.362 -0.6544 -1.0418 -0.4045
 3941SOL     OW23455   0.870   4.142   4.596 -0.7429 -0.7683  1.0291
 3941SOL    HW123456   0.787   4.098   4.577 -0.5412 -0.8508  0.3439
 3941SOL    HW223457   0.844   4.234   4.600 -0.8983 -0.7109 -1.2620
 3942SOL     OW23458   0.395   4.111   8.173 -0.3120 -0.4742  0.2801
 3942SOL    HW123459   0.313   4.161   8.169  1.3246  2.0916 -1.5440
 3942SOL    HW223460   0.447   4.151   8.242 -0.3040 -0.5190  0.2994
 3943SOL     OW23461   3.647   1.946   5.309  0.2035 -0.0332 -0.3520
 3943SOL    HW123462   3.562   1.963   5.350  0.3274  0.1561 -0.1731
 3943SOL    HW223463   3.611   1.931   5.221  0.3947  1.1786 -0.6331
 3944SOL     OW23464   1.901   1.208   5.342  0.2710  0.3064 -0.4366
 3944SOL    HW123465   1.909   1.114   5.325 -0.5002  0.2654 -0.5587
 3944SOL    HW223466   1.853   1.211   5.425 -0.3205 -1.6860 -0.7120
 3945SOL     OW23467   0.635   2.840  14.910  0.2079  0.2032  0.7532
 3945SOL    HW123468   0.692   2.763  14.909 -0.6715 -0.4047 -2.0290
 3945SOL    HW223469   0.691   2.918  14.917 -1.6822  1.6582 -0.3112
 3946SOL     OW23470   4.081   1.349  10.647  0.4842  0.1503  0.5404
 3946SOL    HW123471   4.075   1.300  10.565  2.4945 -0.6095  0.8429
 3946SOL    HW223472   3.997   1.320  10.683  0.1778 -1.0695 -1.2037
 3947SOL     OW23473   4.036   3.911  11.375 -0.1308 -0.1766  0.0299
 3947SOL    HW123474   3.967   3.910  11.440  1.1596  0.8344  1.3995
 3947SOL    HW223475   4.066   4.001  11.387 -2.2698  0.7135 -1.4408
 3948SOL     OW23476   0.374   2.925  11.841 -0.0378 -0.0173  0.0817
 3948SOL    HW123477   0.325   2.959  11.766  1.3376  2.0241  0.1082
 3948SOL    HW223478   0.422   2.844  11.822 -0.3365 -0.4534  1.2091
 3949SOL     OW23479   0.146   4.456  14.487 -0.4217 -0.2901  0.2344
 3949SOL    HW123480   0.150   4.550  14.468 -1.3730  0.2599  2.7853
 3949SOL    HW223481   0.079   4.438  14.420  1.3348 -0.0484 -1.5891
 3950SOL     OW23482   2.078   0.710  15.393  0.3037  0.2097 -0.5523
 3950SOL    HW123483   2.045   0.729  15.480  0.5220 -1.0875 -0.1945
 3950SOL    HW223484   1.996   0.730  15.348  1.5225  1.9098 -2.0671
 3951SOL     OW23485   4.549   0.756   4.115 -0.1542 -0.2266  0.2188
 3951SOL    HW123486   4.543   0.685   4.051 -0.5763  0.4647 -0.5186
 3951SOL    HW223487   4.535   0.711   4.199 -2.5202  2.0382  1.0295
 3952SOL     OW23488   0.935   0.864   6.720  0.0448  0.5595 -0.3083
 3952SOL    HW123489   0.981   0.821   6.792  0.0467  1.6410  0.3303
 3952SOL    HW223490   1.008   0.903   6.673 -0.5364  0.5594 -1.2140
 3953SOL     OW23491   3.526   0.933   8.040 -0.0232  1.0213  0.4926
 3953SOL    HW123492   3.502   0.956   7.951 -2.3440 -0.2895  0.7959
 3953SOL    HW223493   3.608   0.885   8.024 -1.4306 -0.2415 -2.8687
 3954SOL     OW23494   4.226   2.285   3.528  0.2456 -0.0502  0.1523
 3954SOL    HW123495   4.238   2.359   3.468 -0.6953 -1.4062 -1.7157
 3954SOL    HW223496   4.216   2.330   3.612  0.2982  2.4688 -1.1603
 3955SOL     OW23497   4.400   1.295   3.718  0.1134 -0.0138  0.0095
 3955SOL    HW123498   4.361   1.383   3.722 -0.5698 -0.2814 -0.6885
 3955SOL    HW223499   4.449   1.297   3.800  0.1145 -2.2888  0.0592
 3956SOL     OW23500   0.209   4.081   4.670 -0.2260 -0.2621  0.8636
 3956SOL    HW123501   0.143   4.039   4.725  0.0613 -0.8260  0.7739
 3956SOL    HW223502   0.269   4.010   4.648 -0.9150 -0.2765 -0.9733
 3957SOL     OW23503   2.457   2.121   4.754 -0.5108  0.2920 -0.5274
 3957SOL    HW123504   2.546   2.121   4.789 -0.4160  1.3507 -0.7889
 3957SOL    HW223505   2.410   2.063   4.815  0.1122 -1.3144 -1.5664
 3958SOL     OW23506   3.530   2.962   6.886 -0.3084  0.2028  0.2018
 3958SOL    HW123507   3.564   2.998   6.968  0.8899  0.6711 -0.5074
 3958SOL    HW223508   3.595   2.893   6.876 -0.6324  0.1694 -1.7368
 3959SOL     OW23509   3.322   4.272   8.893  0.2204  0.4992  0.6717
 3959SOL    HW123510   3.276   4.203   8.939 -0.9425 -0.4907 -2.0081
 3959SOL    HW223511   3.345   4.212   8.822  1.3619 -1.7046  2.9074
 3960SOL     OW23512   3.396   4.708   4.933 -0.3263 -0.2962 -0.2347
 3960SOL    HW123513   3.467   4.721   4.871  0.5469  0.1146  0.8356
 3960SOL    HW223514   3.351   4.633   4.894 -0.1594 -0.7092  0.3603
 3961SOL     OW23515   3.150   4.287   6.137  0.0940  0.4078  0.5091
 3961SOL    HW123516   3.219   4.277   6.071 -0.7460 -1.9347 -0.0099
 3961SOL    HW223517   3.172   4.377   6.162  1.0303  0.6363 -1.1303
 3962SOL     OW23518   0.685   0.652   2.910  0.8725 -0.0177  0.2185
 3962SOL    HW123519   0.652   0.634   2.998 -3.2201 -0.1335 -1.3335
 3962SOL    HW223520   0.607   0.694   2.875  0.5828 -0.4148  0.3913
 3963SOL     OW23521   2.385   2.646  14.511  0.8399 -0.2597 -0.7652
 3963SOL    HW123522   2.345   2.573  14.465  0.6190  0.5217 -1.8350
 3963SOL    HW223523   2.468   2.646  14.463 -0.0841 -0.9626 -2.3585
 3964SOL     OW23524   0.901   1.194  10.373  0.0030  0.3460  0.2561
 3964SOL    HW123525   0.882   1.107  10.408  1.0732 -0.4778 -1.2152
 3964SOL    HW223526   0.886   1.244  10.454 -2.0847  0.6479 -0.3244
 3965SOL     OW23527   2.309   1.811   8.141 -0.5071 -0.1301 -0.4126
 3965SOL    HW123528   2.245   1.868   8.100 -0.0825 -0.3651 -1.3848
 3965SOL    HW223529   2.377   1.804   8.075 -0.2749  2.2351 -0.4204
 3966SOL     OW23530   3.588   0.080   4.333  0.4141  0.5991  0.0855
 3966SOL    HW123531   3.528   0.067   4.406 -0.6675  0.8818 -0.7559
 3966SOL    HW223532   3.669   0.072   4.384  0.2101  1.8935  0.6018
 3967SOL     OW23533   0.289   1.306  10.308 -0.6147 -0.0148  0.4675
 3967SOL    HW123534   0.315   1.338  10.394  2.2018 -1.3616  0.0913
 3967SOL    HW223535   0.364   1.254  10.280 -1.8486 -1.2649 -0.4909
 3968SOL     OW23536   0.345   4.259  14.413  0.2506 -0.2144 -0.4866
 3968SOL    HW123537   0.417   4.289  14.468  0.3329 -2.3680  0.6105
 3968SOL    HW223538   0.276   4.318  14.443  1.5982  1.3026 -0.3817
 3969SOL     OW23539   4.511   1.265   3.984  0.1878 -0.3050 -0.5577
 3969SOL    HW123540   4.462   1.290   4.062 -0.4008  0.9559 -1.3143
 3969SOL    HW223541   4.469   1.180   3.969  0.7604 -0.6802 -0.0027
 3970SOL     OW23542   1.971   2.966   3.978 -0.1898  0.1541  0.6958
 3970SOL    HW123543   1.938   2.956   3.889 -0.0198 -0.1681  0.6666
 3970SOL    HW223544   1.920   3.041   4.008 -3.2566 -0.6363 -2.5110
 3971SOL     OW23545   0.722   3.540   5.670  0.0086 -0.5263  0.3964
 3971SOL    HW123546   0.773   3.538   5.751  1.0963  0.3160 -0.2726
 3971SOL    HW223547   0.728   3.448   5.646  0.5359 -0.1099 -1.1083
 3972SOL     OW23548   3.987   3.925   3.511 -0.6413  0.2265  0.0480
 3972SOL    HW123549   3.952   3.912   3.599 -1.7177  0.1437 -0.3870
 3972SOL    HW223550   3.974   3.843   3.463 -1.8765  0.7122 -0.4677
 3973SOL     OW23551   2.542   1.692   7.986 -0.0027  0.4145  0.5968
 3973SOL    HW123552   2.552   1.604   8.021  0.8491  0.1468 -0.3277
 3973SOL    HW223553   2.604   1.732   8.047  2.4102 -1.2320 -0.8177
 3974SOL     OW23554   3.124   4.043   6.241  0.7943  0.1300 -0.2633
 3974SOL    HW123555   3.085   4.086   6.317  2.5031  0.8006  0.2547
 3974SOL    HW223556   3.132   4.118   6.183  1.7155 -0.1470 -0.5030
 3975SOL     OW23557   1.112   2.943   1.421  0.0342  0.5131 -0.2058
 3975SOL    HW123558   1.041   2.983   1.371  1.5036  3.0221 -0.2866
 3975SOL    HW223559   1.162   2.895   1.354 -1.9668 -0.8450 -0.7158
 3976SOL     OW23560   4.152   4.320   6.612  0.5000 -0.0518 -0.3957
 3976SOL    HW123561   4.221   4.316   6.678  0.2989  1.2841 -0.1136
 3976SOL    HW223562   4.199   4.338   6.531 -0.4786 -0.4506 -1.0588
 3977SOL     OW23563   3.774   0.969   3.863 -0.6560  0.1623 -0.8088
 3977SOL    HW123564   3.803   0.964   3.954 -1.2472  0.9772 -0.5694
 3977SOL    HW223565   3.724   0.889   3.848 -1.5091  0.3661  0.9039
 3978SOL     OW23566   2.853   2.763  12.901 -0.0550 -0.5520  0.6728
 3978SOL    HW123567   2.857   2.686  12.958  0.0648 -1.5037 -0.6173
 3978SOL    HW223568   2.894   2.734  12.820 -0.6977  0.3053  0.0442
 3979SOL     OW23569   2.761   0.090  12.313 -0.3328  0.5805 -0.4002
 3979SOL    HW123570   2.716   0.160  12.265  0.5520  0.2891 -1.6532
 3979SOL    HW223571   2.834   0.089  12.251  1.5003  0.7987  1.7948
 3980SOL     OW23572   0.091   1.930   6.435  0.2187  0.1500 -0.0853
 3980SOL    HW123573   0.114   1.916   6.343  0.6416  0.6479 -0.0523
 3980SOL    HW223574   0.103   1.844   6.476 -2.5623  0.8723  2.2683
 3981SOL     OW23575   3.095   1.410   3.261 -0.1697 -0.2354 -0.7770
 3981SOL    HW123576   3.130   1.436   3.347  1.9718 -0.9620 -1.4241
 3981SOL    HW223577   3.160   1.447   3.202  0.9316  1.3936  1.4661
 3982SOL     OW23578   0.727   2.587   1.330  0.6356  0.2037 -0.6117
 3982SOL    HW123579   0.772   2.508   1.301  1.1159  1.2116 -2.6605
 3982SOL    HW223580   0.683   2.608   1.247  0.6588  0.7537 -0.4835
 3983SOL     OW23581   3.512   1.212   5.099 -0.1395  0.7782 -0.1919
 3983SOL    HW123582   3.585   1.158   5.128 -0.5412  0.3989  0.1128
 3983SOL    HW223583   3.546   1.295   5.135 -1.7235  1.1706  0.4223
 3984SOL     OW23584   1.942   2.173  14.198 -0.3228  0.5424  0.1728
 3984SOL    HW123585   1.884   2.187  14.273 -0.7114 -1.1980  0.2001
 3984SOL    HW223586   1.922   2.083  14.172  0.4295  0.7927 -1.2814
 3985SOL     OW23587   1.241   3.237   6.217  0.9237  0.1317 -0.0837
 3985SOL    HW123588   1.320   3.263   6.169  1.1696 -0.7816 -0.1617
 3985SOL    HW223589   1.278   3.161   6.262 -1.1125 -0.1682  1.0924
 3986SOL     OW23590   1.289   4.194   6.050 -0.7497  0.1877  0.3913
 3986SOL    HW123591   1.312   4.144   5.972 -2.4642 -0.4996  0.3379
 3986SOL    HW223592   1.374   4.194   6.096 -0.6189  0.1826  0.1493
 3987SOL     OW23593   2.296   0.087   8.004 -0.5762  0.1872  0.3984
 3987SOL    HW123594   2.234   0.157   8.024 -1.5405 -0.7065  0.5281
 3987SOL    HW223595   2.373   0.108   8.056  1.6686  0.4059 -3.0269
 3988SOL     OW23596   0.847   2.359   8.337  0.3530  0.0658 -0.0661
 3988SOL    HW123597   0.879   2.389   8.252  0.0504 -0.0756 -0.2330
 3988SOL    HW223598   0.798   2.283   8.305 -0.3432  0.1869  0.7004
 3989SOL     OW23599   3.403   1.623   1.562 -1.1503 -0.1395 -0.1705
 3989SOL    HW123600   3.313   1.594   1.581 -1.5799  1.1669 -0.2588
 3989SOL    HW223601   3.407   1.714   1.589 -0.6853  0.3310 -1.8823
 3990SOL     OW23602   0.963   3.652  14.519  0.3276 -0.5339  0.1757
 3990SOL    HW123603   0.925   3.580  14.468  0.6561 -1.3577  1.1008
 3990SOL    HW223604   0.916   3.725  14.479 -1.6617 -1.1429  1.4319
 3991SOL     OW23605   3.869   3.501   8.676  0.1735 -0.6171 -0.3636
 3991SOL    HW123606   3.796   3.449   8.642 -0.4466 -0.5982  0.9044
 3991SOL    HW223607   3.918   3.522   8.597  1.3006  0.8869  0.7497
 3992SOL     OW23608   1.657   4.647  13.754 -0.3895 -0.2723  0.2439
 3992SOL    HW123609   1.649   4.672  13.662 -0.3858 -1.0931  0.0208
 3992SOL    HW223610   1.708   4.722  13.784  0.9244 -1.2877  0.5417
 3993SOL     OW23611   1.936   1.724   8.315 -0.3493  0.6890  0.1358
 3993SOL    HW123612   1.900   1.783   8.382  0.5720 -1.2453  2.3318
 3993SOL    HW223613   1.942   1.643   8.366 -1.5243  0.7165  0.3153
 3994SOL     OW23614   1.967   1.227  14.949 -0.9182  0.1538 -0.0974
 3994SOL    HW123615   1.983   1.292  14.881  1.8903 -0.9555 -0.5321
 3994SOL    HW223616   1.994   1.280  15.024  1.0509 -0.5556 -0.3022
 3995SOL     OW23617   1.926   2.571   4.422 -0.1210 -0.1517 -0.5158
 3995SOL    HW123618   1.953   2.575   4.330  0.7583  2.3627 -0.1534
 3995SOL    HW223619   1.960   2.484   4.444 -2.7117 -1.3224 -1.1454
 3996SOL     OW23620   4.386   0.987   4.335  0.0310 -0.4528 -0.3818
 3996SOL    HW123621   4.330   1.043   4.389 -0.0376  0.0714 -1.0075
 3996SOL    HW223622   4.340   0.990   4.252  0.3361  2.9310 -0.4234
 3997SOL     OW23623   1.192   3.591   1.187 -0.4095  0.3770 -0.2995
 3997SOL    HW123624   1.201   3.650   1.113 -2.0676 -1.7448 -2.1811
 3997SOL    HW223625   1.107   3.627   1.214 -0.8966 -0.7504 -0.3215
 3998SOL     OW23626   1.644   0.816   8.243  0.0108 -0.4747  0.1206
 3998SOL    HW123627   1.598   0.891   8.281  0.8404  1.4000 -2.5444
 3998SOL    HW223628   1.659   0.757   8.317  0.7621 -1.6256 -0.9374
 3999SOL     OW23629   0.974   4.278   3.939  0.3787  0.1267 -0.2651
 3999SOL    HW123630   1.044   4.238   3.991 -0.2701 -0.2357  0.3409
 3999SOL    HW223631   0.896   4.232   3.972  0.9973 -1.4128 -0.9066
 4000SOL     OW23632   3.947   4.001  17.420  0.2331 -0.2473 -0.4847
 4000SOL    HW123633   3.944   3.917  17.466 -1.8594  0.9038  1.5369
 4000SOL    HW223634   3.935   4.073  17.482  0.9973 -0.1273 -0.4761
 4001SOL     OW23635   3.383   1.153   3.570  0.1811 -0.3146  0.0400
 4001SOL    HW123636   3.366   1.193   3.655 -0.1586 -0.6364  0.1262
 4001SOL    HW223637   3.476   1.171   3.558  0.2059 -1.9822 -2.3339
 4002SOL     OW23638   2.704   3.607  10.284 -0.0143  0.0626  0.5800
 4002SOL    HW123639   2.624   3.560  10.259 -0.9397  1.3373  1.1546
 4002SOL    HW223640   2.754   3.535  10.323 -0.8270 -0.7699  0.0944
 4003SOL     OW23641   4.725   2.855  15.725 -0.4289 -0.5798 -0.1821
 4003SOL    HW123642   0.028   2.873  15.642  2.6633 -2.6494  0.9438
 4003SOL    HW223643   0.005   2.937  15.772  0.7734 -1.7847  1.4317
 4004SOL     OW23644   0.673   0.080   6.031  0.3600  0.5099  0.3286
 4004SOL    HW123645   0.726   0.013   6.073  0.2405 -0.6722 -1.4197
 4004SOL    HW223646   0.592   0.070   6.081 -0.2177  0.6572 -0.5674
 4005SOL     OW23647   4.147   3.862   0.715  0.1528  0.0235 -0.3510
 4005SOL    HW123648   4.057   3.843   0.741  0.7252 -0.6981  1.0529
 4005SOL    HW223649   4.152   3.953   0.746 -2.6713  1.3043 -3.5962
 4006SOL     OW23650   3.940   2.313   1.885 -0.5310 -0.1615  0.5071
 4006SOL    HW123651   3.918   2.299   1.793  2.0825  1.2977 -0.3541
 4006SOL    HW223652   3.969   2.226   1.911 -0.4791 -0.0955  0.6725
 4007SOL     OW23653   3.113   1.028   4.064 -0.1891  0.0267 -0.4146
 4007SOL    HW123654   3.105   0.945   4.111  0.2926  0.5801  0.6509
 4007SOL    HW223655   3.154   0.995   3.984 -2.4579  0.4618 -1.7587
 4008SOL     OW23656   0.970   3.936  16.576 -0.3508 -0.1258 -0.2011
 4008SOL    HW123657   1.000   4.014  16.623  1.6044 -1.0501  0.0696
 4008SOL    HW223658   0.964   3.874  16.649 -2.2753 -1.1657 -1.2471
 4009SOL     OW23659   2.770   2.331   5.429  0.0709  0.2418 -0.2684
 4009SOL    HW123660   2.778   2.387   5.352 -1.0181  1.5011  0.5378
 4009SOL    HW223661   2.678   2.311   5.414  0.0303  1.8474 -2.1766
 4010SOL     OW23662   1.985   0.284   6.132 -0.1460 -0.6112 -0.5615
 4010SOL    HW123663   1.895   0.274   6.102 -0.6506  2.8318 -0.2005
 4010SOL    HW223664   1.980   0.360   6.189  0.4639 -0.7243 -0.3493
 4011SOL     OW23665   1.687   4.398   6.171  0.0036  0.3851 -0.1373
 4011SOL    HW123666   1.728   4.442   6.246  1.6380 -0.0005 -0.8015
 4011SOL    HW223667   1.765   4.386   6.117 -0.1964 -0.5057 -0.2208
 4012SOL     OW23668   4.047   0.804   2.500 -0.4676  0.0095 -0.2386
 4012SOL    HW123669   4.038   0.898   2.486  0.8313  0.5144  2.2650
 4012SOL    HW223670   4.120   0.791   2.439  1.4235  1.6345  1.6682
 4013SOL     OW23671   2.964   2.586   2.916  0.2166  0.0230 -1.0476
 4013SOL    HW123672   2.926   2.517   2.970  1.3024  0.0370 -0.2648
 4013SOL    HW223673   3.051   2.590   2.956  0.3287  2.5407 -1.5304
 4014SOL     OW23674   0.405   0.145   5.567  0.1944 -0.2719 -0.1687
 4014SOL    HW123675   0.430   0.229   5.528  0.3331  0.4161  1.3795
 4014SOL    HW223676   0.437   0.166   5.655 -0.1561  0.0266 -0.1164
 4015SOL     OW23677   0.445   2.529   4.897 -0.7242 -0.5552 -0.2413
 4015SOL    HW123678   0.480   2.535   4.808  0.5928  0.2806  0.3444
 4015SOL    HW223679   0.489   2.604   4.936  1.8559 -1.4824 -1.3417
 4016SOL     OW23680   0.655   3.945  12.472 -0.2783  0.3318  0.7073
 4016SOL    HW123681   0.742   3.926  12.437 -1.3576  0.0207 -1.7781
 4016SOL    HW223682   0.609   3.986  12.399  0.1381  1.4156  1.0485
 4017SOL     OW23683   1.859   2.199  11.930  0.5512 -0.1648 -0.1517
 4017SOL    HW123684   1.852   2.107  11.908 -1.0231 -0.5162  1.7990
 4017SOL    HW223685   1.894   2.234  11.848  1.7326  0.5467  0.6601
 4018SOL     OW23686   2.335   0.815   0.355  0.3468 -0.0018  0.1919
 4018SOL    HW123687   2.341   0.876   0.282 -0.6064 -1.4656 -1.1100
 4018SOL    HW223688   2.368   0.732   0.320  3.7061  0.5330  2.0552
 4019SOL     OW23689   3.902   2.303   1.573 -0.0616 -0.1457 -0.4108
 4019SOL    HW123690   3.970   2.358   1.534 -0.6552  1.1471  0.3692
 4019SOL    HW223691   3.831   2.364   1.552  0.1862  0.6983  1.2480
 4020SOL     OW23692   4.033   0.274   7.869 -0.4759 -0.0946  0.3064
 4020SOL    HW123693   4.057   0.319   7.950  0.9134 -1.8036  0.8280
 4020SOL    HW223694   4.108   0.216   7.862  0.2876  1.0239 -0.8508
 4021SOL     OW23695   1.506   2.283   1.750 -0.0299  0.0708 -0.2047
 4021SOL    HW123696   1.523   2.377   1.752 -0.0220  0.0298  1.6050
 4021SOL    HW223697   1.459   2.272   1.833  0.1805 -1.6614 -0.3260
 4022SOL     OW23698   2.542   2.842   5.869  0.2858 -0.0846  0.0711
 4022SOL    HW123699   2.625   2.850   5.822 -0.4099  0.6548 -1.0331
 4022SOL    HW223700   2.551   2.771   5.933 -1.2167 -1.5036 -1.2696
 4023SOL     OW23701   3.370   0.347   3.009 -0.4251 -0.3827 -0.3384
 4023SOL    HW123702   3.429   0.304   2.948 -0.0860 -0.5981  0.1492
 4023SOL    HW223703   3.356   0.436   2.975  1.0248  0.0029  0.0960
 4024SOL     OW23704   3.624   1.807   0.383 -0.3111 -0.2857  0.0928
 4024SOL    HW123705   3.590   1.770   0.464 -3.2409 -1.3293 -1.6004
 4024SOL    HW223706   3.550   1.860   0.352  1.0437  1.6727  0.2385
 4025SOL     OW23707   1.538   0.811   4.190 -0.0558 -0.9146 -0.4710
 4025SOL    HW123708   1.533   0.900   4.225  1.2169 -0.2412 -2.0002
 4025SOL    HW223709   1.531   0.829   4.096 -3.2660 -0.2485 -0.0932
 4026SOL     OW23710   0.789   0.387   8.538  0.1715  0.0472 -0.3497
 4026SOL    HW123711   0.831   0.302   8.551 -1.3089 -0.3971  1.5670
 4026SOL    HW223712   0.724   0.354   8.477 -0.7670  0.2966  0.5028
 4027SOL     OW23713   4.024   2.866   4.963 -0.1942  0.0872 -0.0122
 4027SOL    HW123714   3.930   2.857   4.950 -0.1033  0.1188 -0.6889
 4027SOL    HW223715   4.049   2.804   5.031 -0.5299  0.8751  0.8386
 4028SOL     OW23716   3.825   1.398   5.746  0.5710 -0.2246  0.2592
 4028SOL    HW123717   3.800   1.465   5.811 -0.5244  0.4476 -0.8558
 4028SOL    HW223718   3.748   1.402   5.690 -0.1693  0.4162  1.3294
 4029SOL     OW23719   4.700   3.471  14.883 -0.0949  0.4352  0.2996
 4029SOL    HW123720   4.630   3.531  14.857  0.5893  0.5729 -1.2574
 4029SOL    HW223721   4.653   3.396  14.847  1.6380 -0.1356 -0.8061
 4030SOL     OW23722   3.425   0.073  10.862 -0.5807 -0.4442 -0.1262
 4030SOL    HW123723   3.363   0.029  10.919 -0.8538 -0.0286 -0.1024
 4030SOL    HW223724   3.465   0.141  10.916  0.2251  0.9661 -2.4860
 4031SOL     OW23725   0.048   1.590   5.147 -0.3653  0.5125 -0.7875
 4031SOL    HW123726   0.118   1.589   5.212 -1.8727  0.5483  0.8147
 4031SOL    HW223727   4.709   1.569   5.197  0.0206 -1.9571 -1.2227
 4032SOL     OW23728   1.495   4.065   8.326  0.3704 -0.5141 -0.0262
 4032SOL    HW123729   1.419   4.007   8.316 -0.2554 -0.0013  1.7268
 4032SOL    HW223730   1.566   4.002   8.337 -0.5982 -2.0617 -2.5746
 4033SOL     OW23731   0.715   0.750   5.705 -0.0610 -0.2406 -0.0423
 4033SOL    HW123732   0.631   0.760   5.749  0.6265 -0.4863  1.3108
 4033SOL    HW223733   0.770   0.825   5.727  2.1796 -1.4583 -1.3992
 4034SOL     OW23734   1.090   4.153   8.948 -0.4379  0.9689  0.1557
 4034SOL    HW123735   1.170   4.113   8.914 -1.1558  0.1465 -0.6043
 4034SOL    HW223736   1.131   4.233   8.979 -0.1964  1.2734 -0.9352
 4035SOL     OW23737   1.493   0.788   6.494 -0.0921  0.1160 -0.7997
 4035SOL    HW123738   1.574   0.773   6.446  0.5650  1.8813 -0.2345
 4035SOL    HW223739   1.465   0.869   6.451  1.0597  0.4555 -0.8962
 4036SOL     OW23740   0.306   0.419   2.886  0.2437  0.3390 -0.4253
 4036SOL    HW123741   0.285   0.511   2.868 -1.4033 -0.0349 -0.4225
 4036SOL    HW223742   0.306   0.388   2.796 -1.4049 -0.3845 -0.1788
 4037SOL     OW23743   1.375   2.141   8.040  0.1071 -0.0070 -0.1294
 4037SOL    HW123744   1.390   2.052   8.070 -1.4888 -0.1123  0.3845
 4037SOL    HW223745   1.281   2.159   8.042 -0.0009 -0.5957  0.1382
 4038SOL     OW23746   1.245   4.383   9.103 -0.2346  0.4110 -0.4590
 4038SOL    HW123747   1.335   4.415   9.107 -0.4171  0.7045  1.3358
 4038SOL    HW223748   1.229   4.365   9.196  3.1042 -1.2147 -0.2210
 4039SOL     OW23749   3.718   2.883   2.023 -0.2551 -0.2049 -0.6004
 4039SOL    HW123750   3.751   2.809   2.074 -2.4748 -0.0472  1.0196
 4039SOL    HW223751   3.663   2.846   1.954  1.3817 -0.2502 -1.8797
 4040SOL     OW23752   3.646   0.168   3.407 -0.5604  0.1762 -0.0413
 4040SOL    HW123753   3.638   0.264   3.403  0.0358  0.2474  0.5155
 4040SOL    HW223754   3.656   0.148   3.500  2.5734 -1.7989 -0.8196
 4041SOL     OW23755   3.009   4.031   9.099  0.6244 -0.1961  0.0391
 4041SOL    HW123756   2.970   3.979   9.170 -0.6183 -1.5609 -1.6370
 4041SOL    HW223757   2.931   4.061   9.052  1.3687  0.8667 -0.5071
 4042SOL     OW23758   2.966   3.324   6.514 -0.0647  0.7673  0.1545
 4042SOL    HW123759   2.886   3.332   6.462 -1.3057 -1.4356  1.7154
 4042SOL    HW223760   2.932   3.296   6.599  2.2549 -1.1436  0.4647
 4043SOL     OW23761   3.457   1.030  14.682  0.1108 -0.1806 -0.1990
 4043SOL    HW123762   3.414   0.968  14.623 -0.7330 -0.4245  0.6745
 4043SOL    HW223763   3.377   1.074  14.711 -1.6656 -3.6256  0.2061
 4044SOL     OW23764   1.982   2.282   3.217 -0.3195  0.0116 -0.2530
 4044SOL    HW123765   2.053   2.262   3.278  0.2766  1.3187 -0.5335
 4044SOL    HW223766   2.036   2.311   3.144 -0.2767  1.1670  0.2301
 4045SOL     OW23767   2.469   1.668  16.786  0.0826  0.0575 -0.2610
 4045SOL    HW123768   2.472   1.718  16.868  1.3774  0.6743 -0.6783
 4045SOL    HW223769   2.564   1.661  16.777  0.2449 -0.9832  2.2253
 4046SOL     OW23770   3.708   2.973   9.369  0.4558 -0.0069  0.3395
 4046SOL    HW123771   3.719   3.063   9.397  0.6132 -0.0151  0.3034
 4046SOL    HW223772   3.798   2.953   9.344  0.5662  1.8047 -0.6819
 4047SOL     OW23773   0.669   2.657  11.327  0.2326  0.5164 -0.9280
 4047SOL    HW123774   0.730   2.664  11.401 -1.0274  0.5500  0.1004
 4047SOL    HW223775   0.664   2.743  11.286  1.7326  1.8279  1.5888
 4048SOL     OW23776   0.119   2.406  11.843 -0.4453  0.1328 -0.8724
 4048SOL    HW123777   0.177   2.438  11.912 -1.9066 -1.1345  0.9388
 4048SOL    HW223778   0.038   2.439  11.881  0.5571  2.7391 -1.0157
 4049SOL     OW23779   3.206   0.515  12.005 -0.7402  0.4733  0.1960
 4049SOL    HW123780   3.146   0.492  12.076 -1.1949  0.0805 -0.3176
 4049SOL    HW223781   3.262   0.438  11.996 -0.0793  1.0287 -0.5365
 4050SOL     OW23782   4.443   2.689  14.717 -0.8069 -0.8777  0.3507
 4050SOL    HW123783   4.518   2.631  14.729 -0.2550  0.0734  1.5344
 4050SOL    HW223784   4.385   2.642  14.778  0.7673  2.2952  4.3204
 4051SOL     OW23785   2.729   0.704   4.254  0.3110  0.0997 -0.3515
 4051SOL    HW123786   2.654   0.715   4.196  0.5301 -0.9673 -0.8477
 4051SOL    HW223787   2.811   0.717   4.206  0.7333 -2.8844 -0.4638
 4052SOL     OW23788   0.916   3.341  15.618  0.0951  0.4189 -0.2561
 4052SOL    HW123789   0.977   3.272  15.646  1.0816  2.0977  1.7870
 4052SOL    HW223790   0.974   3.418  15.618 -0.2807  0.7058  0.5972
 4053SOL     OW23791   4.097   2.478   7.568  0.3548 -0.1935 -0.0778
 4053SOL    HW123792   4.121   2.412   7.633  2.9388 -1.4797 -2.3434
 4053SOL    HW223793   4.184   2.496   7.532  0.3854  1.9813  1.0750
 4054SOL     OW23794   0.826   3.099   8.953  0.5050  0.1206 -0.2137
 4054SOL    HW123795   0.877   3.180   8.957  0.0070  0.5310 -2.1433
 4054SOL    HW223796   0.736   3.131   8.965 -0.5253 -2.4950 -1.0869
 4055SOL     OW23797   2.044   4.418   7.753  0.2105 -0.2141 -0.2052
 4055SOL    HW123798   2.130   4.458   7.770 -1.0673  2.4483 -0.1066
 4055SOL    HW223799   1.989   4.470   7.811 -0.5677 -0.1529 -1.0045
 4056SOL     OW23800   1.063   1.434   9.384  0.3585 -0.0582  0.1678
 4056SOL    HW123801   1.076   1.526   9.363  2.4868 -0.1348  1.1999
 4056SOL    HW223802   1.114   1.422   9.464  1.7469 -1.2501 -0.8876
 4057SOL     OW23803   0.329   4.548   5.737 -0.1722 -0.3762  0.1009
 4057SOL    HW123804   0.410   4.596   5.755  0.5020 -1.3125 -0.4378
 4057SOL    HW223805   0.350   4.523   5.647  0.2916  1.3229 -0.2727
 4058SOL     OW23806   0.785   3.618   3.262  0.1164 -0.1089  0.5365
 4058SOL    HW123807   0.741   3.556   3.320  0.7775 -0.0750  1.0792
 4058SOL    HW223808   0.710   3.677   3.253 -0.6345 -1.1744 -0.1270
 4059SOL     OW23809   3.719   4.233   8.299  0.0224  0.4399 -0.0061
 4059SOL    HW123810   3.807   4.254   8.328 -0.2068 -0.0800  1.1093
 4059SOL    HW223811   3.657   4.292   8.342  1.0634  2.8866 -1.8916
 4060SOL     OW23812   2.866   2.777   6.962 -0.4680 -0.4642 -0.6487
 4060SOL    HW123813   2.854   2.844   6.895  1.0504  0.7662  0.3073
 4060SOL    HW223814   2.807   2.710   6.927 -1.2718 -1.1113  1.9726
 4061SOL     OW23815   3.378   2.576   1.538  0.3600 -0.4553 -0.3159
 4061SOL    HW123816   3.440   2.608   1.473  0.4947  1.6526  0.8262
 4061SOL    HW223817   3.321   2.522   1.484 -0.9389  0.8622 -0.2812
 4062SOL     OW23818   3.747   4.420   7.649  0.2272  0.2182 -0.4537
 4062SOL    HW123819   3.791   4.437   7.566  0.3657 -0.8177 -0.6025
 4062SOL    HW223820   3.790   4.338   7.674 -2.4974 -0.5930  1.6599
 4063SOL     OW23821   2.137   2.720  12.646 -0.4505 -0.2123 -0.4004
 4063SOL    HW123822   2.194   2.774  12.700 -1.3439 -1.2329  1.5717
 4063SOL    HW223823   2.195   2.723  12.570  0.8481 -2.1372  0.5236
 4064SOL     OW23824   4.620   3.580   1.712 -0.3204 -0.0671  0.6122
 4064SOL    HW123825   4.586   3.504   1.759  0.1018 -0.5925  0.0794
 4064SOL    HW223826   4.537   3.629   1.710  0.5131  1.3537  1.1885
 4065SOL     OW23827   1.650   3.187  13.830  0.1154 -0.1857 -0.0482
 4065SOL    HW123828   1.706   3.113  13.854 -0.9277 -0.6561  0.9493
 4065SOL    HW223829   1.631   3.224  13.916 -3.0852  2.1171 -1.7338
 4066SOL     OW23830   0.758   0.242   1.119  0.7987 -0.1690  0.2981
 4066SOL    HW123831   0.801   0.157   1.110 -0.3401 -0.5895 -1.1979
 4066SOL    HW223832   0.762   0.272   1.029 -1.9311  0.1421  0.2575
 4067SOL     OW23833   1.083   0.555   7.561  0.2303 -0.2999  0.4358
 4067SOL    HW123834   1.094   0.528   7.470 -0.8717  1.1358 -0.1341
 4067SOL    HW223835   0.988   0.571   7.558 -0.4266 -4.1218  0.6603
 4068SOL     OW23836   0.097   1.842   2.556 -0.3596 -0.2354  0.4532
 4068SOL    HW123837   0.043   1.824   2.479  1.0263 -2.2496 -0.0428
 4068SOL    HW223838   0.125   1.931   2.534  1.1873 -0.8337 -0.0129
 4069SOL     OW23839   2.786   1.439   9.120 -0.0065 -0.1330 -0.3674
 4069SOL    HW123840   2.805   1.350   9.089 -1.1278 -0.8239  0.8920
 4069SOL    HW223841   2.693   1.449   9.102  0.2399  0.5828 -1.2535
 4070SOL     OW23842   1.655   2.091   6.711  0.5384 -0.3166  0.0790
 4070SOL    HW123843   1.593   2.064   6.644 -0.5341  1.9089  0.1501
 4070SOL    HW223844   1.652   2.181   6.679 -0.9164  0.0742  1.3077
 4071SOL     OW23845   4.260   2.641   5.042  0.3566  0.0980  0.0358
 4071SOL    HW123846   4.284   2.696   5.116  2.9391 -0.3914 -0.4556
 4071SOL    HW223847   4.174   2.619   5.079 -0.0312  0.7925 -0.4311
 4072SOL     OW23848   0.140   0.565   7.432  0.4302  0.2636 -1.1090
 4072SOL    HW123849   0.064   0.507   7.439  2.2924 -2.1296 -0.7016
 4072SOL    HW223850   0.106   0.654   7.430  0.8711  0.4374 -0.7281
 4073SOL     OW23851   4.251   4.184   5.396 -0.3250  0.2638 -0.0687
 4073SOL    HW123852   4.206   4.264   5.368  0.1322  0.5535  0.0197
 4073SOL    HW223853   4.322   4.218   5.449 -0.9402 -1.1592  1.6676
 4074SOL     OW23854   3.346   4.628   7.862  0.9685  0.0876  0.5530
 4074SOL    HW123855   3.424   4.577   7.884 -0.0492 -0.9430  1.8014
 4074SOL    HW223856   3.296   4.609   7.942 -1.1475 -0.2172 -0.8487
 4075SOL     OW23857   4.004   1.464   9.424  0.1220 -0.1119  0.2840
 4075SOL    HW123858   3.939   1.398   9.446  0.3324 -0.4779 -0.1887
 4075SOL    HW223859   4.044   1.433   9.343 -3.6252 -2.9638 -0.4899
 4076SOL     OW23860   3.283   2.358  16.446  0.1370 -0.1560  0.3876
 4076SOL    HW123861   3.257   2.290  16.508 -4.4257 -0.6276 -2.0393
 4076SOL    HW223862   3.365   2.386  16.487  0.3742  0.4162 -0.4805
 4077SOL     OW23863   2.497   4.397   2.375 -0.3952 -0.1901 -0.4208
 4077SOL    HW123864   2.444   4.475   2.361 -1.7477 -0.6254  2.2624
 4077SOL    HW223865   2.440   4.327   2.344  0.9539 -0.3217 -2.5261
 4078SOL     OW23866   0.076   3.357  15.098  0.0910 -0.3715 -0.0514
 4078SOL    HW123867   0.159   3.341  15.053 -1.1492 -1.3068 -2.0053
 4078SOL    HW223868   0.020   3.399  15.033  1.1787  0.3785 -0.5064
 4079SOL     OW23869   0.354   1.829   3.299  0.5902  0.4386  0.2918
 4079SOL    HW123870   0.296   1.861   3.230 -0.8580  1.1313  1.8440
 4079SOL    HW223871   0.353   1.738   3.270 -0.0226  0.8935 -1.0871
 4080SOL     OW23872   1.622   3.558   6.010  0.5191 -0.1972 -0.5124
 4080SOL    HW123873   1.587   3.633   5.961  1.8187  1.9074  1.7885
 4080SOL    HW223874   1.622   3.595   6.098 -0.6328  2.0366 -1.4342
 4081SOL     OW23875   0.714   3.124  15.098  0.0432 -0.1577 -0.0038
 4081SOL    HW123876   0.626   3.086  15.102 -0.0311  0.1044  0.8881
 4081SOL    HW223877   0.749   3.086  15.017  1.3606 -1.6786  1.2724
 4082SOL     OW23878   0.890   4.352  16.052  0.0477 -0.5587  0.1928
 4082SOL    HW123879   0.833   4.396  16.114  0.5421  2.1721 -1.2820
 4082SOL    HW223880   0.915   4.434  16.009  0.6619 -0.5570  0.5530
 4083SOL     OW23881   2.037   2.429  11.743  0.0274  0.2165 -0.6205
 4083SOL    HW123882   2.033   2.388  11.657 -0.6516 -3.3333  1.0979
 4083SOL    HW223883   1.976   2.502  11.750 -1.5058 -1.2776  1.7752
 4084SOL     OW23884   0.299   3.749   7.668 -0.2275  0.1275  0.6604
 4084SOL    HW123885   0.302   3.845   7.666  1.1308  0.0998  1.2919
 4084SOL    HW223886   0.205   3.742   7.652 -0.1912 -1.5190  1.2048
 4085SOL     OW23887   4.393   3.145  17.278  0.6032 -0.2854  0.6780
 4085SOL    HW123888   4.453   3.136  17.352 -0.7980  1.0124  1.9803
 4085SOL    HW223889   4.330   3.079  17.307 -1.7990  0.8685 -1.9023
 4086SOL     OW23890   1.676   0.747   2.222 -0.0535 -0.0458  0.3618
 4086SOL    HW123891   1.757   0.710   2.188 -0.2895 -1.7256  1.6149
 4086SOL    HW223892   1.676   0.828   2.171  1.3045  0.2044  0.7724
 4087SOL     OW23893   0.588   2.000   8.689 -0.7014 -0.2252  0.1748
 4087SOL    HW123894   0.678   2.019   8.715 -0.0306  0.0848 -2.3753
 4087SOL    HW223895   0.538   2.054   8.750 -1.7828 -1.2131  0.1542
 4088SOL     OW23896   1.389   4.106   3.458 -0.6312  0.1590  0.5578
 4088SOL    HW123897   1.326   4.178   3.467 -0.0268  1.0840 -2.7524
 4088SOL    HW223898   1.422   4.128   3.371  0.0355 -2.1697  0.2381
 4089SOL     OW23899   2.478   0.706   5.199  0.3932 -0.9355  0.0849
 4089SOL    HW123900   2.488   0.723   5.293 -0.5391  2.3735 -0.4312
 4089SOL    HW223901   2.571   0.688   5.183  0.1463  0.1575 -2.5266
 4090SOL     OW23902   3.885   4.244   3.562 -0.0618  0.0545 -0.2616
 4090SOL    HW123903   3.920   4.289   3.639 -2.1569 -1.2547  1.4324
 4090SOL    HW223904   3.961   4.195   3.529 -0.9461  0.0002 -2.2714
 4091SOL     OW23905   0.839   0.445   3.188 -0.0143 -0.0878  0.0631
 4091SOL    HW123906   0.772   0.513   3.190 -0.7380 -0.8351  1.3690
 4091SOL    HW223907   0.883   0.471   3.269 -0.5582  2.9547 -0.6154
 4092SOL     OW23908   2.570   0.445   6.902  0.6108  0.3236 -0.3577
 4092SOL    HW123909   2.648   0.482   6.942  2.0428 -3.4242  0.3824
 4092SOL    HW223910   2.568   0.368   6.959 -0.4179  0.5481 -0.0848
 4093SOL     OW23911   1.686   2.944   6.871 -0.1885  0.4713 -0.6242
 4093SOL    HW123912   1.667   3.008   6.940 -3.4011 -2.1299  0.8359
 4093SOL    HW223913   1.701   3.001   6.795  1.2558  0.8301 -0.0781
 4094SOL     OW23914   3.926   3.100   9.953 -0.3883 -0.1743 -0.2107
 4094SOL    HW123915   3.877   3.156   9.894  0.8031  1.9196  0.8148
 4094SOL    HW223916   3.970   3.164  10.009 -1.7221  0.9765 -0.4937
 4095SOL     OW23917   1.179   4.122   5.757  0.1521  0.1648  0.1741
 4095SOL    HW123918   1.152   4.043   5.806 -0.0162  0.0402 -0.1195
 4095SOL    HW223919   1.106   4.180   5.778 -0.9467 -0.5730 -1.5940
 4096SOL     OW23920   2.719   1.752   9.510 -0.0777 -0.5758 -0.5071
 4096SOL    HW123921   2.757   1.672   9.474 -0.9518 -1.3213  0.2540
 4096SOL    HW223922   2.636   1.760   9.465 -0.1202 -1.7700 -0.6389
 4097SOL     OW23923   0.775   4.313   8.075 -0.2640  0.0485 -0.1067
 4097SOL    HW123924   0.781   4.283   8.165  2.4112  0.4343 -0.1410
 4097SOL    HW223925   0.827   4.246   8.030 -1.2445  0.4396 -1.8274
 4098SOL     OW23926   0.544   1.745   4.421 -0.1753  0.2884  0.0866
 4098SOL    HW123927   0.544   1.825   4.368 -0.8758 -0.9759 -1.7726
 4098SOL    HW223928   0.495   1.775   4.498  0.2751  1.5328 -0.0997
 4099SOL     OW23929   3.929   0.260  10.428 -0.2857  1.3420  0.6047
 4099SOL    HW123930   3.889   0.337  10.468 -2.9749 -0.4572  1.4150
 4099SOL    HW223931   3.968   0.313  10.358 -2.6713  0.7539 -1.2024
 4100SOL     OW23932   3.869   2.108  16.845 -0.2471  0.6915  0.0362
 4100SOL    HW123933   3.933   2.173  16.815 -0.3216  0.9044  0.3446
 4100SOL    HW223934   3.923   2.080  16.918  1.3236  1.0446 -0.9895
 4101SOL     OW23935   3.197   4.736   3.262  0.4173 -0.5415 -0.1617
 4101SOL    HW123936   3.225   4.716   3.352  0.6368 -0.3116 -0.1764
 4101SOL    HW223937   3.270   0.054   3.238  1.3564 -1.3105  0.8416
 4102SOL     OW23938   0.765   0.861  15.370 -0.0030 -0.1849 -0.5356
 4102SOL    HW123939   0.729   0.946  15.394  2.5020  0.6991  0.0271
 4102SOL    HW223940   0.798   0.830  15.454  1.2025  1.0863 -0.5397
 4103SOL     OW23941   3.061   1.149   5.617 -0.1448 -0.5233 -0.0093
 4103SOL    HW123942   3.141   1.189   5.650 -0.8449  1.1655 -0.3539
 4103SOL    HW223943   3.022   1.221   5.568 -1.1467 -0.6359  0.6345
 4104SOL     OW23944   4.208   3.147  12.385  0.1258  0.3552  0.0560
 4104SOL    HW123945   4.117   3.119  12.382  0.9423 -2.3443  0.6236
 4104SOL    HW223946   4.200   3.241  12.403  1.2612  0.1104  1.8353
 4105SOL     OW23947   2.970   2.999   5.290  0.2156 -0.1299  0.1382
 4105SOL    HW123948   2.941   3.039   5.208 -0.4804 -2.2826 -0.6579
 4105SOL    HW223949   3.060   2.971   5.274 -0.0230  0.1512 -1.6655
 4106SOL     OW23950   3.352   0.077   6.105 -0.3441 -0.0470 -0.1042
 4106SOL    HW123951   3.352   0.144   6.037  0.4493 -0.2489 -0.3120
 4106SOL    HW223952   3.285   0.112   6.164  0.4433  0.7913  0.2878
 4107SOL     OW23953   0.796   0.816   6.342  0.3647  0.3705 -0.5255
 4107SOL    HW123954   0.800   0.888   6.405 -2.0643  0.2042 -0.1859
 4107SOL    HW223955   0.884   0.821   6.304 -0.6725  1.0219 -2.8377
 4108SOL     OW23956   0.175   4.730   8.681 -0.3690  0.3023  0.0366
 4108SOL    HW123957   0.181   4.668   8.608  1.1334  0.0436  0.3781
 4108SOL    HW223958   0.185   4.683   8.764 -3.0781  0.9784  0.7314
 4109SOL     OW23959   2.222   3.063  13.610  0.5697  0.5753 -0.3490
 4109SOL    HW123960   2.250   3.001  13.677  2.1475  1.3663 -0.2875
 4109SOL    HW223961   2.276   3.141  13.617  1.3973  0.0767 -1.2556
 4110SOL     OW23962   2.334   0.455   0.456  1.0114 -0.1812 -0.7751
 4110SOL    HW123963   2.374   0.475   0.541  0.6591 -3.8398  0.2885
 4110SOL    HW223964   2.389   0.385   0.421  0.6027 -1.2997  0.8091
 4111SOL     OW23965   1.994   4.106  14.873  0.4580  0.2254  0.5411
 4111SOL    HW123966   2.051   4.033  14.852 -0.6576  0.1705 -2.2664
 4111SOL    HW223967   1.985   4.109  14.969  0.2478  0.2602  0.5209
 4112SOL     OW23968   3.190   4.221   5.573  0.5390  0.6171 -0.7918
 4112SOL    HW123969   3.276   4.228   5.532  0.0694 -1.5456 -2.1158
 4112SOL    HW223970   3.180   4.305   5.618 -2.7534 -0.0775 -0.2483
 4113SOL     OW23971   2.289   1.054   6.125  0.1420 -0.6485  0.0793
 4113SOL    HW123972   2.204   1.035   6.085  0.0025  1.4264 -0.5953
 4113SOL    HW223973   2.345   0.992   6.079 -2.2161 -0.4424 -3.1544
 4114SOL     OW23974   1.330   4.332   7.567  0.0129  0.7086 -0.1038
 4114SOL    HW123975   1.372   4.319   7.652  0.6888  2.9841 -0.0641
 4114SOL    HW223976   1.243   4.300   7.591  0.7028 -1.2261 -0.2007
 4115SOL     OW23977   2.400   1.243   8.556  0.3646  0.2057  0.4804
 4115SOL    HW123978   2.412   1.330   8.594 -3.8665  0.3858  1.3391
 4115SOL    HW223979   2.306   1.237   8.572  0.4839  2.2772  1.8774
 4116SOL     OW23980   4.235   2.301   8.387  0.7971 -0.1815 -0.0895
 4116SOL    HW123981   4.240   2.205   8.387 -0.3380 -0.2310  3.0166
 4116SOL    HW223982   4.315   2.322   8.339  0.3070  2.2487  0.1550
 4117SOL     OW23983   1.439   2.678   7.865 -0.2789  0.0885  0.4771
 4117SOL    HW123984   1.417   2.585   7.864 -2.0800  0.5184  0.0879
 4117SOL    HW223985   1.377   2.716   7.927  2.6148  1.6084  2.4557
 4118SOL     OW23986   0.700   4.378   5.963  0.1742 -0.0067 -0.4164
 4118SOL    HW123987   0.611   4.394   5.993  0.1101 -3.2115  1.0904
 4118SOL    HW223988   0.701   4.287   5.933 -0.5605 -1.1208  2.9108
 4119SOL     OW23989   3.127   1.298   4.179 -0.0126  0.3321 -0.0161
 4119SOL    HW123990   3.098   1.220   4.132 -1.3186 -0.2122  1.6723
 4119SOL    HW223991   3.221   1.281   4.186 -0.2510 -1.7284 -1.6535
 4120SOL     OW23992   3.762   2.266   9.003  0.6736  0.7604  0.3888
 4120SOL    HW123993   3.821   2.199   9.035  0.7914  0.0940 -1.2402
 4120SOL    HW223994   3.794   2.273   8.914  0.6369 -2.1373  0.1539
 4121SOL     OW23995   3.227   0.657   9.386 -0.4017  0.3124 -0.3963
 4121SOL    HW123996   3.269   0.572   9.375  1.1977  1.0229  0.2835
 4121SOL    HW223997   3.146   0.639   9.434  0.8019  1.3909  2.0371
 4122SOL     OW23998   2.927   4.319   8.946 -0.1208  0.0233  0.3227
 4122SOL    HW123999   2.935   4.412   8.923  2.1222 -0.4189 -0.6367
 4122SOL    HW224000   2.964   4.312   9.034 -0.2810 -1.3687  0.2716
 4123SOL     OW24001   0.767   3.639   5.144  0.1110 -0.0835  0.5255
 4123SOL    HW124002   0.820   3.626   5.223 -0.7460  1.6861  1.4036
 4123SOL    HW224003   0.706   3.707   5.171  0.6211  0.3076  0.6967
 4124SOL     OW24004   2.301   4.539   7.068  0.0409  0.1441 -0.2672
 4124SOL    HW124005   2.318   4.525   6.975 -1.8630 -0.6654 -0.5155
 4124SOL    HW224006   2.369   4.597   7.099 -0.9928  0.4058  1.5143
 4125SOL     OW24007   1.722   2.511   3.340 -1.0040 -0.6826  0.5270
 4125SOL    HW124008   1.635   2.539   3.315 -0.1278  1.1405 -0.4757
 4125SOL    HW224009   1.764   2.469   3.265  2.1677  0.5253  1.6029
 4126SOL     OW24010   1.990   4.030   6.766 -0.2400  0.1451 -0.6826
 4126SOL    HW124011   2.050   3.957   6.777 -1.1073 -0.5117 -0.2257
 4126SOL    HW224012   1.908   3.987   6.738 -1.4478  0.4200  2.4199
 4127SOL     OW24013   1.557   3.329   2.415  0.1406  0.7838  0.6165
 4127SOL    HW124014   1.614   3.379   2.357  1.3325  1.9022  2.7807
 4127SOL    HW224015   1.550   3.246   2.367  0.2160  2.0568 -1.6044
 4128SOL     OW24016   1.134   0.626   6.651  0.8780 -0.0744 -0.3831
 4128SOL    HW124017   1.186   0.584   6.583 -1.5809 -0.6752 -1.8845
 4128SOL    HW224018   1.198   0.667   6.709  3.3545 -2.2204 -1.5957
 4129SOL     OW24019   1.088   2.799  13.245 -0.3265  0.3897 -0.3915
 4129SOL    HW124020   1.038   2.745  13.184 -2.3579 -0.7810  2.3346
 4129SOL    HW224021   1.066   2.753  13.326 -1.2798  0.9733 -0.3221
 4130SOL     OW24022   3.909   0.960   4.718  0.0194 -0.6063  0.4552
 4130SOL    HW124023   3.950   0.933   4.800 -1.6605 -1.4596  1.0044
 4130SOL    HW224024   3.983   0.949   4.658  0.3385  1.1886  0.5110
 4131SOL     OW24025   3.320   1.854   3.041 -0.2696 -0.2410  0.1770
 4131SOL    HW124026   3.303   1.810   3.124  2.1324 -0.2680  0.6477
 4131SOL    HW224027   3.412   1.834   3.025 -0.3147 -1.2907  1.2165
 4132SOL     OW24028   0.594   2.624   0.154 -0.4193 -0.0644  0.6605
 4132SOL    HW124029   0.539   2.696   0.124  0.1054  1.2541  2.8646
 4132SOL    HW224030   0.569   2.618   0.246 -1.3870 -0.2991  0.3814
 4133SOL     OW24031   1.119   0.260   4.206 -0.1161 -0.1943  0.0246
 4133SOL    HW124032   1.213   0.249   4.217 -0.3914  0.3649  2.9085
 4133SOL    HW224033   1.108   0.351   4.234  0.3709  0.0677 -0.6337
 4134SOL     OW24034   2.531   2.016   0.872 -0.0759  0.3136  0.4985
 4134SOL    HW124035   2.574   1.974   0.947 -0.7093 -0.0654  0.6515
 4134SOL    HW224036   2.516   1.940   0.816 -2.9602  0.7042  0.6913
 4135SOL     OW24037   0.828   3.858   4.198  0.9065 -0.0649 -0.2012
 4135SOL    HW124038   0.874   3.875   4.281  0.0580  2.0482 -0.1464
 4135SOL    HW224039   0.742   3.836   4.233  0.1177  3.0787 -0.1623
 4136SOL     OW24040   2.829   1.739   0.829 -0.7536  0.8951 -0.2955
 4136SOL    HW124041   2.744   1.728   0.871 -1.1011  0.4565 -1.1018
 4136SOL    HW224042   2.858   1.822   0.867  0.0735 -0.0549  1.1624
 4137SOL     OW24043   4.320   0.562  15.409 -0.3746 -0.1328 -0.4616
 4137SOL    HW124044   4.279   0.614  15.340  2.3872  2.6071  0.0039
 4137SOL    HW224045   4.260   0.582  15.481  1.7466 -0.0613  1.2800
 4138SOL     OW24046   0.202   3.361   5.388  0.1059  0.5732  0.2627
 4138SOL    HW124047   0.118   3.374   5.343  0.8928 -0.1920 -1.4622
 4138SOL    HW224048   0.213   3.266   5.388 -0.4293  0.5059 -0.6230
 4139SOL     OW24049   3.011   0.001   2.250 -0.3965  0.2519 -0.1598
 4139SOL    HW124050   3.060   4.730   2.331 -0.4188  0.6585 -0.0984
 4139SOL    HW224051   2.967   4.655   2.235 -0.7157  0.4670 -0.4667
 4140SOL     OW24052   0.544   1.191  10.279 -0.3365  0.0148  0.4598
 4140SOL    HW124053   0.621   1.182  10.222 -0.6933  2.4029 -0.4219
 4140SOL    HW224054   0.524   1.100  10.298 -0.1076 -0.3690 -1.1931
 4141SOL     OW24055   3.837   1.667  11.501  0.3431  0.4994  0.1784
 4141SOL    HW124056   3.790   1.722  11.563 -0.4039 -0.7931  0.7677
 4141SOL    HW224057   3.787   1.681  11.421 -0.8274 -0.3793  0.7565
 4142SOL     OW24058   2.812   3.921   8.717 -0.0016  0.5830  0.3303
 4142SOL    HW124059   2.728   3.892   8.681  0.8700 -0.6812 -0.7213
 4142SOL    HW224060   2.783   3.948   8.804 -1.2971  1.3018 -0.3190
 4143SOL     OW24061   1.978   3.794  15.487 -0.5607  0.0076 -0.0204
 4143SOL    HW124062   1.965   3.735  15.414  1.9069  1.0608 -1.2927
 4143SOL    HW224063   1.892   3.784  15.527 -0.4813 -2.6333 -0.5397
 4144SOL     OW24064   4.553   2.614  13.082 -0.0993  0.1391  0.0510
 4144SOL    HW124065   4.527   2.682  13.020 -2.6635 -4.0172 -3.4117
 4144SOL    HW224066   4.570   2.670  13.158  1.1632 -0.0730 -0.0793
 4145SOL     OW24067   1.606   3.880  14.082 -0.3199  0.3606  0.6950
 4145SOL    HW124068   1.551   3.805  14.103 -0.0474  0.0863  0.4247
 4145SOL    HW224069   1.530   3.931  14.053 -0.3127  1.8662  3.2819
 4146SOL     OW24070   1.104   1.959  10.859 -0.1919  0.1633 -0.4623
 4146SOL    HW124071   1.092   1.869  10.889 -0.1617  0.2399 -0.2197
 4146SOL    HW224072   1.163   1.939  10.786 -1.2943 -2.5730 -0.6168
 4147SOL     OW24073   3.900   0.538   9.050  0.6353  0.3003  0.8594
 4147SOL    HW124074   3.897   0.540   9.146  0.0318 -1.7725  0.8835
 4147SOL    HW224075   3.842   0.464   9.032 -1.3230  2.4722 -1.7299
 4148SOL     OW24076   3.486   4.466   6.933 -0.1445  0.4660  0.1204
 4148SOL    HW124077   3.390   4.467   6.929 -0.1172 -1.4804 -1.0709
 4148SOL    HW224078   3.514   4.554   6.958  1.0246 -0.2372  1.2841
 4149SOL     OW24079   4.478   2.885   8.384 -0.2203  0.8248 -0.4747
 4149SOL    HW124080   4.447   2.802   8.346 -0.5216  0.0122  1.5862
 4149SOL    HW224081   4.484   2.933   8.301  0.9967 -0.1371 -0.9655
 4150SOL     OW24082   2.779   3.320  16.226 -0.1726 -0.0216  0.3334
 4150SOL    HW124083   2.832   3.343  16.302  1.5087 -0.8085 -0.6041
 4150SOL    HW224084   2.758   3.405  16.187 -2.4499 -0.9994 -0.5929
 4151SOL     OW24085   1.688   2.158   9.077 -0.3139 -0.0852  0.3460
 4151SOL    HW124086   1.780   2.131   9.075 -0.0386  0.8489  0.3500
 4151SOL    HW224087   1.637   2.078   9.085  0.3285 -0.2571  2.7363
 4152SOL     OW24088   3.840   0.290   9.851  0.4313 -0.5493 -0.6651
 4152SOL    HW124089   3.814   0.198   9.847 -2.9562  0.3818 -0.3808
 4152SOL    HW224090   3.914   0.287   9.911 -0.6282  4.4879  0.8896
 4153SOL     OW24091   3.160   3.367  10.952 -0.7551 -0.1247  0.0740
 4153SOL    HW124092   3.147   3.356  11.046 -3.3234 -5.1298 -0.8378
 4153SOL    HW224093   3.071   3.341  10.925 -0.4341 -0.9070 -0.2448
 4154SOL     OW24094   3.999   2.940   8.762 -0.4353  0.0703  0.6010
 4154SOL    HW124095   3.994   2.907   8.852  0.0039  1.3903  1.1192
 4154SOL    HW224096   3.911   2.927   8.727  0.3598 -2.5994 -0.3978
 4155SOL     OW24097   3.960   3.933   3.794  0.1261 -0.2273 -0.1154
 4155SOL    HW124098   3.867   3.951   3.786 -0.2170 -1.9020  0.2203
 4155SOL    HW224099   3.962   3.838   3.800 -0.8834 -0.1428  1.5808
 4156SOL     OW24100   1.160   0.988   1.464  0.4890 -0.0118  1.0311
 4156SOL    HW124101   1.234   1.017   1.410  0.7412 -0.5157  1.1070
 4156SOL    HW224102   1.190   0.908   1.507  2.2434  0.2629  0.3262
 4157SOL     OW24103   2.651   0.957   7.726  0.1708  0.3780 -0.2337
 4157SOL    HW124104   2.571   0.941   7.776 -1.0668  1.2646 -1.9188
 4157SOL    HW224105   2.669   1.046   7.757 -1.0157  0.1824  1.0173
 4158SOL     OW24106   2.269   1.344   2.218 -0.0137  0.0485  0.0560
 4158SOL    HW124107   2.317   1.262   2.210 -2.2620 -1.4369  1.7421
 4158SOL    HW224108   2.213   1.333   2.295 -0.1839  0.7616  0.0331
 4159SOL     OW24109   2.248   2.667   4.389  0.2961  0.2423 -0.0280
 4159SOL    HW124110   2.276   2.647   4.299 -1.5542  1.7790 -0.9370
 4159SOL    HW224111   2.320   2.722   4.420  1.2508 -1.0067 -0.0572
 4160SOL     OW24112   0.763   1.689  10.401  0.4435 -0.3515 -0.1081
 4160SOL    HW124113   0.736   1.736  10.322  0.5535 -0.3024 -0.1167
 4160SOL    HW224114   0.731   1.599  10.393  0.1600 -0.0258 -2.4859
 4161SOL     OW24115   1.689   3.542   7.156 -0.0862 -0.4666  0.6609
 4161SOL    HW124116   1.660   3.632   7.171  0.5643 -0.5238  2.2605
 4161SOL    HW224117   1.657   3.523   7.068 -0.7439 -0.8188  0.9780
 4162SOL     OW24118   0.909   4.119   0.082 -0.0421  0.5918  0.4073
 4162SOL    HW124119   0.982   4.111   0.144 -1.6602 -1.7747  2.0208
 4162SOL    HW224120   0.896   4.026   0.063 -1.7708  0.4967  1.9788
 4163SOL     OW24121   1.806   4.476   4.729 -0.3988 -0.4907  0.1628
 4163SOL    HW124122   1.852   4.397   4.757  0.3749  0.0833  0.5360
 4163SOL    HW224123   1.741   4.437   4.672  1.7440 -0.0689 -2.5420
 4164SOL     OW24124   3.683   0.073   5.472  0.0905 -0.1725  0.3526
 4164SOL    HW124125   3.752   0.012   5.497  0.2362 -0.7107 -1.3314
 4164SOL    HW224126   3.685   0.135   5.545  2.9285  0.6213 -0.3931
 4165SOL     OW24127   4.662   4.289   9.106  0.6731 -0.0632 -0.2784
 4165SOL    HW124128   4.593   4.340   9.063  1.4514  3.9424  3.2308
 4165SOL    HW224129   4.616   4.205   9.099 -1.4063  1.0606 -0.0439
 4166SOL     OW24130   0.256   3.481   1.270 -0.4703 -0.1099  0.0778
 4166SOL    HW124131   0.280   3.389   1.278 -3.4292 -0.9685 -1.0379
 4166SOL    HW224132   0.252   3.512   1.360 -0.6422  2.3715 -0.7931
 4167SOL     OW24133   1.536   0.878   0.258  0.0988 -0.3157 -0.1381
 4167SOL    HW124134   1.507   0.789   0.239 -1.5400  0.2347 -0.2480
 4167SOL    HW224135   1.574   0.905   0.175 -1.1116 -0.8167 -0.8626
 4168SOL     OW24136   3.772   2.932  12.194 -0.0102  0.5845  0.3842
 4168SOL    HW124137   3.822   2.945  12.114  0.0671  1.2428  0.5419
 4168SOL    HW224138   3.707   2.871  12.159 -0.1414  1.7115 -1.3143
 4169SOL     OW24139   2.406   0.171   7.585  0.0977  0.5002 -0.1311
 4169SOL    HW124140   2.451   0.119   7.651 -2.0276  2.5978  3.0024
 4169SOL    HW224141   2.406   0.262   7.617  1.5923  0.7967 -1.0058
 4170SOL     OW24142   1.985   1.563   1.963 -0.2508 -0.2783  0.1107
 4170SOL    HW124143   1.967   1.490   2.022  4.1895 -2.0406 -0.6907
 4170SOL    HW224144   2.016   1.624   2.029  1.1884  0.0674 -0.8906
 4171SOL     OW24145   2.249   4.220  14.439 -0.0341 -0.1471  0.3496
 4171SOL    HW124146   2.243   4.291  14.376 -1.2563  1.4759  2.2838
 4171SOL    HW224147   2.203   4.152  14.390 -0.5688  1.1081 -0.8912
 4172SOL     OW24148   2.253   4.189   8.141  0.5827  0.1096 -0.6138
 4172SOL    HW124149   2.212   4.262   8.095 -1.8155 -0.0081  1.2780
 4172SOL    HW224150   2.193   4.188   8.216  0.6732  2.8207 -0.4961
 4173SOL     OW24151   4.483   3.207   7.806  0.3127  0.6844 -0.0246
 4173SOL    HW124152   4.521   3.177   7.723 -1.4513  0.3150 -0.7011
 4173SOL    HW224153   4.470   3.126   7.854 -1.7408  1.0214 -0.0044
 4174SOL     OW24154   4.017   1.856   8.946  0.6238  0.2943  0.4054
 4174SOL    HW124155   4.111   1.848   8.958  0.3635 -0.0018  2.2462
 4174SOL    HW224156   3.988   1.769   8.919  0.3960  0.2044  0.9420
 4175SOL     OW24157   4.550   0.804  16.664 -1.1452 -0.5637 -0.5990
 4175SOL    HW124158   4.567   0.770  16.752 -0.5622 -0.1800 -0.5604
 4175SOL    HW224159   4.466   0.763  16.646 -1.7214 -1.0690  3.1449
 4176SOL     OW24160   1.901   2.473   8.078  0.7428  0.9077 -0.1417
 4176SOL    HW124161   1.819   2.484   8.126  0.7710 -1.8727  0.5357
 4176SOL    HW224162   1.952   2.425   8.143 -1.9776 -0.8146  0.6987
 4177SOL     OW24163   2.153   4.175   8.898  0.1025  0.0442  0.2029
 4177SOL    HW124164   2.188   4.186   8.987 -0.2016 -0.8326  0.4391
 4177SOL    HW224165   2.110   4.260   8.897  0.0343 -0.0042 -0.6694
 4178SOL     OW24166   0.754   2.927   9.870 -0.6322  0.2490  0.3551
 4178SOL    HW124167   0.806   2.973   9.937  1.8712 -2.0133 -0.0046
 4178SOL    HW224168   0.685   2.890   9.926  0.4511 -1.9322  0.2901
 4179SOL     OW24169   2.622   1.743   7.273  0.2042 -0.2665  0.1905
 4179SOL    HW124170   2.632   1.649   7.291 -0.4081 -0.3017  0.3425
 4179SOL    HW224171   2.642   1.782   7.358  0.4813  3.6540 -1.6911
 4180SOL     OW24172   0.320   0.605   9.261  0.3613  0.6509 -0.0675
 4180SOL    HW124173   0.397   0.582   9.209  2.0440  2.7465  1.5161
 4180SOL    HW224174   0.349   0.638   9.346  3.2197  0.7330 -1.0797
 4181SOL     OW24175   2.058   2.327   6.298 -0.9334  0.3522  0.1569
 4181SOL    HW124176   2.122   2.326   6.369 -1.3602 -3.1082  0.4582
 4181SOL    HW224177   1.985   2.339   6.358 -0.4017 -0.7617  1.0124
 4182SOL     OW24178   1.377   2.789   8.334  0.6066  0.3006  0.2532
 4182SOL    HW124179   1.327   2.743   8.400  2.6009  0.1432  1.6411
 4182SOL    HW224180   1.317   2.856   8.301  1.2879  0.8952  0.2219
 4183SOL     OW24181   0.354   2.736  12.129 -0.6301  0.7201 -0.2695
 4183SOL    HW124182   0.351   2.724  12.224  0.0340 -1.5129 -0.5379
 4183SOL    HW224183   0.261   2.716  12.115 -0.1298 -1.6834 -0.1338
 4184SOL     OW24184   0.709   0.811  11.820 -0.3890  0.6427 -0.0387
 4184SOL    HW124185   0.677   0.854  11.899  0.8039 -0.3325  0.9794
 4184SOL    HW224186   0.636   0.752  11.804 -0.0379  0.1189  0.2888
 4185SOL     OW24187   2.031   2.249   8.865 -0.5190  0.0125  0.2301
 4185SOL    HW124188   1.998   2.282   8.781  0.4507 -1.3163 -0.6527
 4185SOL    HW224189   2.119   2.285   8.855 -0.2902 -0.0939  1.8650
 4186SOL     OW24190   4.733   1.208   1.310  0.3948 -0.9188 -0.3512
 4186SOL    HW124191   0.007   1.169   1.224 -1.3156  0.1070 -1.0692
 4186SOL    HW224192   4.642   1.180   1.315  0.0882 -0.5499 -4.1962
 4187SOL     OW24193   4.562   4.065  14.130  0.7228 -0.7855  0.0721
 4187SOL    HW124194   4.479   4.019  14.139 -0.4143  1.5350  1.2961
 4187SOL    HW224195   4.615   4.007  14.183 -1.1587 -2.4390  0.1390
 4188SOL     OW24196   3.001   2.119   7.633 -0.1893  0.3742  0.0996
 4188SOL    HW124197   2.987   2.049   7.569  1.3347 -0.4506  0.6785
 4188SOL    HW224198   2.912   2.137   7.664  0.3569  2.5777  0.3840
 4189SOL     OW24199   3.737   3.084   9.682 -0.0405  0.5537 -0.3482
 4189SOL    HW124200   3.727   3.158   9.742 -1.4630  1.5440 -1.8001
 4189SOL    HW224201   3.830   3.074   9.660 -0.2105  0.4710 -1.0450
 4190SOL     OW24202   0.580   1.598   1.734 -0.0887  0.1156  0.6234
 4190SOL    HW124203   0.568   1.654   1.657 -0.2595 -0.6713  0.0730
 4190SOL    HW224204   0.545   1.657   1.800 -1.1288 -0.3849  0.5106
 4191SOL     OW24205   0.077   4.493   8.327 -0.5304 -0.1313  0.3206
 4191SOL    HW124206   0.102   4.582   8.299 -0.5271  0.2981  1.6875
 4191SOL    HW224207   4.722   4.511   8.334 -0.4454  0.2200  0.6058
 4192SOL     OW24208   0.389   3.755   3.968  0.3241 -0.3535 -0.4274
 4192SOL    HW124209   0.303   3.783   4.000  1.2883  0.9239  1.0531
 4192SOL    HW224210   0.437   3.743   4.050 -1.1049 -0.3717  0.4063
 4193SOL     OW24211   1.239   0.868   5.401  0.2499  0.4787 -0.7464
 4193SOL    HW124212   1.298   0.797   5.428 -2.6984 -1.0055  1.7072
 4193SOL    HW224213   1.170   0.855   5.466 -0.5350 -0.3347 -1.7391
 4194SOL     OW24214   3.748   2.423  17.527  1.1341 -0.1190  0.2548
 4194SOL    HW124215   3.664   2.378  17.523  0.3881  1.3911 -1.2651
 4194SOL    HW224216   3.746   2.471  17.444 -1.8116 -0.6352  0.0340
 4195SOL     OW24217   3.912   3.461   5.206 -0.3729  0.0098 -0.3540
 4195SOL    HW124218   3.934   3.397   5.138  0.0294 -0.8880  0.6027
 4195SOL    HW224219   3.943   3.541   5.164  0.4651  0.1954  0.5941
 4196SOL     OW24220   1.250   2.355  12.904 -0.1613  0.4341 -0.6425
 4196SOL    HW124221   1.220   2.374  12.815  1.2371 -2.0027 -1.6364
 4196SOL    HW224222   1.227   2.263  12.916 -0.6380  0.7241  0.7470
 4197SOL     OW24223   2.752   0.830   3.317 -0.1191  0.7358  0.1384
 4197SOL    HW124224   2.835   0.843   3.271  0.5165 -1.2632  0.7331
 4197SOL    HW224225   2.796   0.828   3.401 -1.6654 -0.3385  0.9275
 4198SOL     OW24226   3.504   3.331   6.670 -0.4383  0.1045 -0.4524
 4198SOL    HW124227   3.583   3.339   6.724 -0.3813  1.5828 -0.7521
 4198SOL    HW224228   3.453   3.288   6.738 -1.3778  2.1562  0.1341
 4199SOL     OW24229   2.045   4.042  13.328  0.4407 -0.0930  0.2775
 4199SOL    HW124230   2.087   3.972  13.377  3.0070  0.9023 -0.5095
 4199SOL    HW224231   2.051   4.113  13.392  2.2142 -0.6380  0.7200
 4200SOL     OW24232   4.379   4.199   7.724  0.3493  0.3434  0.1103
 4200SOL    HW124233   4.380   4.104   7.739 -0.4078  0.5646  1.5851
 4200SOL    HW224234   4.287   4.215   7.704  0.6541 -0.1053 -1.6776
 4201SOL     OW24235   4.063   2.325   8.623  0.2001 -0.1908 -0.7351
 4201SOL    HW124236   4.098   2.334   8.534  1.9338  1.4188  0.1167
 4201SOL    HW224237   4.074   2.231   8.638  2.4242  0.0576 -0.8089
 4202SOL     OW24238   3.998   4.016  13.083  0.4676  0.4147  0.0933
 4202SOL    HW124239   4.032   3.935  13.044  0.3149 -0.0858  0.9841
 4202SOL    HW224240   4.055   4.080  13.040  1.1432  0.0755  0.4873
 4203SOL     OW24241   4.537   0.323   3.838 -0.2694  0.7218 -0.2159
 4203SOL    HW124242   4.474   0.325   3.766 -0.9638  0.3486  0.3784
 4203SOL    HW224243   4.602   0.268   3.793 -0.5367 -0.3220  0.6808
 4204SOL     OW24244   1.246   2.489   1.190 -0.2805 -0.1725  0.5423
 4204SOL    HW124245   1.164   2.441   1.175 -0.4755 -0.3503  2.2203
 4204SOL    HW224246   1.279   2.487   1.100 -0.3935 -0.1612  0.4994
 4205SOL     OW24247   0.290   2.353   8.829 -0.3533 -0.2662  0.1378
 4205SOL    HW124248   0.298   2.375   8.736 -1.7269  0.6375  0.2277
 4205SOL    HW224249   0.235   2.429   8.850  0.3142  0.1256  0.4383
 4206SOL     OW24250   1.855   3.487   5.035  0.1378  0.7244 -0.2273
 4206SOL    HW124251   1.900   3.532   5.107 -1.2202  1.7241 -0.0136
 4206SOL    HW224252   1.931   3.451   4.989 -0.3218 -1.8635  0.9948
 4207SOL     OW24253   4.134   4.416   2.765 -0.3232  0.7390  0.6106
 4207SOL    HW124254   4.188   4.399   2.688 -2.3527  1.3643 -0.9243
 4207SOL    HW224255   4.143   4.329   2.803 -0.6397 -0.0915 -1.2202
 4208SOL     OW24256   2.198   0.593   1.156  0.1305  0.5171  0.6665
 4208SOL    HW124257   2.128   0.647   1.121  0.4836 -0.3083 -1.2942
 4208SOL    HW224258   2.257   0.581   1.082  1.3728  1.6113  1.4645
 4209SOL     OW24259   1.517   3.425  15.118  0.0522  0.1231 -0.0356
 4209SOL    HW124260   1.492   3.473  15.039 -0.8889 -0.4548 -0.0943
 4209SOL    HW224261   1.589   3.477  15.153  0.7442 -1.7092  1.2885
 4210SOL     OW24262   3.614   3.981   9.621 -0.3503  0.4090  0.8527
 4210SOL    HW124263   3.651   3.976   9.533  0.6971  2.2753  1.1911
 4210SOL    HW224264   3.541   4.041   9.610 -0.3988  0.6029  2.2099
 4211SOL     OW24265   0.643   0.832  14.916  0.7311 -0.2463  0.8399
 4211SOL    HW124266   0.687   0.903  14.869 -0.6197 -0.6801 -1.0527
 4211SOL    HW224267   0.559   0.876  14.926  1.8308  1.9744  0.2239
 4212SOL     OW24268   3.866   4.556   5.310  0.1400 -0.1047  0.1299
 4212SOL    HW124269   3.798   4.507   5.355  0.7773 -1.0272  0.1015
 4212SOL    HW224270   3.928   4.570   5.381  1.7305 -2.6358 -0.7426
 4213SOL     OW24271   0.370   4.363  11.786 -0.2027 -0.1340 -0.0669
 4213SOL    HW124272   0.309   4.319  11.727 -0.2702  1.0216 -0.8572
 4213SOL    HW224273   0.347   4.306  11.860 -2.4633 -0.7171 -1.2084
 4214SOL     OW24274   3.158   1.255   8.975 -0.8787  0.0873 -0.2423
 4214SOL    HW124275   3.131   1.206   9.053 -1.8655  0.7281 -0.1830
 4214SOL    HW224276   3.172   1.185   8.912 -2.5960  0.4323 -1.0024
 4215SOL     OW24277   3.777   3.810   2.337  0.0350  0.2434 -0.1511
 4215SOL    HW124278   3.846   3.745   2.340 -1.7892 -1.6083  1.9867
 4215SOL    HW224279   3.768   3.802   2.242 -0.8648 -1.4859  0.0908
 4216SOL     OW24280   1.694   4.484   2.287 -0.1486  0.8313 -0.2140
 4216SOL    HW124281   1.695   4.577   2.307 -0.7136  0.5783  0.9658
 4216SOL    HW224282   1.751   4.495   2.210  0.9316 -0.2967  0.4205
 4217SOL     OW24283   0.722   2.730  12.639 -0.0901 -0.1990  0.4429
 4217SOL    HW124284   0.672   2.810  12.625 -1.2202 -1.1323 -0.8672
 4217SOL    HW224285   0.760   2.727  12.551 -1.5586 -0.9846 -0.1625
 4218SOL     OW24286   2.851   1.911   2.802 -0.2828 -0.0309 -0.2547
 4218SOL    HW124287   2.780   1.973   2.818 -0.8611 -0.4835 -1.0751
 4218SOL    HW224288   2.851   1.867   2.887  0.8756  3.0471  1.3252
 4219SOL     OW24289   3.431   1.895   8.140 -1.0241  0.4733 -0.1293
 4219SOL    HW124290   3.342   1.876   8.110 -0.5291 -1.4889 -0.3554
 4219SOL    HW224291   3.464   1.806   8.148  2.1881  2.0620  3.9325
 4220SOL     OW24292   3.437   1.592  12.243 -0.3261  0.4181  0.7783
 4220SOL    HW124293   3.364   1.540  12.276  0.1477 -0.8167 -0.1325
 4220SOL    HW224294   3.387   1.665  12.207  2.3941  2.9258  2.0604
 4221SOL     OW24295   4.615   2.307   3.171  0.5557 -0.3193  0.0331
 4221SOL    HW124296   4.555   2.291   3.245 -1.2255  1.5304 -1.0048
 4221SOL    HW224297   4.686   2.349   3.219  0.4965  1.5018 -1.4511
 4222SOL     OW24298   0.785   3.033   6.001  0.6947  0.6683  0.4114
 4222SOL    HW124299   0.839   3.075   5.934  0.6491 -0.4258 -0.3301
 4222SOL    HW224300   0.710   3.004   5.948  1.7658 -3.2561  1.0294
 4223SOL     OW24301   0.074   3.935  12.357 -0.6686  0.3340  0.2401
 4223SOL    HW124302   0.125   3.997  12.408 -0.8260 -1.1186  2.1643
 4223SOL    HW224303   0.138   3.911  12.289  1.0074  0.5573  1.7373
 4224SOL     OW24304   4.601   2.119  13.971  0.7679 -0.3041 -0.5262
 4224SOL    HW124305   4.670   2.072  13.925  0.5036 -1.5556  0.3380
 4224SOL    HW224306   4.660   2.144  14.042 -1.3199 -0.8589  1.4007
 4225SOL     OW24307   1.738   1.355   1.857  0.2026  0.0734 -0.4731
 4225SOL    HW124308   1.758   1.448   1.842  0.6068 -0.0393 -0.6114
 4225SOL    HW224309   1.690   1.367   1.940  0.6730  3.4325 -0.6784
 4226SOL     OW24310   3.363   4.680   6.583  0.1391 -0.3187 -0.2009
 4226SOL    HW124311   3.393   0.027   6.554 -0.3040 -0.1518 -0.1602
 4226SOL    HW224312   3.445   4.632   6.573 -0.5925 -1.2669 -1.6929
 4227SOL     OW24313   1.244   1.348   6.145  0.0212  0.5773 -0.0258
 4227SOL    HW124314   1.308   1.416   6.123 -0.3815  1.0375  0.2077
 4227SOL    HW224315   1.300   1.280   6.181 -0.0301  1.1380  1.1228
 4228SOL     OW24316   0.088   3.876   4.796 -0.0860  0.3835  0.0294
 4228SOL    HW124317   0.085   3.930   4.875 -1.5565  2.1127 -1.2021
 4228SOL    HW224318   0.029   3.806   4.824  0.9147  0.1255  1.4953
 4229SOL     OW24319   0.521   4.369  15.115  0.8417  0.0291  0.7190
 4229SOL    HW124320   0.561   4.348  15.030 -3.1966 -0.7673 -0.9613
 4229SOL    HW224321   0.474   4.289  15.141  0.6775 -0.3971 -0.9039
 4230SOL     OW24322   0.312   2.474   1.321  0.4619 -0.4342  0.5304
 4230SOL    HW124323   0.254   2.449   1.393  0.6690 -1.9849  0.1467
 4230SOL    HW224324   0.382   2.518   1.370  1.9659 -1.9042 -0.3247
 4231SOL     OW24325   0.221   4.440  11.455 -0.1437  0.4209  0.4214
 4231SOL    HW124326   0.130   4.426  11.430  0.7758 -1.3104 -2.0146
 4231SOL    HW224327   0.256   4.445  11.366 -2.2789  1.4303 -0.3613
 4232SOL     OW24328   3.361   0.744   8.504 -0.1082 -0.6367  0.4229
 4232SOL    HW124329   3.393   0.680   8.569 -1.0339 -1.1416  0.3798
 4232SOL    HW224330   3.427   0.725   8.438  0.7142 -2.8511  1.8598
 4233SOL     OW24331   0.964   1.046   5.083  0.4823  0.2390 -0.1421
 4233SOL    HW124332   1.040   1.028   5.138  0.8826 -0.7359 -1.0073
 4233SOL    HW224333   0.896   0.993   5.125  1.7534 -1.2218  0.0588
 4234SOL     OW24334   3.014   2.914   4.342  0.3075 -0.5815 -0.4979
 4234SOL    HW124335   2.982   2.957   4.422 -0.4272  2.2226 -2.3126
 4234SOL    HW224336   3.070   2.853   4.391  1.3984  0.0091 -1.0039
 4235SOL     OW24337   1.564   2.740  16.691  0.2298 -0.2540 -0.0774
 4235SOL    HW124338   1.577   2.782  16.606  2.4952 -2.6350 -0.8870
 4235SOL    HW224339   1.507   2.801  16.739 -1.3403 -1.8825  0.1018
 4236SOL     OW24340   3.678   1.726   1.932 -0.0688 -0.2972  0.0240
 4236SOL    HW124341   3.768   1.723   1.901 -0.1465 -0.5016 -0.1888
 4236SOL    HW224342   3.650   1.807   1.890  1.3653  0.7432  1.0838
 4237SOL     OW24343   4.503   0.606   4.649  0.0127 -0.2116 -0.0346
 4237SOL    HW124344   4.451   0.656   4.586 -0.1250 -0.5192 -0.1644
 4237SOL    HW224345   4.595   0.634   4.652  0.6226 -2.3630  1.5122
 4238SOL     OW24346   0.153   1.308   5.088 -0.4167  0.6903 -0.5605
 4238SOL    HW124347   0.212   1.348   5.023 -3.0271  1.7261 -2.2925
 4238SOL    HW224348   0.131   1.383   5.143  1.1580 -0.9199  2.2739
 4239SOL     OW24349   0.744   1.165  10.117 -0.3381 -0.3036  0.2454
 4239SOL    HW124350   0.783   1.248  10.090 -2.1992  0.6197  0.3949
 4239SOL    HW224351   0.819   1.131  10.166  0.1260 -1.7134 -1.4430
 4240SOL     OW24352   2.203   4.223   9.184  0.8423 -0.4311  0.2349
 4240SOL    HW124353   2.124   4.209   9.237 -0.7467  1.6067 -1.6219
 4240SOL    HW224354   2.259   4.280   9.237  0.0385  1.5337 -1.0252
 4241SOL     OW24355   1.206   2.423   8.279 -0.0539 -0.1045  0.0883
 4241SOL    HW124356   1.145   2.471   8.223  3.7735  2.0591 -2.2761
 4241SOL    HW224357   1.224   2.495   8.340  1.1390  0.5422 -1.0094
 4242SOL     OW24358   0.357   0.572   7.833  0.2035  0.2022 -0.1976
 4242SOL    HW124359   0.392   0.529   7.754  2.1703 -0.1243  0.8512
 4242SOL    HW224360   0.394   0.513   7.898  1.4355 -0.2918 -1.3458
 4243SOL     OW24361   0.522   3.970   3.528  0.1039 -0.0718 -0.4121
 4243SOL    HW124362   0.541   3.999   3.618  1.9954 -0.4010 -0.7070
 4243SOL    HW224363   0.575   3.891   3.527 -1.0049 -0.7953 -1.1947
 4244SOL     OW24364   3.480   0.983   3.154 -0.2203  0.5261 -0.4958
 4244SOL    HW124365   3.553   1.014   3.207  0.4238 -1.1986 -0.3870
 4244SOL    HW224366   3.410   1.040   3.186 -1.9546 -0.7173 -2.0364
 4245SOL     OW24367   3.828   4.636   5.631 -0.3703 -0.1067 -0.3623
 4245SOL    HW124368   3.903   4.614   5.687  1.2877 -0.7240 -2.8607
 4245SOL    HW224369   3.806   4.549   5.600 -3.1801  0.3839  0.2262
 4246SOL     OW24370   0.656   2.724   9.337 -0.5247  0.4254 -0.2350
 4246SOL    HW124371   0.739   2.745   9.295 -1.0919  0.5859 -1.2907
 4246SOL    HW224372   0.646   2.793   9.403 -3.2801  0.3822 -0.6047
 4247SOL     OW24373   1.320   1.284  16.306 -0.4895  0.0517 -0.4343
 4247SOL    HW124374   1.366   1.202  16.294 -0.9868 -0.5452  1.7233
 4247SOL    HW224375   1.298   1.298  16.214 -0.3097 -0.5164 -0.5594
 4248SOL     OW24376   0.169   1.465   8.077 -0.0490 -0.0320 -0.1487
 4248SOL    HW124377   0.122   1.399   8.127  1.8123 -1.6950 -0.5983
 4248SOL    HW224378   0.207   1.403   8.014 -1.6826 -0.3487 -0.8274
 4249SOL     OW24379   1.041   4.684  13.183 -0.3145 -0.4327 -0.2194
 4249SOL    HW124380   1.115   4.660  13.127 -0.5787  0.7587 -1.0801
 4249SOL    HW224381   1.017   4.598  13.219 -2.5774 -0.2711 -1.3639
 4250SOL     OW24382   1.338   0.144   3.520 -0.2138 -0.2441 -0.3361
 4250SOL    HW124383   1.256   0.140   3.570 -1.0821  1.9951 -1.5980
 4250SOL    HW224384   1.368   0.053   3.512 -0.1671 -0.1755 -0.9285
 4251SOL     OW24385   0.569   0.979  12.788 -0.2591  0.4019 -0.1950
 4251SOL    HW124386   0.653   0.933  12.785 -0.0138  1.0079 -2.9206
 4251SOL    HW224387   0.595   1.045  12.852 -2.0541 -0.0806  1.0188
 4252SOL     OW24388   2.471   4.062   8.824  0.2477  0.1295 -1.1416
 4252SOL    HW124389   2.503   4.048   8.735  2.7379 -2.3293  0.1438
 4252SOL    HW224390   2.537   4.118   8.865  0.6247 -0.8411 -0.4081
 4253SOL     OW24391   4.145   2.638   9.315  0.1432  0.0100  0.3286
 4253SOL    HW124392   4.147   2.599   9.403  2.3755 -0.0890  0.2239
 4253SOL    HW224393   4.157   2.730   9.338  0.2024 -0.3023  1.5586
 4254SOL     OW24394   0.062   0.149   7.844 -0.0126 -0.0445 -0.1209
 4254SOL    HW124395   0.102   0.063   7.858  0.1921  0.2910  1.3650
 4254SOL    HW224396   0.094   0.200   7.918  1.0540  1.9975 -2.0179
 4255SOL     OW24397   0.327   2.815  11.131  0.6525  0.5944  0.1585
 4255SOL    HW124398   0.365   2.730  11.152  0.1522  0.7150  1.5525
 4255SOL    HW224399   0.371   2.822  11.046  1.1664 -0.2695  0.3544
 4256SOL     OW24400   0.147   2.007   0.909 -0.0519  0.0704  0.0975
 4256SOL    HW124401   0.127   2.060   0.832 -0.0272  0.6976  0.5312
 4256SOL    HW224402   0.058   1.997   0.944 -0.5785  0.6388 -1.0600
 4257SOL     OW24403   4.124   3.632   9.406  0.3425 -0.3353 -0.1327
 4257SOL    HW124404   4.103   3.561   9.466 -0.5140 -0.7683 -0.9439
 4257SOL    HW224405   4.205   3.663   9.447  0.0218 -0.1535  0.3615
 4258SOL     OW24406   2.218   3.334  13.055  0.6011  0.6207  0.0534
 4258SOL    HW124407   2.159   3.295  13.120  0.2066 -2.6408 -2.1943
 4258SOL    HW224408   2.150   3.342  12.987  1.1913 -2.6283 -0.9375
 4259SOL     OW24409   2.292   1.759  14.528  0.4226  0.1041 -0.1232
 4259SOL    HW124410   2.217   1.818  14.530 -0.6935 -1.3338  0.6895
 4259SOL    HW224411   2.282   1.675  14.572 -0.9118  0.5480  0.4003
 4260SOL     OW24412   0.577   2.907   5.876 -0.1614  0.4335  0.3310
 4260SOL    HW124413   0.552   2.918   5.785  0.3306 -0.1062  0.1330
 4260SOL    HW224414   0.499   2.900   5.930 -0.6818  0.7649 -0.3833
 4261SOL     OW24415   1.156   2.029   1.910 -0.1971  0.4738 -0.1653
 4261SOL    HW124416   1.136   1.936   1.919 -1.2401  0.8180  1.1327
 4261SOL    HW224417   1.140   2.058   2.000 -0.0241 -0.2640  0.1016
 4262SOL     OW24418   0.359   1.454   2.352 -0.1062 -0.0559  0.0944
 4262SOL    HW124419   0.282   1.511   2.350 -1.4633 -1.9098  0.1813
 4262SOL    HW224420   0.422   1.509   2.306 -2.5252  0.5726 -2.4684
 4263SOL     OW24421   2.243   4.376   4.724  0.3004  0.3158 -0.4282
 4263SOL    HW124422   2.200   4.435   4.786 -1.0611  0.2893 -1.3414
 4263SOL    HW224423   2.290   4.450   4.685 -1.0096  1.6647  0.5055
 4264SOL     OW24424   4.136   3.717  15.002  0.5365  0.4428  0.1197
 4264SOL    HW124425   4.136   3.811  15.019  0.1408  0.3810  0.4415
 4264SOL    HW224426   4.207   3.696  15.062 -1.6754 -1.1309  2.1673
 4265SOL     OW24427   3.390   1.283   4.219 -1.0028  0.1839 -0.2976
 4265SOL    HW124428   3.454   1.252   4.155 -2.2002  0.7277 -1.7426
 4265SOL    HW224429   3.452   1.314   4.285 -0.1317 -1.0517 -0.5409
 4266SOL     OW24430   3.602   0.274   5.923  0.0825 -0.0028  0.1269
 4266SOL    HW124431   3.511   0.246   5.918 -0.1629  0.5714  1.4333
 4266SOL    HW224432   3.653   0.216   5.868  0.9264  2.4381 -1.6883
 4267SOL     OW24433   1.156   1.642   4.333  0.0157 -0.3209 -0.0052
 4267SOL    HW124434   1.139   1.672   4.423  0.9484  1.5334 -0.4417
 4267SOL    HW224435   1.123   1.715   4.281 -1.7625  0.6535  2.4930
 4268SOL     OW24436   0.395   4.621   8.448 -0.1314  0.1833 -0.2705
 4268SOL    HW124437   0.336   4.697   8.442 -1.7708 -0.8001  3.3896
 4268SOL    HW224438   0.463   4.651   8.388  0.3312  1.4743  0.8974
 4269SOL     OW24439   1.073   2.854   4.901 -0.0110 -0.3238 -0.2675
 4269SOL    HW124440   1.031   2.770   4.919 -0.4101  0.0234  0.4013
 4269SOL    HW224441   1.142   2.839   4.965 -1.1052  1.3687  1.2898
 4270SOL     OW24442   4.109   0.366   9.551 -0.2069  0.0641  0.1876
 4270SOL    HW124443   4.087   0.308   9.478 -0.4229 -0.5245  0.7171
 4270SOL    HW224444   4.140   0.307   9.620 -1.6778 -1.6531 -0.6352
 4271SOL     OW24445   3.860   4.224   6.217 -0.1793  0.1706  0.0632
 4271SOL    HW124446   3.784   4.228   6.276 -0.8050  0.4229 -0.7519
 4271SOL    HW224447   3.808   4.208   6.138  0.2441  0.2108 -0.2196
 4272SOL     OW24448   2.987   0.677   1.211 -0.4033 -0.2133 -0.3176
 4272SOL    HW124449   3.068   0.646   1.252 -1.1351 -1.9319 -0.1978
 4272SOL    HW224450   3.001   0.657   1.119 -0.9571 -2.9443  0.1994
 4273SOL     OW24451   0.689   0.180   5.632 -0.0088  0.1822  0.1125
 4273SOL    HW124452   0.705   0.230   5.712 -1.1674  2.9585 -1.3931
 4273SOL    HW224453   0.653   0.101   5.672  1.7233 -0.3384  0.6251
 4274SOL     OW24454   1.640   1.577  11.633 -0.3436  0.6626 -0.1240
 4274SOL    HW124455   1.723   1.610  11.599  0.9325 -1.3975  0.9958
 4274SOL    HW224456   1.656   1.491  11.671 -0.8572  1.1754  1.2396
 4275SOL     OW24457   3.706   0.270  13.251 -0.1118  0.3706 -0.2518
 4275SOL    HW124458   3.680   0.313  13.332 -1.5318 -2.2722  0.6950
 4275SOL    HW224459   3.755   0.339  13.205  1.3653 -1.7773 -1.9125
 4276SOL     OW24460   2.503   1.234   5.602  0.3141 -0.1103  0.1771
 4276SOL    HW124461   2.507   1.265   5.693  0.1151 -0.4631  0.3099
 4276SOL    HW224462   2.587   1.189   5.592 -0.2429 -0.6282 -2.0913
 4277SOL     OW24463   2.438   3.093   7.423  0.3370 -0.2603  0.0123
 4277SOL    HW124464   2.430   3.144   7.504 -0.8051 -1.0840  0.4057
 4277SOL    HW224465   2.534   3.098   7.421  0.3017  0.7593  0.4377
 4278SOL     OW24466   2.329   2.558   4.140  0.1545  0.0789 -0.1020
 4278SOL    HW124467   2.288   2.475   4.118 -1.3339  0.8331 -0.1519
 4278SOL    HW224468   2.334   2.597   4.053 -1.9854  0.2144 -0.1675
 4279SOL     OW24469   4.495   3.426   8.310  0.4928 -0.4678  0.3431
 4279SOL    HW124470   4.580   3.464   8.332  0.8800 -1.1118 -0.0282
 4279SOL    HW224471   4.482   3.344   8.357 -1.0751  0.5673  1.6889
 4280SOL     OW24472   1.269   3.181  15.533 -0.0416  0.8064 -0.1686
 4280SOL    HW124473   1.185   3.186  15.578  0.3080  1.2309  0.4297
 4280SOL    HW224474   1.234   3.169  15.444  0.7182  2.7612 -0.7423
 4281SOL     OW24475   0.592   0.531   5.915 -0.1554  0.3255  0.7070
 4281SOL    HW124476   0.530   0.550   5.985 -0.9544  0.0540  0.0710
 4281SOL    HW224477   0.580   0.615   5.871  0.7898 -1.1588 -2.4194
 4282SOL     OW24478   1.718   4.567  15.834  0.2095  0.2052 -0.3295
 4282SOL    HW124479   1.695   4.497  15.773 -1.2811  0.2701  0.1535
 4282SOL    HW224480   1.752   4.516  15.907  2.0179  1.0630 -0.5818
 4283SOL     OW24481   2.751   0.750   1.379  0.0063  0.4492  0.0416
 4283SOL    HW124482   2.827   0.707   1.340 -1.7212 -0.9941 -1.7117
 4283SOL    HW224483   2.774   0.842   1.396  0.1882  0.8480 -2.3536
 4284SOL     OW24484   0.836   4.447   6.724  0.7202  0.4022 -0.0739
 4284SOL    HW124485   0.743   4.464   6.740  0.5218 -1.6332  0.9980
 4284SOL    HW224486   0.873   4.534   6.741 -0.6628  1.2433 -1.4230
 4285SOL     OW24487   3.152   1.545   1.568  0.2495 -0.1690 -0.1333
 4285SOL    HW124488   3.129   1.524   1.658  1.6231 -0.4676  0.1375
 4285SOL    HW224489   3.143   1.458   1.530 -0.8081  0.5321 -1.5128
 4286SOL     OW24490   1.872   1.793   0.541 -0.1117 -0.2806 -0.4373
 4286SOL    HW124491   1.954   1.839   0.523  0.3251 -0.8465  0.0726
 4286SOL    HW224492   1.916   1.731   0.600 -0.6019 -0.8577 -0.6865
 4287SOL     OW24493   0.360   3.093   5.090  0.0733  0.4973 -0.6541
 4287SOL    HW124494   0.370   3.018   5.031  1.2721  0.1542 -0.0242
 4287SOL    HW224495   0.344   3.168   5.033  1.1455  1.0698 -0.2137
 4288SOL     OW24496   3.345   0.754   3.411 -0.0995  0.3414  0.4556
 4288SOL    HW124497   3.440   0.767   3.413  0.3205 -2.7466  0.9344
 4288SOL    HW224498   3.337   0.662   3.385 -1.4653  0.8090 -0.8235
 4289SOL     OW24499   4.368   2.643   6.158  0.7146 -0.3199  0.5012
 4289SOL    HW124500   4.276   2.668   6.148  0.4803 -1.5665 -0.4511
 4289SOL    HW224501   4.357   2.558   6.200 -1.3675 -1.5533 -2.5408
 4290SOL     OW24502   1.545   1.316   6.110 -0.5141  0.2125 -0.2124
 4290SOL    HW124503   1.628   1.284   6.077  0.2620  1.4234  0.5755
 4290SOL    HW224504   1.532   1.388   6.048  0.3904  1.1335  0.6783
 4291SOL     OW24505   1.717   2.508  10.027  0.3309  0.5151 -0.3416
 4291SOL    HW124506   1.739   2.598  10.051  0.3384  0.2746  0.5750
 4291SOL    HW224507   1.803   2.474  10.004 -0.8114 -1.5525 -1.5489
 4292SOL     OW24508   3.198   0.979   1.878  0.0396  0.5686  0.3790
 4292SOL    HW124509   3.212   1.069   1.846 -0.9587  0.2791 -0.8863
 4292SOL    HW224510   3.110   0.961   1.844  0.4445  1.6713 -1.2724
 4293SOL     OW24511   4.194   2.452   6.408 -0.1205 -0.2390 -0.0666
 4293SOL    HW124512   4.240   2.532   6.433 -2.4948  1.8122 -2.3080
 4293SOL    HW224513   4.220   2.421   6.321  1.6902 -2.0629  1.1231
 4294SOL     OW24514   0.008   2.185   4.645  0.0484 -0.4489 -0.4397
 4294SOL    HW124515   4.730   2.243   4.571 -0.7568  1.4328  1.2085
 4294SOL    HW224516   0.061   2.248   4.695 -0.8708  0.0473 -0.0822
 4295SOL     OW24517   1.545   1.569  12.618 -0.0164  0.1625  0.2528
 4295SOL    HW124518   1.610   1.506  12.651 -0.2907 -0.3203 -0.1352
 4295SOL    HW224519   1.606   1.639  12.595 -0.7353  0.3477 -1.0529
 4296SOL     OW24520   1.685   0.616   2.467 -0.0813 -0.2549  0.4567
 4296SOL    HW124521   1.625   0.651   2.532 -0.1042  1.2445 -0.3830
 4296SOL    HW224522   1.682   0.679   2.395 -0.0995 -2.3522 -1.4106
 4297SOL     OW24523   1.507   2.919   2.468  0.2406  0.2425  0.0686
 4297SOL    HW124524   1.572   2.864   2.512 -0.4942 -0.7411 -0.0903
 4297SOL    HW224525   1.426   2.912   2.517 -0.3655 -1.0888 -1.1243
 4298SOL     OW24526   3.332   1.655   4.230 -0.1089 -0.7196  0.1738
 4298SOL    HW124527   3.420   1.622   4.209  0.2561  0.3994 -0.0415
 4298SOL    HW224528   3.351   1.673   4.322 -0.7930  0.4322  0.0791
 4299SOL     OW24529   2.791   2.616   0.148 -0.3725  0.0099 -0.4038
 4299SOL    HW124530   2.749   2.646   0.228 -1.0994  2.7797 -1.8151
 4299SOL    HW224531   2.880   2.593   0.175 -0.8758 -0.6057  0.7228
 4300SOL     OW24532   4.062   3.857   8.915  0.4461 -0.1953  1.0033
 4300SOL    HW124533   3.987   3.874   8.972 -0.3677  1.1971 -0.4680
 4300SOL    HW224534   4.025   3.816   8.837 -1.5367  2.6854  0.4287
 4301SOL     OW24535   0.779   3.967  10.278 -0.6844 -0.3511  0.0648
 4301SOL    HW124536   0.816   3.973  10.366 -0.6220  1.3548 -0.0631
 4301SOL    HW224537   0.823   3.890  10.242 -0.1047 -2.1438  4.6502
 4302SOL     OW24538   3.960   0.204  16.832  0.4293 -0.2345 -0.1743
 4302SOL    HW124539   3.875   0.247  16.844  1.1686  0.7763  1.4650
 4302SOL    HW224540   3.943   0.154  16.752  0.4833 -0.4808 -0.0334
 4303SOL     OW24541   1.157   3.928  16.903  0.2773  0.2781 -1.0395
 4303SOL    HW124542   1.124   4.014  16.877 -2.3575 -0.8496 -1.4427
 4303SOL    HW224543   1.074   3.881  16.902 -0.9269  2.4315 -0.1997
 4304SOL     OW24544   0.512   4.104   4.094  0.3661 -0.2303 -0.0231
 4304SOL    HW124545   0.474   4.073   4.176  0.3732 -0.6852 -0.1907
 4304SOL    HW224546   0.444   4.162   4.058 -0.9064 -1.6484  0.1104
 4305SOL     OW24547   0.614   2.268   5.981  0.0005  0.2778 -0.0607
 4305SOL    HW124548   0.681   2.227   5.926 -1.0822  0.2640 -1.3866
 4305SOL    HW224549   0.662   2.290   6.061 -0.3427 -0.5035  0.3624
 4306SOL     OW24550   4.228   2.818   1.624  0.1273 -0.1141  0.9206
 4306SOL    HW124551   4.190   2.881   1.685  0.2160  0.6229  0.2216
 4306SOL    HW224552   4.145   2.790   1.585  0.3720 -0.9714  1.0208
 4307SOL     OW24553   3.428   1.256   7.433 -0.0958 -0.5479 -0.9087
 4307SOL    HW124554   3.360   1.284   7.372 -0.9207 -3.0429 -1.1417
 4307SOL    HW224555   3.455   1.340   7.470 -0.8781 -0.5889 -0.2423
 4308SOL     OW24556   0.882   0.064  11.187 -0.0560  0.2791 -0.4542
 4308SOL    HW124557   0.788   0.081  11.178 -0.2692  0.2371  1.6110
 4308SOL    HW224558   0.898   0.120  11.263  0.3315  1.0746 -1.1175
 4309SOL     OW24559   2.387   1.067   8.913  0.2224  0.6013 -0.0275
 4309SOL    HW124560   2.442   1.054   8.989  1.1246  1.1004 -0.5877
 4309SOL    HW224561   2.383   1.163   8.909 -1.9126  0.4523 -1.3841
 4310SOL     OW24562   3.808   2.294   8.724  0.2123  0.3768  0.1118
 4310SOL    HW124563   3.739   2.231   8.702 -0.5439  1.3935 -0.4419
 4310SOL    HW224564   3.884   2.274   8.669 -0.2549  0.9508 -0.7444
 4311SOL     OW24565   4.020   3.734   4.491  0.6496  0.0553 -0.2138
 4311SOL    HW124566   4.075   3.755   4.567 -0.7755  3.0368 -0.0274
 4311SOL    HW224567   4.037   3.804   4.428 -1.1362 -2.8346 -3.9048
 4312SOL     OW24568   2.424   4.682  15.325  0.0370 -0.5591 -0.1505
 4312SOL    HW124569   2.339   4.666  15.285 -0.2930  0.5258  0.1212
 4312SOL    HW224570   2.453   0.017  15.272  2.0928 -1.1239  0.1758
 4313SOL     OW24571   2.764   4.700   5.215 -0.0479  0.4070 -0.2594
 4313SOL    HW124572   2.714   4.669   5.291  2.4115  1.3996  1.7580
 4313SOL    HW224573   2.793   0.050   5.237  1.8553 -1.2424  3.7867
 4314SOL     OW24574   3.837   0.457   4.650 -0.4217 -0.8168 -0.0044
 4314SOL    HW124575   3.910   0.493   4.599 -0.2353 -1.1044  0.0599
 4314SOL    HW224576   3.762   0.480   4.595 -0.6991  0.3339  0.8448
 4315SOL     OW24577   1.461   3.039   1.904 -0.7253 -0.3626 -0.5980
 4315SOL    HW124578   1.462   2.953   1.861  0.4497 -1.0533  0.7980
 4315SOL    HW224579   1.382   3.025   1.956 -0.2669 -4.7050 -1.0667
 4316SOL     OW24580   3.882   2.688  10.435  0.0679  0.4392 -0.4037
 4316SOL    HW124581   3.842   2.660  10.353  0.9396  0.6734 -0.9178
 4316SOL    HW224582   3.818   2.736  10.487  1.8094  0.7620  1.4620
 4317SOL     OW24583   1.551   2.355  11.767 -0.6355  0.1518 -0.2800
 4317SOL    HW124584   1.559   2.300  11.845 -1.5470  0.4175  0.0071
 4317SOL    HW224585   1.464   2.327  11.737 -1.4157  0.6977  1.4563
 4318SOL     OW24586   3.287   3.214   0.134 -0.9451 -0.4966  0.0343
 4318SOL    HW124587   3.197   3.182   0.129 -1.2318  0.4587 -0.8089
 4318SOL    HW224588   3.336   3.135   0.110 -0.1132  0.1775 -0.4828
 4319SOL     OW24589   2.927   4.168   4.757  0.2550 -0.0778 -0.0144
 4319SOL    HW124590   2.847   4.161   4.705 -0.6270  0.9384  1.2090
 4319SOL    HW224591   2.919   4.245   4.813 -0.0071  0.9551 -1.4586
 4320SOL     OW24592   3.757   0.706   5.898  0.3795 -0.3686  0.3882
 4320SOL    HW124593   3.736   0.740   5.985 -0.7101 -0.0259 -0.0041
 4320SOL    HW224594   3.680   0.655   5.871 -0.5394  1.0340  0.3835
 4321SOL     OW24595   0.096   0.436   3.688 -0.1491  0.0858  0.1236
 4321SOL    HW124596   0.185   0.418   3.718 -1.0394 -2.8949  0.9964
 4321SOL    HW224597   0.050   0.353   3.699  0.1661 -0.0781  0.2127
 4322SOL     OW24598   2.624   4.572   7.951 -0.2575  0.4105 -0.4663
 4322SOL    HW124599   2.563   4.530   8.011  0.9137 -1.5686 -0.6792
 4322SOL    HW224600   2.602   4.661   7.977 -0.0768  0.1380  0.5846
 4323SOL     OW24601   4.121   1.353   7.203  0.7391  0.0150 -0.1624
 4323SOL    HW124602   4.177   1.403   7.143  1.2193 -0.9847 -0.5399
 4323SOL    HW224603   4.041   1.336   7.154  1.1155 -0.4657 -0.6107
 4324SOL     OW24604   3.753   4.250  15.207  0.5083  0.2033  0.0044
 4324SOL    HW124605   3.675   4.207  15.173  0.7927  0.6698 -1.2575
 4324SOL    HW224606   3.715   4.323  15.256  1.0634 -0.2948  1.1775
 4325SOL     OW24607   3.694   1.596  15.972 -0.1424 -0.6964 -0.1903
 4325SOL    HW124608   3.650   1.529  15.920 -2.2164  0.8568 -0.4430
 4325SOL    HW224609   3.779   1.614  15.932 -0.7080 -0.1270 -1.1379
 4326SOL     OW24610   1.336   1.464   0.632 -0.0459  0.7498 -0.0830
 4326SOL    HW124611   1.269   1.415   0.680 -0.3556 -0.7219 -2.0232
 4326SOL    HW224612   1.330   1.413   0.551  1.0803 -0.3029  0.5044
 4327SOL     OW24613   4.030   1.545   6.397  0.0454 -0.2991 -0.8053
 4327SOL    HW124614   3.983   1.628   6.388  0.0806 -0.3007 -1.0031
 4327SOL    HW224615   3.953   1.489   6.394  0.4971 -0.9137 -0.8785
 4328SOL     OW24616   2.169   2.092   2.151  0.0680 -0.4444  0.4678
 4328SOL    HW124617   2.107   2.164   2.159  0.7260  0.0925  0.7525
 4328SOL    HW224618   2.111   2.016   2.150  0.0645 -0.4330 -0.3144
 4329SOL     OW24619   4.713   4.149   9.459 -0.7066  0.2750 -0.3322
 4329SOL    HW124620   4.655   4.225   9.450 -0.1260  0.7116 -0.3969
 4329SOL    HW224621   4.679   4.102   9.383 -1.0593 -1.4152  0.8639
 4330SOL     OW24622   3.662   0.014  15.051 -0.1099  0.1980 -0.0518
 4330SOL    HW124623   3.593   0.051  14.995 -1.7244 -0.4310  1.5012
 4330SOL    HW224624   3.715   0.088  15.081  1.3467 -0.6018 -0.6707
 4331SOL     OW24625   2.053   1.029   4.755  0.8894 -0.7948  0.4611
 4331SOL    HW124626   2.132   0.978   4.771  1.6535  0.6739  1.3826
 4331SOL    HW224627   1.996   0.964   4.714 -1.7145  0.2841  2.3805
 4332SOL     OW24628   0.095   3.365  12.064 -0.3266 -0.5929  0.5483
 4332SOL    HW124629   0.110   3.433  12.130  0.4800 -0.0998 -0.1378
 4332SOL    HW224630   0.176   3.315  12.066 -0.0803 -0.2394 -0.8719
 4333SOL     OW24631   0.041   3.736   7.607  0.5868 -0.9941 -0.2280
 4333SOL    HW124632   0.008   3.698   7.526 -0.7959 -0.1538 -0.0547
 4333SOL    HW224633   4.719   3.704   7.674  1.9938 -2.2152  0.5018
 4334SOL     OW24634   4.540   2.870   3.210  0.1525 -0.5457 -0.1700
 4334SOL    HW124635   4.493   2.953   3.198  1.9816  0.5177  0.0644
 4334SOL    HW224636   4.609   2.893   3.272  1.4076  0.6622 -2.0261
 4335SOL     OW24637   1.682   4.190   6.453  0.0791  0.4302  0.2801
 4335SOL    HW124638   1.673   4.151   6.366 -3.1264  0.8770  0.3887
 4335SOL    HW224639   1.707   4.279   6.431 -0.8495  1.2128  2.3785
 4336SOL     OW24640   3.444   1.982   5.085 -0.1177  0.5503 -0.0366
 4336SOL    HW124641   3.418   2.026   5.004 -0.2397  0.8352  0.1582
 4336SOL    HW224642   3.373   2.013   5.140 -1.0581  1.0345 -1.5243
 4337SOL     OW24643   3.123   2.722   4.502  0.2311  0.0269  0.1349
 4337SOL    HW124644   3.134   2.651   4.565 -2.3636 -2.6815 -2.5287
 4337SOL    HW224645   3.208   2.768   4.506 -0.0284  0.5427 -0.1801
 4338SOL     OW24646   4.269   0.271   4.476  0.0253  0.3837  0.0811
 4338SOL    HW124647   4.362   0.284   4.491  0.5627 -2.6231 -0.6472
 4338SOL    HW224648   4.271   0.186   4.431  1.3273  0.6955 -0.4413
 4339SOL     OW24649   0.563   4.442   4.229  0.3488 -0.0741 -0.2467
 4339SOL    HW124650   0.549   4.400   4.144  4.4657  0.0016 -0.9548
 4339SOL    HW224651   0.653   4.413   4.244  0.4304  1.1515  1.6091
 4340SOL     OW24652   0.569   1.441   7.880  0.0191 -0.1036 -0.2289
 4340SOL    HW124653   0.637   1.440   7.947  0.2232  0.9365 -0.4093
 4340SOL    HW224654   0.499   1.499   7.912  0.3287 -0.8827  1.8217
 4341SOL     OW24655   2.609   0.810   0.703 -0.4613  0.2074 -0.3281
 4341SOL    HW124656   2.659   0.762   0.636  0.1502  1.0960 -0.5098
 4341SOL    HW224657   2.535   0.841   0.651 -1.1275 -1.0379 -0.1338
 4342SOL     OW24658   2.063   2.961   6.845  0.5543  0.5235  0.3662
 4342SOL    HW124659   2.053   2.901   6.919 -0.6927 -1.3165 -1.2911
 4342SOL    HW224660   2.053   3.046   6.889 -1.0917  0.8896 -0.6859
 4343SOL     OW24661   4.685   0.569   2.940  0.2165  0.3657  0.1003
 4343SOL    HW124662   4.722   0.547   3.026  1.3327  0.1550 -0.4239
 4343SOL    HW224663   4.611   0.624   2.964 -0.4458  0.0358 -1.2009
 4344SOL     OW24664   0.861   1.983   1.227 -0.1038 -0.1597 -0.5724
 4344SOL    HW124665   0.939   1.941   1.191 -0.6063 -1.9514  0.4367
 4344SOL    HW224666   0.883   1.974   1.320  3.2761 -0.1243 -1.3511
 4345SOL     OW24667   0.408   1.144   0.976  0.3641 -0.2471 -0.2240
 4345SOL    HW124668   0.418   1.229   1.019 -0.5830 -0.7912  1.0698
 4345SOL    HW224669   0.422   1.165   0.884 -3.5557  1.7107 -0.4156
 4346SOL     OW24670   0.839   1.619   6.192  0.1240 -0.7943 -0.1606
 4346SOL    HW124671   0.825   1.546   6.131 -0.5203 -0.5168 -0.3328
 4346SOL    HW224672   0.923   1.592   6.230  0.7874  1.4620 -0.0430
 4347SOL     OW24673   3.759   0.825  17.654  0.1392 -0.0338 -0.2123
 4347SOL    HW124674   3.834   0.883  17.669 -0.9350  1.1520  0.6318
 4347SOL    HW224675   3.693   0.887  17.623 -1.3664 -0.7669  1.5520
 4348SOL     OW24676   3.546   1.313   7.054 -0.5381  0.5734  0.2648
 4348SOL    HW124677   3.500   1.347   6.977  0.5319  3.2466  0.7636
 4348SOL    HW224678   3.561   1.393   7.106  0.9029 -0.6352  1.6965
 4349SOL     OW24679   1.559   1.547   2.542 -0.3502  0.1634 -0.6110
 4349SOL    HW124680   1.497   1.585   2.479  0.6671  0.3977 -1.4735
 4349SOL    HW224681   1.543   1.618   2.604 -1.2324 -0.3398 -0.2580
 4350SOL     OW24682   3.250   1.615  11.869  0.3991 -0.3014  0.0801
 4350SOL    HW124683   3.279   1.672  11.940  2.8153  0.2392 -1.3537
 4350SOL    HW224684   3.333   1.623  11.822  0.5263  1.6724  0.6215
 4351SOL     OW24685   1.687   4.108   4.111 -0.2956  0.5989 -0.0650
 4351SOL    HW124686   1.776   4.118   4.078 -1.2600  2.0074 -2.2527
 4351SOL    HW224687   1.709   4.056   4.189 -0.8097  0.4458 -0.0182
 4352SOL     OW24688   2.525   3.412   4.336 -0.0920  0.3533  1.0600
 4352SOL    HW124689   2.462   3.441   4.403 -1.0582 -0.4278  0.4929
 4352SOL    HW224690   2.466   3.384   4.266  1.8190 -1.0508  0.0466
 4353SOL     OW24691   3.473   3.173   8.847  0.0629 -0.5172  1.0564
 4353SOL    HW124692   3.416   3.146   8.774  2.2675  0.0765 -0.8806
 4353SOL    HW224693   3.407   3.224   8.894 -1.9872  3.7683 -6.3948
 4354SOL     OW24694   2.437   1.809   6.834 -0.1117 -0.7852 -0.7088
 4354SOL    HW124695   2.431   1.744   6.764 -1.5527 -1.5770  0.1596
 4354SOL    HW224696   2.349   1.845   6.835 -0.4439 -1.5869 -1.1574
 4355SOL     OW24697   4.560   3.877  12.437  0.3740  0.4494 -0.5318
 4355SOL    HW124698   4.567   3.784  12.413 -0.6735  0.4334 -0.7788
 4355SOL    HW224699   4.642   3.913  12.403  2.5529 -2.6676  1.3991
 4356SOL     OW24700   3.439   1.479   0.455  0.1703  0.3901  0.4264
 4356SOL    HW124701   3.436   1.390   0.489 -0.3244 -0.7195 -2.5514
 4356SOL    HW224702   3.504   1.522   0.511  1.7415 -1.0365 -0.3182
 4357SOL     OW24703   4.477   1.269   6.647  0.1891 -0.6033 -0.7859
 4357SOL    HW124704   4.526   1.351   6.656  0.1663 -0.8358  1.4068
 4357SOL    HW224705   4.388   1.303   6.642 -1.6640 -5.4056 -0.1694
 4358SOL     OW24706   4.653   3.114  17.197  0.2125 -0.1635  0.0273
 4358SOL    HW124707   4.653   3.126  17.292  0.6820 -0.6295  0.0888
 4358SOL    HW224708   4.560   3.127  17.179  0.2233  0.8318  0.7026
 4359SOL     OW24709   2.755   4.089   0.064  0.1748  0.0127 -0.2992
 4359SOL    HW124710   2.662   4.105   0.048 -0.0716 -1.2482 -0.1523
 4359SOL    HW224711   2.766   4.010   0.117 -0.4746  0.1469  0.0309
 4360SOL     OW24712   1.722   0.728   3.400  0.3636  0.1720  0.0451
 4360SOL    HW124713   1.807   0.732   3.358  1.2248 -0.6855  1.6893
 4360SOL    HW224714   1.702   0.820   3.382 -1.9943 -0.1440  0.8937
 4361SOL     OW24715   0.036   4.284   0.685  0.0246  0.1211 -0.0420
 4361SOL    HW124716   0.016   4.191   0.697  2.5816 -0.6710 -2.0526
 4361SOL    HW224717   4.694   4.326   0.715 -0.4777 -1.2373  0.4911
 4362SOL     OW24718   0.805   1.088   4.647 -0.3329  0.2820  0.5094
 4362SOL    HW124719   0.738   1.023   4.626  1.6654 -2.4007  2.4594
 4362SOL    HW224720   0.853   1.049   4.720 -1.6765 -1.8002  0.2815
 4363SOL     OW24721   1.294   3.311   7.084 -0.0947 -0.3014 -0.1564
 4363SOL    HW124722   1.277   3.394   7.128  0.3750  1.2095 -2.8381
 4363SOL    HW224723   1.315   3.263   7.164 -1.5903 -1.4577 -0.4555
 4364SOL     OW24724   2.208   1.340   7.586 -0.5662  0.0744  0.3987
 4364SOL    HW124725   2.226   1.277   7.655  2.7229 -0.0615 -0.6100
 4364SOL    HW224726   2.208   1.283   7.509  0.2366 -0.9377  1.1646
 4365SOL     OW24727   1.284   0.479   2.097  0.1484  0.6488  0.2783
 4365SOL    HW124728   1.365   0.490   2.047 -0.9389  2.3040 -1.1324
 4365SOL    HW224729   1.215   0.491   2.032 -1.0920 -1.4083  1.2038
 4366SOL     OW24730   1.660   3.948   3.376 -0.3975  0.1321  0.3236
 4366SOL    HW124731   1.615   4.000   3.442  0.0640 -0.6132  1.2334
 4366SOL    HW224732   1.591   3.934   3.311  0.9644  0.7113 -1.2207
 4367SOL     OW24733   1.466   2.241   2.017  0.3025  0.4642 -0.1608
 4367SOL    HW124734   1.387   2.273   2.060 -0.2669 -3.4547  1.7421
 4367SOL    HW224735   1.526   2.311   2.043 -0.3032  1.0197 -0.2738
 4368SOL     OW24736   0.372   1.306   9.674  0.0597 -0.1713 -0.0462
 4368SOL    HW124737   0.369   1.257   9.756  2.0865  0.5995  0.4959
 4368SOL    HW224738   0.421   1.386   9.691 -0.8014  0.5050 -0.7407
 4369SOL     OW24739   1.123   3.595   9.008 -0.4458  0.1966 -0.5486
 4369SOL    HW124740   1.101   3.687   9.023 -0.6839  0.2312 -1.1212
 4369SOL    HW224741   1.146   3.589   8.916  1.6152  2.5261 -0.1564
 4370SOL     OW24742   0.439   0.852   7.826  0.9311 -0.3724 -0.0368
 4370SOL    HW124743   0.481   0.815   7.904  1.1594  0.8674  0.4286
 4370SOL    HW224744   0.402   0.773   7.786  2.0688 -0.5490 -0.7564
 4371SOL     OW24745   3.620   2.548   2.553 -0.1064 -0.3384 -0.1482
 4371SOL    HW124746   3.694   2.577   2.606  1.0106  1.6394 -2.8014
 4371SOL    HW224747   3.557   2.614   2.580 -1.7694 -1.4813 -1.2417
 4372SOL     OW24748   2.629   4.261   6.322 -0.0959  0.9006  0.3790
 4372SOL    HW124749   2.703   4.255   6.261 -1.2931 -0.9181 -0.8631
 4372SOL    HW224750   2.668   4.229   6.403 -0.6144 -1.5145 -0.3136
 4373SOL     OW24751   0.946   2.845   3.576 -0.6926  0.2210 -0.5383
 4373SOL    HW124752   0.893   2.844   3.655 -1.3557  0.5729 -0.9774
 4373SOL    HW224753   0.993   2.926   3.594  1.7878 -1.3466  0.0926
 4374SOL     OW24754   1.317   0.065  14.251 -0.5842  0.2784 -0.1939
 4374SOL    HW124755   1.387   0.009  14.216 -1.2828 -0.5406 -0.2866
 4374SOL    HW224756   1.352   0.148  14.220  2.0428 -0.8127 -0.2056
 4375SOL     OW24757   2.602   1.453   3.596 -0.5711  0.4082 -0.5135
 4375SOL    HW124758   2.618   1.484   3.507  0.6104  5.3190  1.4281
 4375SOL    HW224759   2.510   1.429   3.585 -0.7960  1.2842 -0.5790
 4376SOL     OW24760   3.782   3.894  15.339  0.0241  0.4381 -0.3929
 4376SOL    HW124761   3.772   3.899  15.244 -2.6426 -1.7669 -0.2127
 4376SOL    HW224762   3.698   3.857  15.365 -0.0359  0.6886 -0.2342
 4377SOL     OW24763   3.997   1.845  17.261  0.0073 -0.5274 -0.4413
 4377SOL    HW124764   3.948   1.871  17.338 -0.8931 -1.0911 -0.8310
 4377SOL    HW224765   4.004   1.752  17.283 -2.7618  0.0495  2.8274
 4378SOL     OW24766   2.936   2.256   3.562  0.1531 -0.1696 -0.2910
 4378SOL    HW124767   2.873   2.328   3.561  0.1851 -0.1390 -0.1663
 4378SOL    HW224768   2.897   2.187   3.508 -0.2804 -2.0701  2.4353
 4379SOL     OW24769   2.791   0.511   3.863 -0.0219 -0.2245 -0.1466
 4379SOL    HW124770   2.815   0.464   3.943 -1.5158 -1.6679 -0.5312
 4379SOL    HW224771   2.695   0.506   3.870 -0.1003  0.8165 -0.5122
 4380SOL     OW24772   1.211   3.816   3.294  0.1963  0.0188 -0.2599
 4380SOL    HW124773   1.164   3.756   3.237  1.0274 -1.5751  0.7292
 4380SOL    HW224774   1.210   3.893   3.237 -2.7852  2.4937  3.0571
 4381SOL     OW24775   0.365   4.583   4.873 -0.2710 -0.0278  0.2725
 4381SOL    HW124776   0.319   4.509   4.912 -0.2373 -1.0977 -1.7483
 4381SOL    HW224777   0.293   4.635   4.836 -0.3658  0.2024  0.7746
 4382SOL     OW24778   4.154   3.702   3.961 -0.0687  0.0032 -0.1749
 4382SOL    HW124779   4.160   3.763   4.035 -1.5702  1.5813 -1.3697
 4382SOL    HW224780   4.062   3.684   3.944 -0.0462 -0.3675  0.0944
 4383SOL     OW24781   4.027   3.835   7.291 -0.1766  0.0506  0.0510
 4383SOL    HW124782   4.006   3.742   7.285 -1.4782  0.4184 -0.8783
 4383SOL    HW224783   3.975   3.846   7.371  0.3665  1.7076  0.1726
 4384SOL     OW24784   2.415   1.702   2.091 -0.1104  0.1560  0.4129
 4384SOL    HW124785   2.428   1.796   2.082 -2.1965  0.1917 -2.4117
 4384SOL    HW224786   2.474   1.668   2.024  0.5711  3.1535 -0.5304
 4385SOL     OW24787   3.556   3.552   7.265 -0.1857  0.2389  0.1224
 4385SOL    HW124788   3.518   3.629   7.306  1.3130  1.7604 -1.3358
 4385SOL    HW224789   3.571   3.488   7.334 -0.2800  1.2432  1.0792
 4386SOL     OW24790   0.670   2.783   2.906 -0.1758 -0.4101 -0.3188
 4386SOL    HW124791   0.655   2.814   2.996  0.1151  1.1874 -0.8140
 4386SOL    HW224792   0.722   2.706   2.929 -0.5424  0.0151  2.0041
 4387SOL     OW24793   1.497   1.089   1.605 -0.7141  0.7249 -0.2480
 4387SOL    HW124794   1.557   1.132   1.543 -0.3057  0.3029 -0.1498
 4387SOL    HW224795   1.492   1.004   1.561  2.4812 -0.2738  1.3132
 4388SOL     OW24796   4.449   1.206   6.162 -0.1386 -0.3947 -0.1998
 4388SOL    HW124797   4.510   1.180   6.231 -0.1583  0.9626  0.3337
 4388SOL    HW224798   4.513   1.263   6.120  0.2834 -0.9555 -0.3186
 4389SOL     OW24799   0.654   0.876  15.644 -0.2980 -0.2753 -0.3132
 4389SOL    HW124800   0.700   0.904  15.724  0.4185  1.4307 -1.3107
 4389SOL    HW224801   0.661   0.958  15.595  1.2110 -0.2003  0.0330
 4390SOL     OW24802   2.516   3.824  11.234 -0.0850  0.6855 -0.0679
 4390SOL    HW124803   2.564   3.786  11.161 -2.0279  0.5563 -1.2923
 4390SOL    HW224804   2.506   3.743  11.285  0.4053  0.6016 -0.1045
 4391SOL     OW24805   2.092   3.082   7.925  0.5993  0.0487  0.6500
 4391SOL    HW124806   2.044   3.015   7.974 -0.4191  0.4116  0.1615
 4391SOL    HW224807   2.026   3.112   7.863  1.9751  0.3883 -0.6404
 4392SOL     OW24808   2.831   2.317   6.409  0.4883  0.0188  0.0758
 4392SOL    HW124809   2.875   2.277   6.334 -0.5892 -1.0120 -0.0057
 4392SOL    HW224810   2.871   2.268   6.481 -0.2371 -1.6342 -0.6673
 4393SOL     OW24811   0.991   1.335   2.734 -0.0562  0.2560  0.3740
 4393SOL    HW124812   0.995   1.407   2.670 -0.1162 -0.0351  0.0444
 4393SOL    HW224813   1.010   1.386   2.813 -2.5212  2.3890 -0.4135
 4394SOL     OW24814   1.711   4.738   8.392 -0.1062  0.5907 -0.3607
 4394SOL    HW124815   1.751   0.082   8.365  0.4701  0.1657 -0.8131
 4394SOL    HW224816   1.780   4.695   8.441 -1.5632 -0.4058  0.7918
 4395SOL     OW24817   4.500   0.491   2.747  0.0043 -0.3088 -0.2426
 4395SOL    HW124818   4.569   0.518   2.808  0.2835 -1.4653 -0.0453
 4395SOL    HW224819   4.475   0.563   2.690 -2.1224 -0.6375  0.2466
 4396SOL     OW24820   1.847   2.596   9.413 -0.1015 -0.3915  0.2583
 4396SOL    HW124821   1.766   2.555   9.443 -0.7688  0.1822 -0.7501
 4396SOL    HW224822   1.904   2.532   9.455  0.9446  0.5493  0.2704
 4397SOL     OW24823   0.528   2.241  13.459  0.1135  0.3403 -0.0946
 4397SOL    HW124824   0.621   2.243  13.480  0.0772  2.0161 -0.0878
 4397SOL    HW224825   0.509   2.320  13.408 -1.2262 -0.0620 -0.2013
 4398SOL     OW24826   4.439   4.445   9.009  0.5012 -0.0345 -0.2408
 4398SOL    HW124827   4.432   4.540   9.018  0.7840 -0.1349  1.0800
 4398SOL    HW224828   4.346   4.425   8.994  0.5918  0.4772 -1.4422
 4399SOL     OW24829   4.546   3.136  15.647 -0.2451  0.0512  0.1557
 4399SOL    HW124830   4.597   3.131  15.728 -1.5480  0.9795  1.0294
 4399SOL    HW224831   4.473   3.081  15.677 -0.7154  0.6745  0.1538
 4400SOL     OW24832   1.067   2.840   2.901  0.3268  0.4730 -0.5071
 4400SOL    HW124833   1.123   2.900   2.949  2.4690 -1.8912 -0.0047
 4400SOL    HW224834   1.022   2.901   2.843  1.2755  0.3451 -1.3925
 4401SOL     OW24835   2.163   2.600   4.657 -0.4369 -0.0645 -0.2845
 4401SOL    HW124836   2.158   2.614   4.562 -0.9092  0.5153 -0.1681
 4401SOL    HW224837   2.103   2.670   4.683 -0.9969 -0.1554 -1.3157
 4402SOL     OW24838   2.774   1.651   4.798  0.2604 -0.1479  0.1675
 4402SOL    HW124839   2.761   1.663   4.892  1.7404 -0.4174  0.4081
 4402SOL    HW224840   2.830   1.574   4.803  0.0606 -0.4185 -1.6429
 4403SOL     OW24841   2.617   4.571   8.606 -0.2083  0.1093 -0.4106
 4403SOL    HW124842   2.609   4.584   8.701 -0.2747 -1.3316 -0.2188
 4403SOL    HW224843   2.581   4.483   8.596 -0.8317  0.3712 -0.4526
 4404SOL     OW24844   0.753   0.250   0.551  0.5135 -0.0451 -0.4380
 4404SOL    HW124845   0.680   0.303   0.520  0.2668  0.2351  0.6130
 4404SOL    HW224846   0.826   0.306   0.524 -0.8456  1.3816 -1.1695
 4405SOL     OW24847   1.342   1.877   7.138  0.2277  0.4878  0.1202
 4405SOL    HW124848   1.433   1.847   7.143 -0.4952 -1.3390  2.0257
 4405SOL    HW224849   1.348   1.972   7.123 -0.6586  0.7524  1.4738
 4406SOL     OW24850   3.160   2.756  14.958  0.6741  0.1340  0.6465
 4406SOL    HW124851   3.085   2.705  14.927  0.1039 -0.1410  2.4551
 4406SOL    HW224852   3.131   2.845  14.937  2.3612  1.0534  2.2449
 4407SOL     OW24853   0.312   4.288   4.000 -0.5369  0.1465 -0.3487
 4407SOL    HW124854   0.220   4.291   3.975 -0.5436  0.8731 -0.2396
 4407SOL    HW224855   0.316   4.368   4.053 -0.1005  1.0965 -1.8097
 4408SOL     OW24856   4.738   2.695   0.731 -0.0604 -0.3912  0.0913
 4408SOL    HW124857   0.009   2.712   0.825 -2.4297 -1.0358  0.4496
 4408SOL    HW224858   0.015   2.600   0.729  1.7377 -0.0920  0.0531
 4409SOL     OW24859   2.560   4.573   4.238 -0.0857 -0.1155  0.1159
 4409SOL    HW124860   2.547   4.502   4.176  1.7885 -0.6626  0.3428
 4409SOL    HW224861   2.557   4.653   4.185 -3.0334 -0.6296 -0.5096
 4410SOL     OW24862   4.458   1.217  12.858  0.2736  0.8192  0.6291
 4410SOL    HW124863   4.378   1.171  12.834  1.4867  0.5601 -2.9381
 4410SOL    HW224864   4.441   1.257  12.943 -1.6642 -1.1087  1.1305
 4411SOL     OW24865   2.335   4.489   3.871  0.1899  0.0268 -0.0977
 4411SOL    HW124866   2.385   4.434   3.932  1.1058  4.3200  3.0201
 4411SOL    HW224867   2.280   4.422   3.830  0.5318 -1.4913  1.9028
 4412SOL     OW24868   3.113   2.728   8.420  0.0058 -0.3883 -0.2459
 4412SOL    HW124869   3.054   2.654   8.432  1.0957 -1.2599 -0.2367
 4412SOL    HW224870   3.198   2.685   8.408 -0.4764 -0.6052 -2.9075
 4413SOL     OW24871   0.041   3.068   6.711  0.5914 -0.2100  0.0593
 4413SOL    HW124872   0.046   2.984   6.757 -0.1757  0.0359  0.5814
 4413SOL    HW224873   4.686   3.073   6.696  1.0134 -1.2508 -3.0400
 4414SOL     OW24874   2.332   4.341   7.634  0.4664 -0.2279  0.4290
 4414SOL    HW124875   2.325   4.436   7.641  0.3728 -0.1640 -0.4658
 4414SOL    HW224876   2.242   4.307   7.629  0.1448  0.6028  0.5569
 4415SOL     OW24877   2.703   4.564   5.522 -0.0196  0.1677 -0.2235
 4415SOL    HW124878   2.680   4.478   5.486  0.4575 -0.0644  0.0313
 4415SOL    HW224879   2.670   4.557   5.612 -0.1120 -2.6510 -0.4866
 4416SOL     OW24880   1.342   0.314   0.220 -0.0316  0.0860 -0.0962
 4416SOL    HW124881   1.391   0.330   0.140  1.1894  3.1967  1.2567
 4416SOL    HW224882   1.260   0.363   0.214 -0.0984  0.0540  0.5504
 4417SOL     OW24883   1.195   0.956  10.270 -0.5222  0.2439 -0.3761
 4417SOL    HW124884   1.266   0.912  10.222 -0.3320  0.6641 -0.4761
 4417SOL    HW224885   1.184   1.044  10.233 -0.1934  0.9099  1.1167
 4418SOL     OW24886   1.310   3.781   7.793  0.3959  0.2579 -0.1833
 4418SOL    HW124887   1.269   3.828   7.720 -1.6915 -0.0414  0.7965
 4418SOL    HW224888   1.349   3.707   7.747  1.7978 -0.1170  1.6207
 4419SOL     OW24889   0.932   4.592  15.957 -0.3988  0.3409 -0.0331
 4419SOL    HW124890   0.949   4.653  15.885 -0.1670  1.2312  0.7721
 4419SOL    HW224891   0.845   4.628  15.972 -1.5682 -1.8364 -1.6256
 4420SOL     OW24892   4.582   2.108   5.495 -0.7802 -0.3042 -0.1365
 4420SOL    HW124893   4.625   2.132   5.577  0.1030 -0.9095 -0.4226
 4420SOL    HW224894   4.521   2.181   5.485  0.5863  0.8906  0.1416
 4421SOL     OW24895   2.284   0.579  11.480 -0.7004  0.4072 -0.2077
 4421SOL    HW124896   2.278   0.526  11.400 -0.9300 -1.3662  0.9790
 4421SOL    HW224897   2.377   0.595  11.489 -0.4400  0.5050 -2.9964
 4422SOL     OW24898   1.144   1.201  10.182 -0.3007  0.2892  0.0829
 4422SOL    HW124899   1.054   1.219  10.210  0.1383  0.8674  1.0880
 4422SOL    HW224900   1.163   1.294  10.169 -1.1749  0.4028 -0.4059
 4423SOL     OW24901   3.515   1.324  14.723  0.6993  0.7048  0.1974
 4423SOL    HW124902   3.605   1.292  14.727 -0.5792 -3.3160 -3.4231
 4423SOL    HW224903   3.485   1.323  14.632  2.9170  0.8215 -0.5230
 4424SOL     OW24904   3.049   1.485  14.939  0.3799 -0.4807 -0.2220
 4424SOL    HW124905   3.109   1.427  14.892  0.9857  0.1874 -0.2612
 4424SOL    HW224906   3.068   1.454  15.028 -1.8130  0.0746  0.4514
 4425SOL     OW24907   4.701   0.986   7.895  0.4376 -0.7918  0.2452
 4425SOL    HW124908   4.717   1.053   7.962  1.3268 -0.9193  0.1604
 4425SOL    HW224909   0.003   1.025   7.818 -0.1078 -1.7217 -0.5032
 4426SOL     OW24910   3.086   2.684   7.119 -0.5092 -0.3871  0.0386
 4426SOL    HW124911   3.127   2.768   7.138  0.4167 -0.8743  0.2171
 4426SOL    HW224912   2.993   2.700   7.109 -0.4431  1.6718  2.8862
 4427SOL     OW24913   2.108   1.215   5.133  0.4509  0.2606  0.5392
 4427SOL    HW124914   2.081   1.248   5.047  2.7467 -2.0574 -1.0665
 4427SOL    HW224915   2.028   1.173   5.164 -0.4322 -0.1009 -2.2514
 4428SOL     OW24916   2.403   2.826  16.546  0.3502 -0.4877  0.6063
 4428SOL    HW124917   2.478   2.845  16.489 -0.7557  3.9069  0.6428
 4428SOL    HW224918   2.437   2.755  16.601  0.5790  1.7892  3.4009
 4429SOL     OW24919   2.388   0.425  15.165  0.1084 -0.1636  0.3766
 4429SOL    HW124920   2.327   0.489  15.129 -0.4207 -1.3299 -0.7869
 4429SOL    HW224921   2.419   0.455  15.250 -1.4636  1.0751  0.5060
 4430SOL     OW24922   1.526   2.094   1.463 -0.2753  0.1863  0.1536
 4430SOL    HW124923   1.491   2.045   1.538  1.7351 -0.8787  0.3739
 4430SOL    HW224924   1.613   2.119   1.494 -0.7882  1.5979  0.4980
 4431SOL     OW24925   3.451   1.570  16.829 -0.2049  0.3362  0.6714
 4431SOL    HW124926   3.423   1.591  16.740  2.3635  2.0874  0.2520
 4431SOL    HW224927   3.524   1.508  16.818  0.0471  0.6895  0.3484
 4432SOL     OW24928   4.240   0.318  13.264  0.1973 -0.1098  0.2623
 4432SOL    HW124929   4.185   0.375  13.318 -1.3923 -1.3912  0.0048
 4432SOL    HW224930   4.184   0.297  13.189  1.0926  0.5873 -0.5990
 4433SOL     OW24931   0.727   3.038   7.272  0.4506 -0.3487 -0.3554
 4433SOL    HW124932   0.698   2.947   7.277  1.0457 -0.5246 -0.0790
 4433SOL    HW224933   0.782   3.028   7.195  0.4268  1.4660 -0.6176
 4434SOL     OW24934   1.545   0.625   7.232 -0.4728 -0.7713  0.2463
 4434SOL    HW124935   1.470   0.684   7.222  1.0125  1.3389  1.4578
 4434SOL    HW224936   1.616   0.687   7.214 -0.8657 -0.8817 -1.6428
 4435SOL     OW24937   3.740   0.701  16.226 -0.3066 -0.4357 -0.1391
 4435SOL    HW124938   3.665   0.715  16.167 -0.5112  1.0881  0.4718
 4435SOL    HW224939   3.817   0.698  16.169 -1.3690  0.6709 -1.6303
 4436SOL     OW24940   3.003   2.947   7.375 -0.5849 -0.5610 -0.0982
 4436SOL    HW124941   3.061   2.871   7.384  1.4416  0.8517 -1.2900
 4436SOL    HW224942   2.926   2.915   7.422 -0.7526 -2.3088 -1.5845
 4437SOL     OW24943   4.400   0.659   3.362  0.0216 -0.3893  0.1960
 4437SOL    HW124944   4.314   0.648   3.321  0.0182 -0.7594  0.3037
 4437SOL    HW224945   4.434   0.570   3.373  1.2563  0.3292  2.2335
 4438SOL     OW24946   2.499   1.974   6.138  0.1896  0.0996 -0.6975
 4438SOL    HW124947   2.543   1.994   6.220 -2.7460  1.7061  0.5108
 4438SOL    HW224948   2.536   1.888   6.119  2.6973  0.4317  2.6216
 4439SOL     OW24949   2.164   4.450   8.065  0.5247 -0.6472  0.0750
 4439SOL    HW124950   2.179   4.509   7.990  0.4293  0.2352  0.7529
 4439SOL    HW224951   2.070   4.459   8.077  0.5188 -2.2070  1.1413
 4440SOL     OW24952   1.511   2.103   4.533  0.1410  0.1434  0.2123
 4440SOL    HW124953   1.476   2.014   4.529 -0.3443  0.4686 -2.9786
 4440SOL    HW224954   1.442   2.148   4.484 -1.0597  2.6801  4.2542
 4441SOL     OW24955   2.441   1.433  10.000  0.3195 -0.1832 -0.1307
 4441SOL    HW124956   2.400   1.454  10.084  0.1717 -2.5538  0.3852
 4441SOL    HW224957   2.525   1.475  10.020  1.0741 -2.1888  0.9369
 4442SOL     OW24958   2.281   1.125  10.084  0.1834  0.2920 -0.6813
 4442SOL    HW124959   2.289   1.117   9.989 -0.6036 -1.6770 -0.5832
 4442SOL    HW224960   2.226   1.049  10.104  1.0137  0.2696  1.5124
 4443SOL     OW24961   0.365   1.579   3.190 -0.4139  0.1422  0.1973
 4443SOL    HW124962   0.289   1.570   3.133  0.2024 -1.4278 -0.3672
 4443SOL    HW224963   0.339   1.513   3.254  3.9251 -2.5433 -0.8395
 4444SOL     OW24964   0.387   0.175   4.592  0.9133  0.0529  0.0028
 4444SOL    HW124965   0.311   0.118   4.602  0.8083 -0.0789 -1.5927
 4444SOL    HW224966   0.367   0.235   4.665  0.3707  0.4282 -0.4562
 4445SOL     OW24967   0.872   2.972   7.546 -0.0520 -0.0871  0.1364
 4445SOL    HW124968   0.799   2.917   7.574  1.0070 -2.5669 -1.9371
 4445SOL    HW224969   0.830   3.057   7.530 -1.3564 -1.1923 -2.2653
 4446SOL     OW24970   0.196   1.182   6.604  0.5120 -0.2984 -0.1385
 4446SOL    HW124971   0.167   1.098   6.568 -0.9737 -1.0725  2.8247
 4446SOL    HW224972   0.289   1.187   6.584  0.8448 -2.7128  0.7500
 4447SOL     OW24973   1.576   2.100  16.537 -0.9556 -0.2079  0.4685
 4447SOL    HW124974   1.499   2.107  16.481  1.4044 -1.8698 -3.0310
 4447SOL    HW224975   1.631   2.038  16.488 -2.3065  0.4609 -1.8747
 4448SOL     OW24976   3.520   0.873   4.142 -0.6263  0.0353 -0.1336
 4448SOL    HW124977   3.547   0.817   4.068 -0.3454  2.2225 -1.6802
 4448SOL    HW224978   3.508   0.806   4.209  2.4482 -1.1312 -0.7463
 4449SOL     OW24979   2.669   1.345   0.855 -0.3726 -0.0111 -0.2080
 4449SOL    HW124980   2.668   1.368   0.947  1.4528 -3.1064  0.5967
 4449SOL    HW224981   2.738   1.387   0.804  0.1850 -0.2360  0.3708
 4450SOL     OW24982   3.149   2.683   6.791  0.1614  0.4036 -0.5167
 4450SOL    HW124983   3.232   2.711   6.830 -2.5133  2.5685  3.5752
 4450SOL    HW224984   3.116   2.640   6.870  0.6634  0.4676 -0.2743
 4451SOL     OW24985   2.444   3.713   1.958 -0.0378  0.4282 -0.1359
 4451SOL    HW124986   2.370   3.678   1.909  0.8090  0.1352 -1.2224
 4451SOL    HW224987   2.414   3.803   1.945 -1.6647 -0.4893 -2.7335
 4452SOL     OW24988   4.584   3.607  13.616 -0.5031 -0.0452  0.2571
 4452SOL    HW124989   4.560   3.589  13.707 -1.3757 -1.0283 -0.1618
 4452SOL    HW224990   4.664   3.653  13.640  0.1405 -1.7355  1.3220
 4453SOL     OW24991   2.238   3.858   7.432  0.1599  0.5447  0.0238
 4453SOL    HW124992   2.243   3.848   7.527 -2.3567 -0.7643  0.0192
 4453SOL    HW224993   2.267   3.949   7.424 -2.1421  1.3641  1.1166
 4454SOL     OW24994   4.213   1.331   8.126  0.0476 -0.5648  0.0583
 4454SOL    HW124995   4.271   1.399   8.162 -2.3326  0.0558  2.7382
 4454SOL    HW224996   4.144   1.390   8.095  1.0690  0.9608  0.7199
 4455SOL     OW24997   3.681   2.892   8.940  0.2241 -0.3732  0.0295
 4455SOL    HW124998   3.633   2.908   9.021 -0.8334  2.6602 -1.1560
 4455SOL    HW224999   3.697   2.799   8.950  1.4731 -0.2447 -0.7516
 4456SOL     OW25000   4.416   2.027   1.582  0.3280  0.1101  0.2199
 4456SOL    HW125001   4.320   2.024   1.588  0.2095  1.3149 -1.0580
 4456SOL    HW225002   4.438   1.960   1.518  0.1362  1.2458 -1.0475
 4457SOL     OW25003   4.239   3.310  16.000  0.3062 -0.1953 -0.5998
 4457SOL    HW125004   4.216   3.366  15.925  3.4372  1.5964 -0.2134
 4457SOL    HW225005   4.235   3.368  16.076 -0.9164 -0.6385 -0.3275
 4458SOL     OW25006   0.278   0.819  16.537 -0.1977  0.1989  0.5061
 4458SOL    HW125007   0.208   0.755  16.551 -0.1124 -0.6562 -2.9597
 4458SOL    HW225008   0.240   0.887  16.482 -1.4595 -0.5866  0.4021
 4459SOL     OW25009   1.954   1.201  10.237 -0.2817  0.7426 -0.2199
 4459SOL    HW125010   1.955   1.282  10.288 -2.3636  1.2126 -0.9445
 4459SOL    HW225011   1.999   1.134  10.288 -1.6024 -0.6112 -0.8471
 4460SOL     OW25012   0.859   1.648   7.686 -0.0715  0.1067 -0.3490
 4460SOL    HW125013   0.791   1.581   7.673  1.2308 -1.3233  0.2158
 4460SOL    HW225014   0.944   1.607   7.669  0.5685  1.0601  0.5717
 4461SOL     OW25015   3.018   1.899  12.568 -0.1929  0.5803 -0.2854
 4461SOL    HW125016   3.042   1.982  12.611  2.1999  0.1380 -0.8164
 4461SOL    HW225017   2.946   1.875  12.627 -1.1523  1.2968 -1.1628
 4462SOL     OW25018   0.097   2.935  12.470 -0.4134  0.0058 -0.0158
 4462SOL    HW125019   0.046   2.957  12.392 -1.1109 -0.0076  0.4404
 4462SOL    HW225020   0.032   2.972  12.529  1.0050  1.3248  0.7042
 4463SOL     OW25021   4.711   3.436   5.185  0.3332 -0.2096 -0.4295
 4463SOL    HW125022   4.630   3.388   5.173  0.7019 -0.5420 -1.5850
 4463SOL    HW225023   0.018   3.409   5.106  0.6444  0.5781 -0.5270
 4464SOL     OW25024   2.689   0.473   5.642 -0.8315 -0.0888  0.2558
 4464SOL    HW125025   2.661   0.384   5.624 -2.6932  0.6853 -0.6831
 4464SOL    HW225026   2.782   0.472   5.622 -0.5276  1.0396  1.5302
 4465SOL     OW25027   3.434   2.551   3.567 -0.6816  0.7314 -0.3449
 4465SOL    HW125028   3.369   2.481   3.577  1.1107 -0.8228  0.3838
 4465SOL    HW225029   3.449   2.575   3.658  1.9384 -4.4559  0.5699
 4466SOL     OW25030   0.467   4.306  16.833  0.7390  0.1078  0.4015
 4466SOL    HW125031   0.449   4.240  16.899  0.9769 -2.4669 -2.1075
 4466SOL    HW225032   0.548   4.343  16.868  1.0954  0.6913 -1.0092
 4467SOL     OW25033   2.153   1.588  11.185 -0.2593 -0.4427  0.0175
 4467SOL    HW125034   2.143   1.504  11.229 -1.4859  0.3886  1.3258
 4467SOL    HW225035   2.239   1.572  11.145  0.8992  0.0189  2.3141
 4468SOL     OW25036   1.485   4.555   7.941 -0.5591  0.2612 -0.1959
 4468SOL    HW125037   1.400   4.590   7.915 -1.3564 -2.9286 -1.9771
 4468SOL    HW225038   1.524   4.632   7.982  0.8115 -1.2350  1.3242
 4469SOL     OW25039   2.618   0.759  14.643 -0.1193 -0.2037 -0.0690
 4469SOL    HW125040   2.577   0.762  14.729 -0.1569  1.1736 -0.1380
 4469SOL    HW225041   2.574   0.684  14.604 -0.0236 -0.5732  0.5388
 4470SOL     OW25042   4.542   1.463  11.432 -0.3547  0.3121  0.1822
 4470SOL    HW125043   4.535   1.417  11.349  1.8802  2.5489 -1.2389
 4470SOL    HW225044   4.485   1.538  11.420 -0.7035 -0.0297 -0.2633
 4471SOL     OW25045   3.350   1.335  11.648  0.1575 -0.1483  0.4268
 4471SOL    HW125046   3.306   1.272  11.591 -0.7816 -0.2975  1.3028
 4471SOL    HW225047   3.321   1.307  11.735 -0.5194  0.9165  0.5425
 4472SOL     OW25048   3.591   0.842  11.911  0.6467 -0.2477 -0.1444
 4472SOL    HW125049   3.583   0.935  11.891 -2.1883 -0.3956  0.2553
 4472SOL    HW225050   3.520   0.834  11.975  0.1239 -2.9190 -1.0550
 4473SOL     OW25051   3.176   4.559   7.668 -0.5694  0.2098  0.7004
 4473SOL    HW125052   3.138   4.493   7.726 -1.7454  0.9746  0.8052
 4473SOL    HW225053   3.234   4.601   7.731 -1.9732  1.2424  1.3022
 4474SOL     OW25054   1.124   3.529   1.734 -0.4022 -0.4145 -0.2900
 4474SOL    HW125055   1.165   3.462   1.789 -0.7926  0.0639  0.5737
 4474SOL    HW225056   1.070   3.576   1.797  0.4489 -0.2057  0.2803
 4475SOL     OW25057   0.302   0.397   2.399  0.2629 -0.0570  0.0359
 4475SOL    HW125058   0.298   0.322   2.339  2.5051  0.3570 -0.5976
 4475SOL    HW225059   0.326   0.457   2.328  1.1376  0.5667  0.8646
 4476SOL     OW25060   2.161   1.103   7.391  0.3632  0.1281 -1.1237
 4476SOL    HW125061   2.115   1.055   7.459  1.8973  0.6442  0.2770
 4476SOL    HW225062   2.099   1.083   7.321  0.0401  1.7252 -1.3029
 4477SOL     OW25063   1.798   4.068   3.610  0.1384  0.6826 -0.3783
 4477SOL    HW125064   1.861   4.025   3.552  0.1879 -0.3267  0.4260
 4477SOL    HW225065   1.735   4.106   3.549  1.0410  0.8807 -1.1901
 4478SOL     OW25066   1.133   1.371   3.368 -0.2993 -0.2239 -0.0693
 4478SOL    HW125067   1.043   1.404   3.364  0.0914  1.0564  1.6553
 4478SOL    HW225068   1.138   1.276   3.370 -2.1530 -0.2782  2.4978
 4479SOL     OW25069   1.281   4.560   8.821 -0.1528  0.0024 -0.4125
 4479SOL    HW125070   1.335   4.571   8.900 -2.8126  0.9529  1.2788
 4479SOL    HW225071   1.324   4.490   8.772  0.9217  0.2536  0.1757
 4480SOL     OW25072   1.014   1.576   2.623 -0.3399  0.3092  0.1990
 4480SOL    HW125073   1.059   1.652   2.587  0.2147 -0.3829 -0.5494
 4480SOL    HW225074   0.936   1.617   2.661  0.5607  3.1699 -1.0483
 4481SOL     OW25075   0.338   3.682   4.984  0.2207  0.7541 -0.5398
 4481SOL    HW125076   0.274   3.635   4.931  0.6256  1.7599 -1.9255
 4481SOL    HW225077   0.336   3.632   5.066 -1.4375  1.3184 -0.2361
 4482SOL     OW25078   1.959   4.208   9.325 -0.1855  0.8287  0.1172
 4482SOL    HW125079   1.887   4.270   9.336 -0.0201  0.7485  1.5458
 4482SOL    HW225080   1.954   4.161   9.408 -0.8051 -1.2895 -1.1301
 4483SOL     OW25081   4.051   3.547   8.430  0.0517 -0.1509 -0.2043
 4483SOL    HW125082   3.994   3.595   8.370 -2.3665  0.6050  2.7199
 4483SOL    HW225083   4.110   3.608   8.475 -0.2799 -0.4549  0.6546
 4484SOL     OW25084   4.046   4.696  14.780  0.5879 -0.1002 -0.2031
 4484SOL    HW125085   4.103   4.720  14.853 -0.7818 -1.4386  1.3289
 4484SOL    HW225086   3.993   4.623  14.815 -0.9526  0.5756 -1.1310
 4485SOL     OW25087   1.969   0.485   3.759 -0.1311  0.2166 -0.4466
 4485SOL    HW125088   2.016   0.538   3.824 -0.4255 -0.0795  0.0065
 4485SOL    HW225089   1.937   0.409   3.808 -0.4842 -2.9130 -5.5646
 4486SOL     OW25090   0.561   2.538   3.168  0.4542 -0.0021 -0.2486
 4486SOL    HW125091   0.471   2.548   3.197  0.9769 -1.3894  1.8460
 4486SOL    HW225092   0.559   2.444   3.151  0.9848 -0.0736  0.0740
 4487SOL     OW25093   0.361   2.338  16.346  0.0818 -0.3903 -0.6787
 4487SOL    HW125094   0.287   2.375  16.393 -0.6240 -1.1575 -1.1933
 4487SOL    HW225095   0.414   2.416  16.324 -1.4207  0.5164 -1.0678
 4488SOL     OW25096   3.075   0.515   7.082  0.1709  0.2070 -0.2246
 4488SOL    HW125097   3.061   0.422   7.061  3.1323 -0.1966 -0.3552
 4488SOL    HW225098   3.024   0.519   7.163 -0.7714 -1.4858 -0.7318
 4489SOL     OW25099   0.793   3.373   2.264  0.3175  0.3526  0.3836
 4489SOL    HW125100   0.819   3.403   2.351 -0.8501 -0.9986  1.2019
 4489SOL    HW225101   0.717   3.318   2.283 -0.7701  1.9459  0.5970
 4490SOL     OW25102   1.026   4.272   2.753  0.3036 -0.0837 -0.3077
 4490SOL    HW125103   1.112   4.235   2.774 -0.3802 -0.6044  1.5999
 4490SOL    HW225104   1.047   4.366   2.761 -0.5853  0.3517 -3.2318
 4491SOL     OW25105   0.156   0.308  11.347 -0.4255 -0.0778 -0.3747
 4491SOL    HW125106   0.092   0.378  11.357  1.4353  1.9030 -2.1573
 4491SOL    HW225107   0.117   0.254  11.416 -1.0067  0.7428 -0.0658
 4492SOL     OW25108   2.678   3.264   5.171 -0.0447  0.4139 -0.1405
 4492SOL    HW125109   2.618   3.260   5.245 -0.2477 -3.7208 -0.4993
 4492SOL    HW225110   2.684   3.356   5.147 -1.2926  0.1550 -1.5310
 4493SOL     OW25111   0.440   3.510  12.235  0.8278  0.0677  0.0594
 4493SOL    HW125112   0.377   3.482  12.167 -0.0894  1.4086  0.3531
 4493SOL    HW225113   0.493   3.431  12.238  0.1053 -0.4430 -0.3180
 4494SOL     OW25114   0.052   1.817   2.875  0.0129 -0.0470  0.1647
 4494SOL    HW125115   0.079   1.813   2.784 -4.7196  1.2483 -1.2746
 4494SOL    HW225116   4.702   1.782   2.865  0.8942 -2.0094 -0.9011
 4495SOL     OW25117   2.296   1.701   7.287  0.6455  0.0742 -0.2595
 4495SOL    HW125118   2.337   1.644   7.352  2.2475  0.6246 -0.8012
 4495SOL    HW225119   2.368   1.736   7.234  0.9169  0.5510  0.4311
 4496SOL     OW25120   2.334   2.503  10.988 -0.5838 -0.4425 -0.0823
 4496SOL    HW125121   2.371   2.584  10.951  2.1372 -1.9124 -0.5095
 4496SOL    HW225122   2.374   2.434  10.935  1.0856 -0.6338  1.4488
 4497SOL     OW25123   4.469   3.775   6.431 -0.2292  0.5506 -0.6002
 4497SOL    HW125124   4.536   3.826   6.387 -0.9387 -0.7898 -3.2299
 4497SOL    HW225125   4.505   3.689   6.411 -1.0982  0.2803 -1.0229
 4498SOL     OW25126   1.311   3.206   1.548 -0.1926  0.4189 -0.4602
 4498SOL    HW125127   1.232   3.234   1.501 -1.4210 -2.3117 -0.0247
 4498SOL    HW225128   1.270   3.139   1.603  1.3860  0.7658  1.1463
 4499SOL     OW25129   0.930   0.906   8.324  0.1184 -0.4004 -0.0919
 4499SOL    HW125130   0.914   0.892   8.417  1.2591  0.0476  0.1736
 4499SOL    HW225131   1.010   0.959   8.326 -1.7211  2.3871 -0.8630
 4500SOL     OW25132   1.300   1.523   5.917 -0.2606 -0.2333 -0.2354
 4500SOL    HW125133   1.314   1.614   5.942 -1.4552 -0.2285  0.3836
 4500SOL    HW225134   1.206   1.516   5.932 -0.5705  0.9943 -1.5224
 4501SOL     OW25135   1.292   2.627  16.901  0.0842  0.4909 -0.5013
 4501SOL    HW125136   1.326   2.717  16.897 -0.7261  0.8884  1.5395
 4501SOL    HW225137   1.345   2.591  16.830 -1.1071  1.0239 -1.6656
 4502SOL     OW25138   0.725   1.271   9.676 -0.1782 -0.0665 -0.4416
 4502SOL    HW125139   0.686   1.255   9.762  0.2594  1.9733  0.1389
 4502SOL    HW225140   0.731   1.187   9.631 -1.6722 -0.3757 -0.0536
 4503SOL     OW25141   0.002   3.295   2.906  0.3090  0.2767  0.6922
 4503SOL    HW125142   0.043   3.257   2.829  1.3762  1.3754  0.7277
 4503SOL    HW225143   0.073   3.353   2.933  2.4997 -0.9722 -2.5177
 4504SOL     OW25144   0.298   0.975   5.997  0.7087 -0.0537 -1.1245
 4504SOL    HW125145   0.212   0.940   6.019  1.1362 -0.3676  0.0474
 4504SOL    HW225146   0.345   0.961   6.079 -2.2671 -1.5618  0.3013
 4505SOL     OW25147   3.443   3.197   3.528 -0.1556  0.2710  0.1311
 4505SOL    HW125148   3.452   3.291   3.511 -0.8568  0.4249  0.6200
 4505SOL    HW225149   3.382   3.162   3.463 -0.1402 -0.8063  0.7086
 4506SOL     OW25150   3.903   1.736  11.864  0.0179 -0.6198 -0.1129
 4506SOL    HW125151   3.960   1.755  11.790 -0.0527  2.8889  0.7543
 4506SOL    HW225152   3.965   1.744  11.936 -0.3238  0.7989  0.0177
 4507SOL     OW25153   1.651   2.481   5.130 -0.5832  0.3310  0.3177
 4507SOL    HW125154   1.626   2.398   5.170 -0.2916  0.0272 -0.1291
 4507SOL    HW225155   1.685   2.447   5.047 -0.2966  1.4726 -0.0354
 4508SOL     OW25156   1.960   1.113  17.605  0.0272 -0.0066 -0.3098
 4508SOL    HW125157   1.884   1.059  17.625  1.2159 -0.6601  2.4224
 4508SOL    HW225158   1.926   1.174  17.540 -1.4677 -0.6946 -0.1808
 4509SOL     OW25159   2.247   2.880   0.153 -0.6315  0.2616 -0.1222
 4509SOL    HW125160   2.165   2.905   0.195 -0.8453  0.2094 -0.5064
 4509SOL    HW225161   2.246   2.788   0.177 -1.0614  0.9108  2.3525
 4510SOL     OW25162   4.606   0.384   4.936  0.2070 -0.3517  0.1811
 4510SOL    HW125163   4.638   0.404   4.849 -1.5831  3.0648  0.3501
 4510SOL    HW225164   4.521   0.346   4.914  0.2880 -0.3735 -0.0952
 4511SOL     OW25165   3.566   1.743   3.112 -0.5830  0.0814 -0.3193
 4511SOL    HW125166   3.598   1.744   3.202 -0.7101  3.3897 -0.2924
 4511SOL    HW225167   3.651   1.773   3.079 -1.1180  1.2868 -0.6299
 4512SOL     OW25168   3.410   3.751  10.569 -0.0424  0.2501  0.4861
 4512SOL    HW125169   3.379   3.677  10.517  0.0070  0.7678 -0.2862
 4512SOL    HW225170   3.333   3.807  10.558  1.1934  1.7015 -0.7327
 4513SOL     OW25171   1.552   0.642  15.148  0.2364 -0.3206  0.2914
 4513SOL    HW125172   1.472   0.593  15.163 -0.2311  0.9704  2.0796
 4513SOL    HW225173   1.616   0.580  15.184  0.8888  0.2944  0.1856
 4514SOL     OW25174   1.020   3.563   0.571 -0.0094  0.1045  0.0138
 4514SOL    HW125175   1.062   3.640   0.610  1.8064 -0.2000 -1.3629
 4514SOL    HW225176   0.964   3.607   0.507 -0.2435 -2.0543 -1.2684
 4515SOL     OW25177   3.972   1.607   8.850 -0.3979 -0.1008 -0.0663
 4515SOL    HW125178   4.026   1.609   8.771 -0.4436  1.5343 -0.0488
 4515SOL    HW225179   3.897   1.557   8.816  0.7309 -3.1182  1.8262
 4516SOL     OW25180   0.048   4.137   3.963  0.1202 -0.4931 -0.3180
 4516SOL    HW125181   4.737   4.058   3.979 -0.5242 -0.1505 -0.6397
 4516SOL    HW225182   0.028   4.155   3.871 -0.4067 -1.5899 -0.4159
 4517SOL     OW25183   4.510   0.095   3.335  0.8178 -0.4121  0.1899
 4517SOL    HW125184   4.473   0.007   3.337  2.4142 -1.1146 -1.3300
 4517SOL    HW225185   4.533   0.111   3.244  0.0408 -1.8769 -0.2596
 4518SOL     OW25186   2.959   3.996   2.471  0.7877 -0.2192  0.0341
 4518SOL    HW125187   2.888   3.951   2.425  0.3893  0.2027  0.2320
 4518SOL    HW225188   3.006   3.925   2.515  1.9139 -0.4560 -1.5600
 4519SOL     OW25189   1.120   0.739   7.266  0.1131  0.3385 -0.5551
 4519SOL    HW125190   1.058   0.732   7.194 -0.6571  0.2831  0.1203
 4519SOL    HW225191   1.131   0.645   7.285 -0.2632  0.0571 -1.7280
 4520SOL     OW25192   2.157   1.142   6.785  0.0589  0.3237  0.0748
 4520SOL    HW125193   2.176   1.212   6.722 -0.2331 -0.0009 -0.3812
 4520SOL    HW225194   2.078   1.183   6.820 -0.2420  1.0112 -1.3833
 4521SOL     OW25195   4.412   3.719   7.186  0.1373 -0.0047  0.0466
 4521SOL    HW125196   4.489   3.665   7.169 -1.7966 -2.7807 -0.0112
 4521SOL    HW225197   4.358   3.652   7.229 -1.7128  0.9402 -0.7849
 4522SOL     OW25198   0.236   2.438  12.112  0.0277  0.1655 -0.2893
 4522SOL    HW125199   0.259   2.363  12.166  2.1206  0.6307 -0.5468
 4522SOL    HW225200   0.321   2.481  12.110 -0.1252  0.5714  1.7077
 4523SOL     OW25201   3.628   0.593   2.154 -0.0824  0.2457 -0.1201
 4523SOL    HW125202   3.595   0.645   2.081 -0.5130 -1.1438 -0.9082
 4523SOL    HW225203   3.697   0.538   2.118 -0.2577  0.7586 -1.2365
 4524SOL     OW25204   2.666   4.393  10.765  0.3218 -0.3935  0.2873
 4524SOL    HW125205   2.691   4.356  10.849 -0.7694 -0.7482  0.4534
 4524SOL    HW225206   2.571   4.379  10.760  0.2841 -0.6911  2.1224
 4525SOL     OW25207   2.070   4.447   9.615  0.6861  0.5776  0.5424
 4525SOL    HW125208   2.063   4.430   9.710  0.8777  2.7150  0.9311
 4525SOL    HW225209   2.020   4.379   9.570  2.4115  0.5459 -1.3369
 4526SOL     OW25210   3.563   2.093   9.507 -0.1230  0.3787  0.0260
 4526SOL    HW125211   3.653   2.107   9.479  0.2644 -1.2857  0.4181
 4526SOL    HW225212   3.549   2.176   9.554 -1.3449  0.8247 -1.1270
 4527SOL     OW25213   2.385   4.516  11.727  0.5367 -0.3848  0.0975
 4527SOL    HW125214   2.302   4.470  11.737 -0.2476  1.4970  2.4243
 4527SOL    HW225215   2.422   4.490  11.812  1.5272 -0.1336 -0.2611
 4528SOL     OW25216   0.856   1.206  17.406 -0.1602 -0.0038 -0.6373
 4528SOL    HW125217   0.887   1.188  17.494 -3.1752  2.0400  0.8852
 4528SOL    HW225218   0.942   1.226  17.369 -0.3936 -1.9432 -2.1877
 4529SOL     OW25219   0.668   1.688   6.798 -0.0992  0.4795  0.3291
 4529SOL    HW125220   0.741   1.692   6.860  3.3326  1.1354 -3.8035
 4529SOL    HW225221   0.706   1.730   6.721 -0.2283  2.3985  1.3146
 4530SOL     OW25222   2.610   4.273  11.736 -0.3048 -0.1242 -0.3855
 4530SOL    HW125223   2.574   4.358  11.761  2.1574  0.8736 -0.1640
 4530SOL    HW225224   2.527   4.227  11.742  0.8832 -2.3340 -0.7621
 4531SOL     OW25225   1.139   2.421  11.488 -0.3946  0.6204  0.3326
 4531SOL    HW125226   1.088   2.341  11.475 -1.9508  0.8666  5.0868
 4531SOL    HW225227   1.168   2.398  11.576 -0.6927 -0.1893  0.2206
 4532SOL     OW25228   3.143   1.267   2.993 -0.1687  0.3565 -0.1692
 4532SOL    HW125229   3.119   1.348   2.948 -3.6199 -0.3557  0.3688
 4532SOL    HW225230   3.168   1.211   2.920  0.4606 -0.4343  0.6627
 4533SOL     OW25231   2.146   1.050  14.169  0.4462  0.3410  0.0304
 4533SOL    HW125232   2.237   1.019  14.169  0.4538  0.3646 -0.2007
 4533SOL    HW225233   2.144   1.062  14.264 -2.1177  0.7796 -0.0798
 4534SOL     OW25234   2.315   3.163   2.933 -0.3821 -0.5266  0.5800
 4534SOL    HW125235   2.292   3.237   2.990 -2.1537 -1.2865  0.8375
 4534SOL    HW225236   2.310   3.091   2.996  1.2371 -1.1147  0.0414
 4535SOL     OW25237   0.716   4.233   8.327  0.2451  0.3277 -0.5241
 4535SOL    HW125238   0.767   4.243   8.407  0.2162 -0.2749 -0.4322
 4535SOL    HW225239   0.627   4.258   8.352  0.9345 -1.2530  3.3840
 4536SOL     OW25240   2.523   0.595   1.332  0.0435 -0.4545  0.9069
 4536SOL    HW125241   2.568   0.520   1.292 -1.9263 -0.8671 -0.5694
 4536SOL    HW225242   2.600   0.637   1.370  0.4756 -0.4017 -0.0232
 4537SOL     OW25243   0.129   3.899   9.267  0.0301 -0.6517 -0.1063
 4537SOL    HW125244   0.076   3.873   9.343  0.9668  1.9637  1.4485
 4537SOL    HW225245   0.193   3.955   9.310 -1.2822 -0.0379  1.0733
 4538SOL     OW25246   3.834   4.694   4.221  0.7940 -0.1178  0.0661
 4538SOL    HW125247   3.876   4.703   4.135  1.2128 -1.2627  0.1580
 4538SOL    HW225248   3.763   4.631   4.214  1.7186 -1.4824  3.0289
 4539SOL     OW25249   3.410   2.669   6.935  0.3777 -0.2119 -0.1905
 4539SOL    HW125250   3.422   2.597   6.997 -0.4374  0.4303  0.6929
 4539SOL    HW225251   3.497   2.708   6.943 -0.2050  0.9271  0.5586
 4540SOL     OW25252   3.019   2.092  14.105  0.5496 -0.5285  0.0711
 4540SOL    HW125253   3.092   2.144  14.071  1.1852 -0.8080  0.9995
 4540SOL    HW225254   3.060   2.006  14.105  0.2060 -0.6984 -1.0876
 4541SOL     OW25255   2.797   2.435  14.755  0.5106 -0.7196  0.0561
 4541SOL    HW125256   2.778   2.419  14.663  1.8359  2.1210 -0.7004
 4541SOL    HW225257   2.712   2.452  14.796  0.3640 -1.0397 -0.1168
 4542SOL     OW25258   0.494   0.155   5.233  0.3587 -0.6162  0.2642
 4542SOL    HW125259   0.555   0.219   5.269 -1.8291  1.3132  0.5361
 4542SOL    HW225260   0.502   0.082   5.295  1.1365  0.1238  1.0513
 4543SOL     OW25261   4.652   4.337   6.272 -0.1179 -0.4177  0.3402
 4543SOL    HW125262   0.005   4.317   6.253  0.1735 -0.0299  1.3358
 4543SOL    HW225263   4.642   4.297   6.359 -1.5429 -0.4087  0.1811
 4544SOL     OW25264   1.193   1.893   8.714 -0.0747 -0.7472  0.2592
 4544SOL    HW125265   1.185   1.929   8.802  1.6536 -0.1703  0.1817
 4544SOL    HW225266   1.107   1.853   8.702  0.1814 -0.6076 -1.9291
 4545SOL     OW25267   2.771   2.941   6.751 -0.5819 -0.1809  0.1273
 4545SOL    HW125268   2.708   2.915   6.684 -1.1632  1.6121 -0.0412
 4545SOL    HW225269   2.854   2.933   6.702  0.7154 -1.2132  2.5223
 4546SOL     OW25270   4.186   3.067   7.289  0.7528 -0.0976 -0.5973
 4546SOL    HW125271   4.161   3.128   7.220  1.2655 -0.3268 -0.9906
 4546SOL    HW225272   4.112   3.006   7.290  0.4992  0.1909 -2.6061
 4547SOL     OW25273   2.436   1.709   2.763 -0.2563  0.3341 -0.4154
 4547SOL    HW125274   2.521   1.675   2.734  0.4977  2.1864 -0.4365
 4547SOL    HW225275   2.431   1.701   2.858  0.0045  2.4695 -0.2085
 4548SOL     OW25276   1.766   0.157   4.266 -0.5112 -0.1760  0.7227
 4548SOL    HW125277   1.782   0.075   4.315  0.0930 -1.0905 -1.0058
 4548SOL    HW225278   1.741   0.116   4.183 -0.4357  3.7865 -1.2366
 4549SOL     OW25279   1.339   0.314  11.561 -0.3560  0.2652  0.4559
 4549SOL    HW125280   1.274   0.243  11.557  1.1124 -1.0922  0.7856
 4549SOL    HW225281   1.307   0.355  11.642  4.1355  2.1078  1.2567
 4550SOL     OW25282   0.997   3.268   7.661 -0.2293  0.1119 -0.0611
 4550SOL    HW125283   0.998   3.195   7.723  1.9579  0.5446  0.4044
 4550SOL    HW225284   0.906   3.275   7.634  0.2733  2.4544 -1.0799
 4551SOL     OW25285   4.252   2.639  12.183  0.1243  0.3286  0.1678
 4551SOL    HW125286   4.340   2.667  12.208  1.3612  0.0841 -3.9055
 4551SOL    HW225287   4.204   2.721  12.197  0.4454  0.5499 -0.0263
 4552SOL     OW25288   4.431   3.088   6.444 -0.0946 -0.0422  0.6590
 4552SOL    HW125289   4.455   2.997   6.462 -0.7396 -0.3048  0.1634
 4552SOL    HW225290   4.447   3.120   6.533  0.8359  0.8660  0.1688
 4553SOL     OW25291   2.275   0.737  15.180 -0.7533 -0.2991  0.6157
 4553SOL    HW125292   2.221   0.731  15.259 -1.6087 -0.4079  0.0190
 4553SOL    HW225293   2.225   0.794  15.121  1.7418 -0.0709 -1.2722
 4554SOL     OW25294   0.586   1.735   8.026  0.1953 -0.4069 -0.0866
 4554SOL    HW125295   0.629   1.711   8.108  2.3005  0.9728 -0.7719
 4554SOL    HW225296   0.516   1.786   8.067  1.9071  0.7417  1.4387
 4555SOL     OW25297   4.595   2.800  11.028 -0.4946  0.0036 -0.2788
 4555SOL    HW125298   4.530   2.850  11.077 -0.7869 -1.5795  0.9542
 4555SOL    HW225299   4.619   2.871  10.969  0.1303 -1.5177 -1.8703
 4556SOL     OW25300   3.497   3.505   7.009  0.4177 -0.1147 -0.3593
 4556SOL    HW125301   3.542   3.587   6.989  3.3257 -1.5420  0.2717
 4556SOL    HW225302   3.507   3.508   7.104  1.0222  0.8522 -0.4449
 4557SOL     OW25303   4.591   4.064  15.924  0.5868  0.1268  0.0056
 4557SOL    HW125304   4.642   3.988  15.900  0.9643  0.7877 -1.2899
 4557SOL    HW225305   4.500   4.036  15.911  1.0182 -1.3781  0.2849
 4558SOL     OW25306   1.980   3.276   7.465 -0.8640  0.0137  0.1899
 4558SOL    HW125307   2.052   3.336   7.485 -2.1240  0.8495  2.1382
 4558SOL    HW225308   1.908   3.336   7.446  1.0432  1.5190 -2.3338
 4559SOL     OW25309   2.301   2.735   3.267  0.0264  0.3072 -0.4071
 4559SOL    HW125310   2.206   2.718   3.266 -0.2405  1.5983  3.0357
 4559SOL    HW225311   2.325   2.723   3.175  1.2163 -0.4078  0.0127
 4560SOL     OW25312   4.715   0.180  11.522  0.3783  0.2683  0.9234
 4560SOL    HW125313   4.638   0.124  11.513  2.3376 -2.0119 -1.7628
 4560SOL    HW225314   0.011   0.137  11.600  0.9305  0.4257  0.7629
 4561SOL     OW25315   1.763   4.346  15.994  0.0858  0.7250 -0.4246
 4561SOL    HW125316   1.693   4.320  16.053  1.2823 -3.4567 -0.8048
 4561SOL    HW225317   1.758   4.269  15.936  1.9463  0.6096 -0.4591
 4562SOL     OW25318   0.935   3.143   1.699 -0.6526 -0.0261 -0.0680
 4562SOL    HW125319   0.902   3.197   1.627  0.6232 -0.6922 -1.1476
 4562SOL    HW225320   0.903   3.193   1.775 -0.2937 -2.5025  1.7244
 4563SOL     OW25321   2.200   0.484  11.702  0.8129  0.1293  0.2463
 4563SOL    HW125322   2.201   0.514  11.611  0.2879 -1.9430 -0.4437
 4563SOL    HW225323   2.252   0.406  11.680  1.8029  1.0658 -0.7201
 4564SOL     OW25324   4.281   0.040   8.119  0.7403 -0.1520  0.3705
 4564SOL    HW125325   4.311   4.692   8.089 -0.5521 -0.5893  0.3602
 4564SOL    HW225326   4.335   0.106   8.077 -0.4476  1.0615  0.7549
 4565SOL     OW25327   4.167   0.777   7.047 -0.0765  0.6982  0.2584
 4565SOL    HW125328   4.128   0.737   6.970  0.1961  2.1907 -0.6464
 4565SOL    HW225329   4.113   0.856   7.047 -0.8585  0.1778  2.0084
 4566SOL     OW25330   0.339   1.568  12.120  0.2397  0.4219 -0.1228
 4566SOL    HW125331   0.383   1.650  12.142  0.4116  0.6719 -1.3851
 4566SOL    HW225332   0.384   1.552  12.037  2.3354 -0.4341  1.1975
 4567SOL     OW25333   4.353   2.362   6.155  0.0603 -0.3077  0.3007
 4567SOL    HW125334   4.322   2.342   6.067 -0.0520  1.8478 -0.1698
 4567SOL    HW225335   4.444   2.332   6.147 -0.0489 -0.8663  1.1399
 4568SOL     OW25336   2.556   2.652  16.230 -0.7573 -0.5071 -0.3466
 4568SOL    HW125337   2.563   2.742  16.261  3.7670 -1.4015  1.2653
 4568SOL    HW225338   2.648   2.641  16.206 -0.7957  0.8521 -1.0595
 4569SOL     OW25339   4.437   1.477  16.184 -0.8053  0.0486 -0.2837
 4569SOL    HW125340   4.475   1.556  16.145 -0.0358 -0.3098 -0.2647
 4569SOL    HW225341   4.455   1.506  16.274 -0.4630 -0.4796 -0.1817
 4570SOL     OW25342   1.842   0.505   5.818  0.3190  0.2523 -0.4117
 4570SOL    HW125343   1.883   0.492   5.733 -2.1150 -3.2617 -1.0361
 4570SOL    HW225344   1.748   0.513   5.801  0.2203  2.1042  0.9196
 4571SOL     OW25345   2.476   1.177   5.300  0.2397  0.1977 -0.4417
 4571SOL    HW125346   2.441   1.181   5.389 -0.1259  0.5881 -0.6059
 4571SOL    HW225347   2.527   1.097   5.312 -0.7603 -0.4817 -0.7425
 4572SOL     OW25348   0.891   0.002   7.356  0.0938 -0.0665  0.3499
 4572SOL    HW125349   0.815   0.028   7.408 -0.4621  0.3458 -0.6709
 4572SOL    HW225350   0.853   4.686   7.287  0.6128 -0.3153  0.2657
 4573SOL     OW25351   2.136   1.332   7.170  0.1182 -0.6212 -0.2402
 4573SOL    HW125352   2.175   1.321   7.257 -0.6242 -1.4928 -0.0190
 4573SOL    HW225353   2.045   1.356   7.185  0.4985  1.0400 -0.6292
 4574SOL     OW25354   1.987   1.701   4.720 -0.1700  0.7915 -0.0265
 4574SOL    HW125355   1.974   1.735   4.809  0.9040 -1.5919  1.0544
 4574SOL    HW225356   2.067   1.746   4.692  0.0910 -0.0898 -0.6915
 4575SOL     OW25357   1.074   4.502  12.313  0.2294  0.1460 -0.1455
 4575SOL    HW125358   1.028   4.558  12.251  0.7935 -1.2530 -1.8223
 4575SOL    HW225359   1.167   4.507  12.291 -0.3336  2.2461 -2.0282
 4576SOL     OW25360   2.791   3.451   5.475 -0.4995  0.0885 -0.9576
 4576SOL    HW125361   2.758   3.538   5.454 -1.5186  0.2612  1.3953
 4576SOL    HW225362   2.710   3.403   5.492  1.4076 -3.4529 -1.6756
 4577SOL     OW25363   4.438   2.837  15.763 -0.0807 -0.4888  0.1178
 4577SOL    HW125364   4.398   2.891  15.831 -0.9150  1.6158 -2.0351
 4577SOL    HW225365   4.528   2.860  15.783  0.1352 -0.6739 -0.6431
 4578SOL     OW25366   0.288   1.616   9.163 -0.4354 -0.1242 -0.2561
 4578SOL    HW125367   0.300   1.583   9.253  1.2291  0.6143 -0.2104
 4578SOL    HW225368   0.225   1.553   9.127 -0.8832  0.9553 -1.3442
 4579SOL     OW25369   1.336   4.088   8.868  0.5418 -0.0589 -0.0375
 4579SOL    HW125370   1.395   4.048   8.805 -0.7007 -0.2434 -1.0869
 4579SOL    HW225371   1.385   4.078   8.949 -0.6738  0.7333  0.7988
 4580SOL     OW25372   1.103   1.782  12.301 -0.1930  0.2392 -0.1038
 4580SOL    HW125373   1.161   1.800  12.227  0.5102  3.5690  1.2501
 4580SOL    HW225374   1.031   1.844  12.287 -0.0033  1.0608  2.6668
 4581SOL     OW25375   4.667   0.955   1.734 -0.5802  0.4062 -0.0151
 4581SOL    HW125376   4.601   0.924   1.672 -3.3245 -0.3960  3.3124
 4581SOL    HW225377   4.720   1.019   1.687  0.2209  0.1507  0.5308
 4582SOL     OW25378   4.418   4.250   7.151  0.3002 -0.7288  0.0568
 4582SOL    HW125379   4.424   4.156   7.133 -0.1044 -0.5039 -1.2868
 4582SOL    HW225380   4.337   4.274   7.106 -0.0672 -0.4983  0.8391
 4583SOL     OW25381   2.111   0.833   5.157 -0.2254  0.0742  0.4042
 4583SOL    HW125382   2.130   0.914   5.205  1.4766  0.3200 -0.6547
 4583SOL    HW225383   2.036   0.795   5.202  0.1108 -1.4704 -0.3564
 4584SOL     OW25384   2.516   3.247  11.213 -0.1846 -0.0268 -0.3301
 4584SOL    HW125385   2.568   3.167  11.217  0.0146  0.0351 -1.8018
 4584SOL    HW225386   2.465   3.238  11.294 -0.4455  0.6980 -0.4163
 4585SOL     OW25387   2.535   0.436   2.899 -0.2726 -0.0314  0.2161
 4585SOL    HW125388   2.596   0.401   2.963  1.8247  0.3091 -1.6058
 4585SOL    HW225389   2.594   0.453   2.826 -1.2634  0.5509 -0.4491
 4586SOL     OW25390   1.179   4.509   1.520 -0.0900  0.2006 -0.0255
 4586SOL    HW125391   1.212   4.547   1.438  2.1868 -0.1710  0.7262
 4586SOL    HW225392   1.259   4.468   1.551 -0.6859 -0.5002  0.5615
 4587SOL     OW25393   0.182   2.868   6.326  0.1770 -0.0160 -0.2680
 4587SOL    HW125394   0.130   2.788   6.338  0.7197 -0.7782 -3.0475
 4587SOL    HW225395   0.142   2.914   6.253  1.0134  1.4334  0.2017
 4588SOL     OW25396   4.450   0.698   9.059 -0.1924 -0.5415  0.1060
 4588SOL    HW125397   4.519   0.744   9.011  0.7771 -0.0479  1.9939
 4588SOL    HW225398   4.377   0.731   9.005  1.1511  1.0678 -0.7014
 4589SOL     OW25399   3.304   1.049  15.762 -0.4470  0.5390 -0.1048
 4589SOL    HW125400   3.260   1.110  15.703 -0.5326  0.7308  0.1566
 4589SOL    HW225401   3.227   1.012  15.805  1.9362 -0.6051  3.1787
 4590SOL     OW25402   0.325   0.349   0.809  0.2149  0.2086 -0.8283
 4590SOL    HW125403   0.319   0.436   0.771  2.3164  0.7285  0.0310
 4590SOL    HW225404   0.407   0.317   0.771  0.4589 -2.4485  1.9716
 4591SOL     OW25405   3.210   4.081   4.785 -0.1713  0.3962  0.1599
 4591SOL    HW125406   3.143   4.144   4.758 -0.2395  0.0354 -0.5375
 4591SOL    HW225407   3.272   4.085   4.712 -0.0033  2.1704  0.4126
 4592SOL     OW25408   2.921   1.180   5.128  0.2775 -0.0281  0.6558
 4592SOL    HW125409   2.832   1.215   5.130 -0.0030 -0.6398 -0.7036
 4592SOL    HW225410   2.907   1.112   5.194  0.1997 -1.3732 -0.7334
 4593SOL     OW25411   0.785   2.260   4.451 -0.3391 -0.4788  0.1861
 4593SOL    HW125412   0.859   2.206   4.422 -1.5685 -1.5468 -0.9473
 4593SOL    HW225413   0.748   2.290   4.368  3.1280 -0.2631 -1.2877
 4594SOL     OW25414   3.766   0.746  15.427  0.6689  0.4974 -0.0961
 4594SOL    HW125415   3.842   0.689  15.434  0.9381  0.7730 -0.7284
 4594SOL    HW225416   3.705   0.691  15.377 -0.8883  1.2759  0.9544
 4595SOL     OW25417   2.545   2.498   4.566 -0.3340  0.3344  0.3477
 4595SOL    HW125418   2.552   2.578   4.619 -2.6780  1.3085 -0.8371
 4595SOL    HW225419   2.566   2.524   4.476  3.1693 -1.4457  0.6164
 4596SOL     OW25420   1.606   4.313   5.003  0.3528  0.6660 -0.1317
 4596SOL    HW125421   1.554   4.258   4.945 -0.5182 -1.3102  2.5467
 4596SOL    HW225422   1.684   4.296   4.950  0.1713  0.6656 -0.3959
 4597SOL     OW25423   2.556   1.546   7.025 -0.0122 -0.2412 -0.6655
 4597SOL    HW125424   2.511   1.462   7.036  2.3310 -1.5886 -1.3858
 4597SOL    HW225425   2.479   1.599   7.004 -0.5459 -1.5146 -1.8973
 4598SOL     OW25426   2.370   3.053  11.908  0.4499 -0.0778 -0.4831
 4598SOL    HW125427   2.277   3.039  11.886 -0.1813 -1.5988  3.1439
 4598SOL    HW225428   2.408   2.982  11.857 -0.9566 -1.7187  0.7054
 4599SOL     OW25429   4.529   0.053   8.750  0.3629  0.2434 -0.1402
 4599SOL    HW125430   4.549   0.090   8.664  0.7920  2.2304  0.7935
 4599SOL    HW225431   4.611   0.073   8.796 -1.0152  1.5667  1.7804
 4600SOL     OW25432   1.481   1.480   1.523  0.1641  0.6911  0.6513
 4600SOL    HW125433   1.559   1.427   1.540  0.5594  1.5303  1.4356
 4600SOL    HW225434   1.492   1.503   1.430  0.1279  0.0601  0.4911
 4601SOL     OW25435   1.515   4.668  10.256  0.2980 -0.3690  0.3059
 4601SOL    HW125436   1.543   0.019  10.238  3.4844 -1.3725  0.2967
 4601SOL    HW225437   1.441   4.679  10.316  1.0102 -0.1196  1.1277
 4602SOL     OW25438   0.626   2.936   9.037  0.0393  0.1138  0.1297
 4602SOL    HW125439   0.603   2.996   9.108 -1.1651  0.5046 -0.5974
 4602SOL    HW225440   0.719   2.956   9.024  0.0183  0.8846  1.1870
 4603SOL     OW25441   1.100   3.922   5.911  0.3309 -0.0628 -0.1381
 4603SOL    HW125442   1.176   3.864   5.908  0.5234  0.3361 -3.0675
 4603SOL    HW225443   1.045   3.865   5.964  0.9447 -1.6761 -1.2148
 4604SOL     OW25444   2.408   3.204  16.520  0.1883 -0.0104  0.0335
 4604SOL    HW125445   2.414   3.272  16.452  1.2897 -0.1201  0.0139
 4604SOL    HW225446   2.499   3.183  16.544 -0.1750 -0.0153  1.3839
 4605SOL     OW25447   0.846   1.012  17.211  0.0183 -0.7446 -0.1783
 4605SOL    HW125448   0.940   0.997  17.205 -0.0085 -1.5228  1.2255
 4605SOL    HW225449   0.835   1.074  17.284 -0.3901 -1.1962  0.1410
 4606SOL     OW25450   2.110   1.372   9.173  0.4706 -0.0290  0.2712
 4606SOL    HW125451   2.062   1.291   9.153  0.4169  0.8846 -3.2957
 4606SOL    HW225452   2.194   1.349   9.134  0.7316 -0.2803  0.9820
 4607SOL     OW25453   1.240   4.343   6.632 -0.1267  0.1582 -0.1988
 4607SOL    HW125454   1.154   4.384   6.641  0.4550  2.1015 -3.7721
 4607SOL    HW225455   1.219   4.291   6.555 -1.0345 -0.8018  0.6807
 4608SOL     OW25456   4.216   0.102   5.106  0.0066 -0.3799  0.5368
 4608SOL    HW125457   4.250   0.033   5.163 -3.9884 -1.0828  2.0770
 4608SOL    HW225458   4.147   0.138   5.163  0.3173 -0.8096  1.1742
 4609SOL     OW25459   0.685   2.750   7.249 -0.0669 -0.4370 -0.0759
 4609SOL    HW125460   0.761   2.729   7.194  0.1265  0.8467 -0.2792
 4609SOL    HW225461   0.652   2.669   7.289  0.5066  0.3229  1.9407
 4610SOL     OW25462   0.202   2.416  17.526 -0.5430 -0.2389 -0.7084
 4610SOL    HW125463   0.140   2.479  17.564 -1.2235 -1.3327  0.0027
 4610SOL    HW225464   0.195   2.431  17.432 -1.4235  4.6647  0.1582
 4611SOL     OW25465   1.833   2.519   5.593  0.2987  0.5345 -0.0098
 4611SOL    HW125466   1.891   2.444   5.600 -2.0914 -1.2682  0.7051
 4611SOL    HW225467   1.887   2.587   5.553 -1.5110  3.1493  1.9788
 4612SOL     OW25468   0.950   2.792  13.489 -0.1798 -0.2206  0.1797
 4612SOL    HW125469   0.875   2.838  13.527 -1.2138  0.6814 -2.9083
 4612SOL    HW225470   0.915   2.703  13.482  1.1365 -0.6200 -1.3064
 4613SOL     OW25471   4.425   4.452   3.940 -1.1654 -0.1256 -0.2986
 4613SOL    HW125472   4.392   4.422   3.855  1.9411  0.5889 -1.7708
 4613SOL    HW225473   4.418   4.366   3.981  0.4104 -0.0604  0.1288
 4614SOL     OW25474   4.050   1.641   9.644  0.2356 -0.0582 -0.0127
 4614SOL    HW125475   3.961   1.677   9.647  0.9541  1.5879  1.2464
 4614SOL    HW225476   4.043   1.585   9.567  3.9793 -1.5084  0.7019
 4615SOL     OW25477   4.015   2.043  17.057 -0.2381 -0.2158  0.8292
 4615SOL    HW125478   4.076   2.095  17.110  0.8788  0.5261 -1.1866
 4615SOL    HW225479   3.996   1.973  17.119  1.2964  0.2238  1.7959
 4616SOL     OW25480   3.765   2.064   1.579 -0.3283  0.1164  0.1244
 4616SOL    HW125481   3.785   2.152   1.548  1.3000 -0.7267 -1.2493
 4616SOL    HW225482   3.731   2.021   1.500  0.4670 -0.4157  0.0627
 4617SOL     OW25483   4.710   4.539   1.851  0.7920 -0.0720 -0.0227
 4617SOL    HW125484   4.621   4.558   1.882  0.5064 -1.9402  0.2787
 4617SOL    HW225485   4.725   4.447   1.873  2.6463  0.2144 -0.0564
 4618SOL     OW25486   0.449   3.367   8.549 -0.2627  0.1219 -0.2634
 4618SOL    HW125487   0.458   3.360   8.454  1.6247 -1.1444 -0.0028
 4618SOL    HW225488   0.407   3.285   8.574 -3.0158  1.4569 -0.5722
 4619SOL     OW25489   2.893   0.626   1.913 -0.1076  0.0208  0.3997
 4619SOL    HW125490   2.818   0.568   1.925  0.2532 -0.4227  0.5062
 4619SOL    HW225491   2.892   0.651   1.821  3.1507 -0.6107  0.2015
 4620SOL     OW25492   4.421   3.117   3.161  0.4097  0.1916 -0.4316
 4620SOL    HW125493   4.328   3.097   3.151  0.5260  1.0440 -3.3014
 4620SOL    HW225494   4.452   3.131   3.071 -1.5873 -0.2579 -1.1813
 4621SOL     OW25495   3.068   1.156   9.201  0.3239 -0.4414  0.2530
 4621SOL    HW125496   3.062   1.094   9.273 -3.0830  0.0350  0.3541
 4621SOL    HW225497   3.101   1.236   9.241 -0.4855  0.3592 -0.6694
 4622SOL     OW25498   1.644   1.557   8.179  0.9505  0.3127  0.8208
 4622SOL    HW125499   1.642   1.630   8.117  1.8220 -0.2105  0.1832
 4622SOL    HW225500   1.580   1.594   8.241 -1.9117  0.9553 -2.5388
 4623SOL     OW25501   3.787   4.036   4.559  0.4467  0.1186  0.2390
 4623SOL    HW125502   3.790   4.003   4.648  0.2451 -0.0665  0.1778
 4623SOL    HW225503   3.832   4.118   4.580  0.5536  0.0674  0.2068
 4624SOL     OW25504   3.709   0.424   8.235 -0.4516 -0.8225  0.6733
 4624SOL    HW125505   3.768   0.480   8.184 -1.5869  0.3807  0.6594
 4624SOL    HW225506   3.702   0.338   8.193  0.9010 -1.1356  1.1027
 4625SOL     OW25507   2.580   1.329   6.035 -0.4379 -0.0709  0.1922
 4625SOL    HW125508   2.675   1.316   6.028 -0.2074  0.7152  1.7514
 4625SOL    HW225509   2.579   1.407   6.092  0.2221 -1.2088  1.7532
 4626SOL     OW25510   3.558   2.310   9.703 -0.3786 -0.4068 -0.6810
 4626SOL    HW125511   3.478   2.322   9.651 -0.6138  2.6521  0.3388
 4626SOL    HW225512   3.598   2.396   9.718 -2.5995  0.2531  1.5481
 4627SOL     OW25513   1.047   2.696  11.982  0.4280  0.2173 -0.6450
 4627SOL    HW125514   1.098   2.773  12.009  1.3863 -1.0604  1.1496
 4627SOL    HW225515   1.087   2.667  11.900  1.3691  0.6397 -0.3419
 4628SOL     OW25516   3.715   1.453   1.030  0.1005  0.1505  0.2919
 4628SOL    HW125517   3.763   1.423   1.107  0.3354 -1.2636 -0.4208
 4628SOL    HW225518   3.661   1.526   1.063 -0.3690 -0.0466 -0.0362
 4629SOL     OW25519   4.173   4.451   5.290 -0.6908 -0.1925  0.2829
 4629SOL    HW125520   4.230   4.517   5.251 -0.4408 -1.3929 -1.3735
 4629SOL    HW225521   4.152   4.495   5.372  0.3388  1.4886 -0.3519
 4630SOL     OW25522   1.817   1.781   1.381  0.6563  0.2215  0.7583
 4630SOL    HW125523   1.830   1.870   1.414 -0.6577  0.6708  0.0437
 4630SOL    HW225524   1.881   1.724   1.425 -1.8750 -1.0743  2.7564
 4631SOL     OW25525   4.110   1.829   8.171 -0.3061 -1.0878 -0.1523
 4631SOL    HW125526   4.142   1.741   8.193  2.1564  0.0634  0.8822
 4631SOL    HW225527   4.145   1.826   8.082  0.0885 -2.1644  0.0370
 4632SOL     OW25528   1.438   4.644   9.048  0.5232 -0.3314 -0.4642
 4632SOL    HW125529   1.518   4.665   9.000  2.0818 -0.6356  2.0129
 4632SOL    HW225530   1.465   4.660   9.139 -0.4909 -1.3182  0.0008
 4633SOL     OW25531   4.159   2.996   7.902  0.7003  0.3124 -0.3307
 4633SOL    HW125532   4.163   3.008   7.997 -1.1858  1.2522 -0.3748
 4633SOL    HW225533   4.095   3.065   7.887  2.8178  2.1871 -0.8024
 4634SOL     OW25534   1.888   0.439   1.337  0.0670 -0.0733 -0.4103
 4634SOL    HW125535   1.807   0.434   1.286  0.3099 -1.4137 -0.6405
 4634SOL    HW225536   1.895   0.345   1.348 -0.4173  0.0358  0.8854
 4635SOL     OW25537   3.776   2.774   4.691 -0.5548  0.0800 -0.1174
 4635SOL    HW125538   3.865   2.810   4.696 -0.1930 -1.0437  1.1476
 4635SOL    HW225539   3.741   2.810   4.772 -2.2291  0.3252 -0.9552
 4636SOL     OW25540   1.722   4.005   6.180 -0.3722  0.0949 -0.3391
 4636SOL    HW125541   1.804   4.032   6.137  0.4015 -1.0271  0.4183
 4636SOL    HW225542   1.754   3.942   6.245  0.7176  2.3891  1.3476
 4637SOL     OW25543   4.677   2.980   8.929 -0.2461  0.5641 -0.4559
 4637SOL    HW125544   4.599   3.028   8.902  0.6182  0.3983 -3.1724
 4637SOL    HW225545   0.008   3.041   8.957 -1.0128  0.3640  1.9127
 4638SOL     OW25546   1.925   1.788   7.853  0.0751  0.0596 -0.1050
 4638SOL    HW125547   1.995   1.837   7.896  0.7804 -2.8297  2.0190
 4638SOL    HW225548   1.948   1.705   7.895 -1.6844  0.6723  2.0407
 4639SOL     OW25549   1.537   1.872   5.199 -0.1359  0.0339 -0.5103
 4639SOL    HW125550   1.585   1.876   5.116 -0.6687  1.5333 -0.7503
 4639SOL    HW225551   1.506   1.961   5.213  1.5461  0.6711 -0.8852
 4640SOL     OW25552   2.171   1.234   3.380  0.1604 -0.3594 -0.4687
 4640SOL    HW125553   2.156   1.251   3.287 -0.1309  1.2876 -0.1274
 4640SOL    HW225554   2.131   1.148   3.395 -0.0384 -0.5122 -1.9449
 4641SOL     OW25555   3.291   4.031   8.023  0.5185 -0.3381  0.4773
 4641SOL    HW125556   3.364   4.062   8.077  0.2713  2.3491 -0.7344
 4641SOL    HW225557   3.301   4.073   7.938 -0.0561 -0.5662  0.3001
 4642SOL     OW25558   0.454   0.220   3.997  0.0650  0.0094  0.6777
 4642SOL    HW125559   0.488   0.306   4.023 -1.3475  0.3929  1.2477
 4642SOL    HW225560   0.510   0.163   4.050 -0.6600 -1.9665 -0.7052
 4643SOL     OW25561   0.412   3.814   5.325 -0.0372 -0.1432  0.2837
 4643SOL    HW125562   0.440   3.730   5.361  0.6526 -0.9645 -2.1883
 4643SOL    HW225563   0.319   3.822   5.349 -0.6532 -0.4318 -1.9776
 4644SOL     OW25564   3.539   2.602   8.625 -0.2058 -0.1608  0.1251
 4644SOL    HW125565   3.614   2.601   8.685  0.0314  0.0762 -0.1666
 4644SOL    HW225566   3.564   2.527   8.570  0.3022  1.7048 -2.1925
 4645SOL     OW25567   2.416   4.333  10.708  0.4625  0.0303 -0.5217
 4645SOL    HW125568   2.360   4.410  10.715 -0.9623 -1.0289 -0.1185
 4645SOL    HW225569   2.360   4.282  10.649 -2.1354  1.2791  0.8348
 4646SOL     OW25570   4.074   4.629   5.500 -0.1669  0.1124 -0.0953
 4646SOL    HW125571   4.074   4.617   5.595 -0.7696  2.4239  0.1940
 4646SOL    HW225572   4.092   4.723   5.496 -1.6579  0.4009 -0.1464
 4647SOL     OW25573   0.087   0.338   8.620 -0.1544 -0.0673  0.0174
 4647SOL    HW125574   0.095   0.404   8.689 -0.2515  0.1749 -0.2039
 4647SOL    HW225575   0.068   0.398   8.548  1.4135  1.0166  0.5209
 4648SOL     OW25576   4.472   4.061   6.115  0.6590  0.5497 -0.3662
 4648SOL    HW125577   4.424   4.112   6.180  1.2411 -0.2523  0.7083
 4648SOL    HW225578   4.427   3.977   6.105  0.0016  1.0199 -1.2661
 4649SOL     OW25579   2.552   3.636   6.991 -0.2157 -0.1437  0.1134
 4649SOL    HW125580   2.612   3.664   6.921 -0.4305  2.4749  0.9795
 4649SOL    HW225581   2.577   3.544   7.001  0.7141  0.1673  0.6289
 4650SOL     OW25582   0.561   1.136  15.808  0.6545  0.3613 -0.4999
 4650SOL    HW125583   0.538   1.043  15.807  2.9487 -0.2294  1.0629
 4650SOL    HW225584   0.575   1.158  15.900 -1.5038 -0.4652  0.0121
 4651SOL     OW25585   2.898   4.594   6.676 -0.1703  0.4004  0.2442
 4651SOL    HW125586   2.981   4.619   6.715  0.2643 -0.0532 -0.3773
 4651SOL    HW225587   2.833   4.636   6.732  0.1663  2.5415 -0.9485
 4652SOL     OW25588   1.978   3.529   7.700 -0.6469 -0.1188 -0.1038
 4652SOL    HW125589   1.911   3.466   7.675 -2.7031  2.9509 -2.2535
 4652SOL    HW225590   2.054   3.490   7.657  0.0048 -0.0896  1.0165
 4653SOL     OW25591   2.548   3.121   5.837 -0.6995  0.0434  0.6143
 4653SOL    HW125592   2.561   3.035   5.878  0.2027 -0.2636 -0.3272
 4653SOL    HW225593   2.476   3.158   5.887 -0.1335  0.5526  1.0504
 4654SOL     OW25594   3.266   3.308  10.281 -0.4592  0.5149  0.2322
 4654SOL    HW125595   3.228   3.237  10.333 -3.8517  2.1149 -0.1006
 4654SOL    HW225596   3.294   3.366  10.352  0.4265  2.9278 -2.0986
 4655SOL     OW25597   1.174   0.366   3.797  0.6677  0.4129  0.1478
 4655SOL    HW125598   1.247   0.400   3.744  0.9775 -0.5015 -0.0013
 4655SOL    HW225599   1.185   0.428   3.869  0.6723  1.3842 -0.6836
 4656SOL     OW25600   1.837   4.389   0.714 -0.2292  0.6646 -0.2909
 4656SOL    HW125601   1.890   4.315   0.684  1.0994  0.7637  1.8258
 4656SOL    HW225602   1.826   4.367   0.806 -0.8538 -0.9167 -0.7331
 4657SOL     OW25603   1.585   1.112  10.241 -0.2385 -0.2894  0.5145
 4657SOL    HW125604   1.656   1.061  10.201  0.5546 -0.1067  1.6836
 4657SOL    HW225605   1.524   1.051  10.282 -0.2795 -0.3577  0.3531
 4658SOL     OW25606   4.506   4.248   5.106 -0.1040  0.1070 -0.2530
 4658SOL    HW125607   4.529   4.221   5.195  0.3669  0.3062 -0.3178
 4658SOL    HW225608   4.420   4.210   5.088  1.0086 -3.3286  1.7182
 4659SOL     OW25609   0.444   1.678   0.545 -0.3910 -0.3707  0.3548
 4659SOL    HW125610   0.393   1.709   0.620  0.1820  0.0230  0.5851
 4659SOL    HW225611   0.503   1.750   0.522  0.2305 -1.4210 -1.3002
 4660SOL     OW25612   2.302   4.672   5.413 -0.6057 -0.1836 -0.0069
 4660SOL    HW125613   2.366   4.703   5.477 -1.1809 -2.6530  1.7363
 4660SOL    HW225614   2.235   0.000   5.406 -1.7940 -1.3797  0.0569
 4661SOL     OW25615   2.548   0.680   5.512  0.4683 -0.4580 -0.1337
 4661SOL    HW125616   2.492   0.608   5.484 -0.3792  0.6466 -1.2932
 4661SOL    HW225617   2.611   0.638   5.570 -1.0911 -2.7235 -0.0877
 4662SOL     OW25618   0.395   3.884   8.812  0.0617 -0.0392  0.2820
 4662SOL    HW125619   0.461   3.818   8.793  0.2209 -0.2229  1.4438
 4662SOL    HW225620   0.315   3.831   8.804 -0.0798  0.1746  0.2844
 4663SOL     OW25621   3.839   0.044   4.490 -0.3758 -0.4441 -0.9313
 4663SOL    HW125622   3.907   4.723   4.523  1.4016  1.7984 -0.5109
 4663SOL    HW225623   3.850   0.006   4.403  0.5805  1.3871 -1.6071
 4664SOL     OW25624   1.784   2.348   6.900 -0.0203 -0.7831 -0.0595
 4664SOL    HW125625   1.782   2.411   6.972  0.1548 -1.2368  0.3414
 4664SOL    HW225626   1.727   2.389   6.835 -2.1286 -0.0810  2.2123
 4665SOL     OW25627   2.201   0.143   6.163 -0.0043  0.5569 -0.0174
 4665SOL    HW125628   2.139   0.213   6.143 -1.1361 -1.1684 -2.3789
 4665SOL    HW225629   2.144   0.067   6.176 -0.5674  1.2417  1.6167
 4666SOL     OW25630   1.816   1.699  13.798 -0.6341 -0.1072  0.0092
 4666SOL    HW125631   1.761   1.706  13.876  0.7651 -2.5603  1.2149
 4666SOL    HW225632   1.901   1.683  13.837 -0.5703 -2.1641 -0.9445
 4667SOL     OW25633   0.896   2.189   8.556 -0.1979 -0.0275  0.2107
 4667SOL    HW125634   0.894   2.276   8.515  0.8801 -0.9715 -1.8224
 4667SOL    HW225635   0.854   2.209   8.640 -1.9078 -2.1280 -0.1573
 4668SOL     OW25636   2.823   1.227  17.142  0.1087  0.5103  0.4849
 4668SOL    HW125637   2.764   1.210  17.215 -0.0611 -1.7306 -0.1626
 4668SOL    HW225638   2.839   1.136  17.114 -0.6979  0.5135  0.0354
 4669SOL     OW25639   0.318   1.669   9.481 -0.2827 -0.5325  0.3705
 4669SOL    HW125640   0.411   1.653   9.465  0.3607  2.0990  1.5088
 4669SOL    HW225641   0.299   1.632   9.568 -1.1783  0.1862  0.4832
 4670SOL     OW25642   2.568   4.115   3.152 -0.3803  0.8074  0.3255
 4670SOL    HW125643   2.569   4.132   3.246  0.5071  1.0802  0.2645
 4670SOL    HW225644   2.660   4.095   3.133 -0.8120 -0.5359 -0.3940
 4671SOL     OW25645   2.016   3.318   1.274 -0.0742 -0.7199 -0.0066
 4671SOL    HW125646   1.929   3.294   1.241  0.5806  0.2764 -2.5187
 4671SOL    HW225647   1.993   3.331   1.366  0.0268 -2.4495  0.2494
 4672SOL     OW25648   2.795   2.809   2.016  0.0068  0.0093  0.2067
 4672SOL    HW125649   2.766   2.876   1.954 -1.9379  0.8255  1.9842
 4672SOL    HW225650   2.785   2.857   2.099 -1.0615  1.3958 -0.7106
 4673SOL     OW25651   0.973   0.848   0.628  0.8512 -0.2572 -0.4553
 4673SOL    HW125652   1.037   0.796   0.580  2.2096 -0.7563  1.8983
 4673SOL    HW225653   0.982   0.926   0.573 -0.7190 -0.5971 -1.2085
 4674SOL     OW25654   0.094   2.727   7.187 -0.0235 -0.3509 -0.0420
 4674SOL    HW125655   0.126   2.740   7.097 -0.3258  0.1599 -0.0760
 4674SOL    HW225656   0.074   2.633   7.182  1.7525 -0.8081  1.3299
 4675SOL     OW25657   2.431   0.048   6.052  0.5324 -0.0981 -0.2265
 4675SOL    HW125658   2.362   0.087   6.106  0.8216 -0.8847  0.7125
 4675SOL    HW225659   2.379   4.708   6.033 -0.0597 -0.3460  2.4258
 4676SOL     OW25660   4.307   1.427   5.640 -0.4567  0.0853 -0.1325
 4676SOL    HW125661   4.267   1.487   5.703  1.1116  0.8850  0.1095
 4676SOL    HW225662   4.376   1.396   5.698 -0.2589  1.8386  0.5729
 4677SOL     OW25663   4.061   3.682   1.744  0.1859  0.0362 -0.4992
 4677SOL    HW125664   4.048   3.773   1.768  1.9185  0.2117 -0.1713
 4677SOL    HW225665   4.156   3.665   1.746  0.1643 -0.0580 -0.2191
 4678SOL     OW25666   1.320   1.612   1.904  0.5847 -0.1751 -0.2775
 4678SOL    HW125667   1.394   1.606   1.965 -0.3268  0.3207  0.8749
 4678SOL    HW225668   1.277   1.529   1.924  1.1395 -0.2585  0.5770
 4679SOL     OW25669   1.534   4.513   5.565 -0.1708 -0.4630  0.1060
 4679SOL    HW125670   1.604   4.452   5.588  1.0327  0.0739 -2.2190
 4679SOL    HW225671   1.484   4.513   5.647 -3.7054  1.8546 -2.0808
 4680SOL     OW25672   0.623   2.172   2.808  0.1992  0.2655  0.1196
 4680SOL    HW125673   0.601   2.119   2.731 -0.2822  0.4640  0.1197
 4680SOL    HW225674   0.711   2.195   2.778  1.3051 -0.9391  2.4721
 4681SOL     OW25675   0.227   2.595   8.254 -0.3190 -0.5585 -0.5040
 4681SOL    HW125676   0.266   2.563   8.173  0.7464  0.0860 -0.2518
 4681SOL    HW225677   0.304   2.592   8.312 -0.9706 -2.5831  0.2602
 4682SOL     OW25678   4.103   2.020   1.206  0.2760 -0.1105  0.3131
 4682SOL    HW125679   4.100   1.960   1.281 -0.8613 -0.4271  0.0187
 4682SOL    HW225680   4.055   2.095   1.241 -0.4544  0.1662 -1.2699
 4683SOL     OW25681   2.830   4.600   2.893  0.0493 -0.6406  0.0973
 4683SOL    HW125682   2.789   4.686   2.880  1.4610 -0.1563 -1.2213
 4683SOL    HW225683   2.905   4.624   2.837 -0.2155  0.7276  0.3433
 4684SOL     OW25684   4.702   1.016  16.468 -0.1671 -0.0986 -0.4745
 4684SOL    HW125685   4.631   1.076  16.444 -0.6020 -0.7285 -0.7753
 4684SOL    HW225686   4.660   0.933  16.492 -1.3323  1.1296  1.7557
 4685SOL     OW25687   4.013   1.047  16.342  0.5987 -0.4648 -0.1429
 4685SOL    HW125688   3.997   1.018  16.431  1.7375  0.7115  0.4431
 4685SOL    HW225689   3.933   1.100  16.335  2.0731  1.5039 -1.9613
 4686SOL     OW25690   3.074   0.161  10.666  0.3031 -0.5282  0.1549
 4686SOL    HW125691   3.128   0.197  10.736  0.5732  2.2337 -1.4658
 4686SOL    HW225692   2.982   0.163  10.692  0.8299 -1.5893  2.0718
 4687SOL     OW25693   0.647   3.474   8.749  0.2302  0.6465  0.2226
 4687SOL    HW125694   0.603   3.460   8.665  1.0573 -0.8820  0.0578
 4687SOL    HW225695   0.623   3.393   8.793  0.3423  0.6336  0.2602
 4688SOL     OW25696   3.579   0.400   1.911  0.0462  0.2707 -0.1890
 4688SOL    HW125697   3.603   0.422   1.820 -0.1575  1.1499 -0.0281
 4688SOL    HW225698   3.660   0.412   1.960 -0.1019 -2.2465  0.6743
 4689SOL     OW25699   1.359   0.308   2.778 -0.1589 -0.1464  0.5834
 4689SOL    HW125700   1.433   0.273   2.729 -0.3909  0.5686 -0.2553
 4689SOL    HW225701   1.374   0.401   2.764 -1.1113 -0.5052 -2.8657
 4690SOL     OW25702   1.472   0.724   5.958 -0.1171  0.0766  0.0446
 4690SOL    HW125703   1.493   0.778   5.882 -0.5872 -1.3815 -1.1214
 4690SOL    HW225704   1.496   0.776   6.034  0.6226 -0.2741  0.0542
 4691SOL     OW25705   4.206   1.689   5.758 -0.3775  0.2480  0.1023
 4691SOL    HW125706   4.210   1.674   5.852  1.0356  4.2177  0.6445
 4691SOL    HW225707   4.111   1.691   5.744 -0.2182  0.8985 -0.9157
 4692SOL     OW25708   3.539   4.504   5.787  0.3872 -0.4970  0.2162
 4692SOL    HW125709   3.500   4.548   5.862 -0.5546  0.2965 -0.7310
 4692SOL    HW225710   3.599   4.446   5.833 -0.7032 -0.3864  1.7885
 4693SOL     OW25711   4.071   3.149  16.152  0.8534 -0.1975 -0.0048
 4693SOL    HW125712   4.126   3.222  16.122  2.4132 -1.0357  0.8346
 4693SOL    HW225713   4.007   3.141  16.081  2.2651  1.8124 -1.4974
 4694SOL     OW25714   1.914   1.031   1.122  0.0984 -0.1270 -0.0337
 4694SOL    HW125715   1.960   0.988   1.049 -0.9158  1.6283 -1.7159
 4694SOL    HW225716   1.849   0.967   1.150 -1.2788  1.9085  1.4207
 4695SOL     OW25717   4.718   2.603   2.752 -0.3498  0.0772 -0.0666
 4695SOL    HW125718   4.652   2.558   2.699 -1.7245  3.8899 -1.6348
 4695SOL    HW225719   0.060   2.559   2.725  0.0946  0.7001  0.2513
 4696SOL     OW25720   0.548   1.178  17.342 -0.4643 -0.0930 -0.3080
 4696SOL    HW125721   0.635   1.219  17.344  0.1594 -1.2281 -3.3494
 4696SOL    HW225722   0.568   1.084  17.337  0.1794  0.1008 -1.5098
 4697SOL     OW25723   3.030   3.450  10.601 -0.0068 -0.3000 -0.3002
 4697SOL    HW125724   2.977   3.452  10.521 -1.7678 -0.6902  0.8632
 4697SOL    HW225725   3.022   3.543  10.624 -2.7841 -0.7620  0.5505
 4698SOL     OW25726   1.347   4.376   3.061  0.0505 -0.0787 -0.2188
 4698SOL    HW125727   1.254   4.389   3.080  0.0619 -0.1392 -0.1198
 4698SOL    HW225728   1.382   4.465   3.065  1.5532 -0.6912  0.7182
 4699SOL     OW25729   2.778   2.541  11.136 -0.3797  0.0449  0.1123
 4699SOL    HW125730   2.771   2.560  11.042  4.0767 -1.8307 -0.6144
 4699SOL    HW225731   2.715   2.469  11.142  0.4291 -0.7663 -0.9597
 4700SOL     OW25732   3.367   1.469   0.803 -0.4590  0.0727 -0.4171
 4700SOL    HW125733   3.309   1.545   0.815  0.9855  0.5330  3.6119
 4700SOL    HW225734   3.332   1.412   0.734 -0.5391 -0.8677  0.4057
 4701SOL     OW25735   2.850   4.268   6.684  0.2849 -0.3174  0.3407
 4701SOL    HW125736   2.863   4.250   6.777  1.9368  1.1470  0.3871
 4701SOL    HW225737   2.778   4.212   6.654 -1.3545  1.0764  1.7037
 4702SOL     OW25738   1.804   1.939  15.838  0.1011 -0.2161 -0.3580
 4702SOL    HW125739   1.825   2.032  15.832 -0.1053 -0.0711  1.2695
 4702SOL    HW225740   1.749   1.941  15.916 -0.4349 -1.1879 -0.7076
 4703SOL     OW25741   3.664   1.787   4.502  0.1267 -0.5585  0.1739
 4703SOL    HW125742   3.738   1.764   4.558 -0.7386  0.1110  1.5781
 4703SOL    HW225743   3.703   1.863   4.459  1.0161 -0.9186  0.3457
 4704SOL     OW25744   1.758   1.820  14.242  0.2366 -0.5272  0.2624
 4704SOL    HW125745   1.722   1.908  14.249  0.9516 -0.2661  0.6515
 4704SOL    HW225746   1.852   1.830  14.259 -0.0507  0.3009  1.3458
 4705SOL     OW25747   1.072   0.735   6.316 -0.1746  0.1571 -0.5078
 4705SOL    HW125748   1.056   0.707   6.226  0.2240 -0.4623 -0.3824
 4705SOL    HW225749   1.127   0.665   6.351  0.5996  1.4197  0.8103
 4706SOL     OW25750   1.997   0.124   6.487 -0.7446  0.6755  0.2475
 4706SOL    HW125751   2.001   0.148   6.579 -0.2055 -1.3973  0.7540
 4706SOL    HW225752   1.966   0.210   6.459 -0.2106  0.7528 -0.1114
 4707SOL     OW25753   2.750   4.285  11.413  0.1180 -0.8514  0.0456
 4707SOL    HW125754   2.744   4.240  11.497 -0.6069  1.6401  1.3108
 4707SOL    HW225755   2.734   4.209  11.356 -2.5631 -0.8714  0.8161
 4708SOL     OW25756   3.911   0.954   8.937  0.1069  0.9193  0.6335
 4708SOL    HW125757   3.883   1.006   8.861 -1.7239  0.3948  0.9459
 4708SOL    HW225758   3.851   0.985   9.005  2.5459  0.0823  3.1547
 4709SOL     OW25759   1.189   2.885  16.141 -0.0148 -0.6279 -0.1889
 4709SOL    HW125760   1.180   2.850  16.229 -0.0584 -0.0046  0.0549
 4709SOL    HW225761   1.268   2.937  16.159 -0.2423 -0.3683  0.0635
 4710SOL     OW25762   2.766   0.260   5.244 -0.1274 -0.0371 -0.7341
 4710SOL    HW125763   2.732   0.348   5.228 -0.7718 -0.4520 -1.6798
 4710SOL    HW225764   2.821   0.262   5.166  0.5287  1.9478 -0.2030
 4711SOL     OW25765   4.137   4.169   3.445 -0.0694 -0.0866 -0.2451
 4711SOL    HW125766   4.145   4.167   3.350  0.7848 -0.6022 -0.1618
 4711SOL    HW225767   4.131   4.075   3.461 -0.1857  0.2322  1.6451
 4712SOL     OW25768   3.304   4.698  17.127 -0.4837 -0.3666  0.3338
 4712SOL    HW125769   3.243   4.624  17.121 -1.2387  0.1440  1.8108
 4712SOL    HW225770   3.366   4.679  17.056 -0.7889  0.8133 -0.2469
 4713SOL     OW25771   3.446   1.754  13.553 -0.2160 -0.2651 -0.2151
 4713SOL    HW125772   3.358   1.739  13.519  0.4948  0.9088 -2.6018
 4713SOL    HW225773   3.464   1.808  13.476 -1.1742  0.7847  0.3161
 4714SOL     OW25774   2.875   4.429   6.471  0.1255  0.1303 -0.6315
 4714SOL    HW125775   2.898   4.514   6.507  0.1536 -0.1715  0.0737
 4714SOL    HW225776   2.862   4.386   6.556  0.7251  1.6886  0.2538
 4715SOL     OW25777   0.985   0.988  14.061 -0.3158 -0.3697 -0.7369
 4715SOL    HW125778   1.018   0.899  14.048  2.1224  0.5761 -1.0974
 4715SOL    HW225779   0.917   0.978  14.127 -0.9464  0.4144 -1.2620
 4716SOL     OW25780   2.418   1.195   2.812 -0.6812 -0.1162  0.2400
 4716SOL    HW125781   2.435   1.231   2.726  4.6082  1.7442  2.0316
 4716SOL    HW225782   2.434   1.101   2.803 -0.3146  0.0870 -1.1668
 4717SOL     OW25783   3.171   2.624   0.607 -0.0510 -0.6311  0.2903
 4717SOL    HW125784   3.170   2.671   0.523 -0.0126 -0.9819  0.0913
 4717SOL    HW225785   3.086   2.580   0.600 -0.4725 -0.0363  1.8360
 4718SOL     OW25786   3.653   2.033  15.468 -0.2403 -0.4540 -0.1845
 4718SOL    HW125787   3.685   1.943  15.469  0.0060 -0.3662 -0.3174
 4718SOL    HW225788   3.560   2.016  15.486 -0.5890  2.2930  0.6342
 4719SOL     OW25789   2.456   0.806   4.599 -0.1262  0.1225 -0.2086
 4719SOL    HW125790   2.526   0.793   4.663 -0.1308  0.4515 -0.1361
 4719SOL    HW225791   2.452   0.720   4.558 -0.2834 -0.4512  1.0222
 4720SOL     OW25792   0.809   3.207   2.017 -0.7320 -0.3404  0.1108
 4720SOL    HW125793   0.749   3.270   2.055  0.4403 -0.0705  1.5367
 4720SOL    HW225794   0.802   3.136   2.082  1.1754  0.9085  1.7107
 4721SOL     OW25795   1.997   0.935   0.681  0.2406  0.1291 -0.1940
 4721SOL    HW125796   2.038   0.877   0.616 -1.1825  0.8117 -1.6899
 4721SOL    HW225797   1.979   1.007   0.621  2.4182  1.7273  1.0716
 4722SOL     OW25798   1.886   4.125   5.110 -0.3196  0.4787  0.1661
 4722SOL    HW125799   1.915   4.037   5.136 -2.1534  0.0809  0.8796
 4722SOL    HW225800   1.847   4.098   5.027  0.5609 -2.1470  0.6094
 4723SOL     OW25801   0.924   0.602  16.755  0.5851  0.3155 -0.3353
 4723SOL    HW125802   0.939   0.677  16.814 -0.6250  0.1604  0.1833
 4723SOL    HW225803   1.010   0.561  16.760  1.6597  2.5208 -0.7534
 4724SOL     OW25804   4.371   4.326   7.407 -0.1006  0.7516  0.0647
 4724SOL    HW125805   4.391   4.306   7.315 -0.7051 -3.1528  0.7892
 4724SOL    HW225806   4.292   4.274   7.424  0.5646 -0.3728 -0.2941
 4725SOL     OW25807   2.785   0.000  16.985 -0.4225 -0.2342 -0.0518
 4725SOL    HW125808   2.864   0.023  16.936  0.5233 -2.5855  0.3803
 4725SOL    HW225809   2.817   4.695  17.064  2.2466 -1.5073 -1.8161
 4726SOL     OW25810   2.814   3.706   8.431 -0.3617  0.0639 -0.0059
 4726SOL    HW125811   2.889   3.648   8.419  1.1247  2.4033 -2.2601
 4726SOL    HW225812   2.835   3.794   8.400 -2.5342  0.5301 -0.1431
 4727SOL     OW25813   0.039   2.999   6.127  0.3903 -0.4389  0.1519
 4727SOL    HW125814   4.691   2.959   6.127  1.0875 -1.9700  3.3264
 4727SOL    HW225815   0.028   3.093   6.140  0.1102 -0.4593  0.0684
 4728SOL     OW25816   0.876   1.953   8.387 -0.3780 -0.1779 -0.3137
 4728SOL    HW125817   0.892   2.039   8.426  0.5817  0.8665 -2.9958
 4728SOL    HW225818   0.928   1.956   8.306 -3.2012  1.4315 -2.0547
 4729SOL     OW25819   3.650   0.449  11.985  0.6590  0.4134 -0.4294
 4729SOL    HW125820   3.631   0.539  12.013 -1.9723 -1.1623  2.8989
 4729SOL    HW225821   3.741   0.446  11.956  0.6007  0.2848 -0.5980
 4730SOL     OW25822   1.104   1.051   1.058  0.7419  0.5913 -0.2696
 4730SOL    HW125823   1.041   1.030   0.989 -1.2488  0.5959  1.5632
 4730SOL    HW225824   1.052   1.108   1.115 -0.8885 -1.4884  0.3184
 4731SOL     OW25825   2.215   2.911   5.313 -0.3283 -0.4296  0.0788
 4731SOL    HW125826   2.266   2.968   5.371 -1.0385 -0.9800  1.2612
 4731SOL    HW225827   2.126   2.945   5.304 -0.6411 -0.9882  1.0171
 4732SOL     OW25828   4.249   3.545   5.962  0.4919  0.2101 -0.0834
 4732SOL    HW125829   4.307   3.532   5.887  0.6823 -0.6978  0.2306
 4732SOL    HW225830   4.212   3.461   5.987 -1.2659  1.0438  0.1062
 4733SOL     OW25831   4.499   2.312   3.947  0.5196  0.4772  0.1608
 4733SOL    HW125832   4.563   2.383   3.958 -2.5194  2.8558  2.4907
 4733SOL    HW225833   4.421   2.369   3.946  0.3731  0.2809  0.8285
 4734SOL     OW25834   4.301   2.658   2.754 -0.0556  0.6771 -0.8058
 4734SOL    HW125835   4.304   2.728   2.819 -0.1205  0.5826 -0.7016
 4734SOL    HW225836   4.386   2.617   2.739 -0.2255  0.6051 -1.5788
 4735SOL     OW25837   2.256   0.807   8.896 -0.2437  0.6819  0.5746
 4735SOL    HW125838   2.184   0.839   8.950 -0.1022 -0.6210  1.5186
 4735SOL    HW225839   2.315   0.883   8.902 -0.8739  1.2468 -0.3239
 4736SOL     OW25840   4.123   2.776   7.720  0.1989 -0.4995 -0.4688
 4736SOL    HW125841   4.127   2.698   7.776  0.8221 -0.7752 -0.8972
 4736SOL    HW225842   4.142   2.841   7.787  0.5835 -0.1852 -0.8845
 4737SOL     OW25843   4.671   0.401   1.195 -0.1387 -0.0680 -0.0683
 4737SOL    HW125844   0.024   0.413   1.220 -0.8671  3.9184  0.6431
 4737SOL    HW225845   4.667   0.455   1.116  0.3359 -0.7311 -0.5506
 4738SOL     OW25846   3.975   2.731   1.453  0.1860  0.6773 -0.4810
 4738SOL    HW125847   3.973   2.827   1.447 -1.1536  0.5967 -1.2172
 4738SOL    HW225848   3.891   2.709   1.493  0.6144 -1.6783 -0.9164
 4739SOL     OW25849   1.947   3.037   4.626 -0.4340 -0.2335 -0.0774
 4739SOL    HW125850   2.007   3.068   4.558  0.4376  0.6450  1.1111
 4739SOL    HW225851   1.995   2.987   4.692  0.1880 -0.8717 -1.0151
 4740SOL     OW25852   3.437   3.813   6.879  0.0251  0.4859  0.4456
 4740SOL    HW125853   3.437   3.868   6.800 -0.7006 -1.3292 -0.8170
 4740SOL    HW225854   3.363   3.757   6.855  0.1651  0.8327 -0.8209
 4741SOL     OW25855   1.588   0.510  11.654  0.2386  0.6090 -0.2238
 4741SOL    HW125856   1.684   0.505  11.661  0.0512  2.3757  3.5840
 4741SOL    HW225857   1.581   0.479  11.564 -1.6123 -0.4146  0.2843
 4742SOL     OW25858   0.798   4.172   9.891  0.1271  0.3126  0.6358
 4742SOL    HW125859   0.750   4.239   9.843  0.1817  0.4618  0.7909
 4742SOL    HW225860   0.739   4.164   9.967 -0.7673 -0.1645 -0.1125
 4743SOL     OW25861   1.890   4.659   1.456  0.5580 -0.3356 -0.3448
 4743SOL    HW125862   1.977   4.622   1.445  0.4756 -0.8224  0.6472
 4743SOL    HW225863   1.847   4.609   1.525 -1.6574  0.0665 -1.4134
 4744SOL     OW25864   1.870   2.811  12.688 -0.1096 -0.6964 -0.1765
 4744SOL    HW125865   1.952   2.766  12.708 -1.1284 -1.9335  1.1792
 4744SOL    HW225866   1.818   2.787  12.765 -0.3541 -1.8873 -0.7033
 4745SOL     OW25867   1.367   1.016   9.691  0.0693  0.0117  0.5420
 4745SOL    HW125868   1.458   1.042   9.702  0.1474 -0.3423  0.7218
 4745SOL    HW225869   1.358   0.946   9.626 -0.4557 -0.4164  1.0760
 4746SOL     OW25870   3.769   4.186  17.684 -0.3622 -0.2399 -0.6674
 4746SOL    HW125871   3.698   4.244  17.714 -0.1872 -0.0057 -0.7057
 4746SOL    HW225872   3.825   4.179   0.007 -0.6573  0.8783 -0.3475
 4747SOL     OW25873   1.931   2.903   0.158  0.5719  0.1377 -0.1568
 4747SOL    HW125874   1.870   2.913   0.230 -0.8186 -0.7015 -1.2135
 4747SOL    HW225875   1.896   2.829   0.108 -1.3505  0.2016  1.1246
 4748SOL     OW25876   1.017   1.771   4.559 -0.5908  0.1150 -0.3722
 4748SOL    HW125877   0.956   1.823   4.611  0.3761 -1.2121  2.0719
 4748SOL    HW225878   0.980   1.683   4.563 -1.5382  0.5860  0.9890
 4749SOL     OW25879   2.122   2.275   7.585  0.2752 -0.3535  0.6308
 4749SOL    HW125880   2.143   2.356   7.632 -0.1678  0.5629 -0.7481
 4749SOL    HW225881   2.056   2.304   7.522  1.2392  0.8725  0.1770
 4750SOL     OW25882   1.001   3.016   3.904  0.5539  0.2971  0.0556
 4750SOL    HW125883   1.029   3.047   3.818  1.4633 -0.1803  0.1773
 4750SOL    HW225884   0.978   3.098   3.947  0.4668 -0.1662  0.8911
 4751SOL     OW25885   4.242   3.319   7.815  0.3106 -0.6146 -0.3862
 4751SOL    HW125886   4.290   3.394   7.849 -1.3427  0.1331  0.3280
 4751SOL    HW225887   4.322   3.273   7.791 -0.0941 -0.8902 -1.2079
 4752SOL     OW25888   0.117   2.587   1.748  0.2414  0.5052 -0.0048
 4752SOL    HW125889   0.185   2.652   1.768  1.8130 -0.0764 -3.3637
 4752SOL    HW225890   0.167   2.544   1.678  0.0870  0.0058  0.1957
 4753SOL     OW25891   2.990   2.371   8.851 -0.6164 -0.3292  0.8002
 4753SOL    HW125892   2.968   2.459   8.882 -1.4885 -0.7587  1.4072
 4753SOL    HW225893   3.025   2.338   8.934  1.2318 -2.2248 -0.7330
 4754SOL     OW25894   2.765   1.054   3.632 -0.2499 -0.3754  0.4434
 4754SOL    HW125895   2.703   1.068   3.704 -0.8152 -0.7793  0.0402
 4754SOL    HW225896   2.799   1.139   3.604 -1.7393  0.0772 -0.0138
 4755SOL     OW25897   3.301   2.529  16.208  0.0471  0.6825  0.0668
 4755SOL    HW125898   3.283   2.450  16.260  1.2386 -0.0830 -0.6723
 4755SOL    HW225899   3.277   2.594  16.273  0.7829  1.0674 -0.0497
 4756SOL     OW25900   3.929   4.414   9.760 -0.0950 -0.8888  0.2459
 4756SOL    HW125901   3.913   4.322   9.778  0.0379 -0.9210  0.2021
 4756SOL    HW225902   4.024   4.418   9.774 -0.6345  4.0901  2.7135
 4757SOL     OW25903   3.867   3.742   9.365 -0.4859  0.3041  0.1334
 4757SOL    HW125904   3.892   3.833   9.348  0.1925 -0.4192 -2.8047
 4757SOL    HW225905   3.946   3.701   9.400  0.5032  1.1421 -1.0999
 4758SOL     OW25906   3.429   1.811   3.475  0.2669 -0.3415 -0.4155
 4758SOL    HW125907   3.351   1.866   3.462  1.8398  1.9985 -0.0619
 4758SOL    HW225908   3.403   1.728   3.435  1.4114 -1.0280  0.2902
 4759SOL     OW25909   3.210   4.582   6.262 -0.3372  0.7149 -0.0158
 4759SOL    HW125910   3.221   4.641   6.336  0.7386  2.6708 -1.7147
 4759SOL    HW225911   3.151   4.632   6.207  0.6535  0.0598 -1.6909
 4760SOL     OW25912   3.827   3.075   5.227 -0.0076 -0.0580  0.1068
 4760SOL    HW125913   3.863   3.112   5.147 -0.2395  0.5414  0.2837
 4760SOL    HW225914   3.739   3.064   5.192  0.3023 -0.3386 -0.5804
 4761SOL     OW25915   0.230   2.668  12.453  0.1080  0.2675  0.8873
 4761SOL    HW125916   0.201   2.636  12.538 -0.9375  0.9310  0.7742
 4761SOL    HW225917   0.184   2.752  12.454  2.1464  1.3914  0.6273
 4762SOL     OW25918   3.664   1.763   7.271 -0.6053 -0.0601  0.4359
 4762SOL    HW125919   3.676   1.729   7.182 -0.1613 -1.3164  0.9736
 4762SOL    HW225920   3.734   1.710   7.309 -0.3748  2.3499  3.3483
 4763SOL     OW25921   3.757   4.228   4.176  0.4120  0.2358 -0.2012
 4763SOL    HW125922   3.663   4.233   4.157  0.0804  2.5427  2.0513
 4763SOL    HW225923   3.776   4.143   4.137 -3.3745 -0.2618 -0.9247
 4764SOL     OW25924   1.649   0.967   3.037  0.2695  0.6770  0.2791
 4764SOL    HW125925   1.660   1.034   2.969  2.0327  0.5496  0.4570
 4764SOL    HW225926   1.671   0.885   2.994 -2.1171 -0.3046  0.9118
 4765SOL     OW25927   2.063   0.815   5.463  0.0963  0.0516  0.3511
 4765SOL    HW125928   2.103   0.754   5.524 -1.1483  0.1734  1.2751
 4765SOL    HW225929   2.128   0.885   5.459  0.1385 -0.0139 -0.2267
 4766SOL     OW25930   4.678   3.693   5.305  0.0427 -0.3657  0.2284
 4766SOL    HW125931   4.622   3.738   5.242  1.2232  0.2888 -0.3551
 4766SOL    HW225932   4.683   3.606   5.264 -2.1374  0.5188 -1.9018
 4767SOL     OW25933   2.038   0.045   4.496 -0.1458 -0.7049  0.0174
 4767SOL    HW125934   2.086   0.026   4.576 -0.3854 -0.7267  0.1569
 4767SOL    HW225935   1.947   0.037   4.524 -0.5999 -0.3740 -1.3383
 4768SOL     OW25936   3.830   1.873   3.912 -0.0738 -0.0928 -0.1461
 4768SOL    HW125937   3.857   1.788   3.879  0.1510 -0.3850  0.7920
 4768SOL    HW225938   3.735   1.884   3.903  0.1172  1.7525 -0.0366
 4769SOL     OW25939   1.681   1.874   4.635 -0.1396 -0.7579  0.2560
 4769SOL    HW125940   1.635   1.958   4.638  0.0857 -0.6046 -0.6681
 4769SOL    HW225941   1.747   1.878   4.566 -1.9832 -1.6574 -1.5594
 4770SOL     OW25942   2.090   1.974   4.005  0.3783  0.3758 -0.0402
 4770SOL    HW125943   2.142   1.963   4.086 -0.0877 -1.0287  0.0657
 4770SOL    HW225944   2.000   1.964   4.036 -0.1474 -0.4498 -1.8460
 4771SOL     OW25945   2.496   0.654  16.933 -0.4671  0.1572  0.3742
 4771SOL    HW125946   2.503   0.748  16.948  2.7085  0.1519 -1.1387
 4771SOL    HW225947   2.510   0.619  17.020  0.2344 -0.9976 -0.2078
 4772SOL     OW25948   4.645   3.502   4.334  0.0979 -0.4571  0.8133
 4772SOL    HW125949   4.656   3.419   4.289 -0.1410 -0.3934  0.6335
 4772SOL    HW225950   4.714   3.489   4.399 -0.2335 -3.6761  0.5178
 4773SOL     OW25951   4.166   2.929   4.271  0.1771 -1.2096  0.0151
 4773SOL    HW125952   4.191   2.970   4.354 -0.2906  0.5210 -0.6861
 4773SOL    HW225953   4.072   2.950   4.266  0.1934 -0.7892  1.5031
 4774SOL     OW25954   2.183   1.687   5.687  0.0048 -0.2810  0.6346
 4774SOL    HW125955   2.114   1.687   5.622  0.5133  2.2936  0.0855
 4774SOL    HW225956   2.139   1.661   5.768 -0.6461  1.9475  1.0033
 4775SOL     OW25957   2.673   4.620   8.284  0.2285 -0.3838  0.4759
 4775SOL    HW125958   2.667   4.702   8.235  1.0139  0.3796  1.6403
 4775SOL    HW225959   2.768   4.611   8.275  0.2337  0.7162 -0.5381
 4776SOL     OW25960   4.344   2.193  13.962  1.4842 -0.4284 -0.2207
 4776SOL    HW125961   4.440   2.185  13.961  1.6327  1.2486  1.7331
 4776SOL    HW225962   4.341   2.278  14.004 -0.0993 -1.4308  1.6884
 4777SOL     OW25963   1.086   3.875  11.243  0.2541 -0.2407 -0.1023
 4777SOL    HW125964   1.094   3.790  11.198 -1.9976 -0.1933 -0.5862
 4777SOL    HW225965   1.179   3.880  11.263  0.2402  0.4912 -0.2177
 4778SOL     OW25966   3.394   1.630   8.893  0.0905  0.4703  0.0377
 4778SOL    HW125967   3.440   1.549   8.871  1.6210  1.2270  0.4553
 4778SOL    HW225968   3.406   1.680   8.812 -0.0725 -1.3768 -1.1328
 4779SOL     OW25969   4.596   2.154   0.780 -0.1976 -0.0279 -0.0531
 4779SOL    HW125970   4.607   2.191   0.868  1.7841 -0.2740 -0.1953
 4779SOL    HW225971   4.540   2.077   0.791 -2.2337  1.7900  2.2934
 4780SOL     OW25972   3.227   3.183   3.947  0.6715 -0.5438  0.2835
 4780SOL    HW125973   3.169   3.174   4.023 -0.8951 -0.4263 -0.8970
 4780SOL    HW225974   3.161   3.201   3.879  0.1029 -0.9045  0.7420
 4781SOL     OW25975   2.738   2.385   2.634 -0.3423  0.2745 -0.0881
 4781SOL    HW125976   2.804   2.354   2.696  1.6724 -0.2800 -2.4860
 4781SOL    HW225977   2.788   2.460   2.601  1.6666 -0.1208  2.0260
 4782SOL     OW25978   4.393   2.128   8.932  0.5813  0.0798 -0.2989
 4782SOL    HW125979   4.447   2.100   9.007 -1.2990 -1.8030  0.3646
 4782SOL    HW225980   4.310   2.148   8.976  1.1757  0.3942  0.6881
 4783SOL     OW25981   3.013   3.905   7.181  0.1686 -0.2926 -0.2481
 4783SOL    HW125982   2.923   3.934   7.189 -0.7523 -3.4478  0.7553
 4783SOL    HW225983   3.013   3.814   7.150  0.3162 -0.2563 -0.3574
 4784SOL     OW25984   3.613   0.749   1.943 -0.6193 -0.2785  0.8461
 4784SOL    HW125985   3.540   0.770   1.885 -0.4770  0.8440  1.0623
 4784SOL    HW225986   3.656   0.833   1.960  1.0707 -0.8603 -0.6049
 4785SOL     OW25987   1.414   4.636   3.043 -0.1109 -0.4438 -0.6875
 4785SOL    HW125988   1.478   4.663   3.109  0.4143  0.2427 -1.4849
 4785SOL    HW225989   1.352   4.707   3.024  1.1219  0.2566 -2.0631
 4786SOL     OW25990   2.911   0.829   3.068 -0.0043  0.1455 -0.2986
 4786SOL    HW125991   2.842   0.765   3.087  0.4429  0.5019  2.6232
 4786SOL    HW225992   2.989   0.789   3.107  2.7299  3.0247 -2.7857
 4787SOL     OW25993   2.450   1.137   2.186 -0.0360 -0.2456  0.4144
 4787SOL    HW125994   2.447   1.059   2.241  2.9774 -0.1507  0.7499
 4787SOL    HW225995   2.537   1.174   2.202 -0.5051  0.7830  0.6283
 4788SOL     OW25996   1.089   2.973   2.335  0.0506  0.0441  0.0289
 4788SOL    HW125997   1.146   2.949   2.261 -1.2860  0.7382 -1.2317
 4788SOL    HW225998   1.005   2.989   2.290 -0.0970 -1.0771 -0.1003
 4789SOL     OW25999   2.322   2.604  13.791 -0.4583  0.8406  1.0698
 4789SOL    HW126000   2.399   2.584  13.844  1.3681  5.3517  0.1429
 4789SOL    HW226001   2.343   2.550  13.714 -1.5336  1.1131  0.5956
 4790SOL     OW26002   1.533   0.492   1.993  0.2581 -0.5034 -0.4253
 4790SOL    HW126003   1.536   0.397   2.003  2.3621 -0.2262  1.7656
 4790SOL    HW226004   1.594   0.498   1.919  0.1339  1.3191 -0.3676
 4791SOL     OW26005   2.227   4.266   3.033 -0.2025  0.6998  0.4282
 4791SOL    HW126006   2.181   4.182   3.027 -0.4203  0.8552 -0.0769
 4791SOL    HW226007   2.180   4.313   3.102  1.4985  0.0150  2.0568
 4792SOL     OW26008   4.222   2.868   9.443  0.4343 -0.0916 -0.2715
 4792SOL    HW126009   4.247   2.956   9.416 -2.0987  0.5278 -0.6244
 4792SOL    HW226010   4.218   2.888   9.536  1.4721  0.3378 -0.3271
 4793SOL     OW26011   4.630   4.348  15.897  0.7664 -0.4876 -0.2679
 4793SOL    HW126012   4.599   4.266  15.936 -2.4970  2.0791  2.5870
 4793SOL    HW226013   4.670   4.387  15.975 -1.1711 -0.4516  0.7075
 4794SOL     OW26014   3.131   4.629  10.641 -0.0973 -0.2732 -0.0704
 4794SOL    HW126015   3.135   4.721  10.667  0.3077 -0.5569  0.8870
 4794SOL    HW226016   3.045   4.603  10.674 -1.6297  1.5758 -2.6838
 4795SOL     OW26017   2.046   0.884   3.519 -0.1975  0.4371 -0.4719
 4795SOL    HW126018   2.141   0.878   3.523 -0.1637 -0.2375 -2.2212
 4795SOL    HW226019   2.014   0.814   3.576  1.4038  0.7132  0.7566
 4796SOL     OW26020   4.268   1.332   2.676  0.0370 -0.1042 -0.3552
 4796SOL    HW126021   4.195   1.342   2.737  0.9494  1.6483  0.4459
 4796SOL    HW226022   4.341   1.319   2.737  1.1989 -1.4519 -2.0232
 4797SOL     OW26023   4.260   1.680   3.503 -0.0624 -0.6039 -0.4566
 4797SOL    HW126024   4.309   1.754   3.468 -0.9490 -0.0490 -0.5416
 4797SOL    HW226025   4.274   1.622   3.429  0.9685 -0.1325 -0.6202
 4798SOL     OW26026   2.609   4.723   6.281  0.2183 -0.3163  0.1585
 4798SOL    HW126027   2.542   0.051   6.295  1.7911  1.8109 -2.5316
 4798SOL    HW226028   2.587   4.653   6.343  1.0132 -1.9384 -1.3748
 4799SOL     OW26029   1.033   0.200   0.329 -0.1143  0.0949 -0.0697
 4799SOL    HW126030   0.966   0.135   0.307 -0.7912  0.9613 -0.5890
 4799SOL    HW226031   1.030   0.258   0.252  1.4442 -2.3108 -1.9487
 4800SOL     OW26032   3.116   0.704  17.670 -0.3366  0.4108 -0.4946
 4800SOL    HW126033   3.127   0.796  17.690 -0.2715  0.4517 -0.7163
 4800SOL    HW226034   3.110   0.721  17.576 -0.7384  0.9726 -0.3682
 4801SOL     OW26035   0.472   1.481   1.968  0.3083  0.0942 -0.6833
 4801SOL    HW126036   0.504   1.473   1.878 -0.6441  0.6777 -1.0841
 4801SOL    HW226037   0.426   1.397   1.977  1.1322 -0.5137 -2.2829
 4802SOL     OW26038   3.412   0.323  11.991  0.0606 -0.5883  0.0100
 4802SOL    HW126039   3.493   0.373  11.980  0.5153 -1.1502  0.8023
 4802SOL    HW226040   3.423   0.298  12.083 -2.8546 -0.5410  0.3548
 4803SOL     OW26041   1.868   2.561  12.092  0.6275  0.2946 -0.1962
 4803SOL    HW126042   1.836   2.625  12.156 -1.4071 -0.7948 -0.1082
 4803SOL    HW226043   1.797   2.566  12.027  0.3393  2.3525  0.2675
 4804SOL     OW26044   3.671   0.868  12.327 -0.5930  0.5114  0.0930
 4804SOL    HW126045   3.747   0.923  12.314  0.4127 -0.7823  0.5111
 4804SOL    HW226046   3.609   0.917  12.382  0.6523 -0.7011  2.5666
 4805SOL     OW26047   0.702   1.230   2.383 -0.8625 -0.6779  0.0975
 4805SOL    HW126048   0.671   1.160   2.325 -1.6552 -0.4464  0.2466
 4805SOL    HW226049   0.796   1.215   2.368 -1.0624 -1.8162 -0.0181
 4806SOL     OW26050   0.316   0.380   7.347  0.2413 -0.4509 -0.3234
 4806SOL    HW126051   0.270   0.429   7.414  1.3783 -0.0869  0.1923
 4806SOL    HW226052   0.390   0.430   7.313 -0.5262  0.6528 -0.3468
 4807SOL     OW26053   1.079   1.482   9.079  0.2149 -0.3659  0.3754
 4807SOL    HW126054   1.109   1.395   9.106  1.1607 -0.6103 -1.5499
 4807SOL    HW226055   1.017   1.507   9.148  1.7226  0.3285  1.4878
 4808SOL     OW26056   3.483   1.572   3.868  0.4461  0.2941 -0.0752
 4808SOL    HW126057   3.528   1.487   3.875  0.3858  0.1946 -0.8581
 4808SOL    HW226058   3.530   1.621   3.936 -1.7817 -1.3124  2.6286
 4809SOL     OW26059   2.675   0.605   0.261 -0.2650  0.5504 -0.0935
 4809SOL    HW126060   2.657   0.675   0.324  1.4657  3.1318 -2.4802
 4809SOL    HW226061   2.582   0.590   0.246  0.1316 -0.0404 -1.8660
 4810SOL     OW26062   2.334   1.202   0.591  0.5904 -0.6058  0.2254
 4810SOL    HW126063   2.243   1.211   0.564  0.0744  0.0137  2.1896
 4810SOL    HW226064   2.326   1.163   0.678  2.2077 -0.1638  0.5715
 4811SOL     OW26065   0.138   3.230   8.089 -0.1737  0.1272 -0.0452
 4811SOL    HW126066   0.102   3.165   8.149 -1.7840  1.1527  0.0963
 4811SOL    HW226067   0.071   3.298   8.079 -0.1360  0.1758  0.0337
 4812SOL     OW26068   0.506   0.047  16.618 -0.9082 -0.1097 -0.0607
 4812SOL    HW126069   0.498   0.131  16.664  1.1042  0.6702 -1.1362
 4812SOL    HW226070   0.503   0.077  16.526  1.0629  1.7631  0.4729
 4813SOL     OW26071   2.975   3.504   8.804  0.3428 -0.1839  0.2168
 4813SOL    HW126072   2.977   3.442   8.877 -0.3353  1.6546  1.8251
 4813SOL    HW226073   2.981   3.582   8.860  0.3871 -0.0584  0.0375
 4814SOL     OW26074   1.198   1.499   8.070  0.2046  0.0546  0.1016
 4814SOL    HW126075   1.258   1.567   8.041  1.9829 -0.7306  2.0174
 4814SOL    HW226076   1.235   1.463   8.150 -1.3335 -0.8393  0.4230
 4815SOL     OW26077   0.085   4.637  15.476 -0.7949  0.2003 -0.0594
 4815SOL    HW126078   0.105   4.716  15.425  0.9756 -0.1740  0.0557
 4815SOL    HW226079   0.016   4.595  15.424  0.9285 -2.3715 -0.2248
 4816SOL     OW26080   3.937   2.059   4.669  0.4760 -0.0536  0.0574
 4816SOL    HW126081   3.993   1.992   4.629  0.0191  1.3062 -2.8444
 4816SOL    HW226082   3.867   2.005   4.706  1.5663 -1.9494 -0.6420
 4817SOL     OW26083   1.147   3.598  11.166 -0.1202 -0.0346  0.3808
 4817SOL    HW126084   1.201   3.550  11.229  1.2291  0.5571 -0.3130
 4817SOL    HW226085   1.199   3.585  11.086  1.0923 -0.4040  1.2346
 4818SOL     OW26086   0.525   2.645   2.394  0.4597 -0.2563 -0.2500
 4818SOL    HW126087   0.616   2.636   2.367  0.6114  1.5286 -0.3340
 4818SOL    HW226088   0.540   2.648   2.489  0.8505 -0.9229 -0.2898
 4819SOL     OW26089   3.569   2.994   6.615 -0.5838 -0.0159  0.4168
 4819SOL    HW126090   3.512   3.070   6.601  1.2343  1.1470 -0.6110
 4819SOL    HW226091   3.579   2.992   6.710 -1.4163 -0.0741  0.5078
 4820SOL     OW26092   1.034   2.387  16.864 -0.0321  0.6113  0.1114
 4820SOL    HW126093   1.020   2.320  16.931  0.3505  1.6428  1.2227
 4820SOL    HW226094   1.129   2.404  16.864  0.2366 -0.9781 -2.4426
 4821SOL     OW26095   0.525   0.547   3.822 -0.5435 -0.4089 -0.1106
 4821SOL    HW126096   0.618   0.573   3.820 -0.9749  0.9538 -2.9250
 4821SOL    HW226097   0.481   0.628   3.799  1.1059  0.3572 -0.5940
 4822SOL     OW26098   4.582   4.641   8.017 -0.2660 -0.1048  0.7468
 4822SOL    HW126099   4.601   4.639   8.111  1.0665  1.2483  0.4984
 4822SOL    HW226100   4.665   4.669   7.978  0.0644 -1.8577  0.1918
 4823SOL     OW26101   4.499   4.557   2.023  0.0167  0.3319  0.2203
 4823SOL    HW126102   4.549   4.606   2.088 -1.2534  1.8510  0.0685
 4823SOL    HW226103   4.418   4.608   2.027 -1.0256 -1.1705 -1.7310
 4824SOL     OW26104   4.011   1.118   7.440 -0.2358 -0.2119  0.0903
 4824SOL    HW126105   4.009   1.041   7.497 -2.3816 -0.0524  0.2039
 4824SOL    HW226106   3.949   1.091   7.372  1.7092 -3.2253 -0.5105
 4825SOL     OW26107   3.612   0.735   3.906  0.0962 -0.5752 -0.1764
 4825SOL    HW126108   3.679   0.675   3.873  0.5687 -1.1667  1.8641
 4825SOL    HW226109   3.552   0.733   3.831 -0.2359 -1.9539  0.1287
 4826SOL     OW26110   1.825   1.510   1.165  0.3036 -0.2792  0.1526
 4826SOL    HW126111   1.827   1.425   1.208  2.9356 -0.5074 -0.4496
 4826SOL    HW226112   1.916   1.539   1.169 -0.3207  1.7333 -0.3255
 4827SOL     OW26113   2.802   4.191   6.127 -0.0582  0.2415  0.8435
 4827SOL    HW126114   2.861   4.122   6.155 -0.3000 -0.5600 -0.6562
 4827SOL    HW226115   2.836   4.190   6.037  0.4255 -3.6679  1.1026
 4828SOL     OW26116   0.525   0.433   2.048 -0.0355  0.0196 -0.2165
 4828SOL    HW126117   0.479   0.350   2.053 -0.8686  0.5345  0.6880
 4828SOL    HW226118   0.509   0.483   2.128  1.0863 -0.3638  0.2306
 4829SOL     OW26119   0.351   0.940  14.000  0.1225 -0.8343 -0.0863
 4829SOL    HW126120   0.342   0.907  13.911 -0.0842 -0.7391 -0.1016
 4829SOL    HW226121   0.281   0.887  14.039 -1.1538 -0.9050 -2.5131
 4830SOL     OW26122   4.361   4.279   6.799  0.2822  0.6076  0.0779
 4830SOL    HW126123   4.322   4.299   6.884 -1.8433  1.4831 -1.0900
 4830SOL    HW226124   4.455   4.269   6.815  0.4115  2.4473  0.4748
 4831SOL     OW26125   2.247   0.136   4.362 -0.2940  0.2719 -0.0034
 4831SOL    HW126126   2.284   0.048   4.362  0.5412  0.6138 -0.0354
 4831SOL    HW226127   2.162   0.122   4.403 -0.3514 -0.2896 -0.3150
 4832SOL     OW26128   0.780   4.224   8.595 -0.2009 -0.3417 -0.2310
 4832SOL    HW126129   0.752   4.212   8.686  1.5828 -1.9335  0.1110
 4832SOL    HW226130   0.843   4.296   8.596 -0.6868  0.1065 -1.9684
 4833SOL     OW26131   4.283   2.627   6.956  0.1068  0.5484  0.3622
 4833SOL    HW126132   4.267   2.579   6.875 -1.0109 -0.2181  1.0412
 4833SOL    HW226133   4.337   2.558   6.996 -1.1227  0.5444  1.9974
 4834SOL     OW26134   1.525   0.588   5.072 -0.3062  0.3406  0.5845
 4834SOL    HW126135   1.614   0.554   5.082 -0.0857  0.7201 -0.0811
 4834SOL    HW226136   1.482   0.562   5.153 -0.0875 -1.1723  0.2256
 4835SOL     OW26137   1.096   1.933   4.822 -0.0471  0.6584  0.1164
 4835SOL    HW126138   1.006   1.905   4.812 -0.3002  1.5892 -0.2605
 4835SOL    HW226139   1.136   1.846   4.824 -2.1876 -0.3473 -0.8341
 4836SOL     OW26140   2.639   2.273   3.614  0.4671 -0.7995  0.1235
 4836SOL    HW126141   2.642   2.192   3.563 -1.7702  1.8430 -4.1933
 4836SOL    HW226142   2.572   2.257   3.680  1.0658 -0.2752  0.8592
 4837SOL     OW26143   4.457   0.591  11.481 -0.3289  0.2893  0.5106
 4837SOL    HW126144   4.542   0.560  11.448 -1.1996 -0.7595 -0.7691
 4837SOL    HW226145   4.409   0.510  11.465 -3.6108  2.4510 -0.3901
 4838SOL     OW26146   1.655   4.652  13.485  0.2047 -0.5534 -0.2059
 4838SOL    HW126147   1.693   4.672  13.399  1.3495  2.8862  1.0968
 4838SOL    HW226148   1.579   4.695  13.445  0.1552 -1.2280 -0.8407
 4839SOL     OW26149   1.190   0.882  14.481  0.3529  0.6475  0.1013
 4839SOL    HW126150   1.113   0.830  14.504  0.8574  0.1934  0.7399
 4839SOL    HW226151   1.147   0.967  14.465  0.4688  0.6405 -0.2530
 4840SOL     OW26152   1.802   0.405  11.904 -0.2350  0.2803 -0.3077
 4840SOL    HW126153   1.796   0.374  11.994  0.6274 -0.9776 -0.6944
 4840SOL    HW226154   1.714   0.385  11.871 -0.0372 -0.8865 -0.1119
 4841SOL     OW26155   4.260   2.860   5.572 -0.3653  0.2543 -0.7794
 4841SOL    HW126156   4.183   2.872   5.628 -0.6371  1.2987 -1.3515
 4841SOL    HW226157   4.322   2.924   5.607 -0.0530 -0.3241 -0.2949
 4842SOL     OW26158   1.581   0.865   6.162 -0.5576 -0.0651  0.5294
 4842SOL    HW126159   1.653   0.923   6.137 -1.6443  0.4590 -1.3488
 4842SOL    HW226160   1.632   0.787   6.183  0.1442  0.1928 -0.2034
 4843SOL     OW26161   0.440   4.060   9.254  0.3881  0.0053  0.1109
 4843SOL    HW126162   0.452   4.145   9.211  1.9725 -1.7211 -2.8590
 4843SOL    HW226163   0.369   4.090   9.311 -1.0974 -1.7134 -0.8176
 4844SOL     OW26164   3.341   4.082   8.385  0.1589 -0.4192 -0.0439
 4844SOL    HW126165   3.252   4.048   8.381 -1.6049  3.8886  1.8192
 4844SOL    HW226166   3.375   4.064   8.297 -0.4543 -0.3290 -0.2970
 4845SOL     OW26167   3.036   4.695   6.090 -0.0796  0.4215 -0.2886
 4845SOL    HW126168   2.992   4.610   6.083 -0.5904  0.6439  0.3271
 4845SOL    HW226169   2.967   0.005   6.134  0.2244  1.6422 -1.1804
 4846SOL     OW26170   0.052   4.255   1.954  0.0049 -0.2223 -0.7168
 4846SOL    HW126171   0.033   4.171   1.912 -0.3133  0.6302 -2.2611
 4846SOL    HW226172   0.018   4.236   2.042 -0.0468 -0.5941 -0.8175
 4847SOL     OW26173   2.045   3.538  16.139  0.0172 -0.1465  0.1460
 4847SOL    HW126174   2.139   3.538  16.156 -0.4553 -0.4749  2.7340
 4847SOL    HW226175   2.020   3.446  16.126 -0.1477 -0.0841  0.0293
 4848SOL     OW26176   3.620   3.580   4.277  0.1093 -0.3686  0.3769
 4848SOL    HW126177   3.607   3.585   4.372 -0.1367 -0.9887  0.3750
 4848SOL    HW226178   3.687   3.648   4.267  0.6255 -0.6965  1.5587
 4849SOL     OW26179   1.437   3.954   0.137  0.7975 -0.6070 -0.2013
 4849SOL    HW126180   1.486   4.034   0.116 -0.2808  0.2758  0.6481
 4849SOL    HW226181   1.498   3.885   0.112  0.0708 -1.7235  1.1358
 4850SOL     OW26182   2.345   4.433   6.806 -0.5450 -0.5409  1.2083
 4850SOL    HW126183   2.441   4.442   6.805 -0.5404 -0.8407 -0.3721
 4850SOL    HW226184   2.332   4.350   6.762 -1.2446  1.0961 -1.6762
 4851SOL     OW26185   1.504   0.157   0.365  0.0731 -0.6597 -0.3727
 4851SOL    HW126186   1.437   0.205   0.317  0.8444  1.0691  0.2945
 4851SOL    HW226187   1.461   0.076   0.392 -1.1198  0.4579  1.1284
 4852SOL     OW26188   2.801   0.479   8.134 -0.9267 -0.4085 -0.3800
 4852SOL    HW126189   2.867   0.443   8.075 -1.3486  0.0550 -1.1475
 4852SOL    HW226190   2.730   0.502   8.075  0.2641  1.6959 -0.9973
 4853SOL     OW26191   0.422   4.324   6.521 -0.1342  0.6677  0.2892
 4853SOL    HW126192   0.462   4.258   6.577  1.0961  0.7978 -0.4276
 4853SOL    HW226193   0.498   4.346   6.466  0.1551  1.9000  1.1753
 4854SOL     OW26194   2.388   1.545   7.524 -0.4254 -0.0474 -0.5958
 4854SOL    HW126195   2.385   1.601   7.602 -2.9365 -0.2800 -0.5378
 4854SOL    HW226196   2.344   1.469   7.561 -0.9154  0.1321 -0.8111
 4855SOL     OW26197   1.601   2.421   9.137 -0.8436 -0.2066  0.2326
 4855SOL    HW126198   1.617   2.327   9.127 -1.4691 -0.2128 -0.6631
 4855SOL    HW226199   1.578   2.427   9.230  1.8892  0.3386  0.8961
 4856SOL     OW26200   2.853   2.841   0.016  0.2623  0.4560  0.6798
 4856SOL    HW126201   2.862   2.772   0.082  1.0424  2.1334  2.3132
 4856SOL    HW226202   2.799   2.790  17.708 -1.1878  0.8165  1.6541
 4857SOL     OW26203   2.024   0.108   2.564 -0.2346 -0.4542  0.1740
 4857SOL    HW126204   1.997   0.119   2.473  0.5656  2.0612  0.2614
 4857SOL    HW226205   1.939   0.111   2.607  1.1760  1.6286  2.7752
 4858SOL     OW26206   1.581   1.566   0.911 -0.1276 -0.5783  0.0500
 4858SOL    HW126207   1.646   1.600   0.973  0.1318 -0.8419 -0.0743
 4858SOL    HW226208   1.628   1.534   0.833 -1.5890 -1.5029 -0.4348
 4859SOL     OW26209   3.961   2.087   8.454 -0.0350  0.5642  0.0308
 4859SOL    HW126210   4.045   2.070   8.413 -0.9062  1.4963 -2.1613
 4859SOL    HW226211   3.938   2.167   8.407 -1.2108  0.4676  0.4158
 4860SOL     OW26212   0.159   1.023  17.688 -0.3098  0.0753 -0.1737
 4860SOL    HW126213   0.185   1.094  17.630 -2.5730  0.8363 -0.2509
 4860SOL    HW226214   0.195   1.058   0.016 -0.9816  0.7291 -0.1650
 4861SOL     OW26215   4.026   1.236   5.696 -0.0918  0.1113  0.3051
 4861SOL    HW126216   4.057   1.238   5.787 -1.7480  1.4009  0.8205
 4861SOL    HW226217   3.950   1.293   5.700 -0.3044 -0.2627  1.4135
 4862SOL     OW26218   0.513   4.260   2.840 -0.0293 -0.3563 -0.2041
 4862SOL    HW126219   0.547   4.201   2.908 -1.9273 -1.4437 -0.1677
 4862SOL    HW226220   0.472   4.190   2.789  0.2200  0.0409 -0.9457
 4863SOL     OW26221   2.821   0.326   2.116  0.2747  0.4203  0.0379
 4863SOL    HW126222   2.870   0.253   2.079  0.0127  0.0294  0.4541
 4863SOL    HW226223   2.737   0.301   2.078  1.0811 -0.2555 -1.2848
 4864SOL     OW26224   2.754   1.931   3.859  0.0507 -0.7647 -0.0827
 4864SOL    HW126225   2.818   1.999   3.882  0.1480 -0.8969  0.0330
 4864SOL    HW226226   2.720   1.916   3.947  1.5534 -2.7211  0.1530
 4865SOL     OW26227   0.051   0.861   4.198 -0.4502  0.0471 -0.1804
 4865SOL    HW126228   0.106   0.832   4.125  0.8776 -1.0002  1.2360
 4865SOL    HW226229   4.704   0.855   4.157  0.1492  0.1228 -1.4367
 4866SOL     OW26230   2.797   1.841   3.088  0.2026 -0.0621  0.2255
 4866SOL    HW126231   2.832   1.774   3.146  0.6508  0.6187  0.7443
 4866SOL    HW226232   2.846   1.920   3.111  0.6121 -0.6247  1.2780
 4867SOL     OW26233   1.733   1.897   7.350  0.0985  0.2410 -0.1401
 4867SOL    HW126234   1.740   1.843   7.428  3.3965 -1.3942 -1.5710
 4867SOL    HW226235   1.813   1.950   7.351  0.0529  0.3393 -0.9534
 4868SOL     OW26236   0.564   4.502   8.835 -0.1707  0.1080 -0.3662
 4868SOL    HW126237   0.517   4.419   8.830 -1.9259  0.8639  3.7520
 4868SOL    HW226238   0.569   4.515   8.741 -0.8149  0.2746 -0.3798
 4869SOL     OW26239   0.238   2.109   8.649  0.3864 -0.3106  0.5298
 4869SOL    HW126240   0.266   2.022   8.677 -0.5385 -1.0170 -0.6946
 4869SOL    HW226241   0.234   2.150   8.735  0.7732  0.0150  0.3940
 4870SOL     OW26242   2.387   2.058   8.544 -0.4977  0.1195 -0.2365
 4870SOL    HW126243   2.480   2.080   8.555 -0.2338 -0.5116 -1.1168
 4870SOL    HW226244   2.363   2.090   8.457  0.7337  1.2857 -0.1518
 4871SOL     OW26245   3.442   3.615  12.705  0.3360 -0.1122  0.2062
 4871SOL    HW126246   3.439   3.589  12.612 -2.0569  2.2969 -0.3590
 4871SOL    HW226247   3.353   3.626  12.736  0.9875  1.9835  1.3450
 4872SOL     OW26248   3.182   4.095   5.151 -0.1189  0.2567 -0.3642
 4872SOL    HW126249   3.129   4.059   5.079  0.6728  0.3118 -0.9703
 4872SOL    HW226250   3.171   4.190   5.157  2.7056  0.5822 -0.3789
 4873SOL     OW26251   2.110   0.335   0.542 -0.5420  0.5348  0.1147
 4873SOL    HW126252   2.050   0.403   0.513 -1.0436 -1.1981 -2.8725
 4873SOL    HW226253   2.193   0.373   0.513  0.8709 -5.0612 -3.1929
 4874SOL     OW26254   4.388   2.000  16.086  0.3733  0.1315 -0.5362
 4874SOL    HW126255   4.464   2.049  16.055  1.4817 -0.5359  1.1446
 4874SOL    HW226256   4.418   1.948  16.161  2.7397  0.5550 -1.2088
 4875SOL     OW26257   0.521   3.318   4.486 -0.6753 -0.0529 -0.1359
 4875SOL    HW126258   0.502   3.277   4.402 -0.5316 -3.0356  1.2553
 4875SOL    HW226259   0.564   3.248   4.535  2.5949  0.9119 -1.6856
 4876SOL     OW26260   2.034   4.134   2.106 -0.3331  0.7976 -0.7758
 4876SOL    HW126261   2.059   4.181   2.185 -0.9772  1.7422 -1.1371
 4876SOL    HW226262   2.065   4.192   2.036  0.4573  2.1822  0.7304
 4877SOL     OW26263   0.699   0.080   3.410  0.2753 -0.5187 -0.2501
 4877SOL    HW126264   0.778   0.110   3.365 -0.2672  1.8919  0.4457
 4877SOL    HW226265   0.741   0.026   3.477 -1.4038 -1.5405 -0.0014
 4878SOL     OW26266   0.001   1.191  12.777  0.2018 -0.7208 -0.0917
 4878SOL    HW126267   4.646   1.179  12.794 -0.1514  0.7994 -0.9323
 4878SOL    HW226268   0.010   1.268  12.832 -4.1313 -0.7389  0.6271
 4879SOL     OW26269   0.068   2.843  11.235  0.0978 -0.6647 -0.4717
 4879SOL    HW126270   0.014   2.840  11.156  0.1474  1.6802 -0.5986
 4879SOL    HW226271   0.158   2.837  11.204  0.1850  0.3219 -0.4212
 4880SOL     OW26272   3.303   0.230  11.755 -0.3076 -0.3735  0.2477
 4880SOL    HW126273   3.324   0.252  11.845  3.1379 -2.4579 -0.0622
 4880SOL    HW226274   3.370   0.287  11.718 -0.7915  1.0936  1.6800
 4881SOL     OW26275   0.722   0.029   2.286 -0.4764  0.3490  0.7635
 4881SOL    HW126276   0.633   0.053   2.257  0.7415  0.2071 -3.0688
 4881SOL    HW226277   0.710   4.674   2.281 -0.3056  0.3524  0.2031
 4882SOL     OW26278   1.926   0.210   6.754 -0.3867 -0.6888 -0.1007
 4882SOL    HW126279   1.963   0.273   6.817 -0.8079  1.6900 -2.2239
 4882SOL    HW226280   1.840   0.253   6.751  0.2547  0.6489  0.3562
 4883SOL     OW26281   4.626   0.759   1.351  0.4567 -0.1402 -0.7784
 4883SOL    HW126282   4.683   0.786   1.280  1.3505  0.7102  0.2608
 4883SOL    HW226283   4.676   0.683   1.381  1.1400  1.5455  2.3118
 4884SOL     OW26284   2.312   2.631   4.949  0.5770 -0.4714 -0.3251
 4884SOL    HW126285   2.303   2.628   4.854 -2.9350  0.1871 -0.0079
 4884SOL    HW226286   2.266   2.710   4.977  0.0717 -1.5746  1.9569
 4885SOL     OW26287   2.301   4.411   3.460  0.1714 -0.1113 -0.8590
 4885SOL    HW126288   2.379   4.395   3.406  1.0020 -3.3945  1.2841
 4885SOL    HW226289   2.319   4.499   3.491 -0.3767 -0.1659 -0.3918
 4886SOL     OW26290   1.172   0.905  13.678  0.5717 -0.2721 -0.1246
 4886SOL    HW126291   1.197   0.827  13.729  0.0723  0.8128  1.7717
 4886SOL    HW226292   1.209   0.965  13.742 -1.3474  0.3053  0.4657
 4887SOL     OW26293   0.673   1.275   7.352  0.0028  0.3944  0.2610
 4887SOL    HW126294   0.684   1.180   7.354 -0.9083  0.2912  0.5709
 4887SOL    HW226295   0.644   1.295   7.442 -0.6886  1.2772 -0.1530
 4888SOL     OW26296   3.601   0.691   8.355 -0.3042 -0.9912  0.3400
 4888SOL    HW126297   3.685   0.717   8.392  0.4808 -2.0081 -0.7238
 4888SOL    HW226298   3.619   0.600   8.332 -0.7274 -0.8382 -0.5969
 4889SOL     OW26299   2.931   0.327   8.610  0.1180  0.0496 -0.4393
 4889SOL    HW126300   2.899   0.415   8.591 -1.5150 -0.0457  1.9099
 4889SOL    HW226301   2.845   0.287   8.625  1.2970 -2.3377  0.0019
 4890SOL     OW26302   1.231   3.050  17.266  0.7169 -0.3757 -0.3222
 4890SOL    HW126303   1.194   2.970  17.302 -0.5931  1.0357  1.4577
 4890SOL    HW226304   1.256   3.083  17.352 -1.1448  0.3078 -0.0328
 4891SOL     OW26305   1.718   1.424   9.150  0.0906  0.0151 -0.3071
 4891SOL    HW126306   1.780   1.496   9.133 -1.2555  0.8226 -1.7689
 4891SOL    HW226307   1.772   1.346   9.136 -0.4655 -0.4782  0.3158
 4892SOL     OW26308   2.517   4.654  12.301 -0.3810 -0.3146  0.5446
 4892SOL    HW126309   2.551   4.715  12.368 -1.1681  0.0003  0.6585
 4892SOL    HW226310   2.581   4.652  12.230 -2.0671  1.9454 -1.0313
 4893SOL     OW26311   0.342   1.935   9.715 -0.0433  0.6787 -0.5025
 4893SOL    HW126312   0.371   2.025   9.732  0.6827  0.2002  0.6991
 4893SOL    HW226313   0.353   1.930   9.620  1.5452 -0.6633 -0.2445
 4894SOL     OW26314   1.030   2.916  12.273  0.2392 -0.5089 -0.0237
 4894SOL    HW126315   1.088   2.900  12.199 -0.6317 -0.7437 -0.6513
 4894SOL    HW226316   0.970   2.984  12.242  1.4306 -0.3434 -1.9473
 4895SOL     OW26317   1.286   1.411   6.532  0.0374  0.4666 -0.0482
 4895SOL    HW126318   1.375   1.406   6.497 -0.4541  0.0386 -1.2399
 4895SOL    HW226319   1.270   1.506   6.534 -0.6322  0.3182  1.5518
 4896SOL     OW26320   0.098   4.250   0.400 -0.3870 -0.1957  0.3196
 4896SOL    HW126321   0.112   4.157   0.415 -1.3306 -0.7022 -1.9644
 4896SOL    HW226322   0.035   4.273   0.469  0.5439 -1.0020  1.4372
 4897SOL     OW26323   1.824   0.653   6.689  0.2999 -0.6323 -0.1432
 4897SOL    HW126324   1.763   0.723   6.668  0.0768 -1.0126 -0.7641
 4897SOL    HW226325   1.902   0.706   6.669  1.2516 -1.3574  1.5400
 4898SOL     OW26326   3.126   1.042   8.762 -0.6098 -0.5073 -0.1211
 4898SOL    HW126327   3.061   0.987   8.719 -2.9554  1.9269  0.3136
 4898SOL    HW226328   3.167   0.976   8.818  1.6406  0.2858 -0.8262
 4899SOL     OW26329   0.703   4.534  10.401  0.1118  0.3164 -0.2361
 4899SOL    HW126330   0.784   4.577  10.429 -1.4961  2.9612  0.3806
 4899SOL    HW226331   0.655   4.524  10.483 -0.1931  1.0096 -0.3279
 4900SOL     OW26332   0.591   4.678   9.469  0.3441 -0.1267  0.2562
 4900SOL    HW126333   0.637   4.713   9.544  0.7625  0.7977 -0.4328
 4900SOL    HW226334   0.511   4.665   9.519 -0.1765 -0.0245 -0.5410
 4901SOL     OW26335   3.626   1.811  16.130 -0.7808  0.1644  0.3929
 4901SOL    HW126336   3.634   1.752  16.055 -0.2102  0.2004  0.4205
 4901SOL    HW226337   3.637   1.895  16.085 -0.2091 -0.3292 -0.3917
 4902SOL     OW26338   0.788   4.412  11.616  0.3557 -0.3232 -0.0495
 4902SOL    HW126339   0.803   4.484  11.554  1.5564 -2.1750 -1.9424
 4902SOL    HW226340   0.764   4.339  11.559 -0.6869 -1.0366  1.3172
 4903SOL     OW26341   3.864   4.648  16.367  0.9293 -0.1069 -0.0555
 4903SOL    HW126342   3.864   4.724  16.425  0.7281  1.4335 -2.0399
 4903SOL    HW226343   3.956   4.625  16.379  0.9536  0.5164  0.9097
 4904SOL     OW26344   4.376   3.084   3.934  0.1469  0.1014  0.0394
 4904SOL    HW126345   4.390   2.992   3.957  2.1108  0.8505  1.9327
 4904SOL    HW226346   4.282   3.101   3.934  0.4584  1.7540 -1.7148
 4905SOL     OW26347   2.051   0.578   7.148  0.2737 -0.2373  0.0123
 4905SOL    HW126348   1.977   0.635   7.128 -0.7047 -1.4841  0.0675
 4905SOL    HW226349   2.122   0.641   7.156 -1.7319  2.0702 -0.5943
 4906SOL     OW26350   1.026   4.008   7.453  0.7035  0.1205 -0.5306
 4906SOL    HW126351   1.105   3.984   7.404  0.0885 -0.4485 -1.2349
 4906SOL    HW226352   1.025   3.952   7.531 -0.8799 -0.0933 -0.7126
 4907SOL     OW26353   2.421   2.195  14.108 -0.3404  0.0695 -0.0432
 4907SOL    HW126354   2.358   2.196  14.036  0.0890  0.4761 -0.4094
 4907SOL    HW226355   2.379   2.132  14.166 -2.4063 -0.1828 -1.7928
 4908SOL     OW26356   2.233   0.090  13.074 -0.2469  0.0464 -0.0827
 4908SOL    HW126357   2.175   0.075  13.000  0.7718 -3.2167 -0.2122
 4908SOL    HW226358   2.293   0.016  13.075 -2.2994 -1.6137 -0.0883
 4909SOL     OW26359   3.603   0.677   3.174  0.1560  0.5517 -0.7557
 4909SOL    HW126360   3.594   0.721   3.089 -0.8564  0.3977 -0.7290
 4909SOL    HW226361   3.629   0.750   3.231 -1.3036 -0.6510  1.4625
 4910SOL     OW26362   0.903   3.810   8.081  0.2660  0.6463 -0.3564
 4910SOL    HW126363   0.856   3.871   8.137 -2.0460 -2.8636  1.5428
 4910SOL    HW226364   0.838   3.826   8.013  1.6414 -0.8914 -2.0557
 4911SOL     OW26365   3.353   0.671   8.171 -0.6097 -0.8989  0.1548
 4911SOL    HW126366   3.422   0.730   8.203  0.5505 -2.5588  0.6776
 4911SOL    HW226367   3.410   0.631   8.105  0.3858 -0.3955  0.7034
 4912SOL     OW26368   2.253   2.691  12.407  0.0766 -0.0560  0.3119
 4912SOL    HW126369   2.264   2.605  12.367  0.0281 -0.5958  1.4905
 4912SOL    HW226370   2.312   2.738  12.348  0.7537 -3.0526 -1.4033
 4913SOL     OW26371   3.061   3.647   2.529  0.2863 -0.0303  0.1678
 4913SOL    HW126372   2.978   3.602   2.547 -0.0274 -0.3129 -2.0240
 4913SOL    HW226373   3.120   3.572   2.520  1.5876  1.1491 -0.9654
 4914SOL     OW26374   2.084   4.609  10.155  0.8278 -0.2937 -0.2279
 4914SOL    HW126375   2.077   4.553  10.233  1.7328  2.7155  2.0283
 4914SOL    HW226376   1.996   4.625  10.122  1.1473  3.4623  0.7650
 4915SOL     OW26377   1.577   3.505   1.754  0.1371  0.7132 -0.7629
 4915SOL    HW126378   1.626   3.587   1.762  1.9191 -0.4866  0.3737
 4915SOL    HW226379   1.538   3.506   1.666  0.4343  0.3297 -0.8970
 4916SOL     OW26380   0.202   1.944   7.810 -0.3194 -0.6149 -0.0842
 4916SOL    HW126381   0.222   1.853   7.791  1.7085  0.2366 -1.9162
 4916SOL    HW226382   0.134   1.942   7.878 -1.7778 -0.2124 -1.5264
 4917SOL     OW26383   2.262   4.076   7.894  0.3684  0.1871  0.7272
 4917SOL    HW126384   2.245   4.082   7.988 -2.5074  1.0791  0.1679
 4917SOL    HW226385   2.174   4.074   7.855  0.8686  0.3357 -0.4069
 4918SOL     OW26386   4.181   2.735   8.589  0.2584 -0.4562 -0.4098
 4918SOL    HW126387   4.090   2.718   8.613 -0.1586  1.1249 -0.8433
 4918SOL    HW226388   4.220   2.668   8.644 -0.5905 -1.7768 -1.4095
 4919SOL     OW26389   4.292   0.306   8.499  0.3827 -0.4196 -0.0033
 4919SOL    HW126390   4.206   0.338   8.526  0.1707  1.3358 -2.7954
 4919SOL    HW226391   4.270   0.241   8.432 -0.0335 -1.4445  1.1161
 4920SOL     OW26392   1.363   2.890   4.573 -0.0673  0.1282  0.4868
 4920SOL    HW126393   1.378   2.821   4.638  1.2778  0.1248  0.1849
 4920SOL    HW226394   1.448   2.906   4.532 -0.2929 -4.1020 -1.6670
 4921SOL     OW26395   2.247   0.862   4.776  0.0633  0.1589 -0.1882
 4921SOL    HW126396   2.286   0.836   4.859  1.1241  1.4961 -0.2836
 4921SOL    HW226397   2.315   0.834   4.714  0.8363  1.0692  0.2532
 4922SOL     OW26398   1.512   0.722   4.631 -0.4077 -0.5385 -0.1473
 4922SOL    HW126399   1.577   0.671   4.582 -0.2237 -0.5847  0.1410
 4922SOL    HW226400   1.429   0.679   4.610 -1.1978  0.6574  0.5546
 4923SOL     OW26401   2.436   3.779   5.184  0.3459  0.1416  0.0069
 4923SOL    HW126402   2.370   3.845   5.165 -0.8907 -1.1310 -0.1194
 4923SOL    HW226403   2.400   3.752   5.269 -1.0544  0.3197 -0.5323
 4924SOL     OW26404   3.683   2.668   5.116 -0.3880  0.4024 -0.4220
 4924SOL    HW126405   3.727   2.630   5.192 -1.3333  2.4010  1.1245
 4924SOL    HW226406   3.709   2.601   5.053  2.2772 -1.0569  2.2591
 4925SOL     OW26407   0.033   1.447   1.768  0.1288  0.2376 -0.2902
 4925SOL    HW126408   4.729   1.363   1.783  3.4872 -1.4524 -0.3889
 4925SOL    HW226409   0.018   1.493   1.851 -1.0185  1.2691 -1.0720
 4926SOL     OW26410   3.472   1.013   8.319 -0.2775 -0.3835 -0.1078
 4926SOL    HW126411   3.559   1.034   8.353 -0.5884  1.4349 -0.4293
 4926SOL    HW226412   3.497   0.984   8.232  1.2585  1.3954 -0.2618
 4927SOL     OW26413   3.662   2.932  10.265 -0.1915 -0.1305  0.2516
 4927SOL    HW126414   3.569   2.950  10.272 -0.2838 -1.1903  1.7055
 4927SOL    HW226415   3.670   2.896  10.353  0.0033  0.5687  0.5248
 4928SOL     OW26416   1.952   3.051   6.255 -0.4131  0.2249  0.0380
 4928SOL    HW126417   1.877   3.006   6.295 -0.3769  0.3481  0.2458
 4928SOL    HW226418   2.009   3.067   6.331 -0.6443 -1.0325  0.4655
 4929SOL     OW26419   1.405   4.722   5.135 -0.0496 -0.2489 -0.1582
 4929SOL    HW126420   1.466   0.057   5.132  1.1570 -1.2247 -0.2510
 4929SOL    HW226421   1.418   4.682   5.049  1.8518 -0.4106  0.1915
 4930SOL     OW26422   4.235   1.206   5.135 -0.1532 -0.2067  0.2781
 4930SOL    HW126423   4.266   1.297   5.133 -0.5179 -0.0762  0.6234
 4930SOL    HW226424   4.172   1.211   5.062  0.1895  1.6084  0.1116
 4931SOL     OW26425   3.046   3.107   0.151  0.4137  0.2996 -0.2813
 4931SOL    HW126426   2.968   3.148   0.190  0.3984 -0.6341  0.6472
 4931SOL    HW226427   3.014   3.106   0.060  0.7241  0.3775 -0.3897
 4932SOL     OW26428   2.517   0.783  10.993 -0.1232 -0.1465  0.1539
 4932SOL    HW126429   2.553   0.769  11.080 -0.7251  1.3356  0.6369
 4932SOL    HW226430   2.463   0.862  11.002  0.7903  0.3536  1.2260
 4933SOL     OW26431   0.477   4.138  12.641  0.1747 -0.0190  0.0028
 4933SOL    HW126432   0.546   4.201  12.619  1.0845 -1.2227 -0.6282
 4933SOL    HW226433   0.465   4.162  12.733 -1.6274  0.9741 -0.4997
 4934SOL     OW26434   1.553   1.098  11.842  0.0898 -0.7223  0.4204
 4934SOL    HW126435   1.533   1.014  11.884  1.1142 -0.7801  0.7876
 4934SOL    HW226436   1.638   1.125  11.875 -0.3948 -1.1608  2.0412
 4935SOL     OW26437   3.004   0.315   3.137 -0.1399 -0.0257 -0.1697
 4935SOL    HW126438   3.007   0.312   3.232 -1.0248 -2.3253 -0.1990
 4935SOL    HW226439   3.023   0.224   3.112 -1.0940  0.0864 -1.3421
 4936SOL     OW26440   3.934   1.401   6.995 -0.1138 -0.3787 -0.4575
 4936SOL    HW126441   4.000   1.356   6.942 -1.1161 -1.4416 -0.8068
 4936SOL    HW226442   3.927   1.484   6.948  1.9079 -0.5845 -1.1333
 4937SOL     OW26443   1.425   2.417  12.193 -0.5044  0.3729  0.7230
 4937SOL    HW126444   1.454   2.504  12.219 -0.8500  0.4000  1.0186
 4937SOL    HW226445   1.388   2.382  12.274 -0.8417 -0.8866  0.0248
 4938SOL     OW26446   1.236   0.384   4.446  0.6509 -0.4901  0.8935
 4938SOL    HW126447   1.295   0.361   4.374  0.0488  1.5033 -0.2239
 4938SOL    HW226448   1.232   0.300   4.491  0.3514 -1.0403 -0.1605
 4939SOL     OW26449   3.104   0.193   8.931 -0.5943  0.4033  0.5723
 4939SOL    HW126450   3.141   0.222   8.848 -1.2468  0.6013  0.3578
 4939SOL    HW226451   3.182   0.206   8.986 -0.9602 -0.4415  1.3009
 4940SOL     OW26452   2.689   0.422   4.270  0.5897  0.4590  0.4702
 4940SOL    HW126453   2.596   0.415   4.252  0.9102  2.0716 -1.8856
 4940SOL    HW226454   2.708   0.515   4.263  0.6790  0.4636  0.8088
 4941SOL     OW26455   2.000   4.033   5.492  0.1032 -0.2465  0.1632
 4941SOL    HW126456   1.988   3.962   5.555  3.0895  0.2484  1.2980
 4941SOL    HW226457   1.957   3.997   5.415  1.2541 -0.3564 -0.4268
 4942SOL     OW26458   1.260   2.384   5.869 -0.0739  0.2961  0.0054
 4942SOL    HW126459   1.349   2.380   5.834 -0.0739  0.7350 -0.0474
 4942SOL    HW226460   1.255   2.474   5.901  0.2830  1.2238 -2.5148
 4943SOL     OW26461   3.988   2.571   4.121 -0.0159 -0.2644 -0.2330
 4943SOL    HW126462   3.977   2.482   4.087 -1.2340 -0.1385 -0.1546
 4943SOL    HW226463   4.038   2.622   4.058 -0.5875  0.3697 -0.1662
 4944SOL     OW26464   1.495   1.075   6.449  0.0264  0.2561 -0.0572
 4944SOL    HW126465   1.477   1.132   6.523  4.5751  0.3771  0.9688
 4944SOL    HW226466   1.588   1.086   6.431 -0.0303  0.7127 -0.0774
 4945SOL     OW26467   3.448   3.051  17.394  0.3170  0.4882 -0.3421
 4945SOL    HW126468   3.405   3.110  17.456 -2.5848 -0.4149 -1.4703
 4945SOL    HW226469   3.425   3.090  17.309  1.2451 -0.9241 -1.2511
 4946SOL     OW26470   1.176   0.817   0.441 -0.1097 -0.2368  0.9265
 4946SOL    HW126471   1.237   0.759   0.396  0.7877  2.0782 -0.8558
 4946SOL    HW226472   1.204   0.899   0.401  0.1727 -0.7105  0.1503
 4947SOL     OW26473   0.268   1.511   6.272 -0.7560 -0.1640  0.3060
 4947SOL    HW126474   0.201   1.556   6.220 -0.9695 -0.2371  0.5172
 4947SOL    HW226475   0.247   1.422   6.244 -0.3925 -0.0476 -0.3250
 4948SOL     OW26476   2.634   3.865   9.274 -0.0767 -0.0085 -0.0027
 4948SOL    HW126477   2.559   3.926   9.271  1.5771  2.0632  0.7767
 4948SOL    HW226478   2.599   3.777   9.287 -0.6188 -0.0450 -1.6419
 4949SOL     OW26479   2.295   0.934   4.251 -0.1636  0.7219 -0.2606
 4949SOL    HW126480   2.240   0.861   4.280 -0.9372  0.6267 -1.9675
 4949SOL    HW226481   2.293   0.983   4.333 -1.3726 -0.6987  0.5599
 4950SOL     OW26482   3.457   4.252  15.140  0.5406  0.0282  0.3596
 4950SOL    HW126483   3.398   4.176  15.137  3.6906 -2.4833  1.4648
 4950SOL    HW226484   3.393   4.319  15.114  0.2279  0.2196  1.5932
 4951SOL     OW26485   3.998   1.811   4.669  0.4894 -0.3068 -0.4585
 4951SOL    HW126486   3.928   1.754   4.701 -1.3499  2.5311  0.5963
 4951SOL    HW226487   4.068   1.750   4.646  0.1402 -0.2314 -1.6953
 4952SOL     OW26488   0.904   3.415  10.019  0.0988  0.1181 -0.1858
 4952SOL    HW126489   0.934   3.456   9.938 -1.4616  0.7265 -0.4701
 4952SOL    HW226490   0.809   3.426  10.020  0.1459  0.3170  1.2630
 4953SOL     OW26491   4.136   3.033  11.407 -0.0098 -0.2591 -0.1617
 4953SOL    HW126492   4.166   2.965  11.347  2.1043  0.9745 -0.5090
 4953SOL    HW226493   4.193   3.041  11.483  1.2817 -3.6378 -0.7885
 4954SOL     OW26494   1.633   2.704   8.329  0.2682 -0.0229 -0.1346
 4954SOL    HW126495   1.644   2.781   8.273 -0.6117  0.3117  0.1538
 4954SOL    HW226496   1.543   2.724   8.355  0.7506  2.6712 -0.5185
 4955SOL     OW26497   3.108   0.111  13.422  1.1319 -0.1674  0.0622
 4955SOL    HW126498   3.158   0.109  13.341 -1.1289  2.7542 -1.3802
 4955SOL    HW226499   3.175   0.074  13.481 -1.0737 -1.9630  1.4578
 4956SOL     OW26500   3.295   3.006   6.771 -0.1673  0.6873  0.2320
 4956SOL    HW126501   3.377   3.009   6.819 -0.8876  2.4428  1.3258
 4956SOL    HW226502   3.328   2.948   6.702 -0.9444  0.9278 -0.3398
 4957SOL     OW26503   1.645   4.329   3.046  0.6293  0.0823  0.3717
 4957SOL    HW126504   1.599   4.379   2.978 -0.3772 -0.4116  0.6889
 4957SOL    HW226505   1.699   4.400   3.080  1.7870 -1.2729  1.3165
 4958SOL     OW26506   0.079   4.377  15.680 -0.2885 -0.6322  0.1432
 4958SOL    HW126507   0.009   4.375  15.745 -2.8054 -1.9727 -2.5786
 4958SOL    HW226508   0.105   4.285  15.675  0.4923 -0.4115  0.1404
 4959SOL     OW26509   3.075   3.278   3.760  0.2156 -0.1236  0.3391
 4959SOL    HW126510   3.063   3.208   3.695  1.3791 -0.7693  0.8232
 4959SOL    HW226511   2.983   3.294   3.783  0.1882  1.4332 -0.8700
 4960SOL     OW26512   4.158   0.480   2.037  0.2183  0.6203  0.1275
 4960SOL    HW126513   4.154   0.390   2.005 -2.1318  0.0796  1.9103
 4960SOL    HW226514   4.131   0.533   1.962 -2.0564 -1.3772 -0.4527
 4961SOL     OW26515   4.025   2.522   7.900 -0.4363  0.2992 -0.3951
 4961SOL    HW126516   4.060   2.437   7.927 -1.4120  0.0401  0.0624
 4961SOL    HW226517   3.982   2.547   7.982  2.6912  1.9655  0.7459
 4962SOL     OW26518   2.713   1.743   0.139 -0.7165 -0.6649 -0.0013
 4962SOL    HW126519   2.744   1.667   0.188 -2.0849 -1.9967 -1.1912
 4962SOL    HW226520   2.778   1.740   0.069 -0.5686  0.5822  0.0952
 4963SOL     OW26521   4.637   1.424   8.640  0.1821  0.2971  0.1969
 4963SOL    HW126522   4.643   1.366   8.716 -1.9418 -0.9910 -0.6226
 4963SOL    HW226523   4.588   1.498   8.674 -2.4542  0.3646 -3.7812
 4964SOL     OW26524   2.650   0.505   2.391  0.0732 -0.0491 -0.2516
 4964SOL    HW126525   2.564   0.528   2.356 -0.6537 -3.0596 -0.4258
 4964SOL    HW226526   2.701   0.584   2.372  0.3309 -0.0353  0.4899
 4965SOL     OW26527   0.383   4.301   5.825 -0.1768  0.2525 -0.0592
 4965SOL    HW126528   0.449   4.278   5.759  1.1658 -1.1377  1.7585
 4965SOL    HW226529   0.359   4.389   5.797  1.0338  0.3804 -0.7095
 4966SOL     OW26530   1.412   3.212   4.366 -0.4532 -0.0081  0.7762
 4966SOL    HW126531   1.361   3.201   4.446  0.9639  1.1555  1.8322
 4966SOL    HW226532   1.495   3.216   4.413 -0.2679  0.1272  0.4415
 4967SOL     OW26533   4.292   1.982   5.349  0.3672  0.0445  0.3467
 4967SOL    HW126534   4.287   1.969   5.443  1.0112 -2.1107  0.0913
 4967SOL    HW226535   4.256   2.068   5.327  0.4555 -0.4229 -1.6878
 4968SOL     OW26536   1.127   1.945   5.545 -0.0960 -0.1671 -0.1745
 4968SOL    HW126537   1.184   1.899   5.484 -1.6377  2.2960 -3.4792
 4968SOL    HW226538   1.072   1.872   5.574 -0.1997 -0.0832 -0.1559
 4969SOL     OW26539   0.437   3.105   9.881  0.3546 -0.4211  0.0806
 4969SOL    HW126540   0.395   3.180   9.923 -1.0566 -1.5330  0.6354
 4969SOL    HW226541   0.417   3.036   9.944  0.7407  0.3194  1.0198
 4970SOL     OW26542   3.306   3.746   8.390 -0.0464 -0.2898  0.4963
 4970SOL    HW126543   3.257   3.667   8.368 -0.7404  0.7619 -1.8124
 4970SOL    HW226544   3.244   3.807   8.349  0.4347  1.6807  2.6844
 4971SOL     OW26545   2.723   1.115  11.632  0.5520 -0.2754 -0.0403
 4971SOL    HW126546   2.649   1.139  11.688  1.3431 -1.1275  1.3821
 4971SOL    HW226547   2.788   1.157  11.689 -0.9588 -0.8431  2.1134
 4972SOL     OW26548   4.723   3.478   2.634  0.0094 -0.5625 -0.0062
 4972SOL    HW126549   4.699   3.491   2.726 -0.3998 -1.8857  0.0774
 4972SOL    HW226550   0.004   3.385   2.624  0.1952 -0.6715  1.3334
 4973SOL     OW26551   4.225   2.804   2.530 -0.0014  0.3814  0.3525
 4973SOL    HW126552   4.318   2.805   2.506 -0.2074 -0.4353 -0.4919
 4973SOL    HW226553   4.212   2.737   2.597  2.0300  0.2284  0.5885
 4974SOL     OW26554   0.744   3.698  15.648  0.0464  0.0738 -0.6277
 4974SOL    HW126555   0.823   3.679  15.597  0.1791  1.6569 -1.0152
 4974SOL    HW226556   0.779   3.747  15.722  0.3916  1.1336 -1.4814
 4975SOL     OW26557   3.498   2.191  11.484 -0.3788  0.2195 -0.2129
 4975SOL    HW126558   3.495   2.258  11.552  0.6415 -1.0938  1.1091
 4975SOL    HW226559   3.413   2.148  11.486  1.0745 -2.5272  2.6120
 4976SOL     OW26560   2.012   4.042   7.745 -0.1868 -0.3527  0.5699
 4976SOL    HW126561   1.991   4.054   7.653 -0.6141  1.8244  0.9486
 4976SOL    HW226562   1.947   4.098   7.787 -1.0136  0.7665 -2.2086
 4977SOL     OW26563   2.763   2.532   2.281  1.0186 -0.3456 -0.6228
 4977SOL    HW126564   2.838   2.589   2.267  1.1047 -0.6702 -1.4879
 4977SOL    HW226565   2.789   2.451   2.236  0.3866 -1.8237  1.6863
 4978SOL     OW26566   3.172   3.866  10.518  0.1249 -0.0024 -0.0902
 4978SOL    HW126567   3.093   3.825  10.550 -0.6971  1.9735  0.4222
 4978SOL    HW226568   3.125   3.914  10.450  1.0371 -0.9382 -1.3923
 4979SOL     OW26569   1.895   0.974   4.117  0.4955 -0.2292  0.0316
 4979SOL    HW126570   1.915   0.884   4.141 -0.3691 -0.0739  1.3755
 4979SOL    HW226571   1.893   1.018   4.203  0.7582 -0.0408 -0.0589
 4980SOL     OW26572   1.723   4.242  11.838  0.5404 -0.3528  0.0083
 4980SOL    HW126573   1.691   4.246  11.748  0.8836  0.6797 -0.0709
 4980SOL    HW226574   1.675   4.164  11.865 -1.1005  0.7576  0.2862
 4981SOL     OW26575   3.521   4.296  10.316  0.7341 -0.4697 -0.0410
 4981SOL    HW126576   3.438   4.260  10.284 -0.7045  1.3785  1.5899
 4981SOL    HW226577   3.573   4.305  10.236 -0.1128  1.9338 -0.3327
 4982SOL     OW26578   3.403   0.166   3.245 -0.5124  0.1391  0.1006
 4982SOL    HW126579   3.412   0.218   3.165 -3.3378  1.5991  0.7050
 4982SOL    HW226580   3.488   0.149   3.285 -0.8374 -1.1678  0.2294
 4983SOL     OW26581   4.500   2.268   4.334 -0.1866  0.1336  0.4314
 4983SOL    HW126582   4.423   2.321   4.315  1.1317  1.8481 -0.1268
 4983SOL    HW226583   4.461   2.184   4.358 -1.8005  1.2145  1.5807
 4984SOL     OW26584   1.338   1.334   4.662 -0.2921 -0.0023 -0.0056
 4984SOL    HW126585   1.272   1.267   4.644 -0.4154  0.1895 -0.2808
 4984SOL    HW226586   1.329   1.339   4.757 -1.3261  1.1111 -0.1607
 4985SOL     OW26587   1.104   3.355   8.017  0.1436  0.0086 -0.0916
 4985SOL    HW126588   1.095   3.352   8.112 -2.6227  0.7410 -0.3335
 4985SOL    HW226589   1.076   3.444   7.998  0.4600  0.1397  0.0454
 4986SOL     OW26590   0.780   0.420   1.937 -0.1169 -0.0515  0.0338
 4986SOL    HW126591   0.728   0.342   1.915 -0.9539 -0.2271  2.6229
 4986SOL    HW226592   0.745   0.435   2.025 -0.5439  0.1051 -0.1603
 4987SOL     OW26593   3.260   3.175  16.606 -0.7422  0.3482 -0.1653
 4987SOL    HW126594   3.258   3.191  16.512 -1.4528  1.9119  0.1187
 4987SOL    HW226595   3.313   3.251  16.629  1.4112 -0.9800 -0.7369
 4988SOL     OW26596   4.671   1.538   7.517 -0.0783  0.1757  0.5139
 4988SOL    HW126597   4.627   1.562   7.599 -1.8116  1.6140 -0.8616
 4988SOL    HW226598   4.651   1.444   7.515  0.2520  0.0884  1.0602
 4989SOL     OW26599   2.462   4.201   2.623  0.2473 -0.1899  0.0480
 4989SOL    HW126600   2.390   4.263   2.609 -0.8923 -1.1628  1.6157
 4989SOL    HW226601   2.423   4.129   2.573  2.6227 -2.2743  1.2454
 4990SOL     OW26602   0.747   4.423  14.274 -0.5183 -0.0247  0.2327
 4990SOL    HW126603   0.736   4.433  14.369  0.4284  1.2495  0.2139
 4990SOL    HW226604   0.776   4.511  14.249  0.4711 -0.6999 -0.9581
 4991SOL     OW26605   0.493   3.907  16.473 -0.2722 -0.3619  0.2655
 4991SOL    HW126606   0.482   3.964  16.549  2.1638 -1.5145  1.4929
 4991SOL    HW226607   0.429   3.942  16.411  0.2776  1.0258  0.4615
 4992SOL     OW26608   2.681   2.304  15.382  0.0806  0.5000  0.0646
 4992SOL    HW126609   2.768   2.293  15.343  0.8354  0.6125  1.7141
 4992SOL    HW226610   2.627   2.313  15.303  1.0687 -1.8399 -0.8761
 4993SOL     OW26611   3.464   1.539   3.385  0.0685  0.2568  0.7101
 4993SOL    HW126612   3.474   1.474   3.316 -3.2933  0.6099 -0.1152
 4993SOL    HW226613   3.547   1.541   3.433 -0.4616 -0.4428  1.6698
 4994SOL     OW26614   2.366   0.259  11.642 -0.3592 -0.3787 -0.6633
 4994SOL    HW126615   2.415   0.199  11.698  0.6758  2.0698  1.0703
 4994SOL    HW226616   2.373   0.214  11.558  1.0272 -0.2644 -0.6201
 4995SOL     OW26617   0.524   3.607   5.476  0.0286 -0.6754 -0.3854
 4995SOL    HW126618   0.460   3.548   5.516 -2.3579  0.3349 -2.6550
 4995SOL    HW226619   0.593   3.600   5.541  0.8459  0.7789 -1.0882
 4996SOL     OW26620   2.724   3.068  11.145 -0.4091 -0.7582 -0.7213
 4996SOL    HW126621   2.782   3.139  11.119  0.2007  0.2216  3.3378
 4996SOL    HW226622   2.783   3.025  11.208 -1.4308  1.6597  1.8763
 4997SOL     OW26623   0.739   3.945   1.928 -0.1694 -0.5891  0.2140
 4997SOL    HW126624   0.682   3.899   1.865  1.3847 -0.7196 -1.0942
 4997SOL    HW226625   0.769   3.875   1.986 -2.1629 -1.6031  0.0325
 4998SOL     OW26626   2.882   0.670   2.391  0.1290  0.9351 -0.6124
 4998SOL    HW126627   2.918   0.582   2.393 -0.0951  0.8521 -0.2602
 4998SOL    HW226628   2.944   0.725   2.342  1.2107  0.4895  0.2778
 4999SOL     OW26629   0.807   4.041  16.283 -0.0744 -0.0570 -0.1070
 4999SOL    HW126630   0.730   4.097  16.296  0.0260  0.2107 -0.6430
 4999SOL    HW226631   0.805   3.985  16.360 -0.8511  0.2808  0.1201
 5000SOL     OW26632   1.508   1.674   9.265 -0.3694 -0.1258  0.4770
 5000SOL    HW126633   1.529   1.765   9.287  2.4037 -0.3776 -1.1258
 5000SOL    HW226634   1.493   1.643   9.354  2.9576  0.9761  1.4164
 5001SOL     OW26635   0.295   1.048   3.769  0.3287 -0.0223 -0.0385
 5001SOL    HW126636   0.217   0.992   3.773  1.5176 -1.8621 -2.2107
 5001SOL    HW226637   0.304   1.072   3.862 -2.3564  1.6856 -0.2224
 5002SOL     OW26638   4.149   0.835   6.223 -0.0692 -0.2086  0.1544
 5002SOL    HW126639   4.123   0.896   6.293 -1.7432 -0.9789  0.1897
 5002SOL    HW226640   4.187   0.903   6.167  1.3081  0.3814  1.7801
 5003SOL     OW26641   2.890   1.806   8.014 -0.1647 -0.4397  0.2071
 5003SOL    HW126642   2.894   1.864   8.091  0.2657 -1.1804  0.7433
 5003SOL    HW226643   2.850   1.736   8.066  2.2378 -0.0469  2.6161
 5004SOL     OW26644   2.713   0.473   9.494  0.5886  0.1149 -0.1639
 5004SOL    HW126645   2.725   0.556   9.448  1.1138 -0.7649 -1.6006
 5004SOL    HW226646   2.801   0.445   9.520  0.2302 -0.6183  0.2926
 5005SOL     OW26647   1.027   4.722   4.475 -0.1790  0.3349  0.2902
 5005SOL    HW126648   1.060   4.713   4.385  0.3672 -0.3788  0.5594
 5005SOL    HW226649   1.053   0.073   4.495 -0.7058  1.0919 -2.4769
 5006SOL     OW26650   4.055   2.287   3.246 -0.5730 -0.3699 -0.1493
 5006SOL    HW126651   4.123   2.351   3.264  0.4089 -1.1988 -0.8920
 5006SOL    HW226652   4.040   2.245   3.331 -0.5624 -0.2675 -0.0973
 5007SOL     OW26653   4.512   4.160  16.453  0.9131 -0.2934 -0.3413
 5007SOL    HW126654   4.503   4.152  16.358 -0.4401  2.9575 -0.5146
 5007SOL    HW226655   4.420   4.150  16.480  1.5248 -0.0837  1.8408
 5008SOL     OW26656   3.896   3.814   7.558 -0.1661 -0.5643 -0.0650
 5008SOL    HW126657   3.909   3.791   7.650 -0.6878 -1.0091 -0.1038
 5008SOL    HW226658   3.815   3.769   7.534 -0.7351  0.0576  0.7151
 5009SOL     OW26659   1.909   0.079   8.113 -0.0727  0.3107 -0.8988
 5009SOL    HW126660   1.940   0.011   8.173 -0.5647  1.0801  0.2217
 5009SOL    HW226661   1.972   0.149   8.133  0.7415 -1.3953  2.4543
 5010SOL     OW26662   1.585   3.294   2.993  0.3789  0.2856 -0.0372
 5010SOL    HW126663   1.504   3.249   3.016  1.3206 -2.1958 -1.4931
 5010SOL    HW226664   1.556   3.379   3.027 -0.2577 -0.2877  0.8751
 5011SOL     OW26665   2.146   0.263   2.926  0.4583 -0.1136  0.2513
 5011SOL    HW126666   2.059   0.234   2.954  1.0043 -0.0533  2.0301
 5011SOL    HW226667   2.134   0.357   2.919  0.6416 -0.1633 -0.6386
 5012SOL     OW26668   4.263   1.424   6.225 -0.4542 -0.0509 -0.1958
 5012SOL    HW126669   4.320   1.350   6.245 -1.7354 -0.4895  1.7932
 5012SOL    HW226670   4.179   1.393   6.260 -0.7972  1.8564  0.7125
 5013SOL     OW26671   2.463   2.625  15.057  0.6096 -0.4533 -0.2262
 5013SOL    HW126672   2.459   2.712  15.015 -0.8054 -0.4647 -0.1071
 5013SOL    HW226673   2.454   2.575  14.976  0.2799  0.5804 -0.8369
 5014SOL     OW26674   0.871   3.183   3.375 -0.5254 -0.1765  0.3830
 5014SOL    HW126675   0.943   3.149   3.322  0.4112  0.0489  1.5047
 5014SOL    HW226676   0.798   3.146   3.325 -0.7321  2.8485 -1.5720
 5015SOL     OW26677   1.200   0.733   0.100  0.8151  0.4650 -0.0308
 5015SOL    HW126678   1.105   0.728   0.111  1.0283 -2.2788  0.6776
 5015SOL    HW226679   1.233   0.656   0.147  1.7122  1.2935  0.6832
 5016SOL     OW26680   1.107   4.084   2.115  0.0195 -0.4401  0.4461
 5016SOL    HW126681   1.037   4.054   2.174 -0.7923  0.6245  0.0115
 5016SOL    HW226682   1.157   4.143   2.171 -3.5582  1.4434  1.6568
 5017SOL     OW26683   1.072   3.716   3.714  0.6291  0.4621  0.5423
 5017SOL    HW126684   1.027   3.782   3.766  0.4218 -0.1997  1.1854
 5017SOL    HW226685   1.134   3.773   3.667 -0.3564  1.0411 -0.0627
 5018SOL     OW26686   3.338   2.118   2.565  0.4082 -0.2628  0.0703
 5018SOL    HW126687   3.410   2.172   2.530 -0.3903 -0.7071 -2.2461
 5018SOL    HW226688   3.282   2.187   2.600  0.7138  0.6064 -1.1135
 5019SOL     OW26689   2.291   0.609  10.960 -0.3367 -0.1638  0.4599
 5019SOL    HW126690   2.283   0.615  10.865 -1.6711 -0.2027  0.5704
 5019SOL    HW226691   2.374   0.653  10.975 -0.3751 -0.1093  0.5140
 5020SOL     OW26692   3.975   3.953  16.449 -0.2009 -0.1360 -0.4854
 5020SOL    HW126693   3.944   3.906  16.526  0.6142 -0.2642 -0.2299
 5020SOL    HW226694   3.930   4.037  16.456  0.5951  0.1443  1.2885
 5021SOL     OW26695   2.861   3.148  12.041 -0.3598 -0.0568 -0.7642
 5021SOL    HW126696   2.935   3.209  12.037  0.2844 -0.8402 -0.7680
 5021SOL    HW226697   2.839   3.140  12.134 -1.3014  1.6098 -0.8481
 5022SOL     OW26698   2.899   2.180  15.129 -0.5900  0.2167 -0.0400
 5022SOL    HW126699   2.980   2.180  15.078  1.0804 -0.6477  2.5736
 5022SOL    HW226700   2.879   2.273  15.131  1.6687  0.7334 -2.1182
 5023SOL     OW26701   0.923   2.044   4.333  0.3554  0.8939 -0.2242
 5023SOL    HW126702   0.994   2.102   4.306 -0.4377  2.2480  0.5816
 5023SOL    HW226703   0.962   1.963   4.298  0.6010  0.1768  1.6788
 5024SOL     OW26704   4.519   3.207   6.678  0.4398 -0.4205  0.0016
 5024SOL    HW126705   4.536   3.202   6.772  0.1851 -0.2365  0.0578
 5024SOL    HW226706   4.523   3.302   6.667  1.8969 -0.3514  1.1258
 5025SOL     OW26707   0.919   2.617  13.110  0.3891 -0.5243  0.2491
 5025SOL    HW126708   0.841   2.570  13.138 -1.5032  0.9202 -2.6275
 5025SOL    HW226709   0.899   2.631  13.018 -1.9758  2.0883  1.1655
 5026SOL     OW26710   0.250   4.666   3.292  0.4514  0.7068 -0.0275
 5026SOL    HW126711   0.190   4.684   3.364  1.1159 -0.5840  0.8526
 5026SOL    HW226712   0.333   4.660   3.340  0.3490  2.2638  0.3367
 5027SOL     OW26713   4.512   3.629   4.879 -0.5221 -0.0620 -0.5551
 5027SOL    HW126714   4.535   3.554   4.824 -0.3625 -1.2437  1.1249
 5027SOL    HW226715   4.420   3.629   4.854 -0.3616 -2.0437 -1.1788
 5028SOL     OW26716   1.834   2.074   1.472  0.1636 -0.6720 -0.0361
 5028SOL    HW126717   1.806   2.164   1.488  1.4500 -0.4108  0.7194
 5028SOL    HW226718   1.893   2.075   1.397  0.5740 -1.1493  0.2818
 5029SOL     OW26719   4.220   3.756   2.782 -0.1842 -0.0408  0.8307
 5029SOL    HW126720   4.217   3.661   2.771  0.2183  0.1735 -1.1732
 5029SOL    HW226721   4.316   3.758   2.771 -0.2166  1.3292  0.8820
 5030SOL     OW26722   4.358   3.701   1.767 -0.2711  0.1117  0.7032
 5030SOL    HW126723   4.378   3.726   1.857  1.3612  0.2176  0.3113
 5030SOL    HW226724   4.341   3.784   1.722 -0.8020 -0.0019  0.6902
 5031SOL     OW26725   0.833   4.008  10.592  0.1144  0.2037  0.4512
 5031SOL    HW126726   0.777   4.073  10.551  0.0568 -0.1080  0.0414
 5031SOL    HW226727   0.801   4.004  10.683  0.5597 -0.0437  0.5971
 5032SOL     OW26728   4.464   0.891  14.278 -0.3078 -0.3947  0.2203
 5032SOL    HW126729   4.435   0.818  14.224  0.4894  0.5524 -1.4953
 5032SOL    HW226730   4.403   0.906  14.351  1.7696 -1.6370  2.2293
 5033SOL     OW26731   3.931   1.950   0.086  0.0243  0.3000 -0.0928
 5033SOL    HW126732   3.883   2.028   0.057 -0.4993 -0.9085 -2.4702
 5033SOL    HW226733   4.021   1.961   0.057  0.3982 -1.2799  0.4815
 5034SOL     OW26734   3.278   0.253  10.024 -0.4070  0.1502 -0.7055
 5034SOL    HW126735   3.304   0.164  10.000  0.8687  0.0115  1.1452
 5034SOL    HW226736   3.322   0.307   9.959 -2.8780  4.4879  1.2153
 5035SOL     OW26737   1.001   1.272   7.221  0.6071 -0.5019  0.4242
 5035SOL    HW126738   0.981   1.292   7.313  0.0070 -1.4551  0.5140
 5035SOL    HW226739   0.992   1.356   7.176 -0.7655 -0.9192 -0.0956
 5036SOL     OW26740   3.734   2.869   8.429  0.4306 -0.3148 -0.0301
 5036SOL    HW126741   3.819   2.896   8.461 -0.3975  3.3586 -0.9060
 5036SOL    HW226742   3.676   2.899   8.498  0.0124 -0.0167 -0.5096
 5037SOL     OW26743   2.661   3.927   4.497  0.2621 -0.4878  0.3299
 5037SOL    HW126744   2.664   3.886   4.583 -1.0935  1.1655  1.1533
 5037SOL    HW226745   2.753   3.955   4.498 -0.6600  2.5309 -1.1481
 5038SOL     OW26746   1.692   0.228  17.210  0.0360  0.4737 -0.2433
 5038SOL    HW126747   1.762   0.180  17.166 -0.0647  0.7338 -0.6897
 5038SOL    HW226748   1.696   0.315  17.170 -1.9708  0.4762 -0.4270
 5039SOL     OW26749   3.592   2.645   1.901 -0.3000 -0.3849  0.2698
 5039SOL    HW126750   3.523   2.642   1.967  1.6554 -0.9051  2.3074
 5039SOL    HW226751   3.547   2.604   1.828  2.9435 -1.5557 -1.0679
 5040SOL     OW26752   1.368   2.539  16.632  0.4242  0.4754 -0.1917
 5040SOL    HW126753   1.439   2.603  16.637 -2.0863  3.2240  0.5819
 5040SOL    HW226754   1.383   2.500  16.546 -1.4583 -1.4808  0.3583
 5041SOL     OW26755   4.106   2.024   4.361 -0.4680  0.1463 -1.3101
 5041SOL    HW126756   4.056   2.077   4.298  0.0561 -0.1102 -1.9461
 5041SOL    HW226757   4.182   1.989   4.314  1.8841 -0.3733  2.8986
 5042SOL     OW26758   3.065   2.048   4.757  0.4070  0.0177  0.2948
 5042SOL    HW126759   3.007   2.028   4.830  0.1228 -2.1936 -0.5319
 5042SOL    HW226760   3.134   2.098   4.800  0.6872 -0.0572 -0.0620
 5043SOL     OW26761   4.474   2.534   2.998  0.5260  0.2139 -0.0582
 5043SOL    HW126762   4.403   2.470   2.992 -0.5235  1.4256 -0.6126
 5043SOL    HW226763   4.534   2.496   3.061  0.8050  1.8354  0.6431
 5044SOL     OW26764   3.429   0.796  16.372  0.6569  0.4038  0.4892
 5044SOL    HW126765   3.448   0.734  16.302 -1.9368  0.7733 -0.5106
 5044SOL    HW226766   3.445   0.740  16.448 -2.6845 -0.5908  0.4251
 5045SOL     OW26767   3.620   1.023   6.327  0.6848  0.2878  0.3018
 5045SOL    HW126768   3.599   0.995   6.416  0.0207 -1.4691 -0.4213
 5045SOL    HW226769   3.551   1.086   6.306 -0.3357 -0.3623  1.7520
 5046SOL     OW26770   4.290   3.899  12.174  0.1760  0.1625  0.1291
 5046SOL    HW126771   4.308   3.809  12.200 -1.6875 -0.3168 -0.2228
 5046SOL    HW226772   4.202   3.906  12.137  0.5748  0.7615 -0.7233
 5047SOL     OW26773   3.539   2.186   6.936  0.5274 -0.0207 -0.0781
 5047SOL    HW126774   3.587   2.250   6.987 -1.0627  0.8495  0.3187
 5047SOL    HW226775   3.564   2.206   6.846 -0.4334  0.2157 -0.2981
 5048SOL     OW26776   4.136   2.398   5.393  0.0461 -0.0103  0.0216
 5048SOL    HW126777   4.075   2.384   5.466  0.4541  1.9933  0.7488
 5048SOL    HW226778   4.112   2.321   5.342 -0.3978  0.3406 -0.3105
 5049SOL     OW26779   0.202   3.090   5.373  0.3161 -0.1801  0.3060
 5049SOL    HW126780   0.240   3.049   5.295  1.1798  1.3741 -0.0892
 5049SOL    HW226781   0.121   3.041   5.389  0.1670  0.2689  0.9065
 5050SOL     OW26782   0.018   1.042   6.228  0.2114 -0.0322  0.3174
 5050SOL    HW126783   4.675   1.060   6.274  0.4759  1.1713  0.2978
 5050SOL    HW226784   0.070   1.018   6.304  1.6696  2.3258  0.0284
 5051SOL     OW26785   3.254   4.209   3.088 -0.2633  0.2643  0.7314
 5051SOL    HW126786   3.329   4.261   3.059 -0.3274 -1.0300 -1.7257
 5051SOL    HW226787   3.214   4.180   3.006  0.2946 -2.4758  1.4436
 5052SOL     OW26788   2.489   2.666   8.782 -0.2465 -0.3022 -0.7712
 5052SOL    HW126789   2.464   2.609   8.709 -1.3933  2.6171 -2.6105
 5052SOL    HW226790   2.524   2.736   8.726 -0.7126  0.1126 -0.5373
 5053SOL     OW26791   4.200   1.968  12.500  0.3090 -0.1771  0.5255
 5053SOL    HW126792   4.219   1.875  12.505 -2.1243 -0.5343  2.9403
 5053SOL    HW226793   4.246   1.993  12.419  0.2334  0.2517  0.6106
 5054SOL     OW26794   3.534   1.346   8.323 -0.3820 -0.1690 -0.1000
 5054SOL    HW126795   3.493   1.329   8.238  1.6308  2.6878 -1.6145
 5054SOL    HW226796   3.585   1.423   8.301  4.3194 -3.2458  0.0452
 5055SOL     OW26797   0.346   2.123  11.210 -0.2280  0.0873  0.1301
 5055SOL    HW126798   0.259   2.148  11.178 -0.4150  0.0807  0.6296
 5055SOL    HW226799   0.359   2.040  11.163 -2.0920 -1.5393  2.4730
 5056SOL     OW26800   2.147   2.826   2.379 -0.7343  0.3043  0.1735
 5056SOL    HW126801   2.126   2.807   2.471  2.5422  1.9614  1.2605
 5056SOL    HW226802   2.063   2.836   2.335 -0.7167 -0.3747 -0.0151
 5057SOL     OW26803   1.935   2.740   7.603 -0.2893 -0.0654 -0.1908
 5057SOL    HW126804   2.023   2.714   7.574  0.7325  0.8656  2.0535
 5057SOL    HW226805   1.933   2.689   7.684 -0.2644 -1.5739 -1.1269
 5058SOL     OW26806   0.560   0.832   5.895  0.2301  0.0427  0.5384
 5058SOL    HW126807   0.562   0.928   5.901 -0.7464  0.0443  0.7738
 5058SOL    HW226808   0.533   0.804   5.983 -1.0808 -0.2414  0.0384
 5059SOL     OW26809   2.349   3.971   1.929  0.1298  0.2799  0.7290
 5059SOL    HW126810   2.362   4.048   1.874  1.9706 -0.5588 -0.0079
 5059SOL    HW226811   2.259   3.950   1.906  1.2866 -2.6207 -1.0417
 5060SOL     OW26812   0.573   3.590   5.940  0.1795 -0.3379 -0.2048
 5060SOL    HW126813   0.668   3.592   5.933  0.0682  0.0915 -1.6694
 5060SOL    HW226814   0.547   3.511   5.891 -2.1625 -0.8143  1.7980
 5061SOL     OW26815   4.213   3.159   3.379 -0.7757 -0.4442 -0.0445
 5061SOL    HW126816   4.215   3.228   3.312 -0.4871  0.6634  1.1192
 5061SOL    HW226817   4.147   3.104   3.337  0.5852 -0.7380 -1.7868
 5062SOL     OW26818   3.122   2.537   2.181  0.0956 -0.3082  0.0221
 5062SOL    HW126819   3.063   2.463   2.195  0.7916 -0.6820  0.9624
 5062SOL    HW226820   3.072   2.611   2.216  1.5629  0.3111  0.7791
 5063SOL     OW26821   3.951   1.748   5.731 -0.3257 -0.3782 -0.3396
 5063SOL    HW126822   3.898   1.710   5.660  1.4983  0.7510 -2.3121
 5063SOL    HW226823   3.887   1.808   5.768 -1.4416 -1.1853 -0.9642
 5064SOL     OW26824   2.380   1.920   5.578  0.3288 -0.1858  0.0253
 5064SOL    HW126825   2.341   1.998   5.617  0.0370 -0.5444  0.4517
 5064SOL    HW226826   2.470   1.928   5.608  0.7340 -1.0215 -0.9470
 5065SOL     OW26827   4.350   4.140   1.466  0.0868 -0.6195 -0.8290
 5065SOL    HW126828   4.432   4.183   1.441  0.3052 -0.6937 -0.2433
 5065SOL    HW226829   4.340   4.157   1.559  0.6721  0.4081 -0.9517
 5066SOL     OW26830   3.922   3.806   8.687  0.4464  0.0833  0.1298
 5066SOL    HW126831   3.854   3.789   8.752 -2.5553  0.6756 -2.8529
 5066SOL    HW226832   3.875   3.864   8.628 -0.1326  1.3389  1.8071
 5067SOL     OW26833   1.656   0.634  12.828 -0.2096  0.6124 -0.4688
 5067SOL    HW126834   1.702   0.718  12.833  1.3131 -0.2631  0.1410
 5067SOL    HW226835   1.595   0.644  12.901  0.8109 -0.9428  0.6045
 5068SOL     OW26836   0.698   1.652   3.758 -0.1611  0.1322 -0.0088
 5068SOL    HW126837   0.647   1.729   3.783  1.1113  1.0100 -0.1057
 5068SOL    HW226838   0.630   1.587   3.742  0.4814 -1.2174  2.7153
 5069SOL     OW26839   3.815   2.649   7.768  0.1688  0.2638 -0.4548
 5069SOL    HW126840   3.906   2.623   7.782 -0.2526 -1.5665 -1.0975
 5069SOL    HW226841   3.799   2.716   7.834  1.4648 -0.5434  0.6663
 5070SOL     OW26842   2.989   2.913   6.609 -0.1555  0.7908  0.2206
 5070SOL    HW126843   3.016   2.923   6.518 -1.2316 -0.7923 -0.2743
 5070SOL    HW226844   3.068   2.875   6.649 -1.3205 -1.3684  0.4685
 5071SOL     OW26845   0.804   2.510   2.711  0.1502  0.1093  0.0062
 5071SOL    HW126846   0.843   2.423   2.716 -0.7850 -0.4295 -1.9278
 5071SOL    HW226847   0.835   2.558   2.788  0.8755 -1.3629  0.6344
 5072SOL     OW26848   0.104   0.468  12.388  0.2371 -0.3271  0.1375
 5072SOL    HW126849   0.094   0.433  12.299 -1.0574  0.0555  0.1223
 5072SOL    HW226850   0.041   0.540  12.388  1.9822  1.2059 -1.7471
 5073SOL     OW26851   2.248   4.311  14.691  0.0668  0.0538 -0.4224
 5073SOL    HW126852   2.235   4.254  14.615 -0.5090 -0.2424 -0.0990
 5073SOL    HW226853   2.245   4.243  14.759  0.9215  0.0766 -0.3676
 5074SOL     OW26854   3.891   3.459   7.889  0.5380  0.6455  0.5036
 5074SOL    HW126855   3.934   3.513   7.955  0.5818  1.8454 -0.5282
 5074SOL    HW226856   3.811   3.431   7.935 -0.2789 -0.6290 -1.6748
 5075SOL     OW26857   4.222   0.088   6.837  0.1030  0.2505 -0.3385
 5075SOL    HW126858   4.312   0.098   6.807 -0.0785  0.6946 -0.7274
 5075SOL    HW226859   4.180   0.050   6.760 -1.6159  0.7646  0.3335
 5076SOL     OW26860   0.945   3.768  16.825  0.2032  0.2384 -0.5470
 5076SOL    HW126861   0.926   3.678  16.849  0.7490  0.1964 -0.2737
 5076SOL    HW226862   0.865   3.817  16.840  1.1499  1.2986  1.0420
 5077SOL     OW26863   4.517   0.744  12.928 -0.1829 -0.2631  1.1623
 5077SOL    HW126864   4.433   0.706  12.952  0.6428 -1.1210  2.6735
 5077SOL    HW226865   4.519   0.822  12.983  1.7013  0.1881  0.4600
 5078SOL     OW26866   4.053   2.099   1.692 -0.4430 -0.1523 -0.1601
 5078SOL    HW126867   4.049   2.004   1.698 -0.0629 -0.2288 -1.1953
 5078SOL    HW226868   3.967   2.118   1.655 -0.9113 -1.4439  0.2520
 5079SOL     OW26869   2.128   2.015  10.152  0.4053  0.2198 -0.4515
 5079SOL    HW126870   2.137   1.956  10.077  1.0637 -0.6123  0.2890
 5079SOL    HW226871   2.045   2.059  10.133  1.7705  3.4371  1.0797
 5080SOL     OW26872   0.271   4.198   2.210  0.6593  0.2471  0.1037
 5080SOL    HW126873   0.277   4.283   2.166  0.1565  1.1720  1.8083
 5080SOL    HW226874   0.177   4.185   2.221  0.9581 -3.0773 -1.5201
 5081SOL     OW26875   3.125   4.325   7.916 -0.3282  0.7156 -0.0797
 5081SOL    HW126876   3.174   4.347   7.995 -1.2436 -0.2945  0.7707
 5081SOL    HW226877   3.037   4.348   7.946 -0.1869 -0.4990  1.2630
 5082SOL     OW26878   4.594   4.530   6.932 -0.2918  0.5907  0.2633
 5082SOL    HW126879   4.646   4.544   6.853  0.3642 -0.9324  0.4363
 5082SOL    HW226880   4.664   4.505   6.992  0.1572 -2.0545 -1.3422
 5083SOL     OW26881   3.123   1.345   7.554  0.3762  0.4725  0.0212
 5083SOL    HW126882   3.028   1.348   7.568  0.2451 -0.9899 -0.5516
 5083SOL    HW226883   3.138   1.253   7.532 -1.4640  0.2055 -0.1479
 5084SOL     OW26884   0.155   4.448  14.073  0.0572  0.5931  0.6013
 5084SOL    HW126885   0.103   4.526  14.054 -0.5745  0.1304  0.4336
 5084SOL    HW226886   0.093   4.392  14.121  0.2165 -0.0455  0.0523
 5085SOL     OW26887   1.745   3.436   7.408 -0.0866  0.0766 -0.0520
 5085SOL    HW126888   1.721   3.453   7.317  0.2590  2.5291  0.3032
 5085SOL    HW226889   1.665   3.390   7.433 -0.3635  0.9407  0.6611
 5086SOL     OW26890   1.682   2.025   2.646  0.1970 -0.2047 -0.2090
 5086SOL    HW126891   1.713   1.941   2.681 -2.3175 -0.3812  1.6082
 5086SOL    HW226892   1.694   2.012   2.552 -0.3317 -0.4325 -0.2487
 5087SOL     OW26893   1.988   2.242  15.396 -0.2898 -0.8635 -0.1269
 5087SOL    HW126894   2.073   2.282  15.413 -0.4532  0.7060 -3.1019
 5087SOL    HW226895   1.932   2.317  15.376 -0.4963 -1.5395 -2.0684
 5088SOL     OW26896   2.997   3.917  16.481  0.0465 -0.4570  0.1443
 5088SOL    HW126897   3.057   3.856  16.436  3.2166  1.1489  2.1795
 5088SOL    HW226898   2.916   3.883  16.443 -0.4279  1.7263 -0.7836
 5089SOL     OW26899   0.245   1.147   2.660  1.2741 -0.2160 -0.3524
 5089SOL    HW126900   0.243   1.057   2.626  1.6942  0.5200 -2.3444
 5089SOL    HW226901   0.336   1.165   2.638  1.0447  2.1283  0.5459
 5090SOL     OW26902   4.730   1.861   5.128 -0.0738 -0.5331  0.2772
 5090SOL    HW126903   4.654   1.852   5.186  1.0565  1.5441  2.0725
 5090SOL    HW226904   0.011   1.769   5.108 -0.7527 -0.2142 -1.8415
 5091SOL     OW26905   2.721   2.925  14.653  0.1358  0.7013  0.0560
 5091SOL    HW126906   2.649   2.978  14.618 -0.9447  1.5948  3.6764
 5091SOL    HW226907   2.771   2.913  14.572  0.0307 -1.3323  0.2792
 5092SOL     OW26908   1.242   1.267   9.128  0.4409  0.5197  0.3258
 5092SOL    HW126909   1.322   1.311   9.154 -0.4494  0.8750  2.4583
 5092SOL    HW226910   1.246   1.282   9.034  0.8028 -3.2532 -0.2623
 5093SOL     OW26911   0.693   4.423  16.251 -0.2534 -0.3705 -0.2551
 5093SOL    HW126912   0.668   4.484  16.321  2.6684  1.6906 -1.0105
 5093SOL    HW226913   0.653   4.345  16.289 -1.8710  0.3362 -0.5431
 5094SOL     OW26914   2.559   1.472   1.408  0.5643  0.1696 -0.0240
 5094SOL    HW126915   2.506   1.433   1.478  2.2088 -1.0174  0.5685
 5094SOL    HW226916   2.552   1.565   1.429  1.3172 -0.1316  1.6016
 5095SOL     OW26917   3.652   2.845  10.521  0.1964  0.6132 -0.1206
 5095SOL    HW126918   3.576   2.799  10.556  0.6001  0.9613  1.1885
 5095SOL    HW226919   3.638   2.924  10.573  3.2593  2.1493 -1.5866
 5096SOL     OW26920   0.077   3.178   9.092  0.0491 -0.4076  0.3234
 5096SOL    HW126921   4.721   3.183   9.080 -0.3408 -1.7071  2.8336
 5096SOL    HW226922   0.101   3.247   9.154  0.1497 -0.8580  0.7853
 5097SOL     OW26923   2.674   1.538   2.179 -0.4842 -0.0959  0.1180
 5097SOL    HW126924   2.690   1.621   2.223  0.5003 -0.7646  1.0260
 5097SOL    HW226925   2.636   1.565   2.096  1.4987  0.6021 -0.5390
 5098SOL     OW26926   0.865   2.236   2.745  0.4522 -0.3238  0.3848
 5098SOL    HW126927   0.879   2.145   2.719  0.8019 -0.0192 -0.4894
 5098SOL    HW226928   0.951   2.271   2.721  0.0652  1.0606  1.0240
 5099SOL     OW26929   1.248   4.268   2.281 -0.4504 -0.5778  0.2693
 5099SOL    HW126930   1.310   4.331   2.245 -2.1695 -0.1662 -1.9485
 5099SOL    HW226931   1.167   4.309   2.311 -0.4991  1.3061 -2.4853
 5100SOL     OW26932   0.301   0.085  11.640 -0.0057  0.5060 -0.1799
 5100SOL    HW126933   0.218   0.072  11.685 -0.9004  2.0999 -1.3794
 5100SOL    HW226934   0.341   0.159  11.687 -0.6928  1.2488 -0.7731
 5101SOL     OW26935   0.782   2.834   4.157  0.4311  0.5318  0.0103
 5101SOL    HW126936   0.732   2.824   4.237  1.1999 -1.4448  0.2333
 5101SOL    HW226937   0.803   2.927   4.170  3.5834 -0.1394 -0.2787
 5102SOL     OW26938   1.644   3.948  10.010 -0.0356  0.0360 -0.1739
 5102SOL    HW126939   1.568   3.910   9.967  0.1771 -0.2121 -0.3300
 5102SOL    HW226940   1.677   3.881  10.071  1.5718 -0.8010 -1.9896
 5103SOL     OW26941   0.803   1.840   1.926 -0.0286  0.0993  0.3601
 5103SOL    HW126942   0.815   1.815   2.018 -0.4331 -2.2217 -0.2113
 5103SOL    HW226943   0.836   1.760   1.885  1.3103  0.9997 -0.3207
 5104SOL     OW26944   2.710   3.549  15.445 -0.0637  0.6124 -0.2716
 5104SOL    HW126945   2.787   3.496  15.422 -0.1051  0.9309 -1.1203
 5104SOL    HW226946   2.746   3.626  15.489 -0.1860  0.0539  0.7997
 5105SOL     OW26947   1.996   4.128   3.091  0.4701 -0.4665 -0.6653
 5105SOL    HW126948   1.969   4.067   3.159 -0.7502  1.0248  0.1832
 5105SOL    HW226949   1.918   4.127   3.034  0.8780 -0.5057 -1.2230
 5106SOL     OW26950   1.115   3.589   5.809 -0.6459  0.5005  0.2036
 5106SOL    HW126951   1.134   3.495   5.807 -0.4064  0.5279  1.1660
 5106SOL    HW226952   1.199   3.625   5.839  0.8137 -2.5318 -0.2146
 5107SOL     OW26953   1.516   3.868   4.061 -0.3445 -0.3679 -0.3133
 5107SOL    HW126954   1.502   3.823   3.978  2.8419 -0.4451 -0.8009
 5107SOL    HW226955   1.516   3.960   4.034 -4.3328 -0.4860 -0.6836
 5108SOL     OW26956   1.245   3.028   6.866  0.0650 -0.1850 -0.5164
 5108SOL    HW126957   1.219   3.092   6.799  2.7185  0.6671 -0.7507
 5108SOL    HW226958   1.271   3.093   6.932 -0.1853 -2.0445  1.3807
 5109SOL     OW26959   4.328   2.906  10.897  0.4608  0.1172 -0.2075
 5109SOL    HW126960   4.291   2.990  10.924 -1.0981  0.3617 -3.1213
 5109SOL    HW226961   4.256   2.845  10.880  1.8884 -1.4151 -0.8265
 5110SOL     OW26962   1.463   2.039   7.478  0.3031  0.0772 -0.4227
 5110SOL    HW126963   1.545   2.088   7.477  0.6035 -0.4124  1.7094
 5110SOL    HW226964   1.432   2.055   7.567 -0.8031  0.6373 -0.8943
 5111SOL     OW26965   3.918   3.585  15.147 -0.0363 -0.3026 -0.0857
 5111SOL    HW126966   3.998   3.613  15.102  0.2304 -1.3866 -0.2740
 5111SOL    HW226967   3.861   3.608  15.074 -0.1386  3.3711  1.1516
 5112SOL     OW26968   0.081   1.315   9.630  0.1753 -0.5598  0.1285
 5112SOL    HW126969   0.176   1.322   9.640  0.0050 -1.1253  2.1202
 5112SOL    HW226970   0.076   1.224   9.600 -1.9381 -0.2334 -0.4829
 5113SOL     OW26971   2.174   0.079   4.738  0.3922  0.4426 -0.5163
 5113SOL    HW126972   2.120   0.147   4.777  0.3017  0.0521  0.0349
 5113SOL    HW226973   2.143   0.000   4.783  1.4022  0.2259 -0.2007
 5114SOL     OW26974   0.952   1.929   8.882 -0.6490  0.2497 -0.1052
 5114SOL    HW126975   0.889   1.857   8.878 -1.5879  1.1539 -1.9268
 5114SOL    HW226976   0.888   1.999   8.868 -2.4486 -1.0879  1.5493
 5115SOL     OW26977   3.347   1.064   6.240  0.0851  0.6670 -0.6798
 5115SOL    HW126978   3.323   0.978   6.275 -0.8474  0.9329 -0.6937
 5115SOL    HW226979   3.265   1.088   6.199 -0.8191 -1.6820 -0.2296
 5116SOL     OW26980   4.267   1.322   2.990 -1.0306  0.1783 -0.0850
 5116SOL    HW126981   4.338   1.290   3.046 -1.5104  2.1394  1.6390
 5116SOL    HW226982   4.213   1.243   2.987 -1.4497  0.4696 -0.1661
 5117SOL     OW26983   1.788   0.739   7.074 -0.2650 -0.1203  0.1097
 5117SOL    HW126984   1.787   0.811   7.137  0.4172  1.2185 -1.4108
 5117SOL    HW226985   1.855   0.777   7.017  1.8054 -1.3184  1.7723
 5118SOL     OW26986   2.895   3.726   3.402  0.1361 -0.8493  0.1186
 5118SOL    HW126987   2.959   3.688   3.341 -0.2929 -2.1835  0.5101
 5118SOL    HW226988   2.821   3.745   3.344  0.7414 -0.4031 -0.5057
 5119SOL     OW26989   0.378   4.034   2.714 -0.3546  0.5215  0.0897
 5119SOL    HW126990   0.286   4.060   2.715  0.1579  2.3627 -0.1941
 5119SOL    HW226991   0.380   3.979   2.636 -0.0212  0.1252  0.3814
 5120SOL     OW26992   1.757   1.350  16.927  0.3199  0.3400  0.0390
 5120SOL    HW126993   1.792   1.292  16.859  0.8730 -2.3619  2.5896
 5120SOL    HW226994   1.689   1.294  16.966  0.9151  0.6350  1.5148
 5121SOL     OW26995   4.437   2.334   9.424  0.3744  0.1052 -0.8418
 5121SOL    HW126996   4.383   2.371   9.495 -1.1379 -1.4014 -1.2155
 5121SOL    HW226997   4.380   2.356   9.351  1.6772 -2.3442 -2.5989
 5122SOL     OW26998   2.145   3.891   9.455  0.0331  0.1551 -0.1686
 5122SOL    HW126999   2.220   3.883   9.396  0.5273  2.9342  0.1114
 5122SOL    HW227000   2.130   3.801   9.484 -0.5009 -0.0588 -1.1078
 5123SOL     OW27001   1.428   1.336   5.713  0.0612 -0.1254 -0.0636
 5123SOL    HW127002   1.471   1.414   5.679  0.5049 -0.6040 -0.6237
 5123SOL    HW227003   1.352   1.380   5.750  0.4624  0.8969 -0.4771
 5124SOL     OW27004   2.288   0.096   7.340 -0.5279  0.2073 -0.3703
 5124SOL    HW127005   2.347   0.110   7.414 -1.7246  0.6275  0.5096
 5124SOL    HW227006   2.262   0.186   7.321  4.2649  0.8051 -4.0166
 5125SOL     OW27007   4.625   4.418   4.224 -0.8685 -0.6451  0.1151
 5125SOL    HW127008   4.700   4.429   4.284 -1.2911  1.6101  0.2147
 5125SOL    HW227009   4.672   4.408   4.142  0.5157 -0.6333  0.8949
 5126SOL     OW27010   4.436   4.473  16.497 -0.2692  0.1448 -0.0086
 5126SOL    HW127011   4.356   4.450  16.544  1.5637 -0.1655  3.0225
 5126SOL    HW227012   4.413   4.474  16.404 -3.0547 -0.7606  0.6783
 5127SOL     OW27013   0.952   2.265   7.539 -0.2205  0.0773  0.5490
 5127SOL    HW127014   0.926   2.337   7.596 -0.9166  1.8901 -2.0956
 5127SOL    HW227015   0.913   2.193   7.589  0.2815 -0.7192 -0.1994
 5128SOL     OW27016   1.104   1.874   9.898 -0.0364  0.7051 -0.0777
 5128SOL    HW127017   1.017   1.904   9.924 -0.3283 -1.4502  1.4988
 5128SOL    HW227018   1.167   1.937   9.934 -0.9222  0.8606  1.2216
 5129SOL     OW27019   4.413   2.868   7.643 -0.0260 -0.3616  0.4264
 5129SOL    HW127020   4.472   2.799   7.614  0.5643  0.3928 -0.1933
 5129SOL    HW227021   4.338   2.819   7.675 -1.5758  1.7097 -0.0626
 5130SOL     OW27022   2.727   3.357   3.358 -0.1144  0.1678  0.0036
 5130SOL    HW127023   2.811   3.352   3.404 -0.8431 -1.2102  1.1898
 5130SOL    HW227024   2.711   3.269   3.324 -0.7135  0.7668 -1.2584
 5131SOL     OW27025   1.210   3.002  17.736  0.2599  0.0821 -0.3244
 5131SOL    HW127026   1.149   2.930  17.753  0.0631  0.3533  0.1348
 5131SOL    HW227027   1.250   3.002   0.070 -0.0149 -0.7162 -0.2008
 5132SOL     OW27028   2.059   0.297   7.487  0.1482  0.2908  0.2525
 5132SOL    HW127029   2.052   0.280   7.581 -0.5970  2.3399  0.5591
 5132SOL    HW227030   2.017   0.218   7.453  0.7799  0.2229 -0.3662
 5133SOL     OW27031   1.477   0.661   3.271  0.6039  0.5024  0.3955
 5133SOL    HW127032   1.567   0.693   3.275  0.8367 -0.1713  0.3997
 5133SOL    HW227033   1.449   0.693   3.186 -0.9601 -1.3578  0.2261
 5134SOL     OW27034   1.743   4.521   1.652  0.0246 -0.1917 -0.5938
 5134SOL    HW127035   1.667   4.573   1.625  0.0277 -0.2699 -0.7506
 5134SOL    HW227036   1.707   4.501   1.739  2.8207 -1.1476  0.3340
 5135SOL     OW27037   1.292   1.052   6.955 -0.1583  0.0863  0.1741
 5135SOL    HW127038   1.383   1.072   6.976 -0.2756  0.6345  0.1763
 5135SOL    HW227039   1.285   1.097   6.871 -3.0722  0.3759  0.5666
 5136SOL     OW27040   1.590   1.949   8.433 -0.5488 -0.3504  0.3471
 5136SOL    HW127041   1.657   2.002   8.476  0.5487 -1.6279  0.2112
 5136SOL    HW227042   1.509   1.970   8.479 -0.5214 -1.6179  0.9755
 5137SOL     OW27043   4.445   3.450   9.944  0.1295 -0.2101 -0.5176
 5137SOL    HW127044   4.373   3.442   9.881  1.9313 -0.1150 -2.5765
 5137SOL    HW227045   4.493   3.383   9.896  0.3287  0.8013 -1.7173
 5138SOL     OW27046   3.727   3.125   3.640 -0.3216  0.5596  0.2777
 5138SOL    HW127047   3.718   3.219   3.628 -1.2267  0.3501 -0.7802
 5138SOL    HW227048   3.661   3.099   3.576 -3.0506  1.2596  2.8243
 5139SOL     OW27049   3.022   0.035   3.059  0.5491  0.2654  0.4866
 5139SOL    HW127050   3.057   0.006   3.143  0.4780 -0.2509  0.3339
 5139SOL    HW227051   2.952   4.710   3.044 -0.3782  0.6129  3.2749
 5140SOL     OW27052   0.499   3.388   9.619 -0.0348  0.2941 -0.0472
 5140SOL    HW127053   0.443   3.462   9.644 -0.7883 -0.7997  1.5074
 5140SOL    HW227054   0.440   3.365   9.548 -0.0175 -0.1376  0.0828
 5141SOL     OW27055   3.196   1.600  10.210  0.2499 -0.2878 -0.6790
 5141SOL    HW127056   3.269   1.643  10.165  0.0335  0.5137 -0.2603
 5141SOL    HW227057   3.128   1.601  10.142  1.3719 -0.2624 -1.8040
 5142SOL     OW27058   0.153   2.496  11.173  0.0428 -0.2995 -0.1977
 5142SOL    HW127059   0.242   2.529  11.184 -0.9495  2.5532 -0.7318
 5142SOL    HW227060   0.127   2.458  11.257 -0.8309  0.4444 -0.1382
 5143SOL     OW27061   4.318   0.463  17.199  0.3417  0.1343 -0.0872
 5143SOL    HW127062   4.256   0.389  17.203 -0.0544  0.4039 -1.4334
 5143SOL    HW227063   4.315   0.490  17.291  4.4765 -1.8698  0.6322
 5144SOL     OW27064   0.604   0.130   4.807  0.1184  0.1001 -0.1527
 5144SOL    HW127065   0.515   0.094   4.806  0.8180 -1.6481  1.8181
 5144SOL    HW227066   0.658   0.053   4.822  2.5236  2.1506  1.5874
 5145SOL     OW27067   1.885   2.851  17.272 -0.3480  0.0007 -0.3876
 5145SOL    HW127068   1.919   2.796  17.201  1.6477  1.0542 -0.2301
 5145SOL    HW227069   1.821   2.896  17.216 -2.6958 -3.6128 -0.5947
 5146SOL     OW27070   3.646   4.592   3.469 -0.1814 -0.3231 -0.2631
 5146SOL    HW127071   3.597   4.606   3.387  0.8322 -2.5117 -1.2557
 5146SOL    HW227072   3.738   4.600   3.444 -0.2563  0.2701 -0.3323
 5147SOL     OW27073   3.150   4.734   9.768 -0.4942 -0.0409 -0.2519
 5147SOL    HW127074   3.227   0.050   9.754  0.9407 -1.8848  0.4099
 5147SOL    HW227075   3.095   0.039   9.704 -2.9235 -0.7305  1.3644
 5148SOL     OW27076   1.330   2.050  11.011 -0.0221 -0.7356  0.0191
 5148SOL    HW127077   1.255   2.107  10.993  0.6723 -0.0104 -0.6078
 5148SOL    HW227078   1.384   2.050  10.931  1.0089  2.4393  0.6858
 5149SOL     OW27079   2.160   0.317   7.173  0.3871 -0.1449 -0.5591
 5149SOL    HW127080   2.122   0.404   7.169  2.6471  0.8544 -0.3547
 5149SOL    HW227081   2.147   0.291   7.082  0.7145 -1.3471 -0.2627
 5150SOL     OW27082   4.159   1.885  16.874 -0.4246 -0.1971  0.0477
 5150SOL    HW127083   4.222   1.884  16.947 -1.4069 -2.6542  0.8512
 5150SOL    HW227084   4.089   1.925  16.926 -0.4146  0.1057 -0.1707
 5151SOL     OW27085   0.775   2.896   3.801 -0.4274 -0.1180 -0.4816
 5151SOL    HW127086   0.847   2.938   3.846 -0.4698  0.7230 -1.1866
 5151SOL    HW227087   0.708   2.898   3.869 -1.7967 -1.1686 -1.7923
 5152SOL     OW27088   4.228   2.442   3.991  0.1167 -0.0292  0.1332
 5152SOL    HW127089   4.192   2.502   3.925 -2.0771 -1.4989 -0.0245
 5152SOL    HW227090   4.215   2.358   3.948  1.1214  0.5736 -1.3451
 5153SOL     OW27091   1.277   3.566   2.223  0.4395  0.1814 -0.2800
 5153SOL    HW127092   1.332   3.516   2.162  2.4040  2.8749 -0.7026
 5153SOL    HW227093   1.252   3.633   2.160 -0.6301  0.5120  0.4993
 5154SOL     OW27094   1.037   4.710   6.311  0.0217 -0.7583 -0.4336
 5154SOL    HW127095   0.990   4.629   6.289 -1.4604  0.2762 -1.0498
 5154SOL    HW227096   0.976   0.019   6.367  0.1047  2.2302 -2.9296
 5155SOL     OW27097   0.127   2.801   8.104 -0.3743 -0.1431  0.1561
 5155SOL    HW127098   0.167   2.755   8.178  0.6041  0.0207 -0.2676
 5155SOL    HW227099   0.083   2.877   8.141 -1.5301 -0.9888  0.5276
 5156SOL     OW27100   2.715   2.801   8.562 -0.3678 -0.3198 -0.1540
 5156SOL    HW127101   2.784   2.832   8.620 -2.2354  1.7696  0.9613
 5156SOL    HW227102   2.631   2.827   8.600  0.1629  0.8014  0.2681
 5157SOL     OW27103   3.170   1.932  13.725 -0.5456  0.7356  0.5421
 5157SOL    HW127104   3.250   1.940  13.777 -1.0008 -1.0954  1.5132
 5157SOL    HW227105   3.212   1.952  13.642 -0.4367 -0.4561  0.3121
 5158SOL     OW27106   1.123   3.035   5.208  0.1144 -0.2800 -1.0474
 5158SOL    HW127107   1.033   3.023   5.176  0.0482 -2.5571 -0.0019
 5158SOL    HW227108   1.159   2.958   5.165  1.3523 -0.9037  1.1312
 5159SOL     OW27109   0.451   1.674   2.633  0.2730  0.2677  0.5924
 5159SOL    HW127110   0.494   1.599   2.592 -0.7666 -0.1808  0.3169
 5159SOL    HW227111   0.470   1.653   2.725  0.6601  0.6200  0.5952
 5160SOL     OW27112   0.695   0.672   0.305  0.9871 -0.1138  0.5290
 5160SOL    HW127113   0.634   0.653   0.233  1.0326 -1.9477  0.9825
 5160SOL    HW227114   0.670   0.759   0.336  0.2768  0.0732 -0.5363
 5161SOL     OW27115   3.533   4.556  16.975 -0.3529 -0.5190 -0.0511
 5161SOL    HW127116   3.558   4.581  16.886 -0.9654  1.2246  0.2769
 5161SOL    HW227117   3.500   4.469  16.953 -1.3518 -0.3781  0.9129
 5162SOL     OW27118   2.081   2.110   4.953  0.0397  0.0275  0.2260
 5162SOL    HW127119   2.095   2.031   4.901  2.3647  2.2971 -2.6192
 5162SOL    HW227120   2.097   2.182   4.892 -3.5869  0.3498 -0.3221
 5163SOL     OW27121   2.509   3.590   8.819 -0.7256  0.2077  0.2292
 5163SOL    HW127122   2.461   3.607   8.738  0.4333 -0.3264 -0.5850
 5163SOL    HW227123   2.600   3.582   8.791 -0.9233  2.3551 -0.9592
 5164SOL     OW27124   2.308   2.475   7.428  0.6185  0.4178  0.3418
 5164SOL    HW127125   2.300   2.565   7.460 -0.1603 -0.0643  1.4961
 5164SOL    HW227126   2.214   2.461   7.425  0.7692 -0.5856  0.5102
 5165SOL     OW27127   4.575   0.888   2.580  0.3746 -0.2677 -0.5702
 5165SOL    HW127128   4.621   0.972   2.583 -1.1021  0.5803 -1.5021
 5165SOL    HW227129   4.641   0.822   2.603 -0.7435 -0.8601  0.9212
 5166SOL     OW27130   2.230   4.596   7.854 -0.0456  0.5120  0.6961
 5166SOL    HW127131   2.229   4.675   7.908  2.4646  0.9000  0.1983
 5166SOL    HW227132   2.282   4.630   7.781  1.9159  0.5487  2.0878
 5167SOL     OW27133   4.006   1.279   8.429 -0.0616  0.1008 -0.2303
 5167SOL    HW127134   3.993   1.347   8.363  0.1701  0.4093  0.0396
 5167SOL    HW227135   4.004   1.207   8.367  3.0413 -1.0896  1.0380
 5168SOL     OW27136   1.371   0.038  10.446 -0.2924  0.2701 -0.6769
 5168SOL    HW127137   1.279   0.014  10.447 -0.6125  1.5986  0.3656
 5168SOL    HW227138   1.365   0.132  10.462 -1.4873  0.0279  0.2834
 5169SOL     OW27139   0.621   0.605   3.196 -0.1990  0.6005  0.1167
 5169SOL    HW127140   0.602   0.632   3.286  0.0140 -2.9498  1.2407
 5169SOL    HW227141   0.531   0.592   3.166  0.5381  1.0742 -2.3041
 5170SOL     OW27142   3.024   1.971   6.296  0.2349  0.2061  0.5097
 5170SOL    HW127143   2.979   1.945   6.376 -1.3759 -1.3574 -0.9037
 5170SOL    HW227144   3.117   1.974   6.316  0.6038  0.2139 -1.1847
 5171SOL     OW27145   0.225   0.012   6.028 -0.0426  0.1076 -0.7229
 5171SOL    HW127146   0.200   0.035   5.938  3.1781  1.8427 -1.1673
 5171SOL    HW227147   0.167   4.684   6.064 -1.9491 -0.1045 -4.1619
 5172SOL     OW27148   0.248   1.290   1.354  0.3407 -0.4891  0.1590
 5172SOL    HW127149   0.156   1.264   1.354  0.0325  0.6034  1.5659
 5172SOL    HW227150   0.261   1.334   1.438  1.2404  0.1025 -0.2917
 5173SOL     OW27151   0.086   4.731   7.029 -0.5912 -0.1779 -0.1276
 5173SOL    HW127152   0.152   4.668   6.999  0.0920  2.0910 -3.4513
 5173SOL    HW227153   0.130   0.032   7.104 -1.0412  0.2298 -0.0836
 5174SOL     OW27154   4.384   0.814   0.183  0.5014 -0.6493  0.9236
 5174SOL    HW127155   4.346   0.743   0.235 -1.0873  0.4215  1.2286
 5174SOL    HW227156   4.301   0.859   0.164  1.0294  0.2083  0.6390
 5175SOL     OW27157   2.206   0.511  16.581  0.6208 -0.1863 -0.0819
 5175SOL    HW127158   2.194   0.483  16.672 -1.8951  1.0138 -0.0591
 5175SOL    HW227159   2.246   0.434  16.539 -0.8238 -1.2694  0.5012
 5176SOL     OW27160   4.622   3.476   3.241 -0.2310 -0.1846 -0.5012
 5176SOL    HW127161   4.543   3.465   3.187 -0.0185  1.2729 -1.1211
 5176SOL    HW227162   4.577   3.487   3.325 -1.2012  0.4051 -1.1010
 5177SOL     OW27163   0.187   2.387   4.356  0.2408 -0.4333  0.2261
 5177SOL    HW127164   0.179   2.461   4.297  1.1956  0.0123  0.6544
 5177SOL    HW227165   0.107   2.384   4.409  0.2261  3.9204  0.3959
 5178SOL     OW27166   2.599   3.857   4.982 -0.2314 -0.1280  0.1316
 5178SOL    HW127167   2.580   3.951   4.979 -0.6644 -0.1155  3.2663
 5178SOL    HW227168   2.547   3.831   5.058 -1.9814  0.8257 -0.7271
 5179SOL     OW27169   2.128   2.641   5.698 -0.0697 -0.0860  0.1710
 5179SOL    HW127170   2.077   2.676   5.625  0.2155 -0.3947 -0.1759
 5179SOL    HW227171   2.066   2.612   5.765 -0.7429  2.0009  0.4525
 5180SOL     OW27172   1.436   1.022   4.346  0.1912  0.0858  0.1946
 5180SOL    HW127173   1.421   1.117   4.347 -3.7711 -0.5326  1.3185
 5180SOL    HW227174   1.441   1.009   4.441  1.9275  1.1646  0.2492
 5181SOL     OW27175   2.081   1.716   2.590 -0.2205 -0.3634 -0.1572
 5181SOL    HW127176   2.041   1.748   2.671  1.6358  2.2891 -0.2991
 5181SOL    HW227177   2.011   1.706   2.526 -1.9988  2.2751  1.4039
 5182SOL     OW27178   3.331   4.170  16.135  0.0072 -0.0440 -0.7313
 5182SOL    HW127179   3.272   4.174  16.210 -2.4395  0.8336 -2.6948
 5182SOL    HW227180   3.403   4.221  16.172 -0.8778  0.5079  0.2514
 5183SOL     OW27181   1.828   0.704   6.137 -0.3636 -0.3982 -0.4860
 5183SOL    HW127182   1.855   0.644   6.068  1.9295 -0.3082  0.3308
 5183SOL    HW227183   1.855   0.658   6.217 -1.5100 -2.4396 -1.2835
 5184SOL     OW27184   2.731   2.001  14.302 -0.0819  0.2058 -0.5946
 5184SOL    HW127185   2.658   1.959  14.347  0.5951 -1.1732 -0.7941
 5184SOL    HW227186   2.774   1.921  14.272  2.8006  1.0693  1.2944
 5185SOL     OW27187   1.245   1.557   2.417 -0.9719 -0.1412  0.1018
 5185SOL    HW127188   1.150   1.542   2.420 -0.6223 -2.1565  0.4551
 5185SOL    HW227189   1.270   1.506   2.493  0.3690  0.8206  0.2933
 5186SOL     OW27190   4.619   3.489   2.062 -0.3337  0.3212 -0.1316
 5186SOL    HW127191   4.561   3.534   2.123  0.1291 -1.3450  1.5481
 5186SOL    HW227192   4.567   3.488   1.982  0.8974  0.3730 -0.9359
 5187SOL     OW27193   2.931   0.670   6.597 -0.0767  0.2198  0.4931
 5187SOL    HW127194   2.880   0.615   6.537  0.3462 -0.0341  0.3658
 5187SOL    HW227195   2.964   0.722   6.524  0.6825 -0.4995  0.3226
 5188SOL     OW27196   0.324   2.251   8.412 -0.2218 -0.0565  0.8431
 5188SOL    HW127197   0.315   2.199   8.492 -1.6123 -0.1901  0.6008
 5188SOL    HW227198   0.306   2.337   8.450  1.1640  0.2368  0.8635
 5189SOL     OW27199   4.391   1.207   4.828 -0.1566 -0.4130  0.4298
 5189SOL    HW127200   4.342   1.125   4.837  1.1473 -1.0517  1.9193
 5189SOL    HW227201   4.442   1.212   4.909  0.2365 -1.6563  0.2711
 5190SOL     OW27202   4.391   0.566   8.600  0.2618 -0.2078 -0.1053
 5190SOL    HW127203   4.408   0.473   8.614 -1.4162 -0.4144  0.6090
 5190SOL    HW227204   4.317   0.552   8.541  0.4165 -1.4791 -0.0093
 5191SOL     OW27205   3.301   0.900   8.921  0.0690 -0.0701  0.0445
 5191SOL    HW127206   3.272   0.813   8.897 -1.3050  1.0137 -2.1412
 5191SOL    HW227207   3.321   0.881   9.013  0.5621 -1.0123 -0.2644
 5192SOL     OW27208   2.380   3.422   3.607  0.0314 -0.1223 -0.0299
 5192SOL    HW127209   2.318   3.481   3.648 -0.7312 -0.6026 -0.5023
 5192SOL    HW227210   2.453   3.478   3.581 -0.3898  1.0190  1.2581
 5193SOL     OW27211   2.473   3.573  15.326 -0.3174  0.0924 -0.9347
 5193SOL    HW127212   2.454   3.480  15.317 -0.5382 -0.3960  4.2728
 5193SOL    HW227213   2.566   3.580  15.348 -0.9055  1.7303  1.0518
 5194SOL     OW27214   4.235   2.447   4.856  0.0109 -0.3052 -0.2548
 5194SOL    HW127215   4.289   2.453   4.777  1.4130 -0.8600  0.6668
 5194SOL    HW227216   4.236   2.539   4.884 -0.3781  0.0292 -1.3282
 5195SOL     OW27217   2.203   4.126   6.995 -0.1285 -0.4357 -0.1052
 5195SOL    HW127218   2.216   4.037   7.027 -2.2452 -0.5876  0.2714
 5195SOL    HW227219   2.109   4.139   7.003  0.0942  1.7869 -0.9739
 5196SOL     OW27220   4.435   0.396  16.499 -0.0498 -0.3932 -0.3385
 5196SOL    HW127221   4.470   0.438  16.420  3.2844 -1.9056  0.3705
 5196SOL    HW227222   4.342   0.409  16.477  0.1909 -0.3471 -1.3457
 5197SOL     OW27223   3.591   4.020  12.524 -0.4869  0.8107  0.7206
 5197SOL    HW127224   3.521   4.060  12.575 -0.4870 -0.6667  1.8859
 5197SOL    HW227225   3.618   3.950  12.584  0.9895 -0.0284 -0.8850
 5198SOL     OW27226   3.630   3.754   0.801  0.5492  0.1891  0.5948
 5198SOL    HW127227   3.709   3.720   0.760  1.9256  0.9782  2.5783
 5198SOL    HW227228   3.612   3.842   0.769 -0.3273  0.1630  1.0047
 5199SOL     OW27229   0.139   3.931  11.576 -0.1977 -0.2355 -0.5216
 5199SOL    HW127230   0.074   3.915  11.644 -1.1827  1.0545 -1.1337
 5199SOL    HW227231   0.108   3.872  11.507 -1.2342 -0.0146 -0.2489
 5200SOL     OW27232   1.801   0.214   1.757 -0.3798  0.5494 -0.1593
 5200SOL    HW127233   1.803   0.289   1.817  2.1342 -0.3092  0.8230
 5200SOL    HW227234   1.839   0.150   1.817  0.6821 -0.2677 -1.6886
 5201SOL     OW27235   1.538   4.044   8.684  0.4234 -0.0957  0.3980
 5201SOL    HW127236   1.543   3.957   8.643 -0.2257  0.9145 -1.8306
 5201SOL    HW227237   1.599   4.102   8.639  0.3883 -0.9253 -0.7311
 5202SOL     OW27238   0.899   4.505   5.667  0.0871 -0.0051 -0.2563
 5202SOL    HW127239   0.848   4.463   5.736 -1.0775  3.1719  0.7948
 5202SOL    HW227240   0.971   4.536   5.721  0.1106 -1.5726  0.6138
 5203SOL     OW27241   3.433   0.867   5.101 -0.2801  0.4076 -0.4651
 5203SOL    HW127242   3.465   0.884   5.189 -2.1390  0.8292  0.1450
 5203SOL    HW227243   3.480   0.789   5.072  0.7843  0.8587  0.0504
 5204SOL     OW27244   1.687   1.316   2.924 -0.6612 -0.0595  0.0649
 5204SOL    HW127245   1.636   1.354   2.995 -1.6818 -0.7347 -0.3127
 5204SOL    HW227246   1.770   1.296   2.966  0.4428  1.4060 -1.3871
 5205SOL     OW27247   1.543   3.204   0.330  0.0770 -0.1883  0.6967
 5205SOL    HW127248   1.606   3.200   0.258  0.2820  0.5934  0.8275
 5205SOL    HW227249   1.596   3.254   0.393  1.3257  1.2270 -1.4641
 5206SOL     OW27250   1.810   1.654  16.967  0.0025 -0.3826 -0.1073
 5206SOL    HW127251   1.804   1.561  16.945 -1.2539 -0.6780  1.4469
 5206SOL    HW227252   1.857   1.678  16.887 -0.2446 -0.7730 -0.3727
 5207SOL     OW27253   4.518   1.927   2.686  0.1770  0.1151  0.3092
 5207SOL    HW127254   4.525   2.019   2.712 -0.7937  0.5599 -1.0430
 5207SOL    HW227255   4.515   1.945   2.592 -2.0195 -2.0311 -0.0152
 5208SOL     OW27256   2.081   4.568  17.240 -0.4369 -0.1926 -0.1175
 5208SOL    HW127257   2.135   4.599  17.314  1.2678 -1.2760 -0.9020
 5208SOL    HW227258   2.094   4.642  17.180 -3.8146 -0.0005 -0.5920
 5209SOL     OW27259   2.431   4.331   8.610 -0.4047  0.3061 -0.2229
 5209SOL    HW127260   2.360   4.290   8.560 -0.3708 -1.9194  1.5712
 5209SOL    HW227261   2.499   4.311   8.545 -1.4868 -0.5009 -1.1309
 5210SOL     OW27262   0.299   0.321  15.642  0.0229 -0.2942 -0.2255
 5210SOL    HW127263   0.266   0.391  15.698  2.2963  0.0112  0.7149
 5210SOL    HW227264   0.331   0.370  15.567 -0.1061  0.8746  0.4801
 5211SOL     OW27265   0.908   0.564   8.079  0.0810  0.0144  0.2534
 5211SOL    HW127266   0.829   0.511   8.069  0.6462 -0.8666  0.3637
 5211SOL    HW227267   0.943   0.536   8.164 -1.3855  1.2432  1.2531
 5212SOL     OW27268   4.298   0.398   2.370  0.0481 -0.0033  0.7535
 5212SOL    HW127269   4.294   0.336   2.443 -1.4130 -3.0350 -1.9399
 5212SOL    HW227270   4.205   0.421   2.364  0.0537 -0.4434 -1.0300
 5213SOL     OW27271   3.744   4.477   2.938 -0.2323  0.6351  0.3092
 5213SOL    HW127272   3.770   4.561   2.900 -3.6909  1.1165 -1.0386
 5213SOL    HW227273   3.764   4.419   2.864 -0.8985 -0.1645  0.7569
 5214SOL     OW27274   1.005   3.149  16.272 -0.1690 -0.0692  0.3277
 5214SOL    HW127275   0.995   3.233  16.229 -2.9851  0.1112  1.3385
 5214SOL    HW227276   1.061   3.102  16.210 -1.0406  0.1397 -0.5968
 5215SOL     OW27277   4.172   4.507  14.646  0.0097  0.1671  0.1383
 5215SOL    HW127278   4.121   4.576  14.689  0.2853  0.6585 -0.3208
 5215SOL    HW227279   4.104   4.440  14.644  2.0714 -1.9100  0.2249
 5216SOL     OW27280   1.527   2.790   0.340  0.2724  0.2665  0.2395
 5216SOL    HW127281   1.579   2.871   0.336  1.4048 -0.3179  2.9337
 5216SOL    HW227282   1.549   2.761   0.428 -1.2177  2.3215  1.2835
 5217SOL     OW27283   4.489   2.587   1.233 -0.8094 -0.0976  0.1592
 5217SOL    HW127284   4.522   2.569   1.321  0.6006  1.4743 -0.0549
 5217SOL    HW227285   4.554   2.551   1.172  1.0703  3.3686  0.1443
 5218SOL     OW27286   3.710   3.002  14.430  0.2457 -0.3052  0.2738
 5218SOL    HW127287   3.666   3.080  14.465 -0.3869 -0.2105 -0.7255
 5218SOL    HW227288   3.650   2.928  14.438 -1.4339  0.9320 -0.7057
 5219SOL     OW27289   3.710   4.723  13.321  0.5296 -0.2235  0.0336
 5219SOL    HW127290   3.792   4.685  13.352 -0.5685 -1.7764  1.0244
 5219SOL    HW227291   3.740   0.061  13.273  0.5823 -1.3464 -1.7227
 5220SOL     OW27292   3.965   1.750   6.101  0.1994 -0.6990  0.8208
 5220SOL    HW127293   3.959   1.732   6.195 -1.1666 -1.9340  0.4811
 5220SOL    HW227294   4.028   1.683   6.077  0.2603 -1.1141  2.1090
 5221SOL     OW27295   4.544   2.720   5.358 -0.1834  0.9805 -0.1422
 5221SOL    HW127296   4.587   2.644   5.397  0.1072  1.4869  0.5312
 5221SOL    HW227297   4.606   2.787   5.385  1.1955 -0.7235  0.9544
 5222SOL     OW27298   4.242   0.410  16.323  0.0037 -0.1466  0.4084
 5222SOL    HW127299   4.322   0.400  16.272  0.7470 -0.7870  1.7169
 5222SOL    HW227300   4.197   0.485  16.283 -2.3395 -1.7680 -0.0013
 5223SOL     OW27301   0.507   3.215   0.998 -0.1846 -0.1361  0.4477
 5223SOL    HW127302   0.421   3.190   1.032 -0.9545 -0.3678 -1.6417
 5223SOL    HW227303   0.512   3.311   1.000  0.6622 -0.2135  1.7027
 5224SOL     OW27304   3.490   4.249  13.458  0.1881 -0.2523  0.0407
 5224SOL    HW127305   3.568   4.253  13.404 -0.1344  0.3775 -0.3654
 5224SOL    HW227306   3.534   4.212  13.535  1.5193  0.4402 -0.3903
 5225SOL     OW27307   1.276   1.537   3.226 -0.4205 -0.9829 -0.2895
 5225SOL    HW127308   1.224   1.605   3.270  0.6022 -1.1078  1.1030
 5225SOL    HW227309   1.229   1.460   3.260 -1.5593 -0.7353 -1.2767
 5226SOL     OW27310   4.021   3.308   2.145  0.3968 -0.3096 -0.6756
 5226SOL    HW127311   4.110   3.329   2.172  0.2019 -1.4969  0.9349
 5226SOL    HW227312   4.025   3.321   2.051 -0.7929  0.8726 -0.5457
 5227SOL     OW27313   2.290   3.227   4.536 -0.2639  0.3603  0.0041
 5227SOL    HW127314   2.243   3.201   4.456  0.2531  0.8754 -0.4661
 5227SOL    HW227315   2.302   3.144   4.582 -0.6436 -0.5028 -1.4336
 5228SOL     OW27316   2.551   2.331   5.207  0.4485  0.0043  0.1630
 5228SOL    HW127317   2.485   2.262   5.198  1.6667 -1.0300 -0.8062
 5228SOL    HW227318   2.493   2.402   5.234  0.2724 -0.5234  1.1604
 5229SOL     OW27319   2.830   4.301  16.768  0.5801  0.6180 -0.5149
 5229SOL    HW127320   2.905   4.250  16.737 -1.0741 -1.5859 -0.8773
 5229SOL    HW227321   2.857   4.351  16.845 -0.3543  0.5568 -0.1495
 5230SOL     OW27322   4.132   3.673   6.588 -0.1261 -0.2875 -0.6785
 5230SOL    HW127323   4.074   3.731   6.637 -1.2739 -1.5117 -0.6149
 5230SOL    HW227324   4.185   3.647   6.663 -1.2879 -1.0956 -0.1446
 5231SOL     OW27325   4.551   1.708  11.264 -0.2421  0.3508  0.3301
 5231SOL    HW127326   4.500   1.712  11.183  1.3222  2.3239 -0.5400
 5231SOL    HW227327   4.488   1.731  11.333 -0.7362  1.3637 -0.4421
 5232SOL     OW27328   3.210   3.783   6.418 -0.4140 -0.1694  0.7583
 5232SOL    HW127329   3.287   3.741   6.381 -0.0114  2.1028 -1.0443
 5232SOL    HW227330   3.239   3.875   6.411  0.1320 -0.3549  0.5846
 5233SOL     OW27331   0.873   3.333  16.127  0.4842 -0.2366  0.4988
 5233SOL    HW127332   0.821   3.297  16.055 -0.7129  0.3832  1.0459
 5233SOL    HW227333   0.817   3.408  16.148  1.5511  0.6327  0.2496
 5234SOL     OW27334   3.904   3.941   0.885 -0.3019 -0.0526 -0.0300
 5234SOL    HW127335   3.887   4.027   0.846  0.0675 -0.5983 -1.3898
 5234SOL    HW227336   3.830   3.934   0.946 -0.3775  0.2629 -0.0870
 5235SOL     OW27337   1.048   0.291   6.001  0.6805 -0.4204  0.6990
 5235SOL    HW127338   0.961   0.261   5.977  0.0399  0.6052  1.7411
 5235SOL    HW227339   1.031   0.325   6.089 -1.2046  3.7045 -1.2645
 5236SOL     OW27340   3.905   4.440   6.975  0.1566  0.0007  0.4062
 5236SOL    HW127341   3.832   4.383   7.001 -1.3442  1.3466 -0.8833
 5236SOL    HW227342   3.913   4.494   7.054 -1.5257  0.1388  0.4830
 5237SOL     OW27343   1.518   0.343   4.476 -0.2910 -0.2899  0.4737
 5237SOL    HW127344   1.570   0.380   4.547  3.5748 -0.4116 -2.2726
 5237SOL    HW227345   1.493   0.421   4.426 -2.1467  0.0993  2.0256
 5238SOL     OW27346   0.763   0.700   6.092 -0.0764  0.3691  0.0364
 5238SOL    HW127347   0.728   0.756   6.023 -1.0251  2.0542  1.8898
 5238SOL    HW227348   0.754   0.753   6.171 -1.0423  0.4228 -0.1057
 5239SOL     OW27349   0.587   0.825   7.583 -0.4663 -0.4361  0.0305
 5239SOL    HW127350   0.508   0.778   7.559 -0.2982 -0.5152 -0.3673
 5239SOL    HW227351   0.565   0.846   7.674  0.8866  1.0731  0.0124
 5240SOL     OW27352   4.616   4.581   3.110 -0.3454  0.1726 -0.3325
 5240SOL    HW127353   4.636   4.516   3.042  1.4691 -0.0970  0.4650
 5240SOL    HW227354   4.709   4.598   3.125 -0.5430 -0.2038  1.3113
 5241SOL     OW27355   2.995   3.575   3.896  0.5475 -0.2040 -0.4914
 5241SOL    HW127356   2.994   3.596   3.802  1.3561  0.0550 -0.4428
 5241SOL    HW227357   2.966   3.485   3.908 -1.5304  0.5249 -0.0431
 5242SOL     OW27358   2.370   3.619   6.111 -0.3286 -0.0658  0.3480
 5242SOL    HW127359   2.402   3.691   6.166  0.0151 -0.2460  0.3851
 5242SOL    HW227360   2.450   3.582   6.073 -1.1242  0.7374 -2.1014
 5243SOL     OW27361   4.096   1.971   7.299  0.0756 -0.0927  0.6112
 5243SOL    HW127362   4.033   2.021   7.246  0.4125  1.9206  2.0992
 5243SOL    HW227363   4.130   2.045   7.349 -0.2734  0.7385 -0.3627
 5244SOL     OW27364   0.220   0.300   3.108  0.4061  0.2405 -0.4145
 5244SOL    HW127365   0.256   0.355   3.038 -0.5064  1.1896 -0.1324
 5244SOL    HW227366   0.297   0.292   3.165 -0.0433 -2.4479 -0.1996
 5245SOL     OW27367   0.496   3.285   2.925  0.4888 -0.0093 -0.4275
 5245SOL    HW127368   0.555   3.211   2.939 -1.4554 -1.4380  0.1250
 5245SOL    HW227369   0.528   3.337   2.999  1.6364 -1.9569  0.4412
 5246SOL     OW27370   1.050   1.838   6.535  0.4002  0.7048 -0.5706
 5246SOL    HW127371   0.955   1.833   6.526  0.5221 -2.3997 -0.1722
 5246SOL    HW227372   1.057   1.897   6.610  0.8716  1.2979 -1.0770
 5247SOL     OW27373   3.128   4.206   4.456 -0.5837  0.2950  0.6148
 5247SOL    HW127374   3.200   4.143   4.457 -0.6248  0.2532  0.8951
 5247SOL    HW227375   3.153   4.250   4.538  1.3238 -0.3756  0.3958
 5248SOL     OW27376   2.703   4.532   7.679  0.4792 -0.1189  0.0108
 5248SOL    HW127377   2.710   4.626   7.694 -0.7700 -0.0373  0.0908
 5248SOL    HW227378   2.693   4.498   7.768  1.9651  0.5669  0.4419
 5249SOL     OW27379   3.471   3.407   9.728  0.0207  0.3038 -0.6231
 5249SOL    HW127380   3.494   3.467   9.799 -2.6287  2.6591 -1.7538
 5249SOL    HW227381   3.509   3.328   9.767  1.1411  0.4520 -1.4055
 5250SOL     OW27382   4.361   1.688   6.195 -0.3329  0.3247  0.2457
 5250SOL    HW127383   4.326   1.607   6.233  2.7174 -0.0281  2.3059
 5250SOL    HW227384   4.420   1.721   6.263  0.8591 -1.0217 -0.1329
 5251SOL     OW27385   2.128   1.753   8.983 -0.1677  0.1926  0.2028
 5251SOL    HW127386   2.179   1.788   9.056  1.9139 -1.6777 -0.3303
 5251SOL    HW227387   2.169   1.795   8.907 -1.1545  1.6141  0.4584
 5252SOL     OW27388   1.302   1.871   4.519 -0.0939  0.4735 -0.7148
 5252SOL    HW127389   1.322   1.795   4.573  1.4103  0.4101 -1.3480
 5252SOL    HW227390   1.207   1.861   4.519  0.0819 -1.2346 -0.8570
 5253SOL     OW27391   1.839   1.155   4.327 -0.2559 -0.1515  0.2237
 5253SOL    HW127392   1.853   1.187   4.238  2.8104 -1.5940  0.1956
 5253SOL    HW227393   1.791   1.232   4.357 -1.8825 -1.0059 -0.1649
 5254SOL     OW27394   4.709   4.679  14.053 -0.5334  0.5178  0.0199
 5254SOL    HW127395   4.723   0.035  14.065 -2.7717  1.0011 -1.2417
 5254SOL    HW227396   4.614   4.671  14.046 -0.2461 -0.8335 -2.2106
 5255SOL     OW27397   2.638   3.304   8.487  0.1581  0.1164 -0.2843
 5255SOL    HW127398   2.716   3.277   8.536  0.5180  0.0463 -0.8988
 5255SOL    HW227399   2.617   3.389   8.526  0.3515  1.2099 -2.5616
 5256SOL     OW27400   3.614   3.353   7.447  0.2540 -0.4086  0.0428
 5256SOL    HW127401   3.532   3.307   7.460  0.3916 -0.7294 -0.2345
 5256SOL    HW227402   3.673   3.283   7.474  0.6122 -0.1927 -0.1770
 5257SOL     OW27403   4.131   2.737   6.089  0.5398  0.1579 -0.5065
 5257SOL    HW127404   4.086   2.725   6.005  1.6093  0.0959 -1.0763
 5257SOL    HW227405   4.061   2.736   6.154 -0.4202  0.0449 -1.5454
 5258SOL     OW27406   3.167   1.433   4.912 -0.1691  0.2278 -0.2065
 5258SOL    HW127407   3.164   1.369   4.982 -1.5202  2.1467  1.4855
 5258SOL    HW227408   3.074   1.442   4.892 -0.3720 -0.1828  0.6033
 5259SOL     OW27409   0.410   0.340   3.302 -0.2095 -0.0499  0.0884
 5259SOL    HW127410   0.347   0.296   3.359 -1.0103 -0.7801 -1.3879
 5259SOL    HW227411   0.488   0.325   3.356  1.0246 -0.2980 -1.7860
 5260SOL     OW27412   0.095   0.524   7.755 -0.8405 -0.2232 -0.7867
 5260SOL    HW127413   0.173   0.578   7.747 -0.6004 -0.4819 -0.1975
 5260SOL    HW227414   0.115   0.456   7.820 -0.9227  0.1404 -0.3831
 5261SOL     OW27415   2.397   1.177  17.043  0.2220 -0.0428 -1.2614
 5261SOL    HW127416   2.304   1.162  17.026 -0.1411  1.2791 -0.4775
 5261SOL    HW227417   2.413   1.253  16.986 -1.1013  1.2209  0.0438
 5262SOL     OW27418   4.168   3.287   0.018  0.2120  0.3839 -0.9901
 5262SOL    HW127419   4.087   3.238   0.032  0.2471  0.6166  0.0005
 5262SOL    HW227420   4.231   3.219   0.043  0.0372  0.5189 -0.1969
 5263SOL     OW27421   1.913   4.624   8.544  0.0190 -0.0607 -0.0388
 5263SOL    HW127422   1.995   4.600   8.587 -1.5339 -0.3448  2.7606
 5263SOL    HW227423   1.849   4.571   8.593  0.4063 -1.4284 -0.9997
 5264SOL     OW27424   0.268   4.018   7.757 -0.6636  0.2557  0.2037
 5264SOL    HW127425   0.356   4.003   7.791  0.3017  3.0457 -1.0860
 5264SOL    HW227426   0.275   4.109   7.729  0.2659  0.3172  0.6377
 5265SOL     OW27427   3.739   2.724   4.028 -0.0736  0.1730 -0.9026
 5265SOL    HW127428   3.662   2.716   4.085  0.9311 -1.1350  0.2759
 5265SOL    HW227429   3.785   2.641   4.043  0.3904  0.8254  1.2589
 5266SOL     OW27430   4.600   2.697   7.613 -0.5944  0.5147 -0.0986
 5266SOL    HW127431   4.572   2.612   7.579 -1.0669  1.4548 -2.0177
 5266SOL    HW227432   4.683   2.711   7.567  0.9328 -1.9440  1.8674
 5267SOL     OW27433   4.147   0.435  14.982 -0.3307 -0.4288  0.4400
 5267SOL    HW127434   4.237   0.439  15.014 -0.5791 -1.4217  1.2671
 5267SOL    HW227435   4.166   0.459  14.892 -1.4634 -0.4621  0.1931
 5268SOL     OW27436   2.549   4.147   5.488 -0.2998  0.1939 -0.3036
 5268SOL    HW127437   2.622   4.167   5.430  1.2983 -0.5883  1.4497
 5268SOL    HW227438   2.490   4.219   5.466  0.0982  0.4410 -0.5424
 5269SOL     OW27439   1.594   1.112   8.311 -0.1690 -0.0039  0.2137
 5269SOL    HW127440   1.540   1.131   8.234 -1.3657 -1.9736  0.5471
 5269SOL    HW227441   1.653   1.187   8.302 -0.8549  0.5538  0.3535
 5270SOL     OW27442   0.601   4.269   5.618  0.7403 -0.2003 -0.5303
 5270SOL    HW127443   0.556   4.229   5.544 -0.9616 -0.1317  0.4612
 5270SOL    HW227444   0.665   4.321   5.569 -0.1877  1.3532 -0.0781
 5271SOL     OW27445   1.993   1.287   4.102  0.0104  0.4271 -0.8054
 5271SOL    HW127446   1.994   1.362   4.044  1.7343  2.3361  1.6972
 5271SOL    HW227447   2.048   1.318   4.174  2.4204 -1.9668 -1.5947
 5272SOL     OW27448   2.107   2.336  14.101 -0.3444 -0.0265  0.5868
 5272SOL    HW127449   2.122   2.283  14.022  1.1072 -0.0425  0.8659
 5272SOL    HW227450   2.027   2.295  14.132 -1.7352  0.7415 -1.9458
 5273SOL     OW27451   2.038   2.603   3.202  0.0793  0.1946 -0.2399
 5273SOL    HW127452   2.011   2.532   3.143 -0.2405  0.8591 -0.8929
 5273SOL    HW227453   2.053   2.550   3.280  0.3240  1.9544  0.9102
 5274SOL     OW27454   3.109   2.869   0.007  0.1538 -0.2734 -0.0923
 5274SOL    HW127455   3.126   2.922   0.085 -2.6753 -1.8798  1.6514
 5274SOL    HW227456   3.014   2.880   0.010  0.0720 -0.7202 -0.9665
 5275SOL     OW27457   1.556   3.892   6.549 -0.2013  0.1079 -0.0332
 5275SOL    HW127458   1.505   3.973   6.539 -1.4662 -0.2703  3.4551
 5275SOL    HW227459   1.493   3.821   6.546 -0.4019  0.3216 -0.7237
 5276SOL     OW27460   0.207   2.210   7.818 -0.4667  0.2316  0.0186
 5276SOL    HW127461   0.179   2.227   7.728 -1.8657 -1.2454  0.1718
 5276SOL    HW227462   0.208   2.114   7.814 -0.5011  0.2640 -0.8292
 5277SOL     OW27463   3.791   2.277  13.093 -1.0267  0.8114  0.0753
 5277SOL    HW127464   3.728   2.300  13.162  0.7895 -0.7119  2.2261
 5277SOL    HW227465   3.869   2.326  13.120 -0.8279  0.5515 -0.0299
 5278SOL     OW27466   2.879   0.915   1.972 -0.1382  0.6078 -0.1146
 5278SOL    HW127467   2.787   0.915   1.996  0.3382  0.0299  1.7433
 5278SOL    HW227468   2.882   0.824   1.945 -0.0309  0.1978  1.2511
 5279SOL     OW27469   3.241   2.837   8.129  0.4735  0.4066 -0.1653
 5279SOL    HW127470   3.255   2.758   8.181  3.2244  0.4601 -0.8055
 5279SOL    HW227471   3.318   2.891   8.145  0.0407  1.1279 -0.5182
 5280SOL     OW27472   0.808   0.282  16.573  0.4053 -0.4014 -0.3905
 5280SOL    HW127473   0.811   0.195  16.532  1.4053 -0.4217 -0.2820
 5280SOL    HW227474   0.745   0.331  16.522 -0.2056 -0.9466 -0.1613
 5281SOL     OW27475   3.493   3.327   6.408 -0.1646 -0.2409 -0.1461
 5281SOL    HW127476   3.408   3.283   6.401  0.1339 -0.7465 -0.5577
 5281SOL    HW227477   3.491   3.336   6.503  1.8316 -2.5453  0.1065
 5282SOL     OW27478   0.931   2.613   2.942  0.1521  0.3671 -0.0833
 5282SOL    HW127479   0.998   2.556   2.980 -0.6290 -0.9928 -0.7306
 5282SOL    HW227480   0.982   2.694   2.935 -1.2062  1.3554  1.4011
 5283SOL     OW27481   1.132   1.826   6.978  0.1584  0.2207 -0.5150
 5283SOL    HW127482   1.089   1.845   7.061 -0.0896 -3.3437  0.1842
 5283SOL    HW227483   1.220   1.826   7.016 -0.1077 -2.6027  0.0901
 5284SOL     OW27484   0.631   0.815   1.455 -0.3415 -0.2132  0.0903
 5284SOL    HW127485   0.595   0.902   1.439 -0.4087 -0.3856 -0.6936
 5284SOL    HW227486   0.723   0.837   1.438 -0.2580  0.3658  1.2492
 5285SOL     OW27487   0.478   0.303  15.911 -0.5038  0.1902 -0.4770
 5285SOL    HW127488   0.509   0.276  15.824  3.1047 -1.4735  1.3133
 5285SOL    HW227489   0.428   0.383  15.894 -1.6920 -0.5916 -0.7016
 5286SOL     OW27490   0.190   0.234  12.222 -0.1908 -0.0996  0.3711
 5286SOL    HW127491   0.101   0.201  12.230 -0.3857  0.3679  0.1788
 5286SOL    HW227492   0.212   0.214  12.131  0.1027  1.9338 -0.0171
 5287SOL     OW27493   3.045   0.990   6.864 -0.1432  0.0773  0.7682
 5287SOL    HW127494   3.105   0.991   6.789 -2.1609 -0.7569 -0.8551
 5287SOL    HW227495   3.021   1.082   6.866  2.6772  0.8326  0.0605
 5288SOL     OW27496   1.294   0.058   1.997  0.2467 -0.2273 -0.3169
 5288SOL    HW127497   1.248   0.074   2.080  0.9054  2.0249 -0.3707
 5288SOL    HW227498   1.249   0.105   1.927  1.2124  0.7665 -0.2695
 5289SOL     OW27499   1.028   0.063   2.646  0.6820 -0.1718  0.3008
 5289SOL    HW127500   1.024   0.117   2.725 -0.0496 -1.0010  0.8268
 5289SOL    HW227501   1.123   0.059   2.639  0.8986  3.1212  1.3644
 5290SOL     OW27502   3.454   4.104   3.791 -0.1764 -0.0479 -0.1536
 5290SOL    HW127503   3.370   4.072   3.824 -1.0180 -0.2495 -2.5059
 5290SOL    HW227504   3.424   4.163   3.722  1.5199 -0.2337 -1.0622
 5291SOL     OW27505   3.128   1.387   9.396 -0.5808 -0.0661  0.0009
 5291SOL    HW127506   3.156   1.461   9.341  1.1769 -1.6971 -1.2869
 5291SOL    HW227507   3.210   1.357   9.436 -0.0405  2.1147  0.5369
 5292SOL     OW27508   1.355   4.328  10.600  0.0251  0.5188 -0.4699
 5292SOL    HW127509   1.262   4.308  10.585  0.0390  1.7144 -2.1044
 5292SOL    HW227510   1.388   4.238  10.593 -1.5680 -0.1608  0.6199
 5293SOL     OW27511   4.388   4.640  12.122  0.0338  0.1852  0.3724
 5293SOL    HW127512   4.413   4.569  12.182 -1.3771 -0.1895  0.5153
 5293SOL    HW227513   4.317   4.687  12.165 -0.5601 -1.3902  1.1247
 5294SOL     OW27514   3.408   1.566  16.566  0.0742  0.0381  0.3902
 5294SOL    HW127515   3.396   1.581  16.473  0.3132  3.1870  0.8858
 5294SOL    HW227516   3.401   1.470  16.569  0.8676 -0.0581 -1.0034
 5295SOL     OW27517   2.714   3.963   7.809 -0.0390 -0.2597 -0.1804
 5295SOL    HW127518   2.796   4.011   7.819  1.5060 -2.1242 -3.7735
 5295SOL    HW227519   2.647   4.030   7.819  1.0784  0.7100  0.7878
 5296SOL     OW27520   1.787   2.274  11.664 -0.0541 -0.9402 -0.1874
 5296SOL    HW127521   1.710   2.303  11.712  0.8384  2.8496 -0.9853
 5296SOL    HW227522   1.788   2.348  11.603 -4.1579 -0.4762  0.3038
 5297SOL     OW27523   0.976   0.844   8.055 -0.3456  0.4373  0.7848
 5297SOL    HW127524   0.949   0.752   8.046 -2.2371  0.9305  1.4745
 5297SOL    HW227525   0.952   0.858   8.146  1.0935 -0.6901  1.3359
 5298SOL     OW27526   2.852   2.233  12.860 -0.4076 -0.8321 -0.2123
 5298SOL    HW127527   2.772   2.280  12.880 -0.9531 -2.0142  0.3643
 5298SOL    HW227528   2.855   2.176  12.936  3.5785  0.4646  0.6324
 5299SOL     OW27529   1.960   3.767  15.994  0.1082 -0.2754 -0.2451
 5299SOL    HW127530   2.026   3.785  16.061  0.5810 -2.1506 -0.2251
 5299SOL    HW227531   1.951   3.672  16.000 -1.7849 -0.3343 -3.7372
 5300SOL     OW27532   0.119   4.342   3.345 -0.1804 -0.0900 -0.5502
 5300SOL    HW127533   0.183   4.355   3.275 -0.5840  3.8062 -0.1832
 5300SOL    HW227534   0.175   4.361   3.420  0.5730 -0.0550 -1.1219
 5301SOL     OW27535   3.970   4.211   5.860  0.3182 -0.0884  0.1307
 5301SOL    HW127536   4.009   4.132   5.898  2.2223 -0.0435 -1.7236
 5301SOL    HW227537   4.006   4.283   5.912  1.0704 -0.5314  0.2168
 5302SOL     OW27538   1.736   1.125  16.717 -0.3600  0.3266  0.2833
 5302SOL    HW127539   1.727   1.086  16.630  0.6768 -0.5594  0.5666
 5302SOL    HW227540   1.692   1.207  16.697 -0.5190  0.5813  1.7416
 5303SOL     OW27541   0.690   2.528  14.786 -0.6454  0.2331 -0.5785
 5303SOL    HW127542   0.744   2.478  14.848 -0.2887  1.8745  0.4460
 5303SOL    HW227543   0.762   2.564  14.734  2.1084 -0.3151  2.7762
 5304SOL     OW27544   4.190   1.266   8.896 -0.1455  0.0568 -0.1738
 5304SOL    HW127545   4.165   1.242   8.807  0.6466  1.4214 -0.7705
 5304SOL    HW227546   4.268   1.211   8.900  1.0170  1.7922  1.0870
 5305SOL     OW27547   3.949   4.617   9.301  0.2010  0.1532 -0.2584
 5305SOL    HW127548   3.961   4.595   9.393 -3.1466  0.9776  0.3935
 5305SOL    HW227549   4.028   4.619   9.247  0.0361 -0.6249 -0.5234
 5306SOL     OW27550   1.497   4.059   5.887 -0.6540 -0.0317 -0.0699
 5306SOL    HW127551   1.558   4.132   5.879  1.9780 -1.9623  2.2055
 5306SOL    HW227552   1.476   4.044   5.794  2.0684  1.5059 -0.9212
 5307SOL     OW27553   1.874   3.461   4.067  0.4354 -0.3393 -0.0051
 5307SOL    HW127554   1.805   3.525   4.084 -0.6052 -0.8068 -2.4257
 5307SOL    HW227555   1.951   3.517   4.076  0.9563 -1.0933  0.1815
 5308SOL     OW27556   2.809   2.507   7.636 -0.0233  0.1679  0.1092
 5308SOL    HW127557   2.787   2.414   7.627  2.5208  0.0102 -4.2393
 5308SOL    HW227558   2.904   2.507   7.624  0.1729  1.9302  1.6377
 5309SOL     OW27559   3.795   2.699   6.614 -0.0806 -0.2550  0.7292
 5309SOL    HW127560   3.803   2.776   6.558 -1.2304  0.0102  0.9271
 5309SOL    HW227561   3.749   2.729   6.693 -1.1046 -0.5587  0.2464
 5310SOL     OW27562   3.808   1.190   4.151  0.0454 -0.0698 -0.9684
 5310SOL    HW127563   3.865   1.237   4.091  1.4642 -1.0008 -0.3302
 5310SOL    HW227564   3.874   1.123   4.165 -0.4087 -0.5451 -1.1137
 5311SOL     OW27565   2.609   1.024   6.939 -0.3813 -0.5417  0.7382
 5311SOL    HW127566   2.662   1.092   6.979  0.3122 -1.6778  1.7502
 5311SOL    HW227567   2.652   0.947   6.977  1.0610 -0.3372 -0.4676
 5312SOL     OW27568   2.452   3.349   2.407 -0.4823 -0.4327 -0.3553
 5312SOL    HW127569   2.510   3.421   2.384 -2.0517  1.3742  1.3951
 5312SOL    HW227570   2.369   3.390   2.384 -0.8170  0.1448  1.9185
 5313SOL     OW27571   4.176   0.613   8.293  0.7229  0.1311  0.6950
 5313SOL    HW127572   4.263   0.647   8.274 -0.9076  2.7046 -2.0901
 5313SOL    HW227573   4.152   0.639   8.382 -1.0618  2.0505 -0.3315
 5314SOL     OW27574   1.455   1.665  17.364 -0.0202 -0.2188 -0.0519
 5314SOL    HW127575   1.520   1.604  17.329  0.5525  0.4406 -0.1403
 5314SOL    HW227576   1.447   1.628  17.451 -2.0140  1.0549  0.3094
 5315SOL     OW27577   1.946   2.049   9.017  0.0997 -0.1107 -0.5319
 5315SOL    HW127578   1.988   2.125   8.978  2.7211 -0.5825  1.3911
 5315SOL    HW227579   1.911   2.002   8.941 -0.2377  1.1677 -1.1700
 5316SOL     OW27580   3.205   0.993  11.974  0.4876 -0.3559  0.0298
 5316SOL    HW127581   3.249   0.908  11.975  0.2611 -0.4680  0.4611
 5316SOL    HW227582   3.122   0.977  11.929 -0.4150  1.0085  1.2125
 5317SOL     OW27583   1.901   1.865   7.071  0.0277 -0.1808 -0.0056
 5317SOL    HW127584   1.885   1.943   7.018  0.8215 -0.8230 -1.2068
 5317SOL    HW227585   1.995   1.876   7.083  0.0158  0.8014 -0.8610
 5318SOL     OW27586   2.068   2.060   4.669 -0.9785 -0.6489 -0.7247
 5318SOL    HW127587   2.104   2.148   4.682 -2.6069 -0.0998  0.0940
 5318SOL    HW227588   2.147   2.007   4.681 -1.9305 -0.9243  4.0908
 5319SOL     OW27589   0.499   1.039   6.187  0.0876  0.2396  0.3208
 5319SOL    HW127590   0.483   0.980   6.261  2.3324 -0.3333  0.3502
 5319SOL    HW227591   0.520   1.117   6.239 -0.6595 -0.6681  2.0129
 5320SOL     OW27592   3.367   0.578  15.867 -0.0376 -0.1076  0.5427
 5320SOL    HW127593   3.298   0.638  15.837  1.0638  0.4564 -0.8894
 5320SOL    HW227594   3.312   0.517  15.916 -1.1494 -0.1894 -0.7891
 5321SOL     OW27595   3.622   1.253   3.565 -0.1185  0.0642  0.5828
 5321SOL    HW127596   3.687   1.246   3.495  1.3109  0.3238  1.8847
 5321SOL    HW227597   3.618   1.349   3.564  0.6465  0.0953  0.0856
 5322SOL     OW27598   4.465   3.382   5.851  0.6282 -0.2502 -0.3139
 5322SOL    HW127599   4.532   3.383   5.919 -1.4962 -0.1492  1.7773
 5322SOL    HW227600   4.422   3.302   5.880  0.6518 -0.9284 -2.1567
 5323SOL     OW27601   1.113   1.860   7.294  0.0853 -0.0036 -0.0868
 5323SOL    HW127602   1.182   1.924   7.278 -0.3134  0.3065 -0.5657
 5323SOL    HW227603   1.168   1.781   7.297 -0.5780 -0.5513 -1.8053
 5324SOL     OW27604   3.541   0.759   9.545 -0.4249 -0.0616  0.2258
 5324SOL    HW127605   3.520   0.767   9.452  1.2020  3.9141  0.1918
 5324SOL    HW227606   3.627   0.801   9.538  0.2252 -0.7461  4.1671
 5325SOL     OW27607   2.962   4.134   5.891 -0.3449 -0.1662  0.7906
 5325SOL    HW127608   2.985   4.218   5.851  0.5856  0.0970  1.8756
 5325SOL    HW227609   3.049   4.095   5.899 -0.1352 -0.0547 -0.8597
 5326SOL     OW27610   0.105   4.469   6.057  0.3132  0.5192  0.6093
 5326SOL    HW127611   0.145   4.382   6.058  0.4226  0.5689  0.6561
 5326SOL    HW227612   0.036   4.459   5.991  1.8406 -0.5263 -0.8257
 5327SOL     OW27613   3.086   4.384   5.819  0.3406 -0.0442  0.7521
 5327SOL    HW127614   3.130   4.434   5.751 -1.6906  0.5568 -0.1273
 5327SOL    HW227615   3.088   4.447   5.891 -0.6628 -0.6443  1.2942
 5328SOL     OW27616   0.263   3.585   8.036  0.0917 -0.2222  0.1826
 5328SOL    HW127617   0.307   3.619   8.114  0.4526  0.9066 -0.4975
 5328SOL    HW227618   0.204   3.660   8.024 -0.1589 -0.4336  0.1042
 5329SOL     OW27619   4.546   3.225   2.127 -0.1143 -0.8619 -0.5789
 5329SOL    HW127620   4.545   3.307   2.078 -1.4171 -1.4553 -1.5347
 5329SOL    HW227621   4.489   3.167   2.077 -1.2196 -0.0027 -0.3468
 5330SOL     OW27622   0.478   1.982   4.085 -0.2072 -0.0128  0.2367
 5330SOL    HW127623   0.508   1.963   4.174  0.5739 -0.5758 -0.1455
 5330SOL    HW227624   0.408   2.046   4.103 -2.1550 -2.4326  1.2474
 5331SOL     OW27625   1.270   2.578   1.440  0.1371 -0.4462  0.4685
 5331SOL    HW127626   1.348   2.625   1.411  2.4592 -4.8050 -0.3172
 5331SOL    HW227627   1.268   2.525   1.360 -0.3529 -1.8905  1.4289
 5332SOL     OW27628   3.687   4.134  17.425  0.6519 -0.3519  0.3367
 5332SOL    HW127629   3.720   4.048  17.402 -1.4614 -0.6340 -1.6254
 5332SOL    HW227630   3.717   4.143  17.515  2.4227 -0.0185 -0.2740
 5333SOL     OW27631   2.239   0.160   1.271  0.0472  0.3627  0.2236
 5333SOL    HW127632   2.191   0.207   1.203 -1.4681 -0.7622  0.5154
 5333SOL    HW227633   2.211   0.214   1.346  1.5635 -0.2379  1.2105
 5334SOL     OW27634   0.645   0.041   7.460 -0.2503  0.1439 -0.3247
 5334SOL    HW127635   0.633   4.691   7.495  0.9731 -0.5336 -1.6207
 5334SOL    HW227636   0.555   0.051   7.428 -0.2456  2.0075  0.2677
 5335SOL     OW27637   2.491   2.987   3.140  0.2063  0.6713  0.2365
 5335SOL    HW127638   2.500   2.943   3.056 -1.0985  2.4073 -0.7960
 5335SOL    HW227639   2.400   2.982   3.167 -0.2798  2.5215 -1.1653
 5336SOL     OW27640   2.400   0.867   1.689  0.1112 -0.0986  0.5319
 5336SOL    HW127641   2.365   0.779   1.675 -0.5638  0.5210 -1.5531
 5336SOL    HW227642   2.319   0.918   1.700 -1.3314 -1.6806 -2.9899
 5337SOL     OW27643   2.982   2.321  13.178 -0.1490  0.3580  0.5509
 5337SOL    HW127644   2.997   2.226  13.171  1.5210  0.8455 -2.8956
 5337SOL    HW227645   2.889   2.324  13.199  0.0324 -0.5437  1.4712
 5338SOL     OW27646   2.724   0.170   4.388  0.2794 -0.1050  0.2764
 5338SOL    HW127647   2.706   0.253   4.344  1.2126 -1.6754 -3.0038
 5338SOL    HW227648   2.639   0.159   4.431 -0.1842 -2.3085 -1.1985
 5339SOL     OW27649   1.385   1.733  14.051 -0.1190  0.2387 -0.0407
 5339SOL    HW127650   1.310   1.674  14.044  0.2691 -0.5429  2.4806
 5339SOL    HW227651   1.376   1.788  13.973 -0.0644  0.7836  0.3306
 5340SOL     OW27652   3.468   3.454   7.985  0.3141 -0.7225 -0.1141
 5340SOL    HW127653   3.532   3.523   7.970  0.3431 -1.0210 -1.3374
 5340SOL    HW227654   3.402   3.459   7.917 -0.4494 -1.9302  0.5357
 5341SOL     OW27655   3.672   1.324   3.847 -0.2249  0.1556 -0.2688
 5341SOL    HW127656   3.650   1.250   3.903 -2.3524  0.9063 -0.0804
 5341SOL    HW227657   3.707   1.281   3.769 -0.6834  2.2417 -1.6348
 5342SOL     OW27658   0.304   3.912   6.203  0.3898  0.0530 -0.6979
 5342SOL    HW127659   0.239   3.926   6.133 -1.6684 -2.4428  0.7185
 5342SOL    HW227660   0.344   3.837   6.160 -0.0772 -0.2495 -0.6091
 5343SOL     OW27661   0.096   4.545  11.665  0.6411 -0.4540  0.3757
 5343SOL    HW127662   0.052   4.473  11.709 -1.0271 -0.5792 -1.4811
 5343SOL    HW227663   0.144   4.502  11.594  0.7123 -0.6625  0.5539
 5344SOL     OW27664   1.643   3.528   4.333 -0.2335  0.4310  0.3758
 5344SOL    HW127665   1.565   3.552   4.382 -0.2275 -0.6095  0.9042
 5344SOL    HW227666   1.639   3.600   4.270  1.0382 -1.6085 -2.0833
 5345SOL     OW27667   3.586   3.010  16.628  0.1460  0.5779 -0.0954
 5345SOL    HW127668   3.657   2.999  16.564  1.4918  0.7808  1.3611
 5345SOL    HW227669   3.637   3.013  16.709  0.5332  2.5768 -0.4146
 5346SOL     OW27670   2.374   2.825   7.377  0.0415 -0.2651 -0.2424
 5346SOL    HW127671   2.335   2.830   7.290 -0.3341  0.4471 -0.0351
 5346SOL    HW227672   2.407   2.914   7.388  1.2649 -0.3840 -2.9338
 5347SOL     OW27673   1.819   4.123  13.179 -0.3710  0.3739  0.2355
 5347SOL    HW127674   1.811   4.218  13.166 -0.1872  0.3655  0.0669
 5347SOL    HW227675   1.896   4.119  13.235 -0.0071 -0.3236 -0.3201
 5348SOL     OW27676   1.152   1.270   7.914  0.2580  0.1927 -0.3321
 5348SOL    HW127677   1.112   1.214   7.980 -0.9496  0.0976 -1.1496
 5348SOL    HW227678   1.173   1.346   7.967  1.2623 -0.1128 -0.2855
 5349SOL     OW27679   4.061   4.034   6.346 -0.0985  0.2047 -0.1253
 5349SOL    HW127680   3.987   4.075   6.300 -1.1168 -1.4881 -0.0185
 5349SOL    HW227681   4.057   3.954   6.294  1.5875  0.2829 -0.3768
 5350SOL     OW27682   2.187   3.433   7.545 -0.4449 -0.0596 -0.0878
 5350SOL    HW127683   2.273   3.413   7.580 -0.7571  1.0874  1.3085
 5350SOL    HW227684   2.204   3.485   7.466 -0.1046  0.5438  0.3784
 5351SOL     OW27685   1.842   0.865   5.638 -0.3811 -0.3942 -0.2111
 5351SOL    HW127686   1.904   0.846   5.708 -0.7413 -1.1677 -0.0980
 5351SOL    HW227687   1.897   0.886   5.562 -0.2955 -1.0537 -0.3308
 5352SOL     OW27688   2.489   4.165  12.804  0.0962 -0.0384  0.5980
 5352SOL    HW127689   2.423   4.123  12.749  0.3042  1.4421 -0.8010
 5352SOL    HW227690   2.437   4.217  12.866 -1.1746  1.6217 -1.8471
 5353SOL     OW27691   2.762   3.994   7.198 -0.6598  0.3466 -0.2594
 5353SOL    HW127692   2.696   3.931   7.171  0.0834  0.1309 -1.5789
 5353SOL    HW227693   2.698   4.049   7.244 -1.1639 -1.5140  1.2231
 5354SOL     OW27694   4.225   1.273   2.148  0.5341 -0.2696  0.5425
 5354SOL    HW127695   4.304   1.326   2.155  0.3492  0.1497 -0.5236
 5354SOL    HW227696   4.208   1.247   2.238  2.2642 -3.7798 -0.1214
 5355SOL     OW27697   2.307   0.257  16.498 -0.6478 -0.6116  0.2593
 5355SOL    HW127698   2.225   0.214  16.476 -1.7360  0.7418  1.6546
 5355SOL    HW227699   2.366   0.182  16.507  1.9035  1.6576  2.5798
 5356SOL     OW27700   1.230   3.156  17.514 -0.7058  0.0576  0.0700
 5356SOL    HW127701   1.227   3.093  17.586 -0.2127 -0.8428 -0.7001
 5356SOL    HW227702   1.294   3.215  17.553  0.2697  1.0045 -2.9642
 5357SOL     OW27703   1.669   0.759   2.850 -0.3182  0.4955  0.7114
 5357SOL    HW127704   1.646   0.673   2.886  2.5013 -0.7874 -0.5903
 5357SOL    HW227705   1.755   0.736   2.815  0.0551  0.4272  1.6522
 5358SOL     OW27706   0.520   3.590   4.842  0.0420 -0.0629  0.0713
 5358SOL    HW127707   0.611   3.608   4.866 -0.0298  1.6251 -0.9154
 5358SOL    HW227708   0.476   3.636   4.913 -1.2027 -0.9847 -0.1215
 5359SOL     OW27709   3.894   0.519  14.631 -0.4254 -0.2287 -0.4672
 5359SOL    HW127710   3.806   0.555  14.625 -1.0459 -1.3479  1.6918
 5359SOL    HW227711   3.887   0.425  14.650 -1.0031 -0.1036 -0.0384
 5360SOL     OW27712   4.306   0.344   8.825  0.1813  0.2692  0.8630
 5360SOL    HW127713   4.256   0.401   8.883 -0.7584 -2.6195  2.8907
 5360SOL    HW227714   4.386   0.334   8.876 -0.2292  1.2110  1.6820
 5361SOL     OW27715   0.464   4.674   7.155  0.4014 -0.4981 -0.1169
 5361SOL    HW127716   0.406   4.604   7.127  1.5072 -1.2145 -0.6079
 5361SOL    HW227717   0.432   4.695   7.243 -0.3455 -2.3334  0.0489
 5362SOL     OW27718   0.042   3.742   7.991  0.1870 -0.0441  0.1082
 5362SOL    HW127719   4.735   3.790   8.060  1.6468  0.0097  1.0203
 5362SOL    HW227720   0.053   3.808   7.922 -1.8344  0.6919  0.4638
 5363SOL     OW27721   0.062   1.671   1.113  0.1286 -0.2834 -0.2997
 5363SOL    HW127722   0.011   1.741   1.154  0.2221 -1.3991  1.7416
 5363SOL    HW227723   0.142   1.721   1.097 -0.3032  0.3171 -0.5977
 5364SOL     OW27724   0.421   3.235   8.021  0.0523 -0.0701  0.3655
 5364SOL    HW127725   0.436   3.141   8.018 -0.2017 -0.1376  1.2149
 5364SOL    HW227726   0.326   3.245   8.015  0.1418 -0.5611 -1.7827
 5365SOL     OW27727   1.221   2.681   4.236 -0.6056  0.0448 -0.0604
 5365SOL    HW127728   1.303   2.700   4.189 -2.2958  4.1490 -1.3019
 5365SOL    HW227729   1.163   2.721   4.172 -1.9408 -2.8027 -0.6222
 5366SOL     OW27730   0.906   0.180   3.159  0.2427  0.7964 -1.1422
 5366SOL    HW127731   0.967   0.219   3.221 -0.9177 -0.8146  0.9852
 5366SOL    HW227732   0.843   0.252   3.155 -1.0105 -0.3012 -0.9023
 5367SOL     OW27733   1.880   1.145   6.474  0.3468  0.3928  0.1006
 5367SOL    HW127734   1.915   1.228   6.440 -0.6485  0.9909  0.5246
 5367SOL    HW227735   1.899   1.084   6.402 -0.0106  1.0842 -0.5861
 5368SOL     OW27736   4.051   0.621   0.170 -0.1658 -0.0414  0.4749
 5368SOL    HW127737   4.127   0.588   0.218  0.7913  0.4909 -0.6640
 5368SOL    HW227738   4.080   0.662   0.088 -2.5658  2.8659  1.0617
 5369SOL     OW27739   4.735   3.661   0.840  0.6817 -0.4956 -0.8739
 5369SOL    HW127740   0.058   3.714   0.790  1.1282 -1.3067 -1.1816
 5369SOL    HW227741   4.691   3.731   0.889  0.6330 -0.9305 -0.2977
 5370SOL     OW27742   2.250   3.171   4.860 -0.0206 -0.6920 -0.5661
 5370SOL    HW127743   2.311   3.134   4.795 -0.0091 -0.4149 -0.7123
 5370SOL    HW227744   2.296   3.166   4.943  0.3318  1.1488 -0.6609
 5371SOL     OW27745   2.929   0.234   5.916  0.1512 -0.3633  0.2776
 5371SOL    HW127746   2.961   0.210   6.003  1.2317  0.9192  0.2450
 5371SOL    HW227747   2.885   0.315   5.939 -0.7198 -0.4519 -1.0826
 5372SOL     OW27748   0.275   1.316   7.859 -0.5543  0.1716 -0.3713
 5372SOL    HW127749   0.364   1.288   7.835 -0.0325  0.9633  0.5968
 5372SOL    HW227750   0.235   1.247   7.807  0.9055 -0.6256 -0.4500
 5373SOL     OW27751   4.596   2.205   7.976 -0.4576 -0.0105 -0.0939
 5373SOL    HW127752   4.644   2.134   8.019  1.7552  0.3000 -2.0842
 5373SOL    HW227753   4.659   2.277   7.977 -1.1519  0.6149 -1.4248
 5374SOL     OW27754   0.827   1.907   9.941  0.1010 -0.0500 -0.2295
 5374SOL    HW127755   0.819   1.959  10.021  0.6933 -2.1011  1.1608
 5374SOL    HW227756   0.752   1.940   9.892 -1.7815 -2.8655  0.7730
 5375SOL     OW27757   1.477   3.467   2.039  0.1606 -0.4462 -0.1315
 5375SOL    HW127758   1.498   3.473   1.946 -4.7491 -2.5041 -1.3135
 5375SOL    HW227759   1.567   3.458   2.072 -0.5356  0.6912  2.0227
 5376SOL     OW27760   1.379   1.575  11.651 -0.0823  0.1937 -0.1590
 5376SOL    HW127761   1.465   1.603  11.618  0.5718 -1.3293  0.2639
 5376SOL    HW227762   1.366   1.486  11.619 -0.7209  0.6578 -1.1822
 5377SOL     OW27763   0.156   1.709  10.458 -0.0316 -0.3608  0.4570
 5377SOL    HW127764   0.139   1.615  10.463 -1.3539 -0.1108  0.4807
 5377SOL    HW227765   0.126   1.718  10.368 -4.0166 -2.8227  1.5544
 5378SOL     OW27766   0.930   4.270  10.776  0.3627  0.5023 -0.6194
 5378SOL    HW127767   0.984   4.200  10.813  1.1430  1.1540 -0.5219
 5378SOL    HW227768   0.954   4.271  10.683  0.6686  0.2282 -0.5453
 5379SOL     OW27769   2.309   2.059   3.528  0.3397 -0.3196  0.3458
 5379SOL    HW127770   2.252   2.010   3.468 -0.3625  1.3796 -0.3526
 5379SOL    HW227771   2.323   1.998   3.601 -0.1130 -0.2463  0.4990
 5380SOL     OW27772   4.729   3.267   0.385  0.6918 -0.3586  0.3148
 5380SOL    HW127773   4.707   3.310   0.467 -1.7635 -3.6258  1.3864
 5380SOL    HW227774   4.660   3.302   0.328 -0.2691 -2.0124  0.4578
 5381SOL     OW27775   0.805   3.437   4.633 -0.0533  0.3746 -0.1228
 5381SOL    HW127776   0.769   3.454   4.720 -1.2831  1.5688 -0.8583
 5381SOL    HW227777   0.770   3.355   4.599 -2.0209 -0.4986  4.0372
 5382SOL     OW27778   3.128   3.367   8.273 -0.3766 -0.6259  0.1001
 5382SOL    HW127779   3.177   3.421   8.211 -3.3735  0.2698 -1.5134
 5382SOL    HW227780   3.139   3.282   8.230 -3.2187 -0.4990 -0.8953
 5383SOL     OW27781   2.216   2.138  13.924 -0.4124 -0.5430 -0.1529
 5383SOL    HW127782   2.127   2.108  13.905 -0.9094  2.0881 -2.0512
 5383SOL    HW227783   2.247   2.144  13.834  4.1426  1.0804  1.5171
 5384SOL     OW27784   2.828   3.727  17.030  0.2072 -0.0488 -0.5667
 5384SOL    HW127785   2.877   3.646  17.018  3.3840  1.7448  0.2084
 5384SOL    HW227786   2.867   3.788  16.968  3.8606 -0.2694  1.5266
 5385SOL     OW27787   1.512   3.033   0.530 -0.5457 -0.3618  0.8019
 5385SOL    HW127788   1.418   3.045   0.542 -0.8799 -0.0460 -2.1627
 5385SOL    HW227789   1.529   3.085   0.451 -1.5714 -2.1912 -0.6378
 5386SOL     OW27790   3.701   3.977   6.693 -0.3370 -0.5144 -0.2675
 5386SOL    HW127791   3.681   4.055   6.744 -0.5897 -1.6255  1.3433
 5386SOL    HW227792   3.611   3.945   6.698 -1.5384  2.9739  0.6844
 5387SOL     OW27793   4.333   2.012   3.277  0.1398  0.1265 -0.2022
 5387SOL    HW127794   4.247   1.999   3.315 -1.0460  1.0648 -2.5364
 5387SOL    HW227795   4.360   2.100   3.301  3.4294 -0.4616 -1.7137
 5388SOL     OW27796   2.171   2.313   4.068  0.1210  0.4910  0.1760
 5388SOL    HW127797   2.197   2.234   4.114 -2.8857 -0.5795  0.0585
 5388SOL    HW227798   2.118   2.268   4.002  0.3025  0.9351 -0.2755
 5389SOL     OW27799   4.132   0.951   0.210 -0.0346  0.6196  0.1180
 5389SOL    HW127800   4.115   1.040   0.182 -0.8091  0.6931  0.7979
 5389SOL    HW227801   4.108   0.962   0.302  0.8320  1.8763  0.1940
 5390SOL     OW27802   3.029   3.347   6.244 -0.0661 -0.1526  0.0996
 5390SOL    HW127803   3.022   3.341   6.339  3.3971  1.3144  0.4510
 5390SOL    HW227804   3.086   3.424   6.239 -1.0321  0.4811 -1.3315
 5391SOL     OW27805   1.146   2.243   3.721 -0.0661  0.2106  0.1125
 5391SOL    HW127806   1.072   2.251   3.660 -0.0606  0.8733  0.1895
 5391SOL    HW227807   1.157   2.335   3.745  2.3633  0.0051 -0.1809
 5392SOL     OW27808   3.379   0.884   9.701 -0.1596  0.5453  0.1657
 5392SOL    HW127809   3.363   0.941   9.626  1.6183 -0.8761 -1.2983
 5392SOL    HW227810   3.446   0.831   9.657  0.9872  1.1513  1.2217
 5393SOL     OW27811   0.739   4.563   7.171 -0.2237  0.2219 -0.1275
 5393SOL    HW127812   0.739   4.503   7.246 -1.3100  1.1190  0.5867
 5393SOL    HW227813   0.649   4.588   7.152  0.5738  2.0225 -1.5472
 5394SOL     OW27814   3.697   4.016   3.707  0.2072  0.3430  0.7271
 5394SOL    HW127815   3.610   4.046   3.734 -0.3739 -0.4305 -0.2668
 5394SOL    HW227816   3.738   4.094   3.671 -0.0982  0.2676  0.2165
 5395SOL     OW27817   0.327   2.936   7.571  0.5565  0.4489 -0.2772
 5395SOL    HW127818   0.265   2.996   7.612  1.9930  0.7177  1.5337
 5395SOL    HW227819   0.404   2.994   7.572  1.0226 -0.1653 -0.5720
 5396SOL     OW27820   0.291   4.402   1.994 -0.1809 -0.5721 -0.2967
 5396SOL    HW127821   0.345   4.336   1.950  0.1230 -0.3089 -0.3172
 5396SOL    HW227822   0.204   4.362   1.985 -1.7928  2.9225 -0.3534
 5397SOL     OW27823   1.480   0.106   0.821 -0.2691 -0.5989 -0.1266
 5397SOL    HW127824   1.503   0.194   0.851  3.8429 -0.8196 -2.6083
 5397SOL    HW227825   1.570   0.076   0.805 -0.4128  0.1775 -2.5110
 5398SOL     OW27826   3.293   2.673  17.389 -0.0927  0.3320 -0.0098
 5398SOL    HW127827   3.380   2.688  17.426 -0.8604  2.6899  0.8039
 5398SOL    HW227828   3.252   2.752  17.423 -1.0832 -0.5288  0.8165
 5399SOL     OW27829   3.697   0.243  15.614 -0.4143  0.3611 -0.6926
 5399SOL    HW127830   3.768   0.224  15.675  0.2525  2.9050 -0.6772
 5399SOL    HW227831   3.640   0.303  15.661 -0.4679 -0.7573  0.6665
 5400SOL     OW27832   3.326   4.668  14.068  0.2224 -0.4850 -0.4742
 5400SOL    HW127833   3.395   4.638  14.127 -0.8799  2.9280  2.5622
 5400SOL    HW227834   3.372   0.001  14.025  0.0926  0.4207  0.9083
 5401SOL     OW27835   0.353   1.601   3.639 -0.6577  0.0627  0.0945
 5401SOL    HW127836   0.445   1.579   3.649 -1.6840 -3.3094  1.9511
 5401SOL    HW227837   0.319   1.579   3.726  0.0180 -0.3298  0.2550
 5402SOL     OW27838   1.620   4.561  14.760 -0.0764  0.3806 -0.1598
 5402SOL    HW127839   1.630   4.589  14.669  3.5041 -0.4551 -0.0303
 5402SOL    HW227840   1.526   4.543  14.769  0.0646 -1.1956 -1.8717
 5403SOL     OW27841   2.962   1.669   8.444  0.1166 -0.1337 -0.1395
 5403SOL    HW127842   3.041   1.655   8.496 -1.5955  1.7167  2.9321
 5403SOL    HW227843   2.905   1.646   8.517  0.8506 -0.4140  0.3378
 5404SOL     OW27844   1.315   1.023  16.701 -0.4700  0.1759 -0.7275
 5404SOL    HW127845   1.319   1.085  16.629  1.6700  0.9861  0.0903
 5404SOL    HW227846   1.221   1.015  16.689 -0.9140  1.9590  1.5603
 5405SOL     OW27847   0.162   3.977   0.400 -0.5444  0.3053  0.4717
 5405SOL    HW127848   0.220   3.970   0.477 -0.2203  1.0753  0.3045
 5405SOL    HW227849   0.135   3.885   0.399 -2.7912  0.9721  0.3701
 5406SOL     OW27850   2.407   3.552   4.988 -0.2398 -0.0022  0.4253
 5406SOL    HW127851   2.409   3.485   5.057  1.1333  0.7186  1.0832
 5406SOL    HW227852   2.465   3.616   5.029  1.7401 -1.1047 -0.6171
 5407SOL     OW27853   3.979   0.510   7.274  0.1714 -0.4912  0.1413
 5407SOL    HW127854   3.952   0.436   7.220 -0.8898  1.9317 -2.7094
 5407SOL    HW227855   3.929   0.576   7.225 -1.2543 -0.4727  1.5949
 5408SOL     OW27856   1.714   4.495  11.318  0.2818 -0.2565 -0.0210
 5408SOL    HW127857   1.644   4.492  11.253  1.3384 -0.7382 -1.1183
 5408SOL    HW227858   1.666   4.518  11.398 -2.5687  0.6500 -1.9621
 5409SOL     OW27859   3.412   3.038   5.938  0.0974 -0.3013 -0.0547
 5409SOL    HW127860   3.323   3.049   5.970  0.3711  0.5695  0.4122
 5409SOL    HW227861   3.392   3.054   5.846 -0.0842  1.5330  0.3025
 5410SOL     OW27862   2.578   4.233  15.596  0.7379 -0.0329 -0.2356
 5410SOL    HW127863   2.513   4.180  15.551  0.3973  0.7559 -0.6743
 5410SOL    HW227864   2.586   4.304  15.532  0.3019  0.5109  0.3151
 5411SOL     OW27865   2.908   4.365  12.725 -0.9703  0.1345 -0.3925
 5411SOL    HW127866   2.831   4.316  12.753 -0.8744 -0.9212 -2.0172
 5411SOL    HW227867   2.966   4.351  12.801 -0.4229  3.6920 -0.1442
 5412SOL     OW27868   0.226   3.426   7.330  0.6390 -0.2062 -0.1508
 5412SOL    HW127869   0.175   3.345   7.325  0.9405 -0.2795 -1.9910
 5412SOL    HW227870   0.252   3.426   7.423 -3.5418 -1.9050  1.0314
 5413SOL     OW27871   2.513   2.580   3.762 -0.0140  0.5502  0.5402
 5413SOL    HW127872   2.517   2.651   3.697 -0.0760  0.8171  0.8275
 5413SOL    HW227873   2.418   2.580   3.775  0.0481 -0.6065  0.9568
 5414SOL     OW27874   3.350   3.654   8.808 -0.0513 -0.2669 -0.2487
 5414SOL    HW127875   3.313   3.575   8.767  0.5150 -1.1511  0.9709
 5414SOL    HW227876   3.429   3.624   8.853  0.0536  0.0871 -0.2042
 5415SOL     OW27877   4.034   2.716   6.864  0.1166 -0.2751 -1.0171
 5415SOL    HW127878   4.128   2.712   6.881 -0.0038 -0.9623 -0.4972
 5415SOL    HW227879   4.035   2.799   6.818  0.3790  0.7328  0.8100
 5416SOL     OW27880   1.887   2.973  16.590  0.2759 -0.2827 -0.5458
 5416SOL    HW127881   1.977   2.984  16.560  0.8963 -2.4407  0.4996
 5416SOL    HW227882   1.889   2.904  16.657  0.0002  0.8672  0.6332
 5417SOL     OW27883   0.837   2.981  10.798 -0.3734 -0.4712  0.0102
 5417SOL    HW127884   0.805   3.026  10.877 -0.9289 -0.9920  0.0851
 5417SOL    HW227885   0.870   3.059  10.753 -0.4161  0.4508  1.5357
 5418SOL     OW27886   1.510   1.073   7.582  0.0707 -0.8147  0.3580
 5418SOL    HW127887   1.468   1.132   7.645 -2.5797 -1.6410 -0.6670
 5418SOL    HW227888   1.441   1.079   7.516  1.4965  3.0634 -0.7761
 5419SOL     OW27889   1.443   2.767   2.048  0.2087 -0.5123  0.0863
 5419SOL    HW127890   1.486   2.821   2.114 -0.5384 -0.5180  0.5809
 5419SOL    HW227891   1.350   2.788   2.048  0.3591  0.1629  1.4353
 5420SOL     OW27892   1.322   2.605   2.964 -0.1140  0.0318 -0.1009
 5420SOL    HW127893   1.414   2.626   2.972 -0.1827  0.2587  0.0703
 5420SOL    HW227894   1.279   2.647   3.039  0.3177 -0.1751  0.2610
 5421SOL     OW27895   2.182   1.911   7.127 -0.1199  0.1486  0.3830
 5421SOL    HW127896   2.178   1.903   7.222 -1.2267  0.1818  0.3409
 5421SOL    HW227897   2.229   1.994   7.118  0.1623 -0.0549 -0.0320
 5422SOL     OW27898   1.253   1.536   8.789 -0.4175 -0.4599 -0.3234
 5422SOL    HW127899   1.248   1.442   8.801 -1.2036 -0.0798  2.3744
 5422SOL    HW227900   1.192   1.558   8.860 -0.1094 -1.7528  0.3441
 5423SOL     OW27901   1.169   1.094   8.357  0.0161 -0.2035  0.1842
 5423SOL    HW127902   1.132   1.103   8.444 -0.3011 -1.5625  0.1920
 5423SOL    HW227903   1.227   1.017   8.362  1.8675  1.1120 -0.9492
 5424SOL     OW27904   2.672   3.503  16.471 -0.0369  0.6237 -0.5041
 5424SOL    HW127905   2.646   3.497  16.379 -0.1896 -0.5374 -0.3840
 5424SOL    HW227906   2.762   3.533  16.456  0.8437 -1.2514  1.0226
 5425SOL     OW27907   3.134   0.515   8.720 -0.1806 -0.8697 -0.1671
 5425SOL    HW127908   3.056   0.460   8.726  1.1601 -2.8428 -0.8598
 5425SOL    HW227909   3.095   0.595   8.754 -1.0189 -0.7056 -1.5062
 5426SOL     OW27910   4.616   2.802   6.775 -0.1093  0.5844  0.0632
 5426SOL    HW127911   4.565   2.813   6.856  2.0590 -2.4068  1.8028
 5426SOL    HW227912   4.643   2.711   6.788  1.3229  1.1392  0.9588
 5427SOL     OW27913   0.521   0.996   2.946  0.2419  0.0755 -0.4358
 5427SOL    HW127914   0.512   0.919   2.891  3.6608 -0.1598 -0.6707
 5427SOL    HW227915   0.432   1.000   2.981  0.5767  0.5718  0.3584
 5428SOL     OW27916   4.463   0.346   7.523  0.1435 -0.0381 -0.2782
 5428SOL    HW127917   4.476   0.294   7.602  1.5834 -0.3416 -0.7166
 5428SOL    HW227918   4.551   0.383   7.527  0.6184 -1.0733 -0.9546
 5429SOL     OW27919   2.890   1.999   0.909 -0.0647  0.2597  0.0151
 5429SOL    HW127920   2.844   2.055   0.971 -0.7816 -0.0226 -0.2604
 5429SOL    HW227921   2.960   1.964   0.963 -0.0807 -0.3742 -0.3755
 5430SOL     OW27922   2.409   2.682   6.583  0.0565 -0.3587 -0.4459
 5430SOL    HW127923   2.462   2.602   6.572 -0.7498 -0.8428 -0.8184
 5430SOL    HW227924   2.466   2.748   6.543 -0.6910  0.5125 -0.0377
 5431SOL     OW27925   0.148   3.080   4.561  0.1611  0.4547  0.2639
 5431SOL    HW127926   0.222   3.021   4.570 -1.3141 -1.4257  0.1361
 5431SOL    HW227927   0.117   3.081   4.652  0.5841 -1.8180  0.4343
 5432SOL     OW27928   0.499   0.502   1.594  0.4339 -0.4405  0.1237
 5432SOL    HW127929   0.434   0.568   1.571  0.9910 -0.2926 -1.0473
 5432SOL    HW227930   0.577   0.552   1.620  0.6114  0.1015 -1.4516
 5433SOL     OW27931   3.025   3.776   2.054  0.0942  0.0841 -0.1086
 5433SOL    HW127932   2.975   3.848   2.016 -1.0091  0.3856  1.8929
 5433SOL    HW227933   3.105   3.796   2.005 -0.7007 -2.1003 -2.2838
 5434SOL     OW27934   2.837   0.980  17.047  0.1460  0.3304 -0.5456
 5434SOL    HW127935   2.829   0.940  16.960  0.8742  1.6069 -1.1973
 5434SOL    HW227936   2.880   0.911  17.097 -1.1004 -1.7247 -2.3192
 5435SOL     OW27937   0.350   1.446   5.850  0.0924  0.2443 -0.1684
 5435SOL    HW127938   0.382   1.358   5.873 -1.1305 -0.4772 -1.2423
 5435SOL    HW227939   0.418   1.499   5.892 -0.0631 -0.9478  1.6131
 5436SOL     OW27940   2.124   1.102  15.831 -0.6105 -0.5120  0.2446
 5436SOL    HW127941   2.044   1.054  15.853 -1.6812  0.9625 -0.3980
 5436SOL    HW227942   2.190   1.033  15.821  0.3446  0.5314 -0.6461
 5437SOL     OW27943   0.083   3.649   7.008  0.3979 -0.3943 -0.3834
 5437SOL    HW127944   0.167   3.607   7.026  0.7975  0.2299 -0.7923
 5437SOL    HW227945   0.054   3.598   6.932  0.5114  0.1960 -0.8286
 5438SOL     OW27946   0.430   1.343  15.685 -0.6053  0.4160  0.2239
 5438SOL    HW127947   0.462   1.394  15.759 -1.5303  2.1429 -0.5732
 5438SOL    HW227948   0.481   1.262  15.695 -0.5221  0.5271  0.6750
 5439SOL     OW27949   3.807   0.445   8.773 -0.1701 -0.3914  0.1675
 5439SOL    HW127950   3.805   0.447   8.678 -0.3126 -0.3259  0.1719
 5439SOL    HW227951   3.762   0.529   8.787  1.0735  0.1007  1.3282
 5440SOL     OW27952   3.432   1.318   9.145  0.2030 -0.2122  0.6593
 5440SOL    HW127953   3.480   1.368   9.080 -2.0957 -0.0583 -0.9293
 5440SOL    HW227954   3.378   1.254   9.098  0.9801 -1.0054  0.8470
 5441SOL     OW27955   2.194   3.872   5.896  0.0319  0.7755  0.2159
 5441SOL    HW127956   2.232   3.843   5.979 -0.9108 -0.9489  0.0320
 5441SOL    HW227957   2.105   3.881   5.931 -1.0949  0.3408 -2.5785
 5442SOL     OW27958   1.314   4.338   6.892 -0.1536 -0.2092  0.2942
 5442SOL    HW127959   1.313   4.328   6.797  2.7520  1.5625  0.0630
 5442SOL    HW227960   1.314   4.248   6.924  0.8707 -0.4214 -0.3213
 5443SOL     OW27961   4.458   0.792   7.052 -0.1535  0.6365  0.1599
 5443SOL    HW127962   4.362   0.789   7.051 -0.1124 -1.2839  1.0993
 5443SOL    HW227963   4.482   0.748   7.134  1.0435  0.5589 -0.2413
 5444SOL     OW27964   4.700   3.999  10.534 -0.2400 -0.3658  0.0977
 5444SOL    HW127965   4.624   4.054  10.552 -0.1131  0.2577 -1.2762
 5444SOL    HW227966   4.705   4.008  10.439 -1.1347 -0.2215  0.0614
 5445SOL     OW27967   3.382   0.115   9.408  0.0519 -0.5149 -0.1414
 5445SOL    HW127968   3.346   0.103   9.496  3.7830 -2.0303  1.1797
 5445SOL    HW227969   3.307   0.084   9.358 -0.2481  0.7729 -0.4720
 5446SOL     OW27970   1.939   4.388   6.046 -0.3516 -0.3145 -0.1630
 5446SOL    HW127971   2.011   4.427   6.094 -0.7804 -1.3639  1.3250
 5446SOL    HW227972   1.966   4.299   6.023  0.5310 -0.2931  0.8062
 5447SOL     OW27973   1.240   0.580   4.627 -0.6747  0.1445 -0.2380
 5447SOL    HW127974   1.231   0.493   4.587  0.2312 -0.1154  0.1251
 5447SOL    HW227975   1.298   0.552   4.698  1.2255  1.0624 -1.4308
 5448SOL     OW27976   4.427   1.308   4.247 -0.3923  0.0898 -0.2445
 5448SOL    HW127977   4.334   1.310   4.225 -0.5794  0.9269  0.6379
 5448SOL    HW227978   4.417   1.353   4.331 -1.3084  0.0506 -0.3382
 5449SOL     OW27979   0.640   1.403   6.662 -0.4157  0.0187 -0.5610
 5449SOL    HW127980   0.725   1.406   6.617 -0.5652  1.0065 -0.7540
 5449SOL    HW227981   0.640   1.312   6.694  0.5643  0.1891 -0.0612
 5450SOL     OW27982   2.778   4.125   3.325 -0.7876 -0.3519  0.4074
 5450SOL    HW127983   2.809   4.061   3.389 -1.3089  1.4312  2.4578
 5450SOL    HW227984   2.797   4.208   3.370 -1.3163  1.0373 -1.9445
 5451SOL     OW27985   0.500   0.376   4.402 -0.8887  0.1795 -0.0029
 5451SOL    HW127986   0.564   0.345   4.466 -1.1052 -0.3681 -0.0570
 5451SOL    HW227987   0.432   0.322   4.443  0.7724 -0.5929  1.7340
 5452SOL     OW27988   3.218   1.489   3.508  0.6541 -0.2628 -0.4810
 5452SOL    HW127989   3.235   1.561   3.569 -1.5742  0.3642 -0.6142
 5452SOL    HW227990   3.301   1.489   3.459  0.6192 -0.8417 -0.5418
 5453SOL     OW27991   1.533   1.118   5.805 -0.2448 -0.4087  0.0072
 5453SOL    HW127992   1.494   1.192   5.759 -1.2885 -1.3928 -0.6889
 5453SOL    HW227993   1.493   1.121   5.892 -0.2721  1.2163 -0.0570
 5454SOL     OW27994   1.148   4.125   4.666  0.3795  0.0315  0.6100
 5454SOL    HW127995   1.070   4.157   4.620 -0.1915 -0.9971  0.8504
 5454SOL    HW227996   1.105   4.067   4.729  0.3269 -1.3233 -0.6626
 5455SOL     OW27997   1.231   1.763   2.244  0.2839 -0.3449 -0.8302
 5455SOL    HW127998   1.306   1.753   2.186  0.8982 -0.2676 -0.0561
 5455SOL    HW227999   1.246   1.681   2.292  0.9679 -1.1646 -2.4665
 5456SOL     OW28000   1.223   3.405   4.247 -0.1715 -0.1183 -0.0358
 5456SOL    HW128001   1.291   3.416   4.313 -0.6690  0.9072  0.3016
 5456SOL    HW228002   1.153   3.365   4.299  0.7956  0.1926  1.4734
 5457SOL     OW28003   3.633   4.260  14.241 -0.6282  0.7155  0.3243
 5457SOL    HW128004   3.701   4.277  14.306  0.9959 -0.2766 -1.1171
 5457SOL    HW228005   3.564   4.212  14.288 -0.0734  0.1316  0.5503
 5458SOL     OW28006   2.434   3.897   5.800 -0.2917  0.0961  0.4668
 5458SOL    HW128007   2.484   3.957   5.857  0.8011 -1.4644  1.1575
 5458SOL    HW228008   2.345   3.922   5.824 -0.1873  2.2540 -1.3898
 5459SOL     OW28009   2.497   4.225   5.750  0.3556 -0.0439 -0.0118
 5459SOL    HW128010   2.547   4.177   5.817  0.1417 -0.3925 -0.1019
 5459SOL    HW228011   2.511   4.175   5.670 -1.8172  1.6016 -1.3999
 5460SOL     OW28012   0.012   4.191  10.939 -0.3133 -0.9128 -0.2413
 5460SOL    HW128013   0.063   4.262  10.900 -1.7712  0.3289  0.1098
 5460SOL    HW228014   4.667   4.237  10.945 -0.2225 -0.7352 -0.3201
 5461SOL     OW28015   4.656   3.391   6.056 -0.7799 -0.2623 -0.4430
 5461SOL    HW128016   0.011   3.399   6.042 -1.1634  4.7002 -0.2689
 5461SOL    HW228017   4.627   3.336   6.129 -2.5295  2.3476  0.7949
 5462SOL     OW28018   3.817   3.362   2.332  0.1499 -0.0815 -0.2221
 5462SOL    HW128019   3.907   3.341   2.310  0.2276  0.1568 -0.1341
 5462SOL    HW228020   3.798   3.413   2.253 -1.9070 -1.6120 -0.7073
 5463SOL     OW28021   3.140   1.398  11.053  0.2527 -0.1990 -0.1337
 5463SOL    HW128022   3.150   1.314  11.097  1.5648  1.0943  2.0116
 5463SOL    HW228023   3.086   1.444  11.117 -3.1279 -2.5697 -1.2751
 5464SOL     OW28024   3.063   1.889   1.762 -0.1561  0.4946 -0.1410
 5464SOL    HW128025   3.006   1.958   1.796 -0.3232 -0.0968  0.7682
 5464SOL    HW228026   3.041   1.883   1.668  1.6098  0.4878 -0.5442
 5465SOL     OW28027   0.457   0.335   6.497  0.1135 -0.1836 -0.5094
 5465SOL    HW128028   0.379   0.389   6.510  0.2066  0.0927 -1.1321
 5465SOL    HW228029   0.478   0.335   6.404  2.3715 -2.9089  0.0032
 5466SOL     OW28030   1.242   0.386   3.266  0.5587  0.1291 -0.4881
 5466SOL    HW128031   1.280   0.443   3.199  0.6234 -0.7864 -1.2317
 5466SOL    HW228032   1.220   0.453   3.330 -0.7624 -0.0345 -0.7723
 5467SOL     OW28033   4.023   2.536   6.610  0.1380 -0.2077  0.6227
 5467SOL    HW128034   4.065   2.528   6.524 -2.3887 -2.1672 -0.4420
 5467SOL    HW228035   3.970   2.614   6.596 -0.8000 -0.3907  3.1135
 5468SOL     OW28036   3.698   2.724   6.958  0.2513  0.0474  0.4578
 5468SOL    HW128037   3.740   2.653   6.910 -1.0782 -0.2220 -0.2799
 5468SOL    HW228038   3.749   2.717   7.039  0.9233  0.1808  0.0430
 5469SOL     OW28039   4.262   0.102   7.636 -0.3344 -0.2802 -0.0510
 5469SOL    HW128040   4.305   0.179   7.673  0.9269 -1.0814  0.1484
 5469SOL    HW228041   4.197   0.141   7.578  1.1904  0.4673 -1.2250
 5470SOL     OW28042   3.821   2.495  13.470 -0.2819 -0.1345  0.0060
 5470SOL    HW128043   3.732   2.501  13.436 -0.2970  1.2250  0.3225
 5470SOL    HW228044   3.820   2.583  13.507 -0.1198 -0.4112  0.6668
 5471SOL     OW28045   1.650   0.894   0.502  0.3428  0.0771 -0.6234
 5471SOL    HW128046   1.603   0.893   0.419 -0.9054 -0.2824  0.0919
 5471SOL    HW228047   1.630   0.982   0.535  0.2992 -0.9401  2.0457
 5472SOL     OW28048   2.427   2.180   8.027 -0.4589 -0.2312 -0.3471
 5472SOL    HW128049   2.518   2.200   8.048  0.2490 -3.3913 -0.3702
 5472SOL    HW228050   2.415   2.224   7.943 -0.5677 -0.6726 -0.5632
 5473SOL     OW28051   3.250   2.104   1.740 -0.1576 -0.9657 -0.3879
 5473SOL    HW128052   3.170   2.062   1.770 -0.5733 -0.1197 -0.2981
 5473SOL    HW228053   3.269   2.145   1.824 -2.1422  0.3513 -0.5771
 5474SOL     OW28054   4.074   3.117   4.003 -0.0669 -0.2751 -0.4385
 5474SOL    HW128055   3.993   3.162   3.979 -0.3196 -0.4083  0.1504
 5474SOL    HW228056   4.096   3.179   4.072 -0.9036  2.0536 -2.2682
 5475SOL     OW28057   1.691   3.310  14.117  0.1065 -0.1130 -0.1120
 5475SOL    HW128058   1.746   3.313  14.195 -2.1032  0.4581  1.4440
 5475SOL    HW228059   1.606   3.286  14.155 -0.6939  2.9347  0.0180
 5476SOL     OW28060   2.739   4.224   5.306  0.2130  0.1209 -0.2823
 5476SOL    HW128061   2.774   4.309   5.278 -0.2857  0.3109 -0.3316
 5476SOL    HW228062   2.812   4.190   5.357 -0.8061  1.1763  1.8707
 5477SOL     OW28063   1.989   1.439  14.807 -0.3130 -0.0000 -0.0889
 5477SOL    HW128064   1.981   1.524  14.852 -0.8840  0.6074 -1.3338
 5477SOL    HW228065   2.002   1.474  14.719 -1.2290  1.0297  0.1814
 5478SOL     OW28066   3.666   4.399  10.100 -0.1204 -0.3370 -0.6837
 5478SOL    HW128067   3.649   4.460  10.028  2.2942  0.3283 -0.7042
 5478SOL    HW228068   3.751   4.436  10.122 -1.4974  2.9264 -0.9180
 5479SOL     OW28069   1.836   0.127   9.020  0.5388 -0.4397 -0.0036
 5479SOL    HW128070   1.804   0.067   9.088 -1.0159  0.9278  0.4565
 5479SOL    HW228071   1.931   0.122   9.032  0.5217  0.0804  0.3387
 5480SOL     OW28072   4.119   2.634   3.817 -0.1900 -0.4575  0.6067
 5480SOL    HW128073   4.047   2.596   3.767  1.9164 -1.9225 -1.3389
 5480SOL    HW228074   4.163   2.694   3.755 -0.0580 -0.0210  1.1239
 5481SOL     OW28075   1.790   1.943  11.433  0.5336  0.0361  0.1425
 5481SOL    HW128076   1.759   1.931  11.344 -0.8154 -3.1592  1.0220
 5481SOL    HW228077   1.813   1.852  11.452  0.5574 -0.4154 -2.1508
 5482SOL     OW28078   4.509   4.164   4.276  0.2831 -0.0095 -0.1503
 5482SOL    HW128079   4.553   4.249   4.284  0.2894 -0.3445  3.5097
 5482SOL    HW228080   4.482   4.156   4.368 -1.8728  0.9214 -0.6996
 5483SOL     OW28081   0.533   4.047  12.252  0.2591  0.1609  0.1053
 5483SOL    HW128082   0.493   4.000  12.179  0.2275 -0.2765  0.4044
 5483SOL    HW228083   0.578   4.125  12.220  0.5055 -0.5438 -1.2527
 5484SOL     OW28084   2.825   2.860  14.407 -0.0367  0.0458  0.0231
 5484SOL    HW128085   2.807   2.896  14.320 -2.2349 -2.5199 -0.5685
 5484SOL    HW228086   2.874   2.780  14.390  0.1349  0.1356  0.1053
 5485SOL     OW28087   1.589   3.908   6.841 -0.0605 -0.3074  0.5188
 5485SOL    HW128088   1.570   3.852   6.766 -2.6104 -0.0610  0.9570
 5485SOL    HW228089   1.638   3.985   6.814 -0.0391  0.3617  2.4648
 5486SOL     OW28090   0.005   4.019   0.703 -0.3062  0.2299  0.2778
 5486SOL    HW128091   0.088   3.971   0.705 -1.8312 -2.5077 -1.2684
 5486SOL    HW228092   4.705   3.972   0.629  0.8279 -0.2268 -0.0306
 5487SOL     OW28093   2.324   2.070   0.588 -0.1250 -0.1255 -0.2882
 5487SOL    HW128094   2.381   2.111   0.523  0.9755 -1.7487 -0.3413
 5487SOL    HW228095   2.248   2.039   0.539 -0.3203 -1.4924  0.8690
 5488SOL     OW28096   4.119   3.585   3.688  0.1596  0.5523  0.7448
 5488SOL    HW128097   4.181   3.634   3.741  2.3415 -2.5247  1.0405
 5488SOL    HW228098   4.032   3.588   3.729 -1.9020 -2.1310 -3.4480
 5489SOL     OW28099   0.361   0.322   1.073 -0.0615 -0.3939  0.2631
 5489SOL    HW128100   0.454   0.304   1.086 -0.0841  0.3442  1.4291
 5489SOL    HW228101   0.360   0.338   0.978 -1.1813 -0.4838  0.2601
 5490SOL     OW28102   3.762   2.232   5.068  0.0901 -0.7888  0.4634
 5490SOL    HW128103   3.763   2.162   5.133  2.1866 -1.0443  0.1310
 5490SOL    HW228104   3.855   2.251   5.061 -0.9691  4.7329  1.2794
 5491SOL     OW28105   4.134   0.738  17.708 -0.4487  0.3593  0.4543
 5491SOL    HW128106   4.215   0.754  17.661 -0.8624  0.6480 -0.1523
 5491SOL    HW228107   4.124   0.824  17.749 -0.7197  0.8779 -0.7080
 5492SOL     OW28108   1.639   4.333   7.937 -0.1192  0.1704 -0.5189
 5492SOL    HW128109   1.622   4.316   8.029  0.8582  2.5820  0.1260
 5492SOL    HW228110   1.604   4.422   7.931 -1.0443 -0.2320 -1.0792
 5493SOL     OW28111   0.837   2.705   5.347 -0.3117  0.2310 -0.2258
 5493SOL    HW128112   0.831   2.776   5.284  1.0893 -0.9795 -1.7101
 5493SOL    HW228113   0.810   2.754   5.425 -0.8348 -1.7106  0.8271
 5494SOL     OW28114   2.919   0.749   6.851  0.5863 -0.1332 -0.2247
 5494SOL    HW128115   2.923   0.732   6.757 -1.2889  2.4464 -0.7768
 5494SOL    HW228116   2.966   0.833   6.856 -0.1492  0.1333  2.5013
 5495SOL     OW28117   1.894   3.269   3.680  0.1125 -0.0028 -0.8487
 5495SOL    HW128118   1.805   3.278   3.713  0.7606  1.4925  0.4960
 5495SOL    HW228119   1.914   3.177   3.695 -0.6005 -0.0413 -0.1715
 5496SOL     OW28120   4.265   2.282   1.747 -0.0710 -0.3719  0.1610
 5496SOL    HW128121   4.233   2.369   1.723  3.4129  0.9303  0.3754
 5496SOL    HW228122   4.190   2.230   1.718 -0.3703 -0.2413  0.7065
 5497SOL     OW28123   0.445   3.168   1.966 -0.7130  0.3151 -0.2544
 5497SOL    HW128124   0.416   3.259   1.968  3.1719  1.5555 -0.2112
 5497SOL    HW228125   0.367   3.129   2.005  0.6161 -1.2709  0.8069
 5498SOL     OW28126   3.087   1.488  15.826 -0.2287 -0.4048 -0.6308
 5498SOL    HW128127   3.039   1.416  15.785  2.8013 -2.3296 -0.7828
 5498SOL    HW228128   3.176   1.453  15.831  0.7527  2.2915  0.7799
 5499SOL     OW28129   2.873   2.790   1.591  0.1716 -0.7418 -0.2904
 5499SOL    HW128130   2.966   2.804   1.609 -0.2542 -0.4612  1.7442
 5499SOL    HW228131   2.881   2.798   1.496  3.5945  0.3647  0.0847
 5500SOL     OW28132   3.858   3.959   4.827 -0.0007 -0.3450 -0.2996
 5500SOL    HW128133   3.855   4.049   4.861  1.7953  0.1022 -1.2968
 5500SOL    HW228134   3.800   3.916   4.889 -1.4914 -1.0486 -2.1919
 5501SOL     OW28135   1.746   4.359   8.921 -0.2163 -0.3047  0.0843
 5501SOL    HW128136   1.790   4.397   8.997 -0.5118  0.5774 -0.1793
 5501SOL    HW228137   1.717   4.277   8.959 -1.5641 -0.6457 -1.6466
 5502SOL     OW28138   3.540   1.446   7.641 -0.1569  0.4359 -0.2798
 5502SOL    HW128139   3.455   1.453   7.685  0.0495  1.2588 -0.0054
 5502SOL    HW228140   3.551   1.540   7.628  1.5409  0.0380 -1.7619
 5503SOL     OW28141   2.509   0.488   3.823  0.4676 -0.3824  0.3580
 5503SOL    HW128142   2.443   0.544   3.784  0.4508 -1.2396 -0.8170
 5503SOL    HW228143   2.467   0.403   3.816 -0.7221  0.0376  2.2580
 5504SOL     OW28144   3.659   0.164   8.570  0.4872 -0.2951 -0.0080
 5504SOL    HW128145   3.619   0.078   8.574  2.4345 -1.2836 -1.5000
 5504SOL    HW228146   3.743   0.140   8.611  0.5299  3.4901  2.1161
 5505SOL     OW28147   0.967   2.995   9.157 -0.1428 -0.2155 -0.3175
 5505SOL    HW128148   0.885   3.033   9.127  0.8394  2.6132  0.6159
 5505SOL    HW228149   0.984   3.029   9.245 -0.6798 -0.3422 -0.1685
 5506SOL     OW28150   1.387   4.665   1.368 -0.3818 -0.3804  0.0603
 5506SOL    HW128151   1.401   4.592   1.308 -1.8207 -1.3019  0.8494
 5506SOL    HW228152   1.382   0.000   1.308 -0.9172  0.3272  0.9731
 5507SOL     OW28153   2.001   3.108  10.603  0.2176  0.0905  0.2373
 5507SOL    HW128154   2.014   3.157  10.521 -1.4869 -0.0037 -0.0998
 5507SOL    HW228155   2.061   3.153  10.662 -2.2291  3.2750  0.3172
 5508SOL     OW28156   3.089   0.874  14.636  0.4406 -0.4011  0.0635
 5508SOL    HW128157   3.140   0.955  14.628  0.6823 -0.7063 -1.6337
 5508SOL    HW228158   3.129   0.818  14.702 -0.8332  0.7165  1.7652
 5509SOL     OW28159   2.119   1.968  14.546 -0.1928 -0.1300 -0.0738
 5509SOL    HW128160   2.183   2.027  14.504 -1.1381  0.8702 -0.1031
 5509SOL    HW228161   2.051   2.023  14.585  0.0041 -0.8285  1.2291
 5510SOL     OW28162   4.514   0.499   4.275  0.4548  0.3550  0.3005
 5510SOL    HW128163   4.499   0.423   4.333 -0.7548 -0.0277 -0.5137
 5510SOL    HW228164   4.609   0.506   4.268  0.2349 -0.5061 -3.3065
 5511SOL     OW28165   0.270   0.581   4.445  0.0665 -0.1258 -0.1535
 5511SOL    HW128166   0.208   0.647   4.477 -1.0423 -0.3171 -1.9003
 5511SOL    HW228167   0.203   0.529   4.400  0.8409 -1.5416  0.3266
 5512SOL     OW28168   1.353   0.736   6.801 -0.7733  0.4669  0.7078
 5512SOL    HW128169   1.433   0.700   6.838 -2.3295 -1.0132  2.6349
 5512SOL    HW228170   1.388   0.806   6.745  0.9424  0.7273  2.1009
 5513SOL     OW28171   2.430   0.931   5.726  0.5805  0.2943 -0.2240
 5513SOL    HW128172   2.524   0.948   5.734  0.4375  0.5502  0.8754
 5513SOL    HW228173   2.418   0.890   5.812 -0.1626  0.2700 -0.3381
 5514SOL     OW28174   4.246   2.900   2.867  0.4087 -0.1945 -0.4088
 5514SOL    HW128175   4.310   2.961   2.828 -1.6564  0.8878 -2.0943
 5514SOL    HW228176   4.245   2.931   2.958 -1.4193 -1.3132 -0.0586
 5515SOL     OW28177   0.283   3.272   9.454 -0.1155  0.4285 -0.0467
 5515SOL    HW128178   0.321   3.191   9.422  0.8305  0.5861  0.6620
 5515SOL    HW228179   0.223   3.289   9.381 -0.2911  0.4925  0.1124
 5516SOL     OW28180   4.189   0.372   6.784  0.0283 -0.4915 -0.2079
 5516SOL    HW128181   4.248   0.444   6.761 -0.2980 -0.4433 -0.8779
 5516SOL    HW228182   4.226   0.351   6.870  0.9819  0.3810 -0.4129
 5517SOL     OW28183   2.006   3.325  16.808  0.3530  0.1350  0.0281
 5517SOL    HW128184   1.949   3.302  16.734  0.1108  0.3695  0.1433
 5517SOL    HW228185   1.962   3.408  16.823  1.1527  0.3060  1.4783
 5518SOL     OW28186   4.294   4.183  17.409  0.5991  0.1760 -0.1130
 5518SOL    HW128187   4.339   4.235  17.475 -3.4306  1.3626  1.7059
 5518SOL    HW228188   4.208   4.223  17.394  0.3774  0.0984  1.0006
 5519SOL     OW28189   0.409   1.965   2.068  0.6865  0.0354 -0.2379
 5519SOL    HW128190   0.391   2.041   2.123 -2.5603  0.8231 -2.4528
 5519SOL    HW228191   0.456   1.921   2.139  0.7733  1.0476  0.3386
 5520SOL     OW28192   3.511   3.908   2.715  0.5797  0.0136  0.0364
 5520SOL    HW128193   3.508   3.941   2.625  0.5317 -1.9968 -0.7070
 5520SOL    HW228194   3.583   3.845   2.710 -1.0348 -1.8339  0.0149
 5521SOL     OW28195   1.103   1.501  11.732  0.0693  0.3170 -0.3299
 5521SOL    HW128196   1.110   1.487  11.826 -0.7769  0.1357 -0.2954
 5521SOL    HW228197   1.197   1.498  11.713  0.0658 -1.7986 -0.0314
 5522SOL     OW28198   4.414   1.673   7.352 -0.1589  0.3708 -0.2145
 5522SOL    HW128199   4.320   1.689   7.337 -0.1681  0.0362 -0.5172
 5522SOL    HW228200   4.435   1.594   7.303 -0.8548 -0.7958  1.3522
 5523SOL     OW28201   3.081   4.368  14.745  0.2697 -0.5145  0.6807
 5523SOL    HW128202   3.087   4.452  14.699 -0.2069 -0.2159  1.1641
 5523SOL    HW228203   3.013   4.377  14.812 -1.7585  1.0521 -1.5675
 5524SOL     OW28204   4.019   4.532  10.573  1.1169  0.5137  0.8687
 5524SOL    HW128205   4.041   4.618  10.538 -0.7041  0.5971 -0.0347
 5524SOL    HW228206   3.967   4.552  10.651 -1.0136  0.2859 -0.5255
 5525SOL     OW28207   1.215   0.097   8.024  0.0594 -0.6055 -0.0006
 5525SOL    HW128208   1.257   0.113   8.109 -1.9107  3.6691  0.1527
 5525SOL    HW228209   1.197   0.183   7.986  1.6640 -0.7258 -1.0709
 5526SOL     OW28210   4.158   4.506   0.855 -0.4768  0.4521 -1.4740
 5526SOL    HW128211   4.197   4.590   0.829  1.0885 -0.4167 -1.8996
 5526SOL    HW228212   4.152   4.520   0.950  4.1175 -1.7479 -0.9073
 5527SOL     OW28213   0.425   1.239  14.785  0.2550  0.2401 -0.2657
 5527SOL    HW128214   0.414   1.146  14.805 -2.7337  0.8628  0.9414
 5527SOL    HW228215   0.361   1.235  14.715  0.9134 -1.2520 -0.7897
 5528SOL     OW28216   3.887   0.112  16.576  0.1441 -0.1708 -0.4438
 5528SOL    HW128217   3.936   0.190  16.552  0.8489 -0.3042  0.5763
 5528SOL    HW228218   3.796   0.126  16.549  0.0481 -1.7376 -0.9547
 5529SOL     OW28219   3.819   3.147   1.968  0.0679 -0.3496  0.4660
 5529SOL    HW128220   3.775   3.064   1.987 -1.3126  0.3696  0.3446
 5529SOL    HW228221   3.907   3.132   1.932 -0.5009  0.9268 -1.4746
 5530SOL     OW28222   0.479   4.541  12.968 -0.1794 -0.1265  0.2151
 5530SOL    HW128223   0.446   4.627  12.993 -0.3991 -0.7360  2.0847
 5530SOL    HW228224   0.421   4.523  12.895  0.1059 -0.7902  0.1479
 5531SOL     OW28225   3.119   2.137   3.759 -0.0387 -0.1288 -0.5044
 5531SOL    HW128226   3.065   2.107   3.832 -0.8371  0.5226 -0.8205
 5531SOL    HW228227   3.044   2.165   3.705 -0.1769  2.5905  1.0833
 5532SOL     OW28228   2.619   2.822   4.004 -0.4484 -1.0910 -0.5288
 5532SOL    HW128229   2.678   2.752   4.033 -1.5357 -1.1977  1.4586
 5532SOL    HW228230   2.611   2.811   3.909  0.1879  2.4545 -0.9821
 5533SOL     OW28231   0.373   1.070   4.983 -0.4001  0.2311 -0.7286
 5533SOL    HW128232   0.365   1.137   4.915  1.3870  0.3861 -0.7676
 5533SOL    HW228233   0.447   1.104   5.032  0.1593 -0.6248 -0.9749
 5534SOL     OW28234   0.199   1.640   7.760 -0.0149 -0.0988  0.1553
 5534SOL    HW128235   0.294   1.641   7.767  0.0311  2.2060 -0.7062
 5534SOL    HW228236   0.182   1.602   7.675  0.1685  1.3283 -0.5251
 5535SOL     OW28237   4.024   1.481   2.444 -0.3200  0.5518  0.4249
 5535SOL    HW128238   4.012   1.476   2.539 -1.7658  2.4865  0.3390
 5535SOL    HW228239   4.086   1.411   2.424 -2.2373 -0.6920 -1.0831
 5536SOL     OW28240   0.620   0.506   4.805 -0.2118 -0.5269 -0.1725
 5536SOL    HW128241   0.702   0.552   4.788 -0.8106  0.4270 -0.4488
 5536SOL    HW228242   0.563   0.556   4.746 -0.5410  0.5570  1.0528
 5537SOL     OW28243   1.518   1.317   2.330 -0.1184 -0.2331  0.4724
 5537SOL    HW128244   1.559   1.348   2.411 -1.8096  0.3394  1.1074
 5537SOL    HW228245   1.596   1.288   2.282  0.3385  2.0277 -0.1618
 5538SOL     OW28246   1.667   4.244   5.519 -0.2733 -0.0458  0.0653
 5538SOL    HW128247   1.580   4.206   5.510  0.1502 -1.2822  1.1935
 5538SOL    HW228248   1.720   4.183   5.467  0.3105  1.3021 -0.9171
 5539SOL     OW28249   4.315   1.880   8.620 -0.0327  0.2726  0.4507
 5539SOL    HW128250   4.341   1.832   8.699  1.0074  0.8772  0.4723
 5539SOL    HW228251   4.247   1.942   8.648  0.5120  2.4161 -2.9807
 5540SOL     OW28252   4.183   0.621   6.059  0.3026 -0.0950 -0.1261
 5540SOL    HW128253   4.245   0.662   6.000  1.3506 -0.0745  0.9938
 5540SOL    HW228254   4.160   0.693   6.118  0.5734 -0.4967  0.4739
 5541SOL     OW28255   0.250   1.597   5.364 -0.1871  0.3386  0.0620
 5541SOL    HW128256   0.267   1.677   5.413  0.7123 -0.4938  1.1244
 5541SOL    HW228257   0.199   1.543   5.424  0.0747  0.7599  0.6638
 5542SOL     OW28258   2.903   2.567   4.980  0.0530 -0.3242 -0.7251
 5542SOL    HW128259   2.817   2.602   4.955  0.2336  0.8230  0.2672
 5542SOL    HW228260   2.944   2.653   4.992 -2.3049  0.4599  1.6718
 5543SOL     OW28261   3.226   3.976   1.962  0.1111  0.7241  0.1626
 5543SOL    HW128262   3.171   4.041   2.005 -2.1244 -1.2195  0.2479
 5543SOL    HW228263   3.249   4.025   1.883 -1.1048 -1.1626 -1.3710
 5544SOL     OW28264   1.834   4.268   2.384 -0.0569  0.2730  0.6279
 5544SOL    HW128265   1.781   4.206   2.332  1.2468 -0.3684  0.0534
 5544SOL    HW228266   1.786   4.348   2.364  0.4037  0.4856  0.3698
 5545SOL     OW28267   3.332   0.555   8.996 -0.0406 -0.3128  0.5123
 5545SOL    HW128268   3.408   0.607   8.969 -0.9847  0.4932 -0.5931
 5545SOL    HW228269   3.364   0.562   9.086  2.6990  0.0161 -0.4823
 5546SOL     OW28270   0.090   2.904  15.483 -0.2775  0.1346  0.4254
 5546SOL    HW128271   0.119   2.835  15.423  1.4140  1.1073  0.1213
 5546SOL    HW228272   0.062   2.967  15.417 -1.8722 -1.2202 -0.2059
 5547SOL     OW28273   3.611   0.091   2.969  0.1498 -0.4854  0.8383
 5547SOL    HW128274   3.626   0.013   2.916  1.4934  1.8912 -2.2496
 5547SOL    HW228275   3.579   0.145   2.897  0.1404  0.2944  1.4231
 5548SOL     OW28276   2.227   0.639  14.272  0.0726  0.6183 -0.0369
 5548SOL    HW128277   2.184   0.703  14.328 -1.5288 -0.7594  0.3264
 5548SOL    HW228278   2.153   0.622  14.213 -0.7314  1.6760  0.6716
 5549SOL     OW28279   3.216   0.950   5.856  0.4874 -0.3284 -0.0633
 5549SOL    HW128280   3.222   0.896   5.777 -1.8233  0.3378 -0.6910
 5549SOL    HW228281   3.270   0.896   5.913 -1.3065  0.4954  2.3856
 5550SOL     OW28282   3.607   3.086   7.104 -0.5331  0.5141 -0.1179
 5550SOL    HW128283   3.542   3.113   7.168 -0.3432  3.5157 -1.1646
 5550SOL    HW228284   3.651   3.167   7.078 -0.4927 -0.5074 -3.2822
 5551SOL     OW28285   1.342   3.133   5.748  0.3291  0.8929 -0.4700
 5551SOL    HW128286   1.395   3.095   5.818  0.3391  1.5143 -0.1399
 5551SOL    HW228287   1.342   3.062   5.685 -0.1718  1.1517 -0.7550
 5552SOL     OW28288   4.719   0.099   1.774 -0.1654  0.3864  0.0967
 5552SOL    HW128289   0.019   0.012   1.770  3.4876  2.0528 -0.1369
 5552SOL    HW228290   4.625   0.078   1.775  0.2785 -1.6858 -1.4529
 5553SOL     OW28291   1.710   3.679  15.681 -0.8706 -0.3356 -0.3942
 5553SOL    HW128292   1.664   3.746  15.732 -1.7704 -1.1609 -0.1283
 5553SOL    HW228293   1.689   3.709  15.592  0.7601 -1.5164 -1.1665
 5554SOL     OW28294   2.182   1.422   3.737 -0.0634 -0.0068 -0.1186
 5554SOL    HW128295   2.099   1.444   3.780  0.9361  2.5724  0.5056
 5554SOL    HW228296   2.243   1.404   3.809  0.4972 -0.9797 -0.8500
 5555SOL     OW28297   0.340   1.858   8.068 -0.0284  0.3773  0.2035
 5555SOL    HW128298   0.268   1.795   8.059  2.2398 -2.3421  1.0428
 5555SOL    HW228299   0.329   1.896   7.981 -2.3694 -0.2080  0.2255
 5556SOL     OW28300   3.221   1.100   2.771 -0.2757  0.2048 -0.2297
 5556SOL    HW128301   3.141   1.047   2.767  0.0805 -0.3242 -0.3409
 5556SOL    HW228302   3.282   1.028   2.755  0.5722  0.9462 -0.3304
 5557SOL     OW28303   1.024   1.729  17.350  0.6672  0.1497 -0.4359
 5557SOL    HW128304   1.036   1.812  17.398 -1.2274  1.6862 -2.6233
 5557SOL    HW228305   1.038   1.764  17.262 -0.2204  1.1318 -0.1944
 5558SOL     OW28306   1.066   1.460   4.156  0.4050 -0.2398 -0.3327
 5558SOL    HW128307   1.096   1.473   4.066 -0.3243 -1.3767 -0.7467
 5558SOL    HW228308   1.117   1.523   4.207  0.4707 -1.4856  1.1450
 5559SOL     OW28309   3.685   0.387   9.055 -0.0256 -0.0837  0.5413
 5559SOL    HW128310   3.626   0.312   9.046 -1.8688  1.2045  1.9046
 5559SOL    HW228311   3.705   0.370   9.147 -1.6377  0.4561  0.9756
 5560SOL     OW28312   2.892   1.982   7.434 -0.6173 -0.6198  0.1057
 5560SOL    HW128313   2.839   1.913   7.474  1.3146 -2.7785 -1.0748
 5560SOL    HW228314   2.952   1.936   7.375  0.3071  1.2026 -0.3487
 5561SOL     OW28315   4.203   1.035  12.643  0.0606 -0.5259  0.1963
 5561SOL    HW128316   4.159   1.120  12.632 -0.6815 -0.9244  0.0872
 5561SOL    HW228317   4.214   1.009  12.552 -0.7702  0.2010 -0.1113
 5562SOL     OW28318   2.254   3.895   7.129 -0.0301 -0.2735  0.2387
 5562SOL    HW128319   2.220   3.892   7.219  1.4473 -2.2281  0.7255
 5562SOL    HW228320   2.227   3.814   7.086  1.8019  0.6199 -2.5550
 5563SOL     OW28321   4.517   2.904  10.260  0.0603  0.5027  0.3495
 5563SOL    HW128322   4.473   2.920  10.177  1.6759 -2.8442 -1.1559
 5563SOL    HW228323   4.584   2.972  10.268  0.5081  0.1115 -0.0243
 5564SOL     OW28324   0.422   2.070   7.193 -0.4888  0.3806 -0.0854
 5564SOL    HW128325   0.420   2.139   7.260  4.7168 -1.5665  2.0027
 5564SOL    HW228326   0.330   2.072   7.166 -0.5948  2.7492  0.3595
 5565SOL     OW28327   2.181   1.288  15.459 -0.3557  0.6411 -0.1690
 5565SOL    HW128328   2.203   1.328  15.543  0.3915 -2.6844  1.2178
 5565SOL    HW228329   2.244   1.332  15.402 -1.5061  0.5503 -1.5202
 5566SOL     OW28330   3.083   0.307   1.852 -0.5256  0.2701  0.4999
 5566SOL    HW128331   3.158   0.343   1.899  2.4703 -2.0368 -2.4915
 5566SOL    HW228332   3.059   0.237   1.911  1.1211 -1.0615 -0.4057
 5567SOL     OW28333   1.297   3.842   5.091  0.2854 -0.0379  0.1492
 5567SOL    HW128334   1.288   3.938   5.090 -2.0737 -0.2676  0.7190
 5567SOL    HW228335   1.385   3.845   5.053  1.4828 -1.2463  2.7865
 5568SOL     OW28336   3.013   1.262  13.750 -0.4057  0.6715  0.0643
 5568SOL    HW128337   3.068   1.296  13.821  2.7767  1.9917 -2.9810
 5568SOL    HW228338   2.957   1.333  13.718 -0.1158  0.4772 -0.8905
 5569SOL     OW28339   0.562   1.489   9.522  1.0400 -0.2678  0.1141
 5569SOL    HW128340   0.587   1.397   9.530  0.1249 -0.4097  1.2218
 5569SOL    HW228341   0.590   1.522   9.607  1.2622 -0.1521 -0.0027
 5570SOL     OW28342   0.602   3.569  16.858 -0.2981  0.2498 -0.3730
 5570SOL    HW128343   0.648   3.500  16.811  0.9616  0.4181  0.6128
 5570SOL    HW228344   0.554   3.601  16.781 -1.4060  1.9375  1.0042
 5571SOL     OW28345   3.767   0.571  17.540 -0.0148  0.0067 -0.5689
 5571SOL    HW128346   3.776   0.660  17.575 -0.2822  0.3363 -1.3348
 5571SOL    HW228347   3.706   0.536  17.605  0.5138  2.3468  1.1850
 5572SOL     OW28348   1.592   3.779  12.975  0.1104  0.0402  0.2257
 5572SOL    HW128349   1.612   3.762  13.067 -0.5165  1.9154  0.7085
 5572SOL    HW228350   1.600   3.874  12.979  0.0849  0.0827 -0.8213
 5573SOL     OW28351   4.353   2.415  13.127 -0.0382  0.4628 -0.5620
 5573SOL    HW128352   4.441   2.377  13.119 -0.1068  0.2685 -0.4127
 5573SOL    HW228353   4.388   2.503  13.113 -1.5940  1.0187 -0.9149
 5574SOL     OW28354   1.178   3.121   7.868  0.0382  0.3897  0.7346
 5574SOL    HW128355   1.178   3.049   7.930 -0.2105  0.5359  0.9039
 5574SOL    HW228356   1.143   3.191   7.924  0.8996  1.6199 -0.2609
 5575SOL     OW28357   4.215   0.489   3.884 -0.0261  0.5303  0.2777
 5575SOL    HW128358   4.283   0.506   3.949 -0.7145 -1.1484  1.4471
 5575SOL    HW228359   4.189   0.577   3.856 -1.7931 -0.5364 -1.4436
 5576SOL     OW28360   1.709   2.373   8.887 -0.6659 -0.1623  0.0923
 5576SOL    HW128361   1.721   2.279   8.874  0.3541 -0.0599  0.2800
 5576SOL    HW228362   1.651   2.381   8.962 -0.2217  0.8991  0.3206
 5577SOL     OW28363   3.539   1.150   0.276 -0.6455  0.1289  0.2575
 5577SOL    HW128364   3.518   1.161   0.183 -2.2924 -0.5652  0.5598
 5577SOL    HW228365   3.631   1.124   0.279 -1.7984 -3.8290  1.2197
 5578SOL     OW28366   4.257   1.349  11.029 -0.2736  0.0169 -0.0373
 5578SOL    HW128367   4.308   1.340  11.110  3.1081 -0.0771 -2.1438
 5578SOL    HW228368   4.253   1.444  11.019 -0.8428  0.0390  0.4714
 5579SOL     OW28369   2.078   0.802   6.619 -0.3651  0.1573  0.0173
 5579SOL    HW128370   2.119   0.833   6.700  0.8955  2.9183 -1.7077
 5579SOL    HW228371   2.127   0.859   6.560  1.1470 -0.8000  0.3386
 5580SOL     OW28372   3.023   2.620  10.654 -0.4595  0.0710  0.0699
 5580SOL    HW128373   2.950   2.561  10.669  0.1773 -0.1664  2.3665
 5580SOL    HW228374   3.062   2.585  10.574  3.6944  0.4033  1.9301
 5581SOL     OW28375   3.727   2.575   4.525 -0.3234 -0.3346  0.4932
 5581SOL    HW128376   3.744   2.662   4.561 -0.4246 -0.1241  0.0281
 5581SOL    HW228377   3.801   2.574   4.465 -0.7639  1.5412 -0.0879
 5582SOL     OW28378   0.142   0.742   7.015 -0.3340 -0.2580 -0.1965
 5582SOL    HW128379   0.152   0.807   7.084  1.0563  0.0749 -0.7053
 5582SOL    HW228380   0.103   0.791   6.942 -1.0140 -1.9695 -0.9900
 5583SOL     OW28381   1.792   1.758  14.612 -0.1218 -0.3985 -0.0080
 5583SOL    HW128382   1.779   1.752  14.706  1.7910  0.6740  0.3351
 5583SOL    HW228383   1.864   1.694  14.615  0.4341  0.1539 -1.5282
 5584SOL     OW28384   0.596   4.628   0.573 -0.1483 -0.1442  0.0860
 5584SOL    HW128385   0.508   4.657   0.546 -1.4740 -2.1637  2.1652
 5584SOL    HW228386   0.636   4.594   0.493 -0.2042  0.7216 -0.3107
 5585SOL     OW28387   0.349   0.949   2.226 -0.1273 -0.3884 -0.8451
 5585SOL    HW128388   0.437   0.916   2.244 -0.9359 -1.5850  1.0138
 5585SOL    HW228389   0.343   1.032   2.273 -0.3203 -2.3785  2.7089
 5586SOL     OW28390   1.785   0.373   7.122 -0.8387 -0.0676 -0.0763
 5586SOL    HW128391   1.690   0.361   7.120 -0.7356 -0.4917 -1.8296
 5586SOL    HW228392   1.816   0.396   7.035 -3.0030  0.0413 -0.8261
 5587SOL     OW28393   3.412   1.310   9.432 -0.2696 -0.2835 -0.2810
 5587SOL    HW128394   3.429   1.310   9.338  0.2399  0.6644 -0.1901
 5587SOL    HW228395   3.416   1.403   9.455  0.5859 -0.2977 -0.4009
 5588SOL     OW28396   2.450   4.687  15.646 -0.0503 -0.1023 -0.1489
 5588SOL    HW128397   2.542   4.687  15.620 -0.2390  0.0443 -0.8240
 5588SOL    HW228398   2.397   4.738  15.585 -2.1989  1.5807  3.1790
 5589SOL     OW28399   1.524   0.552   6.282  0.3937  0.0198 -0.3950
 5589SOL    HW128400   1.527   0.493   6.208 -0.7948 -0.9547  0.3462
 5589SOL    HW228401   1.448   0.606   6.261 -1.1226 -1.7248  0.6884
 5590SOL     OW28402   3.636   0.969  12.615  0.2118 -0.4289 -0.4325
 5590SOL    HW128403   3.587   0.945  12.693  2.6740  0.7726  1.4956
 5590SOL    HW228404   3.700   0.898  12.612 -0.1663 -0.8211  1.0119
 5591SOL     OW28405   3.842   1.660  13.074 -0.3093  0.9247 -0.1141
 5591SOL    HW128406   3.892   1.665  13.156  2.5854  0.3562 -1.8182
 5591SOL    HW228407   3.845   1.567  13.051  0.9574  0.9885 -0.2281
 5592SOL     OW28408   1.337   2.065   4.864 -0.1086 -0.2313  0.0862
 5592SOL    HW128409   1.301   2.048   4.951 -0.1311 -1.9870 -0.2475
 5592SOL    HW228410   1.273   2.013   4.814 -2.1568  3.4237 -1.0493
 5593SOL     OW28411   0.585   1.766  11.185 -0.1254 -0.1898  0.1382
 5593SOL    HW128412   0.595   1.859  11.208 -1.8664  0.1845 -0.6413
 5593SOL    HW228413   0.655   1.724  11.235  0.1330 -0.8143 -0.7535
 5594SOL     OW28414   3.952   4.206  11.614  0.4698 -0.4748 -0.0861
 5594SOL    HW128415   3.922   4.116  11.620  1.0370 -0.9412 -4.0401
 5594SOL    HW228416   3.872   4.250  11.644  0.0890 -0.1356 -1.5797
 5595SOL     OW28417   3.632   4.535   8.046  0.3539 -0.3677 -0.1910
 5595SOL    HW128418   3.638   4.600   8.117  0.8044 -1.9670  1.2281
 5595SOL    HW228419   3.718   4.539   8.005  0.4351 -4.9376 -0.3721
 5596SOL     OW28420   1.236   1.711   1.418  0.2199 -0.2883  0.1417
 5596SOL    HW128421   1.304   1.739   1.356  1.1137 -1.5875  0.5403
 5596SOL    HW228422   1.280   1.725   1.502  3.9024 -0.3739 -1.7988
 5597SOL     OW28423   4.137   2.796   7.436 -0.3392  0.1071  0.4653
 5597SOL    HW128424   4.138   2.705   7.406 -3.1850  0.4578 -0.7637
 5597SOL    HW228425   4.133   2.794   7.531  0.9756  1.0032  0.5381
 5598SOL     OW28426   0.175   1.917  11.714 -0.0246  0.1568 -0.4967
 5598SOL    HW128427   0.180   2.011  11.732 -1.4220  0.4804 -1.7116
 5598SOL    HW228428   0.253   1.889  11.668  1.2459 -0.3120  1.9663
 5599SOL     OW28429   2.569   1.584  17.159 -0.3806 -0.0281  0.0836
 5599SOL    HW128430   2.655   1.546  17.144 -0.9942 -1.9206  1.3214
 5599SOL    HW228431   2.551   1.562  17.251  0.4378 -1.5211 -0.1149
 5600SOL     OW28432   0.055   1.253   5.686  0.3604 -0.8152 -0.3737
 5600SOL    HW128433   0.005   1.195   5.630  1.3663 -0.6419 -1.4545
 5600SOL    HW228434   0.131   1.197   5.702  0.9477 -0.0706 -0.5428
 5601SOL     OW28435   3.179   0.156   2.612 -0.0567 -0.8659  0.5335
 5601SOL    HW128436   3.196   0.150   2.706 -3.4134 -0.4292  1.2042
 5601SOL    HW228437   3.253   0.099   2.593  0.2932  0.0231 -0.7784
 5602SOL     OW28438   4.502   4.714   1.058 -0.2400  0.3815  0.2598
 5602SOL    HW128439   4.461   0.020   0.984  0.6679  0.8652  0.0481
 5602SOL    HW228440   4.502   0.037   1.132  2.2309 -1.2196  1.5914
 5603SOL     OW28441   4.161   0.035  12.203 -0.3866  0.1674  0.5114
 5603SOL    HW128442   4.226   0.106  12.210 -0.3645  0.1343  0.6465
 5603SOL    HW228443   4.075   0.077  12.201 -1.1073 -1.2835  1.3992
 5604SOL     OW28444   0.467   3.683  16.647 -0.0443  0.3896 -0.1870
 5604SOL    HW128445   0.494   3.758  16.594  2.0271  0.1357  0.5168
 5604SOL    HW228446   0.394   3.649  16.596 -1.1767 -0.7440  2.1954
 5605SOL     OW28447   3.451   2.142   6.480 -0.0600  0.1584  0.1648
 5605SOL    HW128448   3.506   2.146   6.559 -1.0586 -4.6774  1.1219
 5605SOL    HW228449   3.516   2.179   6.420  0.8868 -0.5085  0.7694
 5606SOL     OW28450   0.224   1.457   6.835  0.2054 -0.6047 -0.3408
 5606SOL    HW128451   0.318   1.474   6.836  0.7573 -3.4375 -2.8471
 5606SOL    HW228452   0.201   1.547   6.857  3.0019 -0.1962  0.9121
 5607SOL     OW28453   3.259   0.266   6.752 -0.5012  0.7566  0.1000
 5607SOL    HW128454   3.253   0.240   6.661 -0.7539  0.1294  0.2933
 5607SOL    HW228455   3.214   0.350   6.748 -0.2722  0.7844 -1.5644
 5608SOL     OW28456   0.985   4.453   8.921 -0.4546 -0.5790  0.2351
 5608SOL    HW128457   1.079   4.459   8.938 -0.2908 -0.0161 -0.8241
 5608SOL    HW228458   0.947   4.528   8.967 -0.2104 -0.3356  0.0442
 5609SOL     OW28459   2.879   1.577   6.104 -0.8283 -0.3562  0.0623
 5609SOL    HW128460   2.946   1.551   6.167 -0.1900 -0.2392 -0.5619
 5609SOL    HW228461   2.869   1.502   6.046  3.0796 -1.3233  0.6224
 5610SOL     OW28462   1.085   2.392   7.922 -0.2939 -0.6505  0.1342
 5610SOL    HW128463   1.101   2.311   7.971  0.6748  0.3514  1.4766
 5610SOL    HW228464   1.029   2.441   7.982  3.0337  1.8774  1.2016
 5611SOL     OW28465   3.203   1.550   3.054 -0.1064 -0.6817  0.2385
 5611SOL    HW128466   3.149   1.547   2.975  2.7508  1.8434 -1.8184
 5611SOL    HW228467   3.289   1.537   3.014  1.1427  0.5474  2.4905
 5612SOL     OW28468   2.031   0.453   5.631 -0.3415  0.4575  0.4616
 5612SOL    HW128469   2.064   0.463   5.721  0.9856  0.6285 -0.0460
 5612SOL    HW228470   2.089   0.382   5.604 -1.0493  0.4848 -1.1389
 5613SOL     OW28471   1.678   2.204   5.647  0.7164  0.0169 -0.4074
 5613SOL    HW128472   1.670   2.145   5.722  0.3224 -0.4860 -0.8431
 5613SOL    HW228473   1.721   2.147   5.584  2.1392 -0.1763  0.7550
 5614SOL     OW28474   3.453   1.204   0.948  0.0150  0.3696  0.0437
 5614SOL    HW128475   3.444   1.297   0.927 -1.6914  0.3388  0.6344
 5614SOL    HW228476   3.544   1.194   0.920  0.3577 -2.2237  2.0361
 5615SOL     OW28477   3.701   0.985   1.997 -0.0133  0.9437  0.3347
 5615SOL    HW128478   3.642   1.060   1.986 -1.3200  0.0205  1.0114
 5615SOL    HW228479   3.746   1.009   2.078  2.7429  0.1940 -0.9886
 5616SOL     OW28480   1.386   4.020  16.660  0.1046 -0.1020 -0.5338
 5616SOL    HW128481   1.378   3.967  16.739  1.9065 -1.3363 -1.2057
 5616SOL    HW228482   1.317   3.985  16.603  1.2316  0.0842 -2.0050
 5617SOL     OW28483   1.397   1.145   1.080 -0.0837  0.0389  0.3052
 5617SOL    HW128484   1.392   1.233   1.044  3.0566 -0.0530 -0.3787
 5617SOL    HW228485   1.302   1.135   1.091 -0.0727 -0.6883 -0.2390
 5618SOL     OW28486   2.361   2.675   3.517 -0.1395  0.4776  0.0759
 5618SOL    HW128487   2.347   2.703   3.427 -0.0602 -0.4313 -0.2158
 5618SOL    HW228488   2.316   2.747   3.563  0.2926  0.6090  0.2965
 5619SOL     OW28489   2.074   0.936   0.939 -1.0365  0.4803 -0.2412
 5619SOL    HW128490   2.041   0.925   0.849 -1.7086 -1.3766  0.2275
 5619SOL    HW228491   2.167   0.914   0.932 -1.4257 -0.7869 -1.4885
 5620SOL     OW28492   0.455   4.508   2.983 -0.0100  0.0513  0.1034
 5620SOL    HW128493   0.467   4.441   2.915  0.0487 -0.9402  1.0867
 5620SOL    HW228494   0.433   4.443   3.049 -0.4169  0.6377  0.5340
 5621SOL     OW28495   2.424   2.167   3.804  0.3277  0.4998  0.0134
 5621SOL    HW128496   2.441   2.208   3.889 -0.7448 -0.4948  0.7109
 5621SOL    HW228497   2.365   2.099   3.835  0.3545  1.2291  1.6612
 5622SOL     OW28498   2.075   0.475   2.054 -0.3445  0.1473 -0.1002
 5622SOL    HW128499   2.158   0.458   2.010 -0.7050  1.2611 -1.1870
 5622SOL    HW228500   2.090   0.423   2.133 -2.0607  1.8891  1.3914
 5623SOL     OW28501   2.159   4.631   6.711 -0.3138  0.1388 -0.2879
 5623SOL    HW128502   2.213   4.578   6.769  1.4843 -0.5132 -2.5422
 5623SOL    HW228503   2.205   4.623   6.627 -1.1860 -0.5110 -0.7161
 5624SOL     OW28504   0.436   1.392   0.509  0.6034 -0.2267 -0.0697
 5624SOL    HW128505   0.428   1.487   0.502  0.3833 -0.0177  2.8788
 5624SOL    HW228506   0.492   1.399   0.586 -0.2753  0.3147  0.5155
 5625SOL     OW28507   0.604   4.190  16.350 -0.4447  0.3179  0.1275
 5625SOL    HW128508   0.593   4.193  16.445 -3.3181  0.2887 -0.2097
 5625SOL    HW228509   0.534   4.133  16.319  0.3048 -0.2638 -0.4858
 5626SOL     OW28510   0.169   4.108   8.932 -0.3731  0.2699  0.3710
 5626SOL    HW128511   0.213   4.026   8.954  0.8201  0.6177 -0.7595
 5626SOL    HW228512   0.078   4.081   8.945 -0.2942 -0.4317 -0.5498
 5627SOL     OW28513   3.945   1.744   1.867 -0.0773 -0.1846  0.1001
 5627SOL    HW128514   4.005   1.778   1.800  0.6851 -1.9343 -0.0913
 5627SOL    HW228515   3.957   1.805   1.941  1.1881  0.8105 -0.9121
 5628SOL     OW28516   3.660   2.143  12.616  0.3653 -0.9627  0.2277
 5628SOL    HW128517   3.681   2.180  12.530  0.8144 -1.9078 -0.0697
 5628SOL    HW228518   3.718   2.195  12.672  1.5835 -1.0590 -0.9413
 5629SOL     OW28519   3.325   1.171   5.343  0.0257 -0.3220 -0.1665
 5629SOL    HW128520   3.387   1.112   5.301  0.7655  0.8809 -0.7688
 5629SOL    HW228521   3.338   1.161   5.437 -0.2071  1.8409  0.0929
 5630SOL     OW28522   3.300   0.976   7.851  0.4777 -0.1195 -0.2395
 5630SOL    HW128523   3.341   1.009   7.770  1.6722 -2.4396 -0.5866
 5630SOL    HW228524   3.318   0.883   7.838  3.4088  0.2800  0.7332
 5631SOL     OW28525   2.118   2.328  11.494  0.2307  1.3146 -0.0545
 5631SOL    HW128526   2.044   2.341  11.435 -0.3731  0.1579  0.4586
 5631SOL    HW228527   2.146   2.238  11.477 -1.0250  0.4580  2.4003
 5632SOL     OW28528   3.047   1.077  15.933 -0.4457  0.1455  0.1737
 5632SOL    HW128529   2.995   1.011  15.980 -0.1548  0.1396  0.4815
 5632SOL    HW228530   3.063   1.149  15.994  0.7101  1.0416 -1.1798
 5633SOL     OW28531   0.377   0.806   1.193  0.8878 -0.2120 -0.2698
 5633SOL    HW128532   0.395   0.712   1.194  1.0779 -0.1721 -0.0430
 5633SOL    HW228533   0.449   0.833   1.136  0.2181 -1.3746 -1.6757
 5634SOL     OW28534   0.057   0.800   3.930  0.3630  0.5149 -0.6774
 5634SOL    HW128535   4.723   0.738   3.926 -0.5620  1.7333 -2.6707
 5634SOL    HW228536   0.129   0.740   3.912  0.6515  1.0278 -1.2306
 5635SOL     OW28537   3.256   0.385   9.375 -0.2458 -0.1386 -0.1521
 5635SOL    HW128538   3.247   0.295   9.406  0.7275 -0.6427 -1.3324
 5635SOL    HW228539   3.186   0.378   9.310  0.0706  1.5045 -0.6758
 5636SOL     OW28540   2.597   4.523   6.493 -0.3384 -0.2495  0.3788
 5636SOL    HW128541   2.602   4.508   6.587 -1.6256  0.3717  0.5377
 5636SOL    HW228542   2.683   4.499   6.458 -0.7673  1.0594 -1.6023
 5637SOL     OW28543   3.885   4.339   1.097  0.3302 -0.1438 -0.1635
 5637SOL    HW128544   3.967   4.350   1.146  1.2577  0.9639 -1.9600
 5637SOL    HW228545   3.912   4.274   1.033  1.8827 -0.5760  0.9414
 5638SOL     OW28546   2.680   3.965   6.857  0.2633  0.4984  0.0305
 5638SOL    HW128547   2.706   4.011   6.937 -0.0816  0.7523 -0.0034
 5638SOL    HW228548   2.592   3.994   6.836  0.3634  0.1735 -0.8465
 5639SOL     OW28549   3.810   2.863   3.633  0.2558 -0.1490  0.2531
 5639SOL    HW128550   3.805   2.957   3.619  1.3248 -0.0691  0.4479
 5639SOL    HW228551   3.858   2.866   3.715  2.0752  3.4143 -0.9479
 5640SOL     OW28552   3.896   0.887   9.321 -0.2712  0.4236 -0.1258
 5640SOL    HW128553   3.985   0.859   9.301 -1.3400 -2.6895 -0.5386
 5640SOL    HW228554   3.847   0.823   9.269 -0.2970  0.9983 -0.8149
 5641SOL     OW28555   1.287   3.865   7.390 -0.0136 -0.7234  0.5773
 5641SOL    HW128556   1.327   3.907   7.466 -2.6635  1.7784  0.5610
 5641SOL    HW228557   1.306   3.774   7.415  0.1439 -0.4734  1.3482
 5642SOL     OW28558   0.547   1.657   2.883  0.5725  0.0285  0.0553
 5642SOL    HW128559   0.503   1.726   2.934  0.4737  2.2269 -2.9453
 5642SOL    HW228560   0.485   1.584   2.883 -1.1517  1.4648  0.5203
 5643SOL     OW28561   2.725   1.307   4.623  0.2133 -0.2700  0.4719
 5643SOL    HW128562   2.746   1.343   4.537 -0.4838  0.8385  0.7795
 5643SOL    HW228563   2.737   1.213   4.605  2.2290  0.0874  0.0586
 5644SOL     OW28564   3.577   4.166   5.557 -0.5208  0.6268 -0.6758
 5644SOL    HW128565   3.548   4.075   5.553  1.8050 -0.0813 -1.2536
 5644SOL    HW228566   3.530   4.203   5.482  1.0341  1.0984 -1.4158
 5645SOL     OW28567   0.653   0.181   7.138 -0.4507  0.0213  0.1424
 5645SOL    HW128568   0.738   0.179   7.093  1.4649  0.9283  3.7424
 5645SOL    HW228569   0.620   0.091   7.129  0.4240  0.0375 -3.4341
 5646SOL     OW28570   2.167   2.488   1.012 -0.2648  0.3473 -0.0325
 5646SOL    HW128571   2.167   2.582   1.029 -0.7455  0.5955 -1.3546
 5646SOL    HW228572   2.180   2.486   0.917  2.2859  1.6807  0.3001
 5647SOL     OW28573   0.241   4.737   6.503  0.1479  0.3997 -0.1142
 5647SOL    HW128574   0.248   4.673   6.573 -2.1662  0.0099 -0.2213
 5647SOL    HW228575   0.177   4.698   6.443  0.9039  2.2961 -2.1593
 5648SOL     OW28576   3.327   2.173   8.405  0.4380  0.0801 -0.1083
 5648SOL    HW128577   3.238   2.148   8.381  0.8237  1.4246 -2.8961
 5648SOL    HW228578   3.308   2.220   8.486 -0.3383  1.8585 -1.3398
 5649SOL     OW28579   0.147   3.809   3.099 -0.2200  0.8574  0.5907
 5649SOL    HW128580   0.178   3.802   3.189  1.7788 -0.1912 -0.1803
 5649SOL    HW228581   0.213   3.870   3.064 -0.6961  0.3358 -1.2456
 5650SOL     OW28582   1.221   1.228   2.378  0.4765 -0.0390  0.0296
 5650SOL    HW128583   1.309   1.240   2.342 -0.2724 -0.3482 -1.9071
 5650SOL    HW228584   1.227   1.285   2.455 -0.7202 -1.5554  1.2576
 5651SOL     OW28585   1.907   1.269   7.979 -0.1938 -0.3584 -0.3114
 5651SOL    HW128586   1.862   1.292   8.061  1.9834 -2.4134  1.4885
 5651SOL    HW228587   1.835   1.222   7.937  0.2492 -0.2247 -1.2143
 5652SOL     OW28588   1.723   0.290   6.079 -0.0606 -0.7387 -0.0931
 5652SOL    HW128589   1.670   0.366   6.056  0.8275 -0.0490  0.1551
 5652SOL    HW228590   1.702   0.226   6.011  1.5867 -0.7743 -0.5608
 5653SOL     OW28591   3.558   3.790   3.145 -0.0304  0.4747 -0.2116
 5653SOL    HW128592   3.469   3.801   3.110  0.5083 -0.6021 -1.9155
 5653SOL    HW228593   3.541   3.717   3.204 -0.3681  0.3405 -0.4736
 5654SOL     OW28594   2.067   2.798   7.297  0.2529 -0.4262  0.1195
 5654SOL    HW128595   2.096   2.882   7.334 -1.8254 -0.3360  1.5286
 5654SOL    HW228596   2.128   2.795   7.223 -1.5257  1.8562 -1.4387
 5655SOL     OW28597   4.338   4.565   7.946 -0.2786  0.0108  0.4578
 5655SOL    HW128598   4.433   4.566   7.959 -0.3362 -1.2882  1.0240
 5655SOL    HW228599   4.319   4.473   7.964 -1.8848  0.7047  2.3610
 5656SOL     OW28600   1.360   1.485   6.905  0.0929 -0.4516  0.0381
 5656SOL    HW128601   1.333   1.565   6.860  1.5022  0.0393  0.0653
 5656SOL    HW228602   1.425   1.521   6.967  1.2488 -0.3585 -1.2233
 5657SOL     OW28603   4.701   2.841  13.226 -0.2091 -0.2787 -0.0208
 5657SOL    HW128604   4.707   2.785  13.304 -0.5755 -1.4458 -0.8293
 5657SOL    HW228605   0.026   2.911  13.237 -0.4953 -0.0848  0.3979
 5658SOL     OW28606   3.076   2.793   3.143  0.3937  0.1056  0.4508
 5658SOL    HW128607   3.129   2.721   3.109  1.7449  1.3310 -0.0411
 5658SOL    HW228608   3.147   2.852   3.169 -0.8561  1.9981 -0.4509
 5659SOL     OW28609   1.430   3.881   2.683  0.0848 -0.0800 -0.4115
 5659SOL    HW128610   1.440   3.960   2.629  1.8462 -0.3365 -0.4665
 5659SOL    HW228611   1.350   3.848   2.642 -0.3717  0.4717  0.0389
 5660SOL     OW28612   2.474   1.833   4.553  0.4428  0.2347 -0.1323
 5660SOL    HW128613   2.515   1.913   4.521 -1.5041  2.0841  1.9828
 5660SOL    HW228614   2.506   1.769   4.489 -1.2740  0.0199 -0.7793
 5661SOL     OW28615   0.997   1.097   3.615  0.0852  0.3327 -0.1267
 5661SOL    HW128616   1.022   1.071   3.526  0.2470  0.4662 -0.1202
 5661SOL    HW228617   1.084   1.115   3.650  0.1875 -0.7495  0.1572
 5662SOL     OW28618   3.669   1.076   4.632 -0.1071  0.0609 -0.3316
 5662SOL    HW128619   3.735   1.010   4.653  0.9218  0.9768 -0.6926
 5662SOL    HW228620   3.592   1.022   4.618 -0.6855  0.2361  2.2158
 5663SOL     OW28621   0.292   4.235  13.719 -0.0801 -0.3548  0.1165
 5663SOL    HW128622   0.266   4.327  13.720 -0.6430 -0.5272  1.0232
 5663SOL    HW228623   0.334   4.225  13.804 -1.1009 -1.4768  0.5022
 5664SOL     OW28624   4.653   0.910   8.966 -0.3544 -0.5528  0.2412
 5664SOL    HW128625   4.715   0.918   9.039  0.4270 -1.8365 -0.2801
 5664SOL    HW228626   4.704   0.925   8.886  2.1915  1.7401  2.3051
 5665SOL     OW28627   3.519   2.798   7.948  0.1707  0.2223 -0.4133
 5665SOL    HW128628   3.539   2.771   7.859 -0.5129  0.1707 -0.5552
 5665SOL    HW228629   3.454   2.865   7.924 -1.2442 -0.7606  0.6901
 5666SOL     OW28630   1.786   3.047   3.490 -0.2164  0.1699 -0.5029
 5666SOL    HW128631   1.742   2.976   3.443 -2.7144  1.9278 -0.8211
 5666SOL    HW228632   1.707   3.100   3.496  0.4461  1.0962 -0.0066
 5667SOL     OW28633   4.698   0.591   6.549 -0.3353 -1.0065  0.2723
 5667SOL    HW128634   4.656   0.627   6.627  0.1751  1.3167 -0.5441
 5667SOL    HW228635   4.668   0.500   6.550  1.3573 -1.5457  2.7201
 5668SOL     OW28636   1.414   2.838   5.919  0.3012  0.5637  0.0917
 5668SOL    HW128637   1.408   2.844   5.824 -0.8461  1.8006  0.2439
 5668SOL    HW228638   1.388   2.927   5.943 -0.6204 -0.3776  2.6324
 5669SOL     OW28639   1.280   3.277   3.164 -0.2324  0.2675 -0.1677
 5669SOL    HW128640   1.227   3.357   3.158  0.3591  0.7463  1.0989
 5669SOL    HW228641   1.341   3.307   3.231 -1.5945  2.0885  0.2882
 5670SOL     OW28642   2.902   0.792   5.536 -0.2410 -0.7494  0.4260
 5670SOL    HW128643   2.893   0.770   5.444 -0.8321 -1.3875  0.6345
 5670SOL    HW228644   2.926   0.708   5.575 -0.3028 -1.1475 -0.3978
 5671SOL     OW28645   0.338   2.988   1.520 -0.8092 -0.0169  0.2335
 5671SOL    HW128646   0.372   2.929   1.453 -0.8757  0.8370 -0.5412
 5671SOL    HW228647   0.417   3.007   1.572 -1.3405 -0.9183  1.3705
 5672SOL     OW28648   0.011   0.376   5.485 -0.0497  0.3333  0.2319
 5672SOL    HW128649   0.015   0.403   5.393  1.2297 -1.6177 -0.2880
 5672SOL    HW228650   0.069   0.299   5.485  0.0481  0.4061  0.2509
 5673SOL     OW28651   4.546   4.397   4.550 -0.3704  0.4283 -0.5471
 5673SOL    HW128652   4.474   4.418   4.611 -1.3132 -1.8252 -0.8787
 5673SOL    HW228653   4.538   4.302   4.561 -0.2619  0.1751 -2.7888
 5674SOL     OW28654   0.513   3.383   3.603  0.1083 -0.3865 -0.8967
 5674SOL    HW128655   0.571   3.333   3.661  0.5942  0.7170 -0.4375
 5674SOL    HW228656   0.477   3.449   3.661 -0.2282 -0.3848 -1.1082
 5675SOL     OW28657   3.601   2.693   8.222 -0.1606  0.3301 -0.1360
 5675SOL    HW128658   3.578   2.739   8.141 -1.0350  0.0345 -0.0520
 5675SOL    HW228659   3.632   2.766   8.274 -1.4421  0.7180  0.0814
 5676SOL     OW28660   3.148   0.031   5.783 -0.2304 -0.6184 -0.3973
 5676SOL    HW128661   3.100   0.020   5.865  2.0242  1.5657  1.2298
 5676SOL    HW228662   3.080   0.022   5.717 -0.3506  0.3886 -0.4159
 5677SOL     OW28663   4.383   4.310   5.760  0.2781  0.2029  0.4776
 5677SOL    HW128664   4.381   4.390   5.812 -1.4854 -0.2189  1.0520
 5677SOL    HW228665   4.401   4.357   5.678  0.8688  2.1529  1.7307
 5678SOL     OW28666   3.556   1.904  12.217  0.2455 -0.3038  0.4392
 5678SOL    HW128667   3.547   1.992  12.254 -1.3442  1.4483 -4.1524
 5678SOL    HW228668   3.651   1.901  12.207  0.2071  1.9463 -0.4958
 5679SOL     OW28669   1.075   1.846   4.128  0.1668 -0.4193 -0.0431
 5679SOL    HW128670   1.076   1.911   4.058 -1.8964  0.3031  0.6222
 5679SOL    HW228671   1.120   1.776   4.080  0.6930  0.7873 -1.3204
 5680SOL     OW28672   4.135   2.094   8.747 -0.1740  0.7763 -0.3944
 5680SOL    HW128673   4.203   2.059   8.804  1.8652  2.4287 -1.8212
 5680SOL    HW228674   4.064   2.031   8.764  0.4784 -0.1546 -1.0842
 5681SOL     OW28675   3.398   3.404   3.994  0.1704 -0.2102 -0.2838
 5681SOL    HW128676   3.431   3.395   4.084  0.0733 -0.1468 -0.2413
 5681SOL    HW228677   3.340   3.328   3.984 -0.1668  0.2612 -1.7940
 5682SOL     OW28678   4.401   1.847   6.880  0.2932 -0.3643  0.4821
 5682SOL    HW128679   4.441   1.905   6.945 -0.1478 -2.3826  2.5370
 5682SOL    HW228680   4.436   1.881   6.798 -0.0573  1.4990  1.1009
 5683SOL     OW28681   2.502   0.905  17.031  0.1834  1.0196  0.0478
 5683SOL    HW128682   2.502   1.001  17.038  0.1518  1.0478 -0.3893
 5683SOL    HW228683   2.584   0.891  17.078 -0.0792 -0.7530 -0.0305
 5684SOL     OW28684   1.281   3.858   8.574 -0.3350  0.0328 -0.2480
 5684SOL    HW128685   1.223   3.850   8.499 -1.2134  2.9856  0.0819
 5684SOL    HW228686   1.362   3.821   8.540 -0.8672 -0.5106 -0.9261
 5685SOL     OW28687   3.948   1.027  17.717  0.0693  0.5327 -0.4121
 5685SOL    HW128688   4.011   1.084  17.674  0.5275  1.1199  1.0122
 5685SOL    HW228689   3.949   1.053   0.056 -2.1900 -0.8490 -0.0107
 5686SOL     OW28690   1.210   3.919  16.472 -0.0430  0.4258 -0.3804
 5686SOL    HW128691   1.117   3.904  16.490 -0.2715 -0.3644 -2.1319
 5686SOL    HW228692   1.185   3.993  16.416 -0.8285  0.6941  0.3229
 5687SOL     OW28693   3.736   4.347   5.901 -0.6156  0.3355  0.0796
 5687SOL    HW128694   3.814   4.294   5.885  1.0669  2.8955 -0.3288
 5687SOL    HW228695   3.782   4.427   5.927  1.0649 -0.3732 -0.7606
 5688SOL     OW28696   3.160   0.911  10.546 -0.3101  0.2934  0.5197
 5688SOL    HW128697   3.144   0.965  10.623 -0.5405  0.5895  0.2651
 5688SOL    HW228698   3.073   0.885  10.516  0.1755 -0.4060 -0.2851
 5689SOL     OW28699   3.744   3.434   5.677  0.0299  0.0139 -0.4120
 5689SOL    HW128700   3.730   3.423   5.583 -4.3524 -0.6765  0.3056
 5689SOL    HW228701   3.833   3.468   5.677  0.6741 -1.6992  0.6936
 5690SOL     OW28702   0.552   1.009   8.600  0.1946  0.2216 -0.2427
 5690SOL    HW128703   0.607   1.037   8.672  0.2758 -1.1578  0.2436
 5690SOL    HW228704   0.543   0.916   8.623 -0.2095  0.4450  0.4765
 5691SOL     OW28705   2.755   2.599  16.856  0.3621 -0.4560  0.7072
 5691SOL    HW128706   2.819   2.653  16.809 -1.1288 -0.6256 -1.5235
 5691SOL    HW228707   2.818   2.560  16.917  0.6165 -0.9648  0.1122
 5692SOL     OW28708   4.047   3.136   2.899  0.4727 -0.2392 -0.2135
 5692SOL    HW128709   4.077   3.117   2.988  1.0014  0.1192 -0.3132
 5692SOL    HW228710   3.993   3.058   2.887  0.6630 -0.5817  1.2379
 5693SOL     OW28711   2.707   4.219   2.050 -0.3573 -0.2834 -0.5412
 5693SOL    HW128712   2.613   4.215   2.070  0.1320 -0.7046  1.7102
 5693SOL    HW228713   2.707   4.305   2.092  0.9569 -1.0493  1.0345
 5694SOL     OW28714   2.332   2.527  15.987  0.8001  0.0112  0.2810
 5694SOL    HW128715   2.336   2.460  15.919  0.7001  2.4874 -2.2030
 5694SOL    HW228716   2.242   2.518  16.019  0.9467  3.9826  1.7912
 5695SOL     OW28717   3.976   2.167  15.325 -0.1295 -0.1606 -0.2476
 5695SOL    HW128718   3.955   2.219  15.402  1.1594 -1.0612  0.7162
 5695SOL    HW228719   4.070   2.187  15.326 -0.3960  0.9871  1.1036
 5696SOL     OW28720   0.489   1.172   3.298  0.2262 -0.5976  0.1774
 5696SOL    HW128721   0.429   1.170   3.223 -0.0042 -0.8953  0.3738
 5696SOL    HW228722   0.481   1.080   3.323 -0.1276  0.2656  3.1848
 5697SOL     OW28723   1.530   1.457   3.099  0.2591 -0.2765  0.1980
 5697SOL    HW128724   1.451   1.500   3.131  0.1425  0.3865 -0.9792
 5697SOL    HW228725   1.561   1.391   3.161 -0.6290 -2.8853 -2.1105
 5698SOL     OW28726   0.031   1.340   4.047 -0.0209 -0.1877  0.2470
 5698SOL    HW128727   4.676   1.345   4.030  0.3971  1.9932 -1.5801
 5698SOL    HW228728   0.037   1.412   4.110 -0.3259  0.4492 -0.4551
 5699SOL     OW28729   1.461   1.279   4.398  0.4190  0.1993 -0.1360
 5699SOL    HW128730   1.533   1.333   4.365  0.4165  0.5811  0.4745
 5699SOL    HW228731   1.448   1.320   4.483  0.0270  0.7659 -0.4680
 5700SOL     OW28732   3.008   0.878   2.229 -0.5605  0.3188 -0.6162
 5700SOL    HW128733   2.964   0.852   2.148  0.9131  1.3728 -1.7543
 5700SOL    HW228734   3.100   0.876   2.202 -0.6420  1.1172 -0.9523
 5701SOL     OW28735   2.166   4.448   5.323  0.6191 -0.1305  0.1721
 5701SOL    HW128736   2.073   4.471   5.323  1.2611  2.4414  0.0593
 5701SOL    HW228737   2.203   4.526   5.363 -0.0077 -0.2832  1.0501
 5702SOL     OW28738   3.604   4.264   2.308  0.0329 -0.1784  0.1295
 5702SOL    HW128739   3.569   4.351   2.287  1.0231  0.3419  0.6756
 5702SOL    HW228740   3.530   4.231   2.359 -0.5136  0.9321  0.0381
 5703SOL     OW28741   4.537   2.281   1.560  0.2770  0.5058 -0.3175
 5703SOL    HW128742   4.454   2.311   1.595  0.2131 -0.2398  0.1770
 5703SOL    HW228743   4.528   2.185   1.561  3.9890  0.1338 -0.8263
 5704SOL     OW28744   1.919   1.507   4.518  0.8987 -0.0624  0.5714
 5704SOL    HW128745   1.925   1.602   4.513 -0.3328  0.0412  1.0541
 5704SOL    HW228746   1.885   1.496   4.607  2.4055 -3.2618  0.7526
 5705SOL     OW28747   2.356   4.569   1.089 -0.1717 -0.1041  0.0075
 5705SOL    HW128748   2.263   4.569   1.112  0.0712  2.9255  0.9304
 5705SOL    HW228749   2.385   4.603   1.174  2.1595 -2.2178  0.0738
 5706SOL     OW28750   3.596   1.235   2.081  0.1818  0.2896 -0.3766
 5706SOL    HW128751   3.635   1.316   2.113  0.7812  0.5296 -1.7082
 5706SOL    HW228752   3.551   1.262   2.001  0.0650  2.1088  0.3017
 5707SOL     OW28753   2.720   0.143   9.819  0.1230 -0.1110  0.5398
 5707SOL    HW128754   2.724   0.233   9.850 -2.0883  0.1066  0.2037
 5707SOL    HW228755   2.801   0.103   9.849 -0.0942 -2.1700 -1.6287
 5708SOL     OW28756   0.713   4.137   6.483  0.1639 -0.1333  0.2302
 5708SOL    HW128757   0.685   4.220   6.445 -1.2419 -0.9191 -0.4534
 5708SOL    HW228758   0.655   4.075   6.439  0.7406 -1.2775  1.0648
 5709SOL     OW28759   4.706   1.456   2.105 -0.1526 -0.2207  0.0006
 5709SOL    HW128760   0.036   1.426   2.164  1.8710 -1.3995 -2.9413
 5709SOL    HW228761   4.656   1.374   2.109 -1.8869  0.8838  1.0270
 5710SOL     OW28762   0.697   1.129   5.961  0.1720 -0.3418 -0.4542
 5710SOL    HW128763   0.762   1.087   6.017 -0.2099 -0.6888 -0.2728
 5710SOL    HW228764   0.697   1.216   6.002  1.3757 -1.8489  2.7457
 5711SOL     OW28765   0.800   0.098  13.102 -0.4617  0.6241 -0.1572
 5711SOL    HW128766   0.727   0.106  13.041 -1.9130 -1.8327  1.2427
 5711SOL    HW228767   0.872   0.052  13.059 -0.6062  2.4699 -2.3847
 5712SOL     OW28768   4.303   3.691   9.594 -0.2508 -0.0521 -0.8145
 5712SOL    HW128769   4.281   3.657   9.681 -1.1548  0.8961 -0.6655
 5712SOL    HW228770   4.388   3.652   9.574 -0.2194 -1.7589  2.6182
 5713SOL     OW28771   0.230   2.054   5.617 -0.0106 -0.3515  0.1141
 5713SOL    HW128772   0.160   2.041   5.552  0.8772  2.0033 -1.3051
 5713SOL    HW228773   0.270   2.137   5.593  0.1854 -0.5000 -0.0743
 5714SOL     OW28774   4.021   1.134   3.827 -0.0301  0.1394 -0.3949
 5714SOL    HW128775   4.040   1.167   3.915  0.6563 -2.4218  0.4103
 5714SOL    HW228776   3.928   1.114   3.839  0.1041 -1.2391 -1.6413
 5715SOL     OW28777   1.456   1.351   9.496 -0.7047 -0.7023 -0.5709
 5715SOL    HW128778   1.390   1.285   9.515 -0.8317 -0.5302 -0.4085
 5715SOL    HW228779   1.425   1.377   9.409 -0.5743 -0.6548 -0.6032
 5716SOL     OW28780   2.462   3.081   8.443  0.3485  0.4803  0.1485
 5716SOL    HW128781   2.414   3.141   8.500 -0.7593 -2.3752  2.2233
 5716SOL    HW228782   2.534   3.142   8.423 -0.6259  1.2474 -0.9679
 5717SOL     OW28783   4.109   3.740   6.105  0.6220  0.2721 -0.7467
 5717SOL    HW128784   4.156   3.753   6.188 -0.3010 -2.7507  0.2401
 5717SOL    HW228785   4.165   3.675   6.063  0.9409  1.3460 -1.9669
 5718SOL     OW28786   0.575   2.214   5.700 -0.2224 -0.2287  0.3192
 5718SOL    HW128787   0.515   2.219   5.775 -1.2344  2.3339 -0.6545
 5718SOL    HW228788   0.507   2.217   5.633  0.2180 -0.0654 -0.1210
 5719SOL     OW28789   1.934   1.915   4.468  0.0912 -0.5834  0.4503
 5719SOL    HW128790   1.980   1.950   4.544 -0.6182 -0.9054  1.0284
 5719SOL    HW228791   1.883   1.987   4.433 -0.2303 -0.7451  0.5885
 5720SOL     OW28792   0.502   4.010   6.392  0.1027  0.0806  0.0260
 5720SOL    HW128793   0.493   3.918   6.416 -0.6269 -0.2435 -1.4400
 5720SOL    HW228794   0.435   4.010   6.323 -0.3305  1.1993  0.4350
 5721SOL     OW28795   0.084   4.523   4.630  0.3714 -0.6847 -0.6511
 5721SOL    HW128796   0.020   4.454   4.612 -0.9016  0.3051  0.0549
 5721SOL    HW228797   0.137   4.479   4.696  0.1145 -1.3626 -0.8925
 5722SOL     OW28798   1.382   0.254   4.231  0.1314  0.1738 -0.4083
 5722SOL    HW128799   1.460   0.290   4.273  2.0270 -1.5201 -2.4581
 5722SOL    HW228800   1.413   0.211   4.152 -0.8512 -0.6670 -0.3478
 5723SOL     OW28801   3.254   1.995   1.279  0.0457 -0.0176 -0.0816
 5723SOL    HW128802   3.298   2.078   1.296  0.6038 -0.8757  2.7130
 5723SOL    HW228803   3.322   1.953   1.226 -0.2433 -2.0226  1.1398
 5724SOL     OW28804   4.486   3.376   0.228 -0.4943 -0.7925  0.2041
 5724SOL    HW128805   4.468   3.446   0.165 -1.1137 -0.3089  0.9345
 5724SOL    HW228806   4.503   3.435   0.301  2.6291 -1.0497 -0.3104
 5725SOL     OW28807   0.998   2.568   9.072 -0.7087  0.5869 -0.0475
 5725SOL    HW128808   1.092   2.556   9.064 -0.5152  0.8275  1.8870
 5725SOL    HW228809   0.973   2.635   9.008  1.5113  1.8934  0.4742
 5726SOL     OW28810   1.432   3.952   7.981  0.9046 -0.2118  0.4544
 5726SOL    HW128811   1.405   3.886   7.916 -1.5004  0.7831  0.4256
 5726SOL    HW228812   1.523   3.929   7.996  1.0633 -1.0890 -1.8183
 5727SOL     OW28813   4.680   3.042  10.531  0.0351 -0.4752  0.3978
 5727SOL    HW128814   4.645   2.979  10.595  0.5220 -0.4551  0.6822
 5727SOL    HW228815   4.679   3.125  10.578 -0.3594  0.9540 -2.1535
 5728SOL     OW28816   3.416   2.973   4.909  0.0543 -1.0582  0.3161
 5728SOL    HW128817   3.424   2.878   4.919  2.7185 -0.9527 -0.9431
 5728SOL    HW228818   3.355   2.972   4.835  3.3025  1.3061 -2.3544
 5729SOL     OW28819   0.588   3.018  12.371 -0.0619  0.4870 -0.4464
 5729SOL    HW128820   0.595   2.994  12.463  1.4181 -1.6483 -1.1033
 5729SOL    HW228821   0.554   2.937  12.334 -0.6857  0.3500  0.4340
 5730SOL     OW28822   0.399   4.424  11.020 -0.2064 -0.6808  0.1676
 5730SOL    HW128823   0.358   4.460  11.100  0.1022 -0.2215  0.1193
 5730SOL    HW228824   0.483   4.469  11.023 -0.4156 -0.2785 -0.0090
 5731SOL     OW28825   2.383   2.761   6.849 -0.1411  0.1188 -0.2991
 5731SOL    HW128826   2.459   2.750   6.905  0.8277  0.1295 -1.6004
 5731SOL    HW228827   2.394   2.709   6.769 -0.6296  0.4409 -0.5811
 5732SOL     OW28828   1.959   0.791  14.360 -0.7304  0.2711 -0.0604
 5732SOL    HW128829   1.869   0.820  14.350 -1.1158 -0.6377  0.6657
 5732SOL    HW228830   1.951   0.708  14.313 -0.5382  0.9071 -1.1953
 5733SOL     OW28831   0.463   2.494  13.325  0.6155  0.1551  0.4805
 5733SOL    HW128832   0.433   2.483  13.415  0.0041  0.1756  0.2835
 5733SOL    HW228833   0.378   2.493  13.281 -0.0020  2.1523  1.6443
 5734SOL     OW28834   0.576   1.111   2.100 -0.6094 -0.0681 -0.0384
 5734SOL    HW128835   0.510   1.180   2.107 -0.0946  0.3383  0.7843
 5734SOL    HW228836   0.539   1.045   2.041  0.1463 -0.2045 -0.3660
 5735SOL     OW28837   0.289   4.657   2.783  0.4139  0.3481  0.2057
 5735SOL    HW128838   0.213   4.711   2.807  0.2817  0.6761 -0.9356
 5735SOL    HW228839   0.313   4.627   2.871  3.1712  1.2929 -0.2351
 5736SOL     OW28840   3.207   2.030   2.870  0.0482 -0.6759 -0.2039
 5736SOL    HW128841   3.173   1.957   2.817 -0.9099 -0.8638  0.6542
 5736SOL    HW228842   3.267   1.980   2.925 -1.8234  0.9217  3.2751
 5737SOL     OW28843   4.145   4.232   2.388  0.6429  0.2545  0.2462
 5737SOL    HW128844   4.050   4.237   2.399  0.7504  0.0373  1.3176
 5737SOL    HW228845   4.152   4.141   2.358  2.4774  0.5225 -0.1790
 5738SOL     OW28846   2.580   3.097   8.072 -0.3689 -0.0421  0.4772
 5738SOL    HW128847   2.616   3.022   8.118  1.4407  0.0038 -0.8584
 5738SOL    HW228848   2.622   3.168   8.120  1.6633 -0.5605 -0.5198
 5739SOL     OW28849   1.591   4.023  11.880 -0.0742  0.2348  0.2310
 5739SOL    HW128850   1.510   3.982  11.910 -0.2376  0.5436  0.2087
 5739SOL    HW228851   1.644   3.947  11.855  0.1318  0.5988 -0.4650
 5740SOL     OW28852   0.513   2.025  17.389 -0.0176  0.3977 -0.4659
 5740SOL    HW128853   0.580   1.987  17.332  0.2058 -1.5673  1.1162
 5740SOL    HW228854   0.442   1.967  17.364  0.8845 -0.1666 -1.7296
 5741SOL     OW28855   3.847   1.069   2.986 -0.2392  0.4476  0.6264
 5741SOL    HW128856   3.903   0.992   2.974 -0.2638  0.5556 -0.1855
 5741SOL    HW228857   3.913   1.131   3.016 -0.5515  0.9971  0.1794
 5742SOL     OW28858   3.653   1.516   2.132  0.5319 -0.0444 -0.4258
 5742SOL    HW128859   3.565   1.544   2.157  0.3577 -0.4823 -0.5602
 5742SOL    HW228860   3.667   1.576   2.059  1.8094 -1.3285 -1.2227
 5743SOL     OW28861   3.448   3.122   7.548  0.0195  0.3220 -0.2286
 5743SOL    HW128862   3.438   3.126   7.643 -0.2800  0.2570 -0.2587
 5743SOL    HW228863   3.488   3.036   7.536  1.8028  0.4034  5.0323
 5744SOL     OW28864   1.902   2.912  12.308 -0.4674 -0.0743  0.4367
 5744SOL    HW128865   1.959   2.962  12.250  0.1083  1.2664  2.1242
 5744SOL    HW228866   1.956   2.834  12.323  3.1844  2.2926 -0.3473
 5745SOL     OW28867   1.772   4.471  14.941  0.1726 -0.2598  0.0117
 5745SOL    HW128868   1.721   4.514  14.872  0.7447  0.8110  0.2663
 5745SOL    HW228869   1.842   4.428  14.893 -0.7450 -1.3494 -0.3606
 5746SOL     OW28870   3.582   3.842   3.942  0.1996  0.1280 -0.0778
 5746SOL    HW128871   3.492   3.813   3.933  0.1497  0.9172 -2.3097
 5746SOL    HW228872   3.578   3.931   3.906 -1.3491  0.5011  1.0252
 5747SOL     OW28873   2.930   3.715   5.104  0.4638  0.4613 -0.3927
 5747SOL    HW128874   2.877   3.788   5.073 -0.3092  0.4187  0.8265
 5747SOL    HW228875   2.940   3.741   5.196 -1.3427  0.5059 -0.2054
 5748SOL     OW28876   0.783   2.061  10.151  0.7521 -0.0566 -0.2174
 5748SOL    HW128877   0.768   2.059  10.246 -0.4342 -1.7300 -0.4437
 5748SOL    HW228878   0.724   2.132  10.127  0.9677  0.5160  0.9214
 5749SOL     OW28879   3.988   4.207   5.573 -0.6113  0.8069 -0.1849
 5749SOL    HW128880   3.989   4.188   5.667  0.8137  0.3143 -0.2934
 5749SOL    HW228881   4.059   4.150   5.542 -1.1167 -0.5646  1.1675
 5750SOL     OW28882   1.765   4.674   9.545  0.4302  0.0445 -0.0028
 5750SOL    HW128883   1.727   4.728   9.614 -0.1216 -1.1534  0.6188
 5750SOL    HW228884   1.782   4.592   9.591  2.2449  0.8447  0.7797
 5751SOL     OW28885   1.748   2.223   3.048 -0.2355 -0.2311 -0.4101
 5751SOL    HW128886   1.755   2.252   2.957  0.9457  0.9834  0.0635
 5751SOL    HW228887   1.832   2.243   3.089  0.8041 -0.5996 -2.3618
 5752SOL     OW28888   1.348   4.540   1.927  0.6392  0.1730 -0.3458
 5752SOL    HW128889   1.260   4.508   1.906  0.0522  0.8368  1.0640
 5752SOL    HW228890   1.329   4.630   1.953  2.1709  0.3300  0.2301
 5753SOL     OW28891   0.797   4.085   4.059  0.0580 -0.2216  0.0350
 5753SOL    HW128892   0.722   4.110   4.112 -0.3190 -1.3327  0.0279
 5753SOL    HW228893   0.814   4.006   4.109 -1.1575 -0.1378  0.5842
 5754SOL     OW28894   1.777   3.770   0.464 -0.2913  0.4723  0.5115
 5754SOL    HW128895   1.703   3.737   0.514 -2.1104 -1.6088 -3.5823
 5754SOL    HW228896   1.815   3.687   0.437 -0.6581  0.6510 -0.5562
 5755SOL     OW28897   2.273   0.805  14.784 -0.2629 -0.4613  0.1231
 5755SOL    HW128898   2.185   0.828  14.752 -0.7789  0.6675  2.3450
 5755SOL    HW228899   2.304   0.880  14.835 -1.9833  0.9859 -0.9687
 5756SOL     OW28900   4.728   2.046   8.492 -0.0321 -0.3331  0.2624
 5756SOL    HW128901   4.701   2.133   8.462 -1.1532 -1.3292 -1.5665
 5756SOL    HW228902   0.048   2.068   8.565  0.9404  0.8476 -0.8888
 5757SOL     OW28903   2.001   1.961   7.386  0.3065  0.5923 -0.6136
 5757SOL    HW128904   1.988   1.982   7.479 -2.8433  3.1510 -1.6443
 5757SOL    HW228905   2.084   2.008   7.379 -0.6151  2.1474 -0.9224
 5758SOL     OW28906   1.863   3.918   3.205  0.4828  0.6121  0.6116
 5758SOL    HW128907   1.883   3.939   3.297  0.9083 -2.4430  1.2242
 5758SOL    HW228908   1.767   3.921   3.211  0.3820  0.9755 -1.2934
 5759SOL     OW28909   1.333   1.261   7.216 -0.6819 -0.5210  0.1064
 5759SOL    HW128910   1.303   1.297   7.300 -1.6238 -1.7669  0.3168
 5759SOL    HW228911   1.260   1.211   7.178  1.6265 -2.9242 -1.1150
 5760SOL     OW28912   3.460   2.499   7.120 -0.2136  0.3168  0.5814
 5760SOL    HW128913   3.507   2.560   7.177  0.8102 -0.2459  0.3281
 5760SOL    HW228914   3.532   2.439   7.102 -0.2805  0.4172 -0.0115
 5761SOL     OW28915   4.113   2.462  15.168  0.6760  0.1639  0.1506
 5761SOL    HW128916   4.196   2.432  15.132  1.0943  2.0216 -0.4532
 5761SOL    HW228917   4.121   2.441  15.261  0.4324 -1.7038 -0.2464
 5762SOL     OW28918   3.922   2.933  17.211 -0.5905  0.4742 -0.2541
 5762SOL    HW128919   3.986   2.984  17.161  2.3780 -2.3743  0.6544
 5762SOL    HW228920   3.848   2.992  17.197 -0.0433  0.8520 -1.5390
 5763SOL     OW28921   2.377   0.632   6.892  0.1434 -0.1112 -0.0060
 5763SOL    HW128922   2.385   0.664   6.982 -3.1899  1.6915 -0.3471
 5763SOL    HW228923   2.438   0.559   6.894 -1.7184 -1.6822 -1.1916
 5764SOL     OW28924   2.226   0.237  17.283 -0.0514  0.2640  0.1415
 5764SOL    HW128925   2.315   0.202  17.288 -0.7740 -1.4467  1.1820
 5764SOL    HW228926   2.180   0.164  17.241 -1.2559  1.7595 -1.0948
 5765SOL     OW28927   3.348   0.247   5.879  0.3089 -0.4785 -0.1366
 5765SOL    HW128928   3.317   0.189   5.809 -0.2241 -2.2734  1.5976
 5765SOL    HW228929   3.280   0.315   5.876 -0.2828 -0.9864  1.6971
 5766SOL     OW28930   1.889   4.475   2.109  0.7312  0.6842 -0.6007
 5766SOL    HW128931   1.963   4.535   2.121 -0.5514  1.8787  1.3266
 5766SOL    HW228932   1.929   4.413   2.048  1.9750  0.1825  0.6985
 5767SOL     OW28933   0.597   4.175   7.325 -0.0923  0.8849  0.3916
 5767SOL    HW128934   0.507   4.146   7.343 -0.0064  0.0651 -0.5025
 5767SOL    HW228935   0.637   4.090   7.311  0.3707  1.1808 -0.0704
 5768SOL     OW28936   1.258   4.164   1.186  0.4147 -0.0409 -0.3100
 5768SOL    HW128937   1.272   4.151   1.279  1.3682  1.1002 -0.2890
 5768SOL    HW228938   1.278   4.258   1.185  1.1840 -0.2076 -0.6532
 5769SOL     OW28939   2.891   4.538  10.721 -0.9320  0.1504 -0.8698
 5769SOL    HW128940   2.899   4.443  10.712  0.8485  0.3594 -1.6010
 5769SOL    HW228941   2.804   4.546  10.759  0.9306  4.2514  2.4241
 5770SOL     OW28942   0.332   2.593   7.309 -0.1398  0.1232 -0.2140
 5770SOL    HW128943   0.345   2.677   7.264  3.3878 -2.2564 -3.6899
 5770SOL    HW228944   0.414   2.574   7.354 -1.7809 -1.2661  2.1544
 5771SOL     OW28945   2.640   3.392   7.719 -0.0388  0.3838  0.2069
 5771SOL    HW128946   2.632   3.408   7.625  2.1257 -1.6260 -0.3276
 5771SOL    HW228947   2.628   3.473   7.768  0.0855  0.7789 -0.4309
 5772SOL     OW28948   4.330   0.899   8.680 -0.2782 -0.0514 -0.2270
 5772SOL    HW128949   4.381   0.919   8.602 -0.0556 -1.1752 -0.3727
 5772SOL    HW228950   4.264   0.968   8.673  0.6179  0.6380 -1.7227
 5773SOL     OW28951   2.573   4.431   3.589 -0.5029 -0.3729  0.1481
 5773SOL    HW128952   2.615   4.509   3.553 -0.6636 -1.3563 -2.1626
 5773SOL    HW228953   2.547   4.389   3.507  1.7549  0.0390 -0.7588
 5774SOL     OW28954   3.592   4.464   4.714  0.5549 -0.4237  0.6388
 5774SOL    HW128955   3.615   4.556   4.706 -0.3597 -0.2687 -0.2264
 5774SOL    HW228956   3.679   4.424   4.720  1.4842  1.5425 -0.0553
 5775SOL     OW28957   0.638   2.261  17.460  0.1785  0.0672  0.2977
 5775SOL    HW128958   0.604   2.171  17.459 -0.1400  0.1798  0.8325
 5775SOL    HW228959   0.727   2.249  17.428 -0.0804  1.1034 -0.8221
 5776SOL     OW28960   4.350   3.576  12.974 -0.3258 -0.0922 -0.1471
 5776SOL    HW128961   4.349   3.621  13.059 -0.9177 -1.3308  0.4977
 5776SOL    HW228962   4.420   3.631  12.939  0.1587 -0.5932  0.0468
 5777SOL     OW28963   3.057   3.162  10.642 -0.4836  0.0651 -0.0864
 5777SOL    HW128964   3.043   3.256  10.650 -0.9504 -0.0629  0.5741
 5777SOL    HW228965   3.101   3.150  10.558 -0.8488 -0.6371 -0.1778
 5778SOL     OW28966   1.648   2.680   6.758  0.3967 -0.0433 -0.0109
 5778SOL    HW128967   1.740   2.688   6.736  0.1493 -0.1606 -1.0563
 5778SOL    HW228968   1.630   2.767   6.793  1.8172  0.4167 -0.4358
 5779SOL     OW28969   2.815   2.785   5.271 -0.0710  0.3645 -0.0855
 5779SOL    HW128970   2.862   2.868   5.280  2.7351 -1.2192 -0.2071
 5779SOL    HW228971   2.732   2.802   5.315 -0.7657 -1.5336 -0.6860
 5780SOL     OW28972   2.579   1.613   0.669 -0.3287  0.1605 -0.1485
 5780SOL    HW128973   2.517   1.578   0.734 -0.5914 -1.4126 -1.2308
 5780SOL    HW228974   2.659   1.561   0.678  0.0802  0.5811 -1.4287
 5781SOL     OW28975   2.816   2.597  12.639 -0.0407 -0.1959  0.3122
 5781SOL    HW128976   2.890   2.559  12.687 -0.9087  0.0780  1.8565
 5781SOL    HW228977   2.798   2.529  12.574 -1.5157  0.8926 -0.4088
 5782SOL     OW28978   1.714   1.463   9.429  0.3333  0.2696 -0.7896
 5782SOL    HW128979   1.645   1.423   9.483  0.0902  0.4096 -0.9982
 5782SOL    HW228980   1.693   1.426   9.343 -2.1999  1.9759 -0.9214
 5783SOL     OW28981   0.255   3.853  12.159 -0.8224  0.2520 -0.1007
 5783SOL    HW128982   0.195   3.838  12.086  0.5005  1.8325 -1.5097
 5783SOL    HW228983   0.340   3.868  12.116 -0.0093 -1.8878  0.7916
 5784SOL     OW28984   1.978   2.838  10.683 -0.1254  0.4395  0.2872
 5784SOL    HW128985   1.985   2.928  10.652 -0.6788  0.3310 -0.1700
 5784SOL    HW228986   2.025   2.851  10.765  0.9140 -1.0805 -0.0577
 5785SOL     OW28987   2.943   0.007   9.939  0.4833 -0.0101  0.0210
 5785SOL    HW128988   2.961   4.694  10.018  1.3427 -1.2252 -0.9729
 5785SOL    HW228989   3.022   4.727   9.888 -1.4794 -3.2752 -1.8220
 5786SOL     OW28990   4.657   0.457   6.247  0.1700  0.4471 -0.3329
 5786SOL    HW128991   4.592   0.426   6.184 -1.8511  0.6416  1.6655
 5786SOL    HW228992   4.650   0.393   6.318  0.1433  0.3197 -0.4486
 5787SOL     OW28993   2.811   2.041   7.037 -0.2568  0.5926 -0.3243
 5787SOL    HW128994   2.827   1.948   7.053  0.1314  0.7915  0.4325
 5787SOL    HW228995   2.718   2.045   7.013  0.3686 -0.7945 -3.0303
 5788SOL     OW28996   1.319   3.750   1.486 -0.0417  0.6061  0.0635
 5788SOL    HW128997   1.360   3.664   1.475 -0.4507  0.2618  1.1311
 5788SOL    HW228998   1.266   3.745   1.406 -0.2754  2.0613  0.1327
 5789SOL     OW28999   3.455   3.914  14.226 -0.0412  0.1892  0.0370
 5789SOL    HW129000   3.409   3.967  14.292 -0.1369 -0.6901  0.6701
 5789SOL    HW229001   3.526   3.891  14.286  1.1916 -1.0103 -1.9310
 5790SOL     OW29002   2.018   4.154   7.485 -0.0463 -0.3124 -0.4008
 5790SOL    HW129003   1.974   4.143   7.401 -0.5428 -0.6004 -0.1003
 5790SOL    HW229004   1.964   4.229   7.511  0.5489  0.4670 -1.4120
 5791SOL     OW29005   2.415   0.892   3.990  0.0325 -0.4924 -0.0814
 5791SOL    HW129006   2.334   0.865   3.948  1.0956  0.0104 -2.4182
 5791SOL    HW229007   2.382   0.928   4.073  0.6292  1.1133 -0.5359
 5792SOL     OW29008   3.861   4.112   7.585 -0.3483  0.3916 -0.5484
 5792SOL    HW129009   3.935   4.133   7.643  0.7548 -2.4438 -0.9337
 5792SOL    HW229010   3.883   4.021   7.569 -0.0746  0.0133  1.9421
 5793SOL     OW29011   1.456   1.769   2.668  0.8411  0.4677 -0.1787
 5793SOL    HW129012   1.368   1.751   2.701  1.9158 -2.0961  1.3137
 5793SOL    HW229013   1.452   1.864   2.655 -0.9773  0.8862  3.4033
 5794SOL     OW29014   1.990   2.448   7.367  0.6399  0.4551  0.5790
 5794SOL    HW129015   1.917   2.510   7.362 -2.8127 -3.6142  0.6663
 5794SOL    HW229016   1.971   2.394   7.291 -1.4481  0.9954  0.7287
 5795SOL     OW29017   1.945   0.761  15.637 -0.6463  0.5760  0.1326
 5795SOL    HW129018   1.867   0.746  15.584  1.3937  0.9065 -2.9935
 5795SOL    HW229019   1.917   0.733  15.724 -1.4531 -1.0402 -0.6413
 5796SOL     OW29020   0.537   0.880   0.982 -0.7605 -0.0517  0.0173
 5796SOL    HW129021   0.574   0.892   0.894  1.1471 -2.9522  0.4282
 5796SOL    HW229022   0.483   0.959   0.995  0.5844  1.1411 -1.5657
 5797SOL     OW29023   3.309   0.137  13.209  0.5773  0.2348  0.0807
 5797SOL    HW129024   3.261   0.220  13.211  2.9540  1.5580  2.5578
 5797SOL    HW229025   3.299   0.095  13.123  1.9993  1.4994 -0.6818
 5798SOL     OW29026   0.840   0.488   8.802  0.0852 -0.8948  0.2067
 5798SOL    HW129027   0.815   0.420   8.739 -1.0586  0.0635 -0.3841
 5798SOL    HW229028   0.931   0.495   8.776 -0.1172  1.9746  0.3035
 5799SOL     OW29029   2.676   4.453   5.998 -0.3303 -0.5612  0.4940
 5799SOL    HW129030   2.644   4.419   6.082 -0.5323  0.0997  0.6911
 5799SOL    HW229031   2.762   4.486   6.024 -1.6053  2.6796  0.5497
 5800SOL     OW29032   2.642   1.426   1.147 -0.5548 -0.1869  0.2464
 5800SOL    HW129033   2.624   1.444   1.239 -1.3697 -0.6626  0.1792
 5800SOL    HW229034   2.559   1.447   1.105 -0.9071 -0.4681  0.7984
 5801SOL     OW29035   3.208   0.587   1.809 -0.3340  0.0249  0.0464
 5801SOL    HW129036   3.114   0.596   1.825 -0.4833 -1.9221  0.3136
 5801SOL    HW229037   3.236   0.547   1.891  2.0031  3.1798  0.7828
 5802SOL     OW29038   3.724   2.957   1.180  0.3191  0.6026 -0.0222
 5802SOL    HW129039   3.669   2.878   1.186  0.9052  0.1904 -0.1051
 5802SOL    HW229040   3.758   2.945   1.092  0.8667 -1.3603  0.4537
 5803SOL     OW29041   1.992   2.014   5.700  0.3672 -0.2619 -0.3883
 5803SOL    HW129042   1.959   2.068   5.772  0.1106  0.5559 -1.1228
 5803SOL    HW229043   2.083   2.040   5.711  0.9417 -3.5768  2.6644
 5804SOL     OW29044   3.357   0.721  10.515 -0.4927  0.3051  0.1144
 5804SOL    HW129045   3.289   0.788  10.512 -1.0427 -0.1477  2.3203
 5804SOL    HW229046   3.317   0.678  10.439 -0.3092 -1.0449  0.7811
 5805SOL     OW29047   0.987   0.156  14.622  0.6885  0.5807 -0.3039
 5805SOL    HW129048   0.970   0.246  14.651 -2.0440  0.4484 -1.5424
 5805SOL    HW229049   1.037   0.132  14.700  1.3817 -0.9659 -1.2254
 5806SOL     OW29050   1.752   4.077  12.892  0.5704  0.6303 -0.1791
 5806SOL    HW129051   1.768   4.043  12.980  2.2751  1.2285 -0.2542
 5806SOL    HW229052   1.840   4.093  12.858  1.2463 -2.0714  0.2690
 5807SOL     OW29053   1.772   1.736   7.636  0.5312 -0.1604 -0.7041
 5807SOL    HW129054   1.748   1.649   7.666  0.8767  0.3961  1.2320
 5807SOL    HW229055   1.843   1.760   7.696  1.1372  2.1099 -2.3336
 5808SOL     OW29056   0.008   4.529  10.568 -0.2267  0.3888  0.1084
 5808SOL    HW129057   4.671   4.535  10.627 -1.0076 -0.9369 -0.7621
 5808SOL    HW229058   0.072   4.579  10.618 -1.1762  2.1112 -0.4332
 5809SOL     OW29059   4.535   3.105   4.334  0.3470 -0.1162  0.3493
 5809SOL    HW129060   4.456   3.074   4.379 -1.2304  3.5489  0.1147
 5809SOL    HW229061   4.495   3.173   4.280  0.3321  0.5517  1.2016
 5810SOL     OW29062   0.815   1.654   5.059 -0.1418 -0.2170  0.0621
 5810SOL    HW129063   0.895   1.660   5.112 -0.3264 -0.1784  0.3398
 5810SOL    HW229064   0.840   1.711   4.986  0.7035 -3.6239 -2.2799
 5811SOL     OW29065   0.152   2.680   3.077  0.1343 -0.1253  0.2510
 5811SOL    HW129066   0.073   2.732   3.096 -0.4349 -0.5595 -0.9239
 5811SOL    HW229067   0.180   2.713   2.992 -0.9351  3.6693  1.3589
 5812SOL     OW29068   0.120   1.544   3.033  0.1346 -0.2174  0.1938
 5812SOL    HW129069   0.144   1.604   2.963 -1.4384  0.2512  0.0670
 5812SOL    HW229070   0.083   1.478   2.974  0.2682  1.1996 -1.4645
 5813SOL     OW29071   1.169   0.192   1.793 -0.4854  0.6900  0.3358
 5813SOL    HW129072   1.201   0.272   1.750 -1.4485  0.3663 -0.9638
 5813SOL    HW229073   1.144   0.140   1.716 -0.9025 -1.1278  1.7007
 5814SOL     OW29074   0.078   0.446   4.738  0.0200  0.3056 -0.6579
 5814SOL    HW129075   0.168   0.412   4.743  0.1850  0.7482 -0.6662
 5814SOL    HW229076   0.103   0.533   4.768 -2.0814  0.5178  0.4873
 5815SOL     OW29077   1.782   0.185   7.500  0.2092  0.3764  0.5690
 5815SOL    HW129078   1.797   0.276   7.473 -2.9166  0.5868 -0.4023
 5815SOL    HW229079   1.809   0.194   7.592  1.3453 -0.3815  0.3095
 5816SOL     OW29080   1.330   2.544   7.286 -0.6815 -0.0045  0.1003
 5816SOL    HW129081   1.405   2.491   7.313 -0.7374  0.0683  0.3973
 5816SOL    HW229082   1.302   2.581   7.369 -1.3956 -0.8308  0.2249
 5817SOL     OW29083   3.572   0.468   2.593  0.0107 -0.1133  0.0459
 5817SOL    HW129084   3.541   0.444   2.506 -0.7341  0.8498  0.0451
 5817SOL    HW229085   3.499   0.517   2.630  0.3317  0.0821  0.4363
 5818SOL     OW29086   2.712   2.116   6.742  0.2264  0.7406  0.0624
 5818SOL    HW129087   2.675   2.089   6.826 -0.9237 -0.5101 -0.8631
 5818SOL    HW229088   2.636   2.127   6.686 -1.0746 -0.4005  1.6174
 5819SOL     OW29089   2.755   4.100   2.645 -0.0338  0.7522  0.0041
 5819SOL    HW129090   2.758   4.005   2.659  2.2782  1.0056  1.3327
 5819SOL    HW229091   2.831   4.112   2.588  1.5980  3.5964  2.7858
 5820SOL     OW29092   4.463   0.483   5.754 -0.5582  0.0170  0.4935
 5820SOL    HW129093   4.527   0.541   5.712 -0.2277 -0.5966  0.1551
 5820SOL    HW229094   4.419   0.445   5.678  0.0900  0.1408  0.0538
 5821SOL     OW29095   4.235   4.431   9.869  0.0528  0.6495 -0.1294
 5821SOL    HW129096   4.205   4.433   9.960  2.0734  0.5066  0.5415
 5821SOL    HW229097   4.259   4.523   9.860  0.5968  0.5745  0.5974
 5822SOL     OW29098   4.554   3.685   3.059 -0.2205  0.1520  0.6398
 5822SOL    HW129099   4.576   3.634   3.137 -2.9684 -1.5351  0.3181
 5822SOL    HW229100   4.501   3.756   3.095 -2.0164 -1.4097  1.0852
 5823SOL     OW29101   0.311   0.666   4.946  0.0374 -0.5812 -0.2045
 5823SOL    HW129102   0.332   0.679   4.854  0.1781 -0.2243 -0.1235
 5823SOL    HW229103   0.286   0.755   4.971  0.5935 -0.5401  0.2227
 5824SOL     OW29104   0.300   2.469   8.580 -0.6594  0.0883  0.2390
 5824SOL    HW129105   0.340   2.550   8.549 -0.8088  1.0790  2.6888
 5824SOL    HW229106   0.209   2.498   8.580 -0.3335  1.1047 -0.6442
 5825SOL     OW29107   3.298   4.590   2.711  0.1328 -0.5195 -0.0097
 5825SOL    HW129108   3.352   4.511   2.703  0.1208 -0.5232 -0.0547
 5825SOL    HW229109   3.340   4.651   2.649  1.4195 -0.4078  0.9636
 5826SOL     OW29110   0.913   0.184   4.041  0.3011  0.2146 -0.1446
 5826SOL    HW129111   0.974   0.210   4.110  0.6036 -2.7173  0.6974
 5826SOL    HW229112   0.910   0.265   3.991 -0.2066  0.2289 -0.0951
 5827SOL     OW29113   1.304   3.083   4.150 -0.0951  0.4868  0.1549
 5827SOL    HW129114   1.336   3.117   4.233  1.2193  0.0897 -0.1965
 5827SOL    HW229115   1.216   3.057   4.178 -0.3150  0.9945 -0.0657
 5828SOL     OW29116   2.371   1.318   7.030 -0.4048 -0.3925  0.2043
 5828SOL    HW129117   2.371   1.230   6.993  1.5574 -0.1539 -0.3622
 5828SOL    HW229118   2.279   1.332   7.055  0.5587  1.4941  2.6555
 5829SOL     OW29119   0.187   0.668   2.887  0.2774 -0.2680 -0.0374
 5829SOL    HW129120   0.200   0.726   2.963  2.0609  0.8077 -1.1423
 5829SOL    HW229121   0.105   0.630   2.917 -0.5146  2.2887  1.0852
 5830SOL     OW29122   1.431   0.395   3.687 -0.6972 -0.1572 -0.2689
 5830SOL    HW129123   1.406   0.344   3.610 -0.0492 -0.3329 -0.3605
 5830SOL    HW229124   1.478   0.474   3.661  0.5664 -0.5548  0.8391
 5831SOL     OW29125   1.469   0.508  14.314 -0.5552 -0.0253  0.0581
 5831SOL    HW129126   1.550   0.488  14.360 -1.2662 -0.0350  1.2971
 5831SOL    HW229127   1.482   0.447  14.241 -2.0298  0.8734 -0.9525
 5832SOL     OW29128   3.423   2.506   9.347 -0.0448  0.0127  0.2815
 5832SOL    HW129129   3.464   2.573   9.402  1.1602 -0.0312 -0.5632
 5832SOL    HW229130   3.502   2.459   9.320 -0.0941 -0.2090  0.5255
 5833SOL     OW29131   2.791   3.794   2.863  0.1061  0.2254  0.0214
 5833SOL    HW129132   2.848   3.731   2.907  1.6092  1.9194  0.5100
 5833SOL    HW229133   2.748   3.741   2.797  2.0574 -0.7129 -0.4977
 5834SOL     OW29134   1.169   0.720  16.968  0.1333  0.0287 -0.0785
 5834SOL    HW129135   1.142   0.659  17.037 -0.3092  3.7808  3.0776
 5834SOL    HW229136   1.089   0.769  16.950  0.4725  0.0031 -1.5986
 5835SOL     OW29137   0.923   1.078   3.962 -0.0876 -0.0662 -0.1503
 5835SOL    HW129138   0.903   1.171   3.975 -0.1625 -0.3777  1.9437
 5835SOL    HW229139   1.003   1.072   4.015 -0.1890 -0.8536 -0.0898
 5836SOL     OW29140   2.117   3.038  11.800  0.0444  0.3277 -0.3315
 5836SOL    HW129141   2.022   3.048  11.813 -0.1271 -0.5427 -0.9408
 5836SOL    HW229142   2.118   2.977  11.727 -2.1746 -0.3102  0.1769
 5837SOL     OW29143   3.885   1.930   0.493 -0.0706  0.0953  0.2434
 5837SOL    HW129144   3.815   1.873   0.462  0.4401 -0.0829 -0.5994
 5837SOL    HW229145   3.906   1.896   0.580  0.6150  1.8425  0.7501
 5838SOL     OW29146   3.389   3.992   7.617 -0.4342 -0.0266 -0.2266
 5838SOL    HW129147   3.302   4.001   7.579 -0.4720  0.3221 -0.0606
 5838SOL    HW229148   3.385   4.070   7.674  1.1373  0.4615 -0.7865
 5839SOL     OW29149   0.880   4.263   2.274 -0.1757 -0.0847  0.5491
 5839SOL    HW129150   0.915   4.175   2.282 -0.9595 -0.3846  0.6732
 5839SOL    HW229151   0.804   4.254   2.332 -1.6373  1.8703 -1.0231
 5840SOL     OW29152   2.752   0.827   5.038  0.7180  0.7578  0.3413
 5840SOL    HW129153   2.707   0.906   5.009 -0.7974 -0.4640 -0.5891
 5840SOL    HW229154   2.753   0.842   5.133 -2.3789 -0.2238  0.5071
 5841SOL     OW29155   4.732   4.311  11.746  0.8363  0.1049  0.5137
 5841SOL    HW129156   4.707   4.257  11.822  0.5451 -0.9649 -0.3399
 5841SOL    HW229157   0.039   4.246  11.693  1.2511 -0.6289  1.7615
 5842SOL     OW29158   0.132   2.920   1.234  0.0626 -0.8068 -0.1139
 5842SOL    HW129159   0.143   2.879   1.319  1.1006 -0.5522 -0.1225
 5842SOL    HW229160   0.043   2.950   1.253  0.6914  0.5229  0.7453
 5843SOL     OW29161   2.132   1.892   6.864  0.1862 -0.1461 -0.1735
 5843SOL    HW129162   2.156   1.888   6.957 -0.4063 -0.0821 -0.0118
 5843SOL    HW229163   2.089   1.808   6.847 -0.7763  0.2810  0.1351
 5844SOL     OW29164   0.324   2.776   3.427 -0.7359  0.8967  0.4849
 5844SOL    HW129165   0.280   2.817   3.501  0.3073  1.5699  0.7356
 5844SOL    HW229166   0.380   2.848   3.396  0.6127 -0.3504  0.0599
 5845SOL     OW29167   1.187   3.968  12.335  0.0006  0.3437 -0.2402
 5845SOL    HW129168   1.223   3.881  12.317 -1.3528 -0.1017 -0.7688
 5845SOL    HW229169   1.107   3.936  12.376 -0.4335  1.7907  0.0345
 5846SOL     OW29170   4.680   1.132   3.247 -0.3166  0.0217  0.5537
 5846SOL    HW129171   0.022   1.167   3.209 -0.1690 -0.2204  0.6469
 5846SOL    HW229172   4.701   1.084   3.327 -1.6441  0.6473  1.2719
 5847SOL     OW29173   3.399   0.116   9.733 -0.1894  0.2537 -0.4477
 5847SOL    HW129174   3.399   0.212   9.735  1.6621  0.2229  1.1133
 5847SOL    HW229175   3.465   0.091   9.797 -1.8280 -1.5797  0.5357
 5848SOL     OW29176   4.480   2.455   7.207  0.6393  0.3265 -0.1144
 5848SOL    HW129177   4.532   2.478   7.130  0.0898 -2.3737 -1.2760
 5848SOL    HW229178   4.472   2.361   7.193  0.2348  0.2203  0.8103
 5849SOL     OW29179   3.041   4.114   6.487 -0.6702  0.1376  0.3636
 5849SOL    HW129180   3.016   4.029   6.522  1.1878  0.3792  2.2629
 5849SOL    HW229181   2.979   4.175   6.527 -0.8431  1.0481 -1.2527
 5850SOL     OW29182   3.304   3.982   2.254 -0.2393  0.0906  0.0349
 5850SOL    HW129183   3.279   3.891   2.271  2.4304 -0.7259 -0.2463
 5850SOL    HW229184   3.324   3.984   2.160  0.4095  0.2965  0.1721
 5851SOL     OW29185   3.991   1.061  16.875 -0.3716 -0.1932 -0.4691
 5851SOL    HW129186   4.021   1.135  16.821  0.3445 -0.6378 -0.6735
 5851SOL    HW229187   3.945   1.108  16.945 -1.1668  0.0982 -1.1811
 5852SOL     OW29188   0.462   0.052  11.419  0.9419  0.9055  0.1336
 5852SOL    HW129189   0.387   0.066  11.477  0.3864 -0.8140 -0.1796
 5852SOL    HW229190   0.542   0.084  11.462  0.6567  1.2642  0.3899
 5853SOL     OW29191   1.267   1.804   7.746 -0.0549 -0.0196  0.4341
 5853SOL    HW129192   1.340   1.825   7.687  0.0519  0.9277  0.9106
 5853SOL    HW229193   1.313   1.757   7.816  0.9078  0.1745 -0.0554
 5854SOL     OW29194   3.984   4.312  14.691  0.1768  0.4953 -0.0073
 5854SOL    HW129195   3.938   4.270  14.618  0.0780  0.7048 -0.0639
 5854SOL    HW229196   4.004   4.237  14.748 -0.1379  0.0246 -0.5195
 5855SOL     OW29197   1.424   4.409   1.608 -0.0366 -0.6071  0.1546
 5855SOL    HW129198   1.469   4.491   1.625 -1.6873  0.1722  0.8413
 5855SOL    HW229199   1.455   4.360   1.684 -0.8724 -0.5448  0.5386
 5856SOL     OW29200   3.109   3.154   2.122  0.4761 -0.0722  0.0045
 5856SOL    HW129201   3.041   3.221   2.129  0.4428 -0.0682 -0.3396
 5856SOL    HW229202   3.186   3.208   2.102  0.7004 -0.2611  0.3604
 5857SOL     OW29203   1.950   1.893   5.459  0.0626 -0.0147  0.1440
 5857SOL    HW129204   1.902   1.972   5.436 -0.3421 -0.1102  0.6843
 5857SOL    HW229205   1.978   1.900   5.550  2.7681  0.6183 -0.7290
 5858SOL     OW29206   2.832   3.431   4.772  0.9513  0.1052 -0.0456
 5858SOL    HW129207   2.789   3.484   4.705  1.3347  0.9869  0.4001
 5858SOL    HW229208   2.899   3.386   4.721 -0.2077  0.4695 -1.8803
 5859SOL     OW29209   4.080   0.715   9.660 -0.7891  0.2070  0.0981
 5859SOL    HW129210   4.077   0.747   9.570 -2.1207 -0.1679  0.0187
 5859SOL    HW229211   4.054   0.624   9.642  0.8640 -0.3628  0.5856
 5860SOL     OW29212   3.276   3.781   5.801  0.3911  0.0800  0.0884
 5860SOL    HW129213   3.280   3.875   5.818  1.5605 -0.3364  2.1110
 5860SOL    HW229214   3.308   3.746   5.883  2.1773  0.4854 -0.4365
 5861SOL     OW29215   1.037   2.093  10.582 -0.5100  0.0999 -0.1831
 5861SOL    HW129216   0.971   2.046  10.634  0.3271 -0.7455  0.1054
 5861SOL    HW229217   1.116   2.041  10.599  0.5418  1.5528 -0.7161
 5862SOL     OW29218   0.904   0.599   6.515  0.0872 -0.1163 -0.5389
 5862SOL    HW129219   0.947   0.653   6.448  1.5487  0.0049  0.4958
 5862SOL    HW229220   0.973   0.597   6.581 -2.2935  0.0459  1.9436
 5863SOL     OW29221   1.657   0.776   0.900  0.6576  0.6703  0.1929
 5863SOL    HW129222   1.728   0.714   0.885  1.3646  1.5574 -0.0598
 5863SOL    HW229223   1.599   0.736   0.835 -0.8097  1.6075  0.9113
 5864SOL     OW29224   2.356   4.515   6.025  0.6876 -0.4083  0.0965
 5864SOL    HW129225   2.432   4.490   5.971 -0.2156  1.2409 -1.9182
 5864SOL    HW229226   2.375   4.455   6.097 -4.2468 -3.1216 -0.8687
 5865SOL     OW29227   3.527   1.420  12.837 -0.0160  0.1156  0.7309
 5865SOL    HW129228   3.546   1.481  12.766 -0.2483 -0.8179 -0.1317
 5865SOL    HW229229   3.527   1.342  12.781 -0.8637  0.3927  0.3398
 5866SOL     OW29230   4.338   1.499   3.320 -0.2592  0.4043  0.2262
 5866SOL    HW129231   4.350   1.409   3.351  1.5835  0.2938 -0.8323
 5866SOL    HW229232   4.424   1.540   3.322 -0.0922  0.1449 -1.5132
 5867SOL     OW29233   1.425   1.657   9.506  0.3903 -0.2185  0.2505
 5867SOL    HW129234   1.360   1.602   9.550  1.6830 -0.6699  1.5828
 5867SOL    HW229235   1.399   1.741   9.544  1.0984  0.1440 -0.0685
 5868SOL     OW29236   2.420   0.549  15.394 -0.2029 -0.0482  0.8926
 5868SOL    HW129237   2.335   0.593  15.393  0.7970  1.8611 -0.5603
 5868SOL    HW229238   2.488   0.610  15.363 -0.7494  1.2700  2.2597
 5869SOL     OW29239   4.530   2.892   2.256  0.0877 -0.1048 -0.0805
 5869SOL    HW129240   4.450   2.936   2.285  0.1965  1.0947 -1.6243
 5869SOL    HW229241   4.558   2.871   2.346  0.2984 -0.7828 -0.3045
 5870SOL     OW29242   0.082   2.457   5.272  0.0408  0.1842  0.5364
 5870SOL    HW129243   0.026   2.477   5.347 -0.9938  0.6914 -0.3800
 5870SOL    HW229244   0.017   2.414   5.216  0.3944  1.1621 -0.6097
 5871SOL     OW29245   3.557   0.595   9.763 -0.6298  0.2105 -0.7657
 5871SOL    HW129246   3.639   0.621   9.804  0.0796 -1.7181 -0.9504
 5871SOL    HW229247   3.542   0.643   9.681 -1.4303  0.1560 -0.6527
 5872SOL     OW29248   2.022   4.399  17.044  0.8370  0.0724  0.5602
 5872SOL    HW129249   2.115   4.391  17.023  0.8810  1.2711  0.2676
 5872SOL    HW229250   2.029   4.459  17.119  1.1878 -1.6797  1.9129
 5873SOL     OW29251   2.173   3.458   5.989  0.0948  0.2800 -0.2820
 5873SOL    HW129252   2.245   3.508   6.029 -1.3312  1.6000  0.6158
 5873SOL    HW229253   2.106   3.498   6.043 -0.1258 -1.6478  0.8648
 5874SOL     OW29254   3.621   4.373   3.622 -0.5444 -0.2931 -0.1410
 5874SOL    HW129255   3.656   4.451   3.579 -1.4731 -0.0074 -0.3652
 5874SOL    HW229256   3.638   4.304   3.559  1.4417  0.8467 -0.8816
 5875SOL     OW29257   1.962   4.369  14.781 -0.2294  0.3445  0.0636
 5875SOL    HW129258   1.951   4.375  14.686  1.5495  1.0848 -0.1023
 5875SOL    HW229259   2.007   4.285  14.787 -1.6120 -0.2448  1.7781
 5876SOL     OW29260   3.546   1.012   9.264  0.5978  0.0344 -0.2148
 5876SOL    HW129261   3.482   0.991   9.196  0.2219  0.9792 -0.1463
 5876SOL    HW229262   3.621   1.042   9.214 -0.0806  1.7390 -0.1995
 5877SOL     OW29263   2.970   1.750   8.886 -0.2438  0.3280 -0.3938
 5877SOL    HW129264   3.030   1.780   8.818  0.1775 -0.7871 -0.5007
 5877SOL    HW229265   2.996   1.662   8.912  0.5235 -0.4054 -3.6483
 5878SOL     OW29266   1.418   2.652  11.944  0.0704 -0.0965  0.0317
 5878SOL    HW129267   1.426   2.742  11.976  1.8851  0.3427 -1.5978
 5878SOL    HW229268   1.338   2.655  11.892  1.5715 -1.0306 -2.3601
 5879SOL     OW29269   3.991   0.805  12.423  0.1662 -0.1766 -0.0938
 5879SOL    HW129270   3.975   0.895  12.453 -1.1273  0.0425 -1.4598
 5879SOL    HW229271   3.975   0.809  12.329  1.2705  0.6783 -0.2478
 5880SOL     OW29272   0.664   3.727   3.511 -0.0066  0.0225 -0.5844
 5880SOL    HW129273   0.699   3.653   3.562 -0.0980  0.3198 -0.0870
 5880SOL    HW229274   0.748   3.762   3.483 -0.0847  1.1077  0.5200
 5881SOL     OW29275   1.520   0.231   2.016 -0.1236 -0.5417  0.1989
 5881SOL    HW129276   1.572   0.151   2.010  1.8157  0.6029  1.7509
 5881SOL    HW229277   1.430   0.199   2.023  0.2024 -1.7090 -1.0594
 5882SOL     OW29278   0.739   4.480   5.419  1.0107  0.0543  0.7385
 5882SOL    HW129279   0.772   4.474   5.508 -1.4780 -1.8796  1.5313
 5882SOL    HW229280   0.809   4.524   5.371  0.2895 -0.6271 -0.9753
 5883SOL     OW29281   0.523   2.201   6.583  0.3572  0.0688 -0.0519
 5883SOL    HW129282   0.556   2.290   6.597  2.3355 -0.2490 -2.5824
 5883SOL    HW229283   0.434   2.218   6.553  0.1063  1.7638  1.6753
 5884SOL     OW29284   4.672   2.163   4.110  0.5310  0.3126 -0.3896
 5884SOL    HW129285   4.617   2.190   4.184 -0.4728  0.1229 -1.0627
 5884SOL    HW229286   4.619   2.187   4.034  1.7157  1.1217 -0.9577
 5885SOL     OW29287   0.557   2.600   3.891  0.0755  0.1747  0.1078
 5885SOL    HW129288   0.650   2.621   3.886  0.0741  0.4857  1.2836
 5885SOL    HW229289   0.514   2.669   3.840 -1.7248 -0.1956  1.1050
 5886SOL     OW29290   1.439   2.712   9.288 -0.5358 -0.5437 -0.6826
 5886SOL    HW129291   1.477   2.703   9.200 -1.8676 -1.5202 -1.1689
 5886SOL    HW229292   1.377   2.784   9.274 -0.9078 -0.5106  1.1248
 5887SOL     OW29293   4.681   2.805  11.476  0.0661  0.3491  0.6377
 5887SOL    HW129294   4.722   2.798  11.390 -0.0745 -0.4718  0.6379
 5887SOL    HW229295   4.647   2.894  11.477  1.3781  0.8636 -0.8277
 5888SOL     OW29296   2.046   1.226   0.827 -0.1756 -0.0039  0.9964
 5888SOL    HW129297   1.951   1.214   0.824  0.1840 -2.6949  0.7795
 5888SOL    HW229298   2.066   1.153   0.886 -0.4639 -0.0701  1.0135
 5889SOL     OW29299   1.885   4.381   7.568  0.2535 -0.7009 -0.2895
 5889SOL    HW129300   1.966   4.397   7.616 -0.6254  0.9187  0.6362
 5889SOL    HW229301   1.834   4.457   7.597  1.1525 -0.3424  0.3279
 5890SOL     OW29302   3.866   1.700  15.780  0.0885 -0.1693 -0.4245
 5890SOL    HW129303   3.818   1.765  15.728  2.9168  2.0142 -0.2747
 5890SOL    HW229304   3.898   1.749  15.855 -1.4071  0.3010 -0.0807
 5891SOL     OW29305   2.261   0.930   3.228  0.8625  0.1916 -0.3035
 5891SOL    HW129306   2.299   1.007   3.186  0.8259  1.0345  1.2144
 5891SOL    HW229307   2.171   0.946   3.200  0.4184 -0.1661  0.9347
 5892SOL     OW29308   1.430   4.158   4.843 -0.2594 -0.1779 -0.4757
 5892SOL    HW129309   1.421   4.065   4.861  0.7103  0.0451  1.2209
 5892SOL    HW229310   1.407   4.161   4.751  1.0634  0.7484 -0.7888
 5893SOL     OW29311   4.092   4.506   7.621  0.1733  0.1588  0.2707
 5893SOL    HW129312   4.038   4.583   7.606 -0.8741 -0.6797 -0.3253
 5893SOL    HW229313   4.150   4.508   7.545  0.9024 -1.0200  0.7940
 5894SOL     OW29314   3.393   2.105  12.564  0.2076 -0.6959  0.3777
 5894SOL    HW129315   3.484   2.100  12.592 -0.1723  0.1690  1.7306
 5894SOL    HW229316   3.345   2.132  12.642  0.7833 -1.4658  0.9929
 5895SOL     OW29317   0.526   3.944   7.526 -0.3015 -0.2963  0.0834
 5895SOL    HW129318   0.493   3.942   7.435 -0.5814 -1.2249  0.1968
 5895SOL    HW229319   0.577   3.865   7.543 -0.2007 -0.1158  0.5963
 5896SOL     OW29320   0.036   1.712   6.179  0.5491  0.1250  0.1645
 5896SOL    HW129321   0.098   1.779   6.150 -0.8835  1.1774 -0.4826
 5896SOL    HW229322   4.727   1.691   6.099 -0.1779 -1.0437  0.9074
 5897SOL     OW29323   1.824   2.143   5.088 -0.0107  0.6194  0.2561
 5897SOL    HW129324   1.770   2.215   5.056 -0.0646  1.0913  1.4247
 5897SOL    HW229325   1.908   2.159   5.046  0.3914  0.6592  1.0748
 5898SOL     OW29326   4.240   3.239   6.852  0.4756 -0.3531 -0.2703
 5898SOL    HW129327   4.234   3.252   6.757 -0.8015  2.1522  0.1440
 5898SOL    HW229328   4.299   3.164   6.846 -1.3995 -1.8942  0.2154
 5899SOL     OW29329   1.735   3.225   0.116  0.2346 -0.2185  0.5708
 5899SOL    HW129330   1.686   3.156   0.071  1.0228 -0.8434  0.6799
 5899SOL    HW229331   1.825   3.203   0.094 -0.3916 -1.7353 -0.4778
 5900SOL     OW29332   1.676   2.210   7.525  0.3412 -0.1611 -0.5495
 5900SOL    HW129333   1.747   2.157   7.562 -0.5589 -1.4023 -0.6372
 5900SOL    HW229334   1.706   2.301   7.535 -0.3847  0.0155 -0.0044
 5901SOL     OW29335   2.268   4.388   2.598  0.1825  0.2292  0.3656
 5901SOL    HW129336   2.187   4.353   2.636  1.0415  1.3939  3.2707
 5901SOL    HW229337   2.299   4.449   2.665  2.3598 -0.0199 -0.4396
 5902SOL     OW29338   3.280   3.780   7.929  0.2144 -0.0301 -0.5980
 5902SOL    HW129339   3.265   3.867   7.966 -0.5032 -0.3911 -0.0313
 5902SOL    HW229340   3.234   3.771   7.846  0.9170 -0.9970 -0.8810
 5903SOL     OW29341   2.156   4.661   8.729 -0.2761 -0.1064  0.4202
 5903SOL    HW129342   2.225   4.663   8.663  1.3704  1.2093  2.2068
 5903SOL    HW229343   2.129   0.013   8.717  2.1519  0.6691  1.0323
 5904SOL     OW29344   0.109   1.749   8.035  0.5596  0.2162  0.1609
 5904SOL    HW129345   0.113   1.702   7.951 -0.7076  2.1434 -0.9935
 5904SOL    HW229346   0.079   1.675   8.088  0.9090  0.1060  0.2071
 5905SOL     OW29347   1.931   3.521   1.057  0.2217  0.6924 -0.2539
 5905SOL    HW129348   2.016   3.548   1.093 -1.0308 -0.5112  3.6715
 5905SOL    HW229349   1.877   3.522   1.136  0.3448  1.9324 -0.1765
 5906SOL     OW29350   3.654   2.741  15.541  0.1627 -0.4642  0.0594
 5906SOL    HW129351   3.577   2.763  15.489  1.2989 -1.1990 -1.9187
 5906SOL    HW229352   3.688   2.662  15.501  0.7042  0.1810 -0.7537
 5907SOL     OW29353   1.351   1.858   3.042 -0.0846 -0.0327  0.1112
 5907SOL    HW129354   1.326   1.797   2.972 -0.3490  0.5144 -0.2697
 5907SOL    HW229355   1.270   1.909   3.044 -0.7091 -1.0529  0.9211
 5908SOL     OW29356   0.696   3.205  17.281  0.3955 -0.0262  0.3643
 5908SOL    HW129357   0.614   3.184  17.326  0.7105 -2.3589 -0.1497
 5908SOL    HW229358   0.671   3.292  17.250 -0.3057  0.3614  2.0204
 5909SOL     OW29359   0.130   1.598   3.506 -0.0954  0.0968  0.0211
 5909SOL    HW129360   0.213   1.617   3.550 -0.9464  1.7611  0.9351
 5909SOL    HW229361   0.083   1.675   3.537 -0.0926  0.2622 -0.3944
 5910SOL     OW29362   0.451   2.352  17.652 -0.3732 -0.3533  0.4193
 5910SOL    HW129363   0.366   2.380  17.618 -0.3538  0.4136  1.0296
 5910SOL    HW229364   0.502   2.322  17.577 -1.2505  1.1809 -0.8022
 5911SOL     OW29365   2.887   0.076  10.991 -0.0348 -0.1245 -0.3961
 5911SOL    HW129366   2.924   0.162  10.969 -0.4760  0.0394 -0.5104
 5911SOL    HW229367   2.837   0.067  10.910  1.7978 -2.1775 -1.2715
 5912SOL     OW29368   4.516   1.847  10.387 -0.2341  0.0199 -0.5503
 5912SOL    HW129369   4.601   1.874  10.420  0.7986 -1.9969 -1.5783
 5912SOL    HW229370   4.477   1.795  10.458  2.0965 -2.6208 -1.2212
 5913SOL     OW29371   4.053   3.532   7.393  0.2700 -0.3258  0.5478
 5913SOL    HW129372   4.054   3.536   7.488  1.0589 -1.3987  0.5806
 5913SOL    HW229373   3.961   3.542   7.367  0.1945  0.7397  1.2632
 5914SOL     OW29374   3.903   0.318   5.653  0.3056  0.4164  0.2329
 5914SOL    HW129375   3.825   0.371   5.635 -0.2976 -0.5427  0.0095
 5914SOL    HW229376   3.880   0.281   5.738 -3.1075  0.1625 -0.7902
 5915SOL     OW29377   1.490   3.196   8.775 -0.0128 -0.1724 -0.5555
 5915SOL    HW129378   1.455   3.276   8.813 -1.7880 -0.2637 -1.9846
 5915SOL    HW229379   1.507   3.141   8.852  1.9050 -0.1438 -0.9380
 5916SOL     OW29380   3.028   2.882   4.994  0.1187 -0.3361  0.1210
 5916SOL    HW129381   3.010   2.973   5.017  0.4538 -0.3803  0.5560
 5916SOL    HW229382   3.087   2.900   4.921  0.6179  1.4978  0.9864
 5917SOL     OW29383   0.205   2.504   6.164  0.6937 -0.2414 -0.1120
 5917SOL    HW129384   0.252   2.480   6.244 -1.2913 -0.5984  0.9496
 5917SOL    HW229385   0.265   2.464   6.102 -0.7389 -0.1113 -1.5869
 5918SOL     OW29386   2.326   3.371   6.920  0.1549 -0.2112  0.5972
 5918SOL    HW129387   2.326   3.330   7.006 -1.9476  1.4438  1.3862
 5918SOL    HW229388   2.420   3.380   6.904 -0.3435  2.4634 -0.9592
 5919SOL     OW29389   2.568   1.232   8.339 -0.0469 -0.2683  0.2665
 5919SOL    HW129390   2.622   1.290   8.393 -1.5284  2.6062 -1.3572
 5919SOL    HW229391   2.497   1.215   8.402 -1.0888  3.6740  0.1454
 5920SOL     OW29392   2.985   3.263   5.600  0.0319 -0.4495  0.1407
 5920SOL    HW129393   2.900   3.294   5.568  0.9607  1.8844  0.0106
 5920SOL    HW229394   2.998   3.323   5.673 -0.5152 -0.8780  0.5973
 5921SOL     OW29395   2.618   2.970  13.174  0.2433 -0.2832  0.1052
 5921SOL    HW129396   2.634   3.041  13.237  1.5848  0.7211 -1.3708
 5921SOL    HW229397   2.526   2.947  13.185  0.3410 -0.3294  0.7999
 5922SOL     OW29398   4.571   2.182   2.910  0.6671 -0.0489  0.2164
 5922SOL    HW129399   4.491   2.135   2.933  0.1931  1.1027  0.9134
 5922SOL    HW229400   4.577   2.242   2.984 -2.5349 -0.5790  0.8872
 5923SOL     OW29401   4.075   3.856   6.963  0.7542 -0.5462  0.2115
 5923SOL    HW129402   4.143   3.916   6.994  0.4955 -0.6163  0.9101
 5923SOL    HW229403   4.081   3.785   7.026  0.8413 -0.4314  0.3323
 5924SOL     OW29404   4.327   3.852   1.507  0.7442 -0.0961  0.1426
 5924SOL    HW129405   4.247   3.827   1.461 -1.0921  2.7384  1.7785
 5924SOL    HW229406   4.342   3.947   1.508  2.8098 -0.4224 -0.4908
 5925SOL     OW29407   2.509   1.608   4.714  0.0597  0.1975 -0.6010
 5925SOL    HW129408   2.477   1.698   4.703  3.1675  1.5482  1.3794
 5925SOL    HW229409   2.601   1.619   4.689  0.1749  0.2192 -0.1537
 5926SOL     OW29410   2.806   0.430   4.907 -0.6693  0.6011  0.0265
 5926SOL    HW129411   2.765   0.346   4.886  1.2157 -0.0925 -0.8277
 5926SOL    HW229412   2.830   0.453   4.818  0.5015 -0.4537  0.0610
 5927SOL     OW29413   1.212   0.491   6.372  0.2110  0.3645  0.4237
 5927SOL    HW129414   1.283   0.429   6.354 -2.0295 -1.4443 -2.1241
 5927SOL    HW229415   1.144   0.423   6.370 -0.4068  0.9357  2.1938
 5928SOL     OW29416   0.941   3.647   8.324 -0.0318 -0.3953 -0.4175
 5928SOL    HW129417   0.902   3.583   8.264 -4.0048 -0.3451  2.0615
 5928SOL    HW229418   1.030   3.614   8.335  0.7144  0.4065 -4.2850
 5929SOL     OW29419   0.485   3.882   6.989 -0.3770  0.0237  0.1328
 5929SOL    HW129420   0.460   3.821   6.919  0.5683  0.2473 -0.4120
 5929SOL    HW229421   0.512   3.954   6.931  3.3789 -1.9420 -0.5566
 5930SOL     OW29422   1.681   4.055   2.288  0.1856  0.2358  0.1478
 5930SOL    HW129423   1.590   4.064   2.260  0.2520 -1.5368 -0.6234
 5930SOL    HW229424   1.729   4.026   2.210 -0.9055 -0.8312 -0.1265
 5931SOL     OW29425   4.500   2.447   2.641 -0.1407  0.7921 -0.0057
 5931SOL    HW129426   4.551   2.384   2.591  1.0403  0.6968  1.3390
 5931SOL    HW229427   4.428   2.395   2.677 -2.5760  2.6627 -2.1860
 5932SOL     OW29428   1.823   1.523   2.562  0.3834 -0.0481  0.4309
 5932SOL    HW129429   1.727   1.532   2.557  0.3748 -0.9257 -0.9471
 5932SOL    HW229430   1.843   1.440   2.604  0.7749 -0.0478  0.2385
 5933SOL     OW29431   1.749   2.427   2.558  0.2975 -0.0014 -0.2584
 5933SOL    HW129432   1.750   2.347   2.610  1.5263 -1.1816 -2.1447
 5933SOL    HW229433   1.756   2.398   2.468 -0.4419 -1.1294  0.0571
 5934SOL     OW29434   3.941   0.345   4.241  0.0974  0.6970 -0.1364
 5934SOL    HW129435   3.874   0.277   4.241 -2.5928  3.3246 -0.5072
 5934SOL    HW229436   4.009   0.306   4.296 -0.3248  1.2261  0.7664
 5935SOL     OW29437   2.847   3.694  17.507 -0.2201 -0.1417 -0.3457
 5935SOL    HW129438   2.789   3.620  17.488  0.4493 -0.8028  0.1691
 5935SOL    HW229439   2.800   3.744  17.574 -0.0553 -2.7917  1.7282
 5936SOL     OW29440   4.713   1.640   8.277  0.2617  0.5073 -0.6991
 5936SOL    HW129441   4.660   1.701   8.328  0.2530 -1.4151  1.5663
 5936SOL    HW229442   0.031   1.591   8.336 -1.7074 -1.9556 -0.8430
 5937SOL     OW29443   2.026   4.544   9.880  0.6281 -0.4568 -0.7264
 5937SOL    HW129444   2.077   4.620   9.852  0.4120 -0.2396 -0.5263
 5937SOL    HW229445   2.076   4.515   9.956 -2.3919 -0.6341  1.1591
 5938SOL     OW29446   1.927   1.932  15.528 -0.4385 -0.3277 -0.7358
 5938SOL    HW129447   1.934   1.961  15.619 -2.3008  1.0323 -1.0381
 5938SOL    HW229448   2.004   1.876  15.513 -0.6129 -1.0810  1.0789
 5939SOL     OW29449   0.632   1.574  14.055  0.1788 -0.1149  0.0421
 5939SOL    HW129450   0.604   1.542  14.141 -1.7478 -1.3168 -1.0257
 5939SOL    HW229451   0.553   1.616  14.021 -0.7686 -0.8779  1.3176
 5940SOL     OW29452   1.502   2.918   5.420  0.1230 -0.0749 -0.3139
 5940SOL    HW129453   1.575   2.856   5.407  1.5470  1.3447  0.9196
 5940SOL    HW229454   1.553   2.993   5.389 -0.9681  0.0255 -1.8556
 5941SOL     OW29455   3.732   2.156   0.082 -0.1887  0.1475 -0.0988
 5941SOL    HW129456   3.730   2.223   0.151 -1.5582  0.6591 -0.6371
 5941SOL    HW229457   3.660   2.101   0.112  0.3385  0.0868  1.0447
 5942SOL     OW29458   2.726   1.497  13.409 -0.4964 -0.5818  0.1483
 5942SOL    HW129459   2.630   1.501  13.418 -0.6249 -2.3472 -0.4898
 5942SOL    HW229460   2.741   1.424  13.350 -1.2791 -0.4285 -0.2374
 5943SOL     OW29461   0.782   1.372   8.080 -0.5794  0.0711  0.1641
 5943SOL    HW129462   0.844   1.445   8.088 -0.3088  0.0236 -1.5143
 5943SOL    HW229463   0.836   1.300   8.112  0.1871  0.7995  0.5020
 5944SOL     OW29464   4.349   4.283   8.026  0.3327 -0.2539 -0.2475
 5944SOL    HW129465   4.427   4.268   8.079 -0.2000 -2.1679 -0.0137
 5944SOL    HW229466   4.385   4.269   7.939  2.4313  0.8167  0.4293
 5945SOL     OW29467   3.546   2.989   3.100  0.4730 -0.1610  0.2053
 5945SOL    HW129468   3.599   2.969   3.023 -0.7922  1.6368 -1.1538
 5945SOL    HW229469   3.579   2.922   3.160  3.2166 -0.2013 -1.3811
 5946SOL     OW29470   4.471   3.284   3.449  0.1876  0.2461 -0.5212
 5946SOL    HW129471   4.402   3.267   3.385  0.1127 -1.2749 -0.0526
 5946SOL    HW229472   4.418   3.327   3.516 -0.4134 -0.9958 -0.2049
 5947SOL     OW29473   1.164   2.206   8.464 -0.4514 -0.0627 -0.4246
 5947SOL    HW129474   1.082   2.202   8.515  0.8934  0.6112  1.7971
 5947SOL    HW229475   1.151   2.291   8.423 -0.6737  0.1170  0.0155
 5948SOL     OW29476   3.854   2.291  14.561 -0.2915 -0.3398 -0.4628
 5948SOL    HW129477   3.856   2.205  14.603  0.8968 -0.5592 -0.9426
 5948SOL    HW229478   3.888   2.348  14.630  1.4570 -2.2982  0.3077
 5949SOL     OW29479   1.533   4.666   7.156  0.5404 -0.3636  0.7543
 5949SOL    HW129480   1.608   4.690   7.209  1.5565 -2.0407  0.0502
 5949SOL    HW229481   1.549   4.573   7.139  2.0196  0.0987 -0.3449
 5950SOL     OW29482   1.587   2.348   6.637  0.3978 -0.0975  0.0563
 5950SOL    HW129483   1.559   2.431   6.677  0.7067 -0.0063  0.0840
 5950SOL    HW229484   1.551   2.356   6.548 -2.7198  0.3282  1.3507
 5951SOL     OW29485   0.464   1.244   9.096 -0.0778  0.3547  0.6727
 5951SOL    HW129486   0.443   1.214   9.185 -1.1540 -3.1069 -0.7470
 5951SOL    HW229487   0.387   1.299   9.084  0.4710  1.0166  0.2215
 5952SOL     OW29488   1.378   0.168   1.243  0.2697  0.4650 -0.3511
 5952SOL    HW129489   1.316   0.235   1.271 -0.1454 -0.2703  0.5235
 5952SOL    HW229490   1.460   0.215   1.255  0.8162 -1.0253  1.7597
 5953SOL     OW29491   3.847   0.473  15.954  0.1160  0.2761 -0.2431
 5953SOL    HW129492   3.800   0.556  15.963  0.6134  0.5906 -0.5461
 5953SOL    HW229493   3.844   0.443  16.045  1.0051 -0.2546 -0.3994
 5954SOL     OW29494   2.589   1.229  17.551  0.4841  0.1341 -0.4513
 5954SOL    HW129495   2.507   1.261  17.590  0.9751  0.7498  0.0826
 5954SOL    HW229496   2.646   1.214  17.626  1.1354 -3.1829 -1.6249
 5955SOL     OW29497   2.297   0.455   6.238  0.4025  0.5198  0.0182
 5955SOL    HW129498   2.285   0.550   6.240 -1.1118  0.3268  0.1874
 5955SOL    HW229499   2.274   0.429   6.149 -0.6750  0.2796  0.3599
 5956SOL     OW29500   4.475   4.644   7.623  0.5382  0.3390  0.1261
 5956SOL    HW129501   4.395   4.689   7.652  0.3551  0.9589 -1.3550
 5956SOL    HW229502   4.547   4.700   7.651  1.3126 -0.3274 -0.5547
 5957SOL     OW29503   4.214   3.738   6.347 -0.1935 -0.6480 -0.6294
 5957SOL    HW129504   4.301   3.765   6.375 -1.3292  1.8904  0.3984
 5957SOL    HW229505   4.176   3.706   6.429  1.6218 -0.7357  0.1664
 5958SOL     OW29506   4.041   3.184   5.667  0.1908  0.1243  0.6737
 5958SOL    HW129507   4.117   3.241   5.663 -0.5638  1.0754 -0.1707
 5958SOL    HW229508   4.004   3.202   5.581  0.0347  0.9142  0.8995
 5959SOL     OW29509   3.365   1.955  15.431  0.0008  0.3844 -0.3212
 5959SOL    HW129510   3.345   1.950  15.525 -1.0900  1.5248 -0.4902
 5959SOL    HW229511   3.323   1.875  15.400 -1.7353  0.6123  1.4773
 5960SOL     OW29512   3.256   4.003   3.947  0.3414 -0.1959  0.4627
 5960SOL    HW129513   3.222   3.914   3.937 -1.0036  0.2607  0.8946
 5960SOL    HW229514   3.176   4.050   3.972  0.1187 -1.2547  1.6902
 5961SOL     OW29515   0.032   0.790   9.460  0.0546 -0.0694 -0.6484
 5961SOL    HW129516   0.042   0.724   9.392 -1.3950  1.0803 -1.9863
 5961SOL    HW229517   4.680   0.806   9.485 -0.2159 -1.0452 -1.0093
 5962SOL     OW29518   1.767   3.306   1.759 -0.4256 -0.3947 -0.0522
 5962SOL    HW129519   1.688   3.360   1.759  0.2583  0.6150  0.0548
 5962SOL    HW229520   1.767   3.281   1.852 -1.5299  6.5056  1.8146
 5963SOL     OW29521   0.839   3.558   2.463  0.3160 -0.3597  0.2021
 5963SOL    HW129522   0.928   3.540   2.492  0.3157  1.0383  1.1173
 5963SOL    HW229523   0.783   3.502   2.518  0.3744 -0.3562  0.2653
 5964SOL     OW29524   3.945   3.496   4.613 -0.2974 -0.1277  0.3880
 5964SOL    HW129525   3.951   3.585   4.578 -0.1939 -0.7691 -1.2002
 5964SOL    HW229526   3.891   3.517   4.690  0.5041 -1.1126  1.2063
 5965SOL     OW29527   1.922   0.391   5.064 -0.9246 -0.1134  0.2830
 5965SOL    HW129528   1.885   0.342   5.138 -1.2914 -3.2068 -1.9770
 5965SOL    HW229529   1.928   0.476   5.108 -0.6330 -0.8513  1.6919
 5966SOL     OW29530   2.058   0.185   8.713 -0.3712  0.7811  0.7391
 5966SOL    HW129531   2.043   0.275   8.682 -0.9896 -0.3353 -2.2497
 5966SOL    HW229532   1.971   0.148   8.694 -0.2832  0.4192  1.0541
 5967SOL     OW29533   3.256   0.721  17.133 -0.2153  0.4595  0.3203
 5967SOL    HW129534   3.282   0.771  17.055 -1.9460  2.7618  1.2260
 5967SOL    HW229535   3.347   0.709  17.160 -0.0410 -2.1280 -1.4301
 5968SOL     OW29536   2.544   2.400  11.151 -0.6526  0.1623  0.2520
 5968SOL    HW129537   2.470   2.448  11.114 -0.0097 -0.0337 -1.3018
 5968SOL    HW229538   2.510   2.311  11.161 -0.1221  0.1034  1.6261
 5969SOL     OW29539   2.493   0.517   4.776 -0.1733  0.2912 -0.3312
 5969SOL    HW129540   2.426   0.464   4.733 -0.5908 -0.5594  1.3457
 5969SOL    HW229541   2.469   0.502   4.868 -1.0029  1.0020 -0.4294
 5970SOL     OW29542   4.682   2.722   9.079 -0.4393 -0.1601 -0.5124
 5970SOL    HW129543   4.656   2.812   9.061  2.4471  0.9749  0.9227
 5970SOL    HW229544   4.694   2.719   9.174 -2.3515  0.5242 -0.2603
 5971SOL     OW29545   4.131   4.318   8.208 -0.2136 -0.6208 -0.2959
 5971SOL    HW129546   4.181   4.298   8.129 -0.5814 -0.0604 -0.6671
 5971SOL    HW229547   4.182   4.387   8.250  0.7233 -0.2933 -2.0130
 5972SOL     OW29548   1.601   2.311   8.437  0.3160 -0.2194 -0.0452
 5972SOL    HW129549   1.560   2.325   8.352  0.4599 -1.3383 -0.2962
 5972SOL    HW229550   1.530   2.272   8.489 -1.2151  1.6104 -0.7693
 5973SOL     OW29551   4.731   1.988   1.900  0.2325  0.0798 -0.0557
 5973SOL    HW129552   0.034   2.068   1.933  1.7829 -0.8489  0.2139
 5973SOL    HW229553   4.642   2.015   1.879  0.2100  1.5150  1.8778
 5974SOL     OW29554   3.846   1.231  11.820 -0.1354  0.3737  0.3435
 5974SOL    HW129555   3.859   1.296  11.750  1.9227 -2.4370 -1.8916
 5974SOL    HW229556   3.818   1.280  11.897 -3.0674 -1.2450  0.2859
 5975SOL     OW29557   2.560   1.557   1.902  0.4604  0.3036  0.1907
 5975SOL    HW129558   2.474   1.556   1.861  0.5037 -1.9455  0.1733
 5975SOL    HW229559   2.595   1.473   1.870  1.5523  1.1191 -0.7783
 5976SOL     OW29560   2.961   2.855   3.791  0.5381  0.8657 -0.3269
 5976SOL    HW129561   3.009   2.776   3.768  0.1063  0.2827  0.7451
 5976SOL    HW229562   2.961   2.854   3.887 -0.2482 -0.6987 -0.3415
 5977SOL     OW29563   1.035   1.120   8.110  0.3620 -0.3850  0.2452
 5977SOL    HW129564   1.091   1.124   8.187  2.1490  1.7186 -1.1404
 5977SOL    HW229565   1.007   1.029   8.106  0.6249 -0.4711  0.3542
 5978SOL     OW29566   3.752   1.455   2.938  0.6404 -0.9587 -0.0510
 5978SOL    HW129567   3.783   1.494   2.856  1.0125 -2.6110 -0.6858
 5978SOL    HW229568   3.832   1.459   2.990  0.3299  0.8116  0.2803
 5979SOL     OW29569   0.850   1.584   1.828  0.4756 -0.0472 -0.0851
 5979SOL    HW129570   0.871   1.496   1.797 -0.3056  0.8547 -3.2062
 5979SOL    HW229571   0.755   1.581   1.835  0.4495  0.5177 -0.1776
 5980SOL     OW29572   2.459   0.429   8.077  0.0998 -0.3086 -0.3310
 5980SOL    HW129573   2.504   0.457   7.998 -1.1637 -1.3306 -1.4127
 5980SOL    HW229574   2.425   0.513   8.109 -0.4247 -0.4117 -0.6083
 5981SOL     OW29575   1.181   3.555   5.384  0.2901 -0.2597 -0.0628
 5981SOL    HW129576   1.099   3.594   5.415 -0.4276  0.1652 -2.5038
 5981SOL    HW229577   1.151   3.543   5.294 -1.0272  1.8149  0.0819
 5982SOL     OW29578   1.455   2.755   1.311  0.3613  0.5601 -0.9926
 5982SOL    HW129579   1.446   2.826   1.247 -2.3866 -1.0846 -2.4673
 5982SOL    HW229580   1.492   2.686   1.256  3.1198  1.1011  0.2347
 5983SOL     OW29581   4.231   4.109   2.769 -0.4637 -0.1884  0.3943
 5983SOL    HW129582   4.302   4.049   2.789 -0.6592  0.1378  2.0898
 5983SOL    HW229583   4.171   4.075   2.836 -1.3175 -2.0800 -1.3486
 5984SOL     OW29584   1.544   0.212  11.801  0.0090  0.0712  0.3663
 5984SOL    HW129585   1.508   0.276  11.740 -0.9054  0.9516  1.8035
 5984SOL    HW229586   1.525   0.254  11.885  0.7874 -3.2661  2.2404
 5985SOL     OW29587   4.152   0.628   5.330  0.2891 -0.1473 -0.0128
 5985SOL    HW129588   4.066   0.667   5.312 -1.1288 -2.1220  2.5053
 5985SOL    HW229589   4.175   0.691   5.399 -0.5591 -0.5881  0.6701
 5986SOL     OW29590   0.896   2.029   3.730 -0.2347 -0.0761 -0.2121
 5986SOL    HW129591   0.860   1.957   3.679 -1.4088  0.6322 -0.3919
 5986SOL    HW229592   0.914   2.097   3.666 -2.4784  0.6028 -0.1139
 5987SOL     OW29593   1.857   3.468   6.878  0.0447  0.2955  0.1193
 5987SOL    HW129594   1.943   3.443   6.847 -0.4750  1.8566 -2.5647
 5987SOL    HW229595   1.836   3.537   6.815 -0.8396  0.7416  0.9016
 5988SOL     OW29596   3.544   3.198   9.867 -0.5074 -0.1392 -0.0680
 5988SOL    HW129597   3.513   3.108   9.855 -1.6604  0.0654  1.3437
 5988SOL    HW229598   3.521   3.209   9.960  1.6409 -1.8280  0.6521
 5989SOL     OW29599   4.430   3.489  10.392 -0.5783  0.3060  0.2014
 5989SOL    HW129600   4.485   3.566  10.408 -0.7863  0.7542 -1.2334
 5989SOL    HW229601   4.352   3.516  10.440  0.7068  0.4657  2.2085
 5990SOL     OW29602   1.704   1.150   5.540  0.5784 -0.4802  0.1560
 5990SOL    HW129603   1.632   1.163   5.601 -0.8895 -2.6051 -1.1020
 5990SOL    HW229604   1.656   1.101   5.473  0.5713  1.5712 -1.3457
 5991SOL     OW29605   2.697   2.842   7.156  0.8561 -0.4155  0.3407
 5991SOL    HW129606   2.744   2.794   7.088  0.0056 -0.3628 -0.2836
 5991SOL    HW229607   2.672   2.769   7.211 -0.4779  0.5836  1.0728
 5992SOL     OW29608   3.900   0.611   8.054  0.4444 -0.1795 -0.2783
 5992SOL    HW129609   3.873   0.702   8.048  0.9683  0.2400  3.6716
 5992SOL    HW229610   3.901   0.584   7.962 -0.7759 -0.0189 -0.3427
 5993SOL     OW29611   2.586   1.787   3.657 -0.5679 -0.1754 -0.3318
 5993SOL    HW129612   2.659   1.849   3.669 -0.2315 -0.3824 -1.2865
 5993SOL    HW229613   2.575   1.747   3.742  0.8855  1.6394  0.7189
 5994SOL     OW29614   1.959   1.005   2.264 -0.6066  0.1831 -0.6628
 5994SOL    HW129615   1.988   1.020   2.174  1.9379  0.1779  0.1793
 5994SOL    HW229616   1.954   0.910   2.263 -0.0087  0.1628 -1.6314
 5995SOL     OW29617   2.269   1.059   4.517  0.2403 -0.1110 -0.8031
 5995SOL    HW129618   2.308   1.143   4.495  0.5830  0.1245  0.6723
 5995SOL    HW229619   2.345   1.002   4.527  0.5487  0.2051 -1.3640
 5996SOL     OW29620   0.847   4.571   8.401  0.1688  0.3126  0.2358
 5996SOL    HW129621   0.941   4.557   8.390  0.3674  1.8097  0.0038
 5996SOL    HW229622   0.808   4.568   8.313  0.2207  1.6087  0.1745
 5997SOL     OW29623   2.835   2.411  10.714 -0.3616  0.3737 -0.0710
 5997SOL    HW129624   2.772   2.427  10.785 -0.8430 -1.6261 -0.0226
 5997SOL    HW229625   2.779   2.383  10.642 -0.6005  1.4371 -0.2977
 5998SOL     OW29626   1.294   1.376   2.607  0.0566 -0.1822  0.6789
 5998SOL    HW129627   1.389   1.374   2.605 -0.0028 -0.2485 -2.1073
 5998SOL    HW229628   1.274   1.387   2.700 -0.5184 -1.1008  0.6669
 5999SOL     OW29629   0.641   0.003   1.600 -0.5345  0.2334 -0.5676
 5999SOL    HW129630   0.609   0.092   1.611 -2.9969 -0.5007 -1.8505
 5999SOL    HW229631   0.638   4.729   1.505  1.8182 -2.0084 -0.3671
 6000SOL     OW29632   0.337   1.084   1.634  0.2664 -0.0800  0.0667
 6000SOL    HW129633   0.388   1.065   1.555 -0.3903 -1.6990  0.0335
 6000SOL    HW229634   0.398   1.139   1.683  0.5363  0.0970 -0.4596
 6001SOL     OW29635   3.939   4.494   2.600  0.1054  0.2398  0.7875
 6001SOL    HW129636   3.863   4.450   2.638 -0.0747 -0.3527 -0.2677
 6001SOL    HW229637   4.000   4.472   2.670  2.4472 -0.0555 -1.3347
 6002SOL     OW29638   3.972   3.248   4.244 -0.6122  0.2009 -0.2991
 6002SOL    HW129639   3.988   3.334   4.284  1.5436  0.1717 -1.0736
 6002SOL    HW229640   3.985   3.201   4.326  1.1176  2.7115  0.8630
 6003SOL     OW29641   1.567   1.213   1.337 -0.2405 -0.1461  0.4635
 6003SOL    HW129642   1.512   1.291   1.328 -0.4566 -0.3474  0.0239
 6003SOL    HW229643   1.527   1.161   1.266  1.2819  0.8725 -1.1314
 6004SOL     OW29644   0.900   1.938   1.500 -0.3685 -0.3466  0.2143
 6004SOL    HW129645   0.936   1.868   1.554 -0.2616 -1.2182 -0.9772
 6004SOL    HW229646   0.910   2.016   1.555 -0.4919  0.7679 -1.3159
 6005SOL     OW29647   1.529   1.627  11.257  0.9893 -0.1557 -0.0435
 6005SOL    HW129648   1.581   1.613  11.179  0.4380 -1.7639 -0.1247
 6005SOL    HW229649   1.533   1.542  11.301  1.3168 -1.0502 -1.8354
 6006SOL     OW29650   3.861   0.952   2.271  0.2322  0.0880 -0.6063
 6006SOL    HW129651   3.952   0.923   2.273  1.2831  3.2775 -2.5230
 6006SOL    HW229652   3.826   0.893   2.337  0.1114 -1.3382 -1.9413
 6007SOL     OW29653   0.601   3.735  10.488 -1.1680 -0.1087 -0.0268
 6007SOL    HW129654   0.579   3.823  10.519 -3.7619 -0.2846 -1.4221
 6007SOL    HW229655   0.534   3.689  10.537 -0.2987 -1.7595 -0.3854
 6008SOL     OW29656   3.336   1.667   8.242 -0.8023  0.1143 -0.1746
 6008SOL    HW129657   3.320   1.605   8.171  0.5253 -0.4833  0.0420
 6008SOL    HW229658   3.404   1.628   8.297  2.4025  3.0291 -2.0621
 6009SOL     OW29659   0.887   0.694  15.132 -0.0130  0.2058 -0.1341
 6009SOL    HW129660   0.926   0.717  15.048 -3.5893  0.2288 -1.8277
 6009SOL    HW229661   0.885   0.598  15.125  0.7463  0.1587  0.3022
 6010SOL     OW29662   3.176   3.974   7.459  0.0462  0.3653 -0.0887
 6010SOL    HW129663   3.192   4.067   7.473 -0.2441  0.1418  1.6620
 6010SOL    HW229664   3.086   3.980   7.427  0.1062 -2.4723 -0.7753
 6011SOL     OW29665   4.152   3.553   2.000  0.0818  0.2318 -0.5852
 6011SOL    HW129666   4.224   3.616   2.006 -1.1379  1.4989  0.7208
 6011SOL    HW229667   4.095   3.611   1.950 -0.3988 -2.1675 -2.8351
 6012SOL     OW29668   2.547   2.680   9.057 -0.0105 -0.3428  0.0489
 6012SOL    HW129669   2.557   2.655   8.965  1.4740  0.9272 -0.1120
 6012SOL    HW229670   2.494   2.608   9.092 -1.8089  0.5859 -0.7543
 6013SOL     OW29671   1.078   3.421   3.310  0.2037 -0.2752  0.1324
 6013SOL    HW129672   1.000   3.365   3.299 -0.6059  0.4846  2.0030
 6013SOL    HW229673   1.106   3.380   3.392  2.4258  0.2326 -0.3987
 6014SOL     OW29674   4.246   2.239   7.695 -0.5784 -0.4612  0.1066
 6014SOL    HW129675   4.247   2.221   7.601  1.0711 -3.3534  0.6579
 6014SOL    HW229676   4.334   2.210   7.718 -0.7274  0.7463  2.1613
 6015SOL     OW29677   3.030   3.125  17.011  0.3852 -0.2752 -0.2015
 6015SOL    HW129678   3.108   3.070  16.998 -0.0017 -0.7093 -0.6547
 6015SOL    HW229679   3.021   3.107  17.105  0.7793  2.5657  0.3898
 6016SOL     OW29680   2.367   0.128   1.815 -0.1354 -0.1089 -0.2455
 6016SOL    HW129681   2.361   0.158   1.724 -2.0884  0.5610  0.0955
 6016SOL    HW229682   2.402   0.040   1.805  1.9491  0.7639 -0.5905
 6017SOL     OW29683   4.352   2.003   4.739  0.4148 -0.5930 -0.2285
 6017SOL    HW129684   4.320   1.986   4.827  1.9128  2.4588  0.8894
 6017SOL    HW229685   4.442   2.027   4.759  0.3709 -2.2258  1.9907
 6018SOL     OW29686   4.578   1.726   6.396 -0.1741  0.2839 -0.3892
 6018SOL    HW129687   4.644   1.700   6.332  1.6435  0.4310  1.4366
 6018SOL    HW229688   4.634   1.762   6.465 -0.8338  0.3181  0.1301
 6019SOL     OW29689   2.709   3.521   3.117 -0.4854  0.0696  0.1297
 6019SOL    HW129690   2.763   3.460   3.167  1.0426  0.0092 -1.5758
 6019SOL    HW229691   2.778   3.572   3.074 -1.8914  0.5150 -1.6184
 6020SOL     OW29692   1.013   1.349   7.482  0.2640 -0.1884  0.1101
 6020SOL    HW129693   0.953   1.314   7.547 -1.8602  1.1214 -1.1539
 6020SOL    HW229694   1.062   1.420   7.524  0.0873  0.7278 -1.2012
 6021SOL     OW29695   2.075   0.569  11.135 -0.3630  0.1562  0.2045
 6021SOL    HW129696   2.138   0.557  11.207 -2.5236 -1.5872  1.7963
 6021SOL    HW229697   2.138   0.587  11.066  1.0630 -0.9037  1.2206
 6022SOL     OW29698   1.008   3.494   3.889  0.6687  0.3260 -0.6908
 6022SOL    HW129699   1.013   3.565   3.824  2.8014  0.0157 -0.8558
 6022SOL    HW229700   0.934   3.526   3.940  1.9918  1.2982  0.6065
 6023SOL     OW29701   2.354   1.365   1.060  0.0238 -0.2948  0.6129
 6023SOL    HW129702   2.354   1.389   0.967 -0.3279  0.7473  0.8783
 6023SOL    HW229703   2.360   1.273   1.035  2.8285  0.3182 -1.0207
 6024SOL     OW29704   2.339   2.240   1.436  0.7274  0.1654  0.2171
 6024SOL    HW129705   2.278   2.314   1.433  1.2287  0.6463  1.7732
 6024SOL    HW229706   2.365   2.232   1.344 -0.5228  2.2540 -0.3052
 6025SOL     OW29707   0.895   2.105   7.822  0.2815  0.1324 -0.4893
 6025SOL    HW129708   0.982   2.069   7.802  0.1822  0.4144 -1.4015
 6025SOL    HW229709   0.841   2.028   7.803  0.0722  0.3058 -0.5960
 6026SOL     OW29710   2.515   3.594  11.365  0.1186 -0.1933  0.4178
 6026SOL    HW129711   2.501   3.504  11.396 -3.2787  1.0759  2.6163
 6026SOL    HW229712   2.492   3.645  11.442 -0.5751 -1.1951  0.8846
 6027SOL     OW29713   3.580   3.481   8.846  0.9990  0.0971  0.2043
 6027SOL    HW129714   3.604   3.405   8.793  1.0321  2.0947 -2.6021
 6027SOL    HW229715   3.564   3.437   8.930  2.3548 -1.5278 -0.3689
 6028SOL     OW29716   3.249   0.517   1.520 -0.2692  0.4295 -0.2639
 6028SOL    HW129717   3.339   0.546   1.506 -0.1032  0.9391  1.9991
 6028SOL    HW229718   3.231   0.513   1.614 -1.1422 -1.3840 -0.5041
 6029SOL     OW29719   2.418   3.309   4.081 -0.2884 -0.0748 -0.0640
 6029SOL    HW129720   2.455   3.221   4.073 -0.0491  0.1707 -1.5277
 6029SOL    HW229721   2.426   3.340   3.991  0.0646 -1.4368 -0.5020
 6030SOL     OW29722   0.511   4.373  14.165 -0.1765  0.2865 -0.3213
 6030SOL    HW129723   0.471   4.340  14.245  1.7513 -0.8338  0.1851
 6030SOL    HW229724   0.600   4.363  14.200 -0.7275 -0.1955  0.9364
 6031SOL     OW29725   0.215   2.173   4.179 -0.7972  0.0496  0.0554
 6031SOL    HW129726   0.223   2.249   4.237 -1.0762  0.7295 -0.8025
 6031SOL    HW229727   0.125   2.176   4.147 -1.4833 -1.6754  1.8598
 6032SOL     OW29728   3.379   0.671   3.759 -0.0027  0.3294 -0.1582
 6032SOL    HW129729   3.287   0.645   3.767  1.0305 -2.1077  3.6483
 6032SOL    HW229730   3.398   0.622   3.679  0.5616 -2.0674  1.4674
 6033SOL     OW29731   1.048   2.641   6.438  0.4220  0.1250  0.2879
 6033SOL    HW129732   0.979   2.577   6.455  0.5306 -0.4628 -1.4690
 6033SOL    HW229733   1.051   2.704   6.510  1.3574 -0.1575  0.4956
 6034SOL     OW29734   2.104   1.357   4.359 -0.1593 -0.5023 -0.2808
 6034SOL    HW129735   2.057   1.422   4.411  2.2451  1.1152 -0.1215
 6034SOL    HW229736   2.190   1.349   4.400 -0.1822 -2.5517 -0.6326
 6035SOL     OW29737   4.384   1.943  17.095 -0.4845  0.1931  0.8790
 6035SOL    HW129738   4.310   2.002  17.106  1.0256  1.9794  1.3269
 6035SOL    HW229739   4.341   1.859  17.111  0.1061 -0.4825 -0.9692
 6036SOL     OW29740   0.513   3.817   9.323 -0.3129 -0.2291 -0.7569
 6036SOL    HW129741   0.598   3.839   9.360 -2.4215  1.0167  3.3501
 6036SOL    HW229742   0.481   3.902   9.293  0.3715  1.1501  2.4077
 6037SOL     OW29743   3.871   0.537   9.308 -0.4381  0.5823 -0.5565
 6037SOL    HW129744   3.815   0.555   9.383  0.8658 -0.2076  0.5953
 6037SOL    HW229745   3.910   0.464   9.354  0.1054  0.7602 -0.7378
 6038SOL     OW29746   0.587   3.778   8.069  0.5487 -0.2089  0.5706
 6038SOL    HW129747   0.560   3.689   8.091  0.1464  0.4216  2.6491
 6038SOL    HW229748   0.637   3.811   8.144  1.7478  1.2024 -0.8652
 6039SOL     OW29749   1.457   0.526   3.967 -0.1387  0.0056 -0.0267
 6039SOL    HW129750   1.369   0.563   3.970 -0.8057 -1.5869  0.3032
 6039SOL    HW229751   1.446   0.449   4.023  0.6202  0.6043  0.9306
 6040SOL     OW29752   1.432   3.102   9.315  0.1696  0.1452 -0.0610
 6040SOL    HW129753   1.357   3.064   9.270  1.4317 -0.8692 -1.3119
 6040SOL    HW229754   1.376   3.167   9.356  1.7031  2.3553 -1.4583
 6041SOL     OW29755   2.699   0.374   1.187 -0.0892  0.2161 -0.1353
 6041SOL    HW129756   2.613   0.331   1.193  1.1184 -2.2710 -0.7244
 6041SOL    HW229757   2.721   0.355   1.096 -1.2071 -2.3786  0.1113
 6042SOL     OW29758   1.613   0.942   1.138 -0.0120  0.5576  0.6919
 6042SOL    HW129759   1.665   0.916   1.062  0.7133 -1.0906  1.7413
 6042SOL    HW229760   1.530   0.975   1.104  0.6468  1.0280 -0.4282
 6043SOL     OW29761   1.401   4.607   7.562  0.5536 -0.3539 -0.4502
 6043SOL    HW129762   1.339   4.535   7.551  0.7053 -0.0461 -3.3176
 6043SOL    HW229763   1.363   4.647   7.640  1.7391  0.3815 -0.2516
 6044SOL     OW29764   0.024   2.951   0.039 -0.1661 -0.3268  0.3037
 6044SOL    HW129765   0.057   3.025  17.743  0.5393 -0.0207  1.2246
 6044SOL    HW229766   0.094   2.886   0.030 -0.1805 -0.1408 -1.1379
 6045SOL     OW29767   4.270   1.025   3.306 -0.3545  0.5126 -0.0299
 6045SOL    HW129768   4.264   1.097   3.369  1.2754  1.8081 -1.3963
 6045SOL    HW229769   4.290   0.957   3.371 -0.7176 -0.5057 -0.9975
 6046SOL     OW29770   1.357   1.679   1.663 -0.5537  0.1154 -0.2225
 6046SOL    HW129771   1.347   1.663   1.756  0.4953  0.8727  0.0218
 6046SOL    HW229772   1.398   1.601   1.625  2.1425  1.3084  0.2335
 6047SOL     OW29773   4.457   3.981   7.107 -0.2086  0.0238  1.0776
 6047SOL    HW129774   4.453   3.886   7.101 -3.4607  0.1231  1.7229
 6047SOL    HW229775   4.549   3.988   7.133 -0.1455  0.7798  0.6380
 6048SOL     OW29776   0.512   4.367   1.359 -0.4576 -0.5739 -0.3106
 6048SOL    HW129777   0.465   4.428   1.416  0.3194  0.3314 -0.6460
 6048SOL    HW229778   0.541   4.424   1.288  0.0935  0.6409  0.8919
 6049SOL     OW29779   1.729   2.564   8.527 -0.7785 -0.1387 -0.3232
 6049SOL    HW129780   1.700   2.475   8.507  1.6104 -1.2560  1.1207
 6049SOL    HW229781   1.725   2.617   8.447  0.9441 -2.1393 -1.7351
 6050SOL     OW29782   0.684   1.141  17.034 -0.2124 -0.0304 -0.1306
 6050SOL    HW129783   0.749   1.112  17.098 -0.6354 -1.1336 -0.2033
 6050SOL    HW229784   0.682   1.234  17.058 -0.3699  0.6002 -2.5363
 6051SOL     OW29785   2.028   2.115   6.108  0.0544  0.2959 -0.6083
 6051SOL    HW129786   2.099   2.054   6.128 -0.3623  1.0073  3.0960
 6051SOL    HW229787   2.043   2.181   6.175  3.6423 -1.1489 -0.0092
 6052SOL     OW29788   4.374   4.385  14.343  0.6815  0.3019 -0.1243
 6052SOL    HW129789   4.406   4.342  14.264  0.9886  0.3680 -0.0380
 6052SOL    HW229790   4.392   4.475  14.315 -0.6252  0.9123  0.9892
 6053SOL     OW29791   3.130   1.793   3.900  0.2352 -0.4882  0.2267
 6053SOL    HW129792   3.196   1.848   3.942  1.0955 -1.1643 -0.2323
 6053SOL    HW229793   3.117   1.722   3.963 -0.7239 -1.9002 -1.5534
 6054SOL     OW29794   0.542   0.181  12.973  0.4022  0.3037 -0.1691
 6054SOL    HW129795   0.478   0.117  13.003  1.4808 -0.6207  0.1945
 6054SOL    HW229796   0.497   0.257  13.011 -2.9375 -1.5324 -0.5299
 6055SOL     OW29797   1.463   0.566   2.776 -0.3573  0.0695  0.4707
 6055SOL    HW129798   1.441   0.628   2.845 -0.6655  3.8314 -2.9935
 6055SOL    HW229799   1.467   0.620   2.697  3.5652 -0.7526  0.0793
 6056SOL     OW29800   2.873   2.264   7.209  0.2350  0.2293 -0.2926
 6056SOL    HW129801   2.964   2.278   7.180 -0.1166  0.1185 -1.4112
 6056SOL    HW229802   2.847   2.204   7.140 -0.1831 -0.2956  0.3314
 6057SOL     OW29803   2.955   3.703   1.589  0.0460 -0.0635  0.3006
 6057SOL    HW129804   2.922   3.613   1.593 -0.5426  0.0727 -1.2546
 6057SOL    HW229805   2.896   3.734   1.657  0.4927  0.0240  0.6508
 6058SOL     OW29806   1.289   3.259   8.369 -0.2260 -0.1484 -0.2502
 6058SOL    HW129807   1.202   3.266   8.410  1.0412 -1.5797  2.6864
 6058SOL    HW229808   1.333   3.196   8.427 -1.5095 -1.8763 -1.1624
 6059SOL     OW29809   0.108   0.142  13.837 -0.4637  0.0013 -0.0573
 6059SOL    HW129810   0.194   0.105  13.856 -0.0673  0.1255 -1.6363
 6059SOL    HW229811   0.102   0.180  13.925 -0.3323 -0.3559  0.1071
 6060SOL     OW29812   1.207   0.975   8.757  0.6312 -0.4449 -0.4799
 6060SOL    HW129813   1.283   0.979   8.699  1.8885 -1.6253  1.0755
 6060SOL    HW229814   1.146   1.024   8.702  1.7488  2.8021  1.1054
 6061SOL     OW29815   3.186   1.610   8.602  0.6111 -0.0562 -0.5580
 6061SOL    HW129816   3.253   1.551   8.567  1.4542  1.4442 -1.4959
 6061SOL    HW229817   3.237   1.690   8.615 -0.2889  0.7871 -2.2125
 6062SOL     OW29818   4.607   3.379   8.055  0.5812 -0.4718 -0.8364
 6062SOL    HW129819   4.541   3.325   8.010 -0.0824 -0.6481  0.3414
 6062SOL    HW229820   4.579   3.368   8.146 -3.2974 -1.4606 -2.1266
 6063SOL     OW29821   1.455   0.989   1.851 -0.6619  0.1144  0.2315
 6063SOL    HW129822   1.499   1.027   1.775 -0.0038  0.5494  0.8342
 6063SOL    HW229823   1.375   0.953   1.812  0.4938  0.6623 -2.7152
 6064SOL     OW29824   3.392   1.596   2.183 -0.1977  0.1847 -0.1962
 6064SOL    HW129825   3.346   1.679   2.171 -1.1177 -0.2766  0.1128
 6064SOL    HW229826   3.327   1.532   2.213  2.3364 -1.7932  1.0235
 6065SOL     OW29827   2.108   3.160   1.981  0.0371 -0.0982  0.0469
 6065SOL    HW129828   2.154   3.104   2.044  2.8336  1.5196 -0.5159
 6065SOL    HW229829   2.143   3.123   1.901 -0.1208 -0.6277  0.2247
 6066SOL     OW29830   0.018   4.432   5.458 -0.1369 -0.2601 -0.0442
 6066SOL    HW129831   0.100   4.399   5.422 -1.5963 -3.9760 -0.0243
 6066SOL    HW229832   0.014   4.380   5.539  0.3819  0.3331  0.3589
 6067SOL     OW29833   4.166   3.694   5.214 -1.0381  0.1139 -0.1327
 6067SOL    HW129834   4.184   3.631   5.144 -0.0622  0.9195 -0.6033
 6067SOL    HW229835   4.091   3.748   5.187 -1.8910 -0.8321  0.3321
 6068SOL     OW29836   0.063   2.725   5.145  0.5440 -0.1707  0.5945
 6068SOL    HW129837   0.110   2.719   5.062  0.2278  0.3666  0.3761
 6068SOL    HW229838   0.074   2.643   5.193 -0.9037  0.6737  2.3789
 6069SOL     OW29839   3.341   2.720   9.151  0.8186 -0.2921  0.4181
 6069SOL    HW129840   3.419   2.776   9.153  0.8072 -0.1937 -1.8487
 6069SOL    HW229841   3.369   2.663   9.223 -1.1075 -1.0684  0.5537
 6070SOL     OW29842   1.143   3.772   2.659  0.3866  0.0746 -0.0079
 6070SOL    HW129843   1.060   3.800   2.697  0.8521 -0.4468  1.4228
 6070SOL    HW229844   1.110   3.697   2.610  2.1670  0.1740 -1.3535
 6071SOL     OW29845   0.133   3.646   2.482  0.0964 -0.5358  0.3504
 6071SOL    HW129846   0.186   3.686   2.551  1.5476 -1.2049 -0.3858
 6071SOL    HW229847   0.063   3.617   2.539  2.2827 -0.5833  2.9921
 6072SOL     OW29848   3.767   0.722  12.901 -0.0697  0.3462  0.1530
 6072SOL    HW129849   3.795   0.631  12.902 -2.5410 -0.4110  0.4860
 6072SOL    HW229850   3.774   0.740  12.807 -3.2693 -1.1142 -0.3553
 6073SOL     OW29851   0.801   2.719   2.382 -0.5966  0.1091 -0.0993
 6073SOL    HW129852   0.858   2.645   2.402 -1.6794  0.5053  4.4185
 6073SOL    HW229853   0.804   2.752   2.472  0.1548 -0.3313  0.0333
 6074SOL     OW29854   4.196   1.263   2.426 -0.3251  0.0559 -0.2714
 6074SOL    HW129855   4.243   1.259   2.509 -0.0128 -3.1425 -0.5668
 6074SOL    HW229856   4.145   1.183   2.441  1.1706 -0.7868  0.3769
 6075SOL     OW29857   1.945   2.770  14.058 -0.1662 -0.0241  0.0172
 6075SOL    HW129858   1.952   2.844  14.118  1.0080  0.8822 -1.2247
 6075SOL    HW229859   2.024   2.723  14.084 -0.0573 -0.0612 -0.3809
 6076SOL     OW29860   0.373   1.798   5.532 -0.7102  0.0956 -0.1111
 6076SOL    HW129861   0.427   1.761   5.601 -0.4235  2.0397  0.6984
 6076SOL    HW229862   0.334   1.875   5.574 -1.4624 -0.3907  0.0907
 6077SOL     OW29863   1.099   1.273  17.315  0.2245 -0.1338  0.5025
 6077SOL    HW129864   1.106   1.367  17.300  1.0293 -0.5809 -1.8026
 6077SOL    HW229865   1.134   1.233  17.236 -0.8693  0.0048 -0.0376
 6078SOL     OW29866   2.995   2.514   5.835  0.2850  0.7320 -0.0309
 6078SOL    HW129867   2.936   2.447   5.868  0.2768 -0.0645 -1.6499
 6078SOL    HW229868   2.978   2.502   5.742  0.6149 -2.1396  0.2805
 6079SOL     OW29869   0.335   2.739   9.670 -0.1249  0.3604  0.0228
 6079SOL    HW129870   0.325   2.649   9.639  1.4034  0.0671  0.3924
 6079SOL    HW229871   0.341   2.722   9.764 -2.5112 -0.0230  0.1160
 6080SOL     OW29872   3.006   1.496   2.525  0.4164 -0.0481 -0.3695
 6080SOL    HW129873   3.062   1.570   2.500  1.4702 -0.3806  1.0735
 6080SOL    HW229874   2.918   1.530   2.506  0.6499  0.3244 -0.8041
 6081SOL     OW29875   0.302   3.460   7.572  0.1362 -0.5142  0.4167
 6081SOL    HW129876   0.319   3.548   7.606 -1.3593 -0.8064  1.9444
 6081SOL    HW229877   0.234   3.433   7.634  1.2068 -1.3879  1.1973
 6082SOL     OW29878   0.180   3.370   5.998 -0.2444  0.0412 -0.0547
 6082SOL    HW129879   0.227   3.344   5.919 -1.3970 -3.0257  0.2942
 6082SOL    HW229880   0.234   3.441   6.033 -2.1729  0.7612  1.4826
 6083SOL     OW29881   4.537   1.219  16.363  0.5580  0.5321  0.0428
 6083SOL    HW129882   4.562   1.299  16.409  1.6047 -1.5200  3.0940
 6083SOL    HW229883   4.441   1.226  16.356  0.7210  2.0635 -0.5904
 6084SOL     OW29884   1.234   4.095   5.045 -0.2013  0.0581 -0.8928
 6084SOL    HW129885   1.158   4.129   5.093 -0.4053  0.3769 -1.4421
 6084SOL    HW229886   1.253   4.162   4.979 -3.6541  0.0233 -1.9371
 6085SOL     OW29887   2.506   1.021   3.522  0.3332  0.0254 -0.0955
 6085SOL    HW129888   2.523   1.084   3.452  3.3545 -0.9160 -0.2036
 6085SOL    HW229889   2.587   1.018   3.572  0.7565 -0.0278 -0.7808
 6086SOL     OW29890   1.024   0.983   2.014  0.0820 -0.0065 -0.1294
 6086SOL    HW129891   1.062   0.990   1.927  0.6947 -1.0415  0.0496
 6086SOL    HW229892   0.969   0.907   1.996 -0.5272  0.3078  0.3958
 6087SOL     OW29893   2.736   3.567   9.111 -0.1550  0.2388  0.0407
 6087SOL    HW129894   2.714   3.574   9.204  0.5947  3.5564 -0.0234
 6087SOL    HW229895   2.719   3.474   9.099  2.0335 -0.0811 -0.5992
 6088SOL     OW29896   0.583   0.869   9.478 -0.2524  0.0125  0.1620
 6088SOL    HW129897   0.491   0.869   9.504 -0.4548 -1.3763 -0.5775
 6088SOL    HW229898   0.624   0.860   9.564  1.4372  1.4053 -0.4947
 6089SOL     OW29899   0.670   3.113   2.634  0.1745  0.4731  0.0930
 6089SOL    HW129900   0.576   3.128   2.645 -0.4372 -1.6666 -2.1788
 6089SOL    HW229901   0.703   3.184   2.690 -2.4241  1.1804  0.7457
 6090SOL     OW29902   1.071   3.877   8.386  0.0356 -0.0497  0.3243
 6090SOL    HW129903   1.081   3.946   8.320  0.0219 -0.5616 -0.2198
 6090SOL    HW229904   1.012   3.814   8.345 -2.0943  3.3828 -1.8496
 6091SOL     OW29905   3.267   1.175   3.324  0.6454  0.0553 -0.2880
 6091SOL    HW129906   3.316   1.256   3.309 -0.8504  0.6263 -2.0110
 6091SOL    HW229907   3.281   1.160   3.417 -1.7982 -1.4826 -0.1875
 6092SOL     OW29908   4.491   4.420  12.307  0.1378  0.3453  0.1688
 6092SOL    HW129909   4.586   4.413  12.302  0.1140  0.1639 -0.0543
 6092SOL    HW229910   4.471   4.334  12.269  0.2686  0.8456 -1.0165
 6093SOL     OW29911   1.104   2.806   6.894  0.0292 -0.0317  0.0085
 6093SOL    HW129912   1.101   2.805   6.990 -1.7748  1.5572 -0.0264
 6093SOL    HW229913   1.149   2.890   6.884 -0.1295  0.1904  1.1674
 6094SOL     OW29914   3.752   0.297   5.210 -0.1137  0.7228  0.8985
 6094SOL    HW129915   3.808   0.221   5.197 -1.6804 -0.4151  0.8381
 6094SOL    HW229916   3.778   0.303   5.302  2.0944 -0.6627  0.3616
 6095SOL     OW29917   4.476   4.379   2.744 -0.2783 -0.4829 -0.0757
 6095SOL    HW129918   4.404   4.401   2.685 -1.3339 -0.0759  1.3594
 6095SOL    HW229919   4.499   4.466   2.777 -1.2581 -0.6245  0.9805
 6096SOL     OW29920   0.131   0.405   8.007 -0.3202  0.0473  0.0830
 6096SOL    HW129921   0.040   0.430   8.024 -0.7477 -1.1908 -0.3799
 6096SOL    HW229922   0.182   0.465   8.061  0.9240  0.0703 -1.1045
 6097SOL     OW29923   1.658   0.546   3.587  0.6118  0.4674 -0.7701
 6097SOL    HW129924   1.666   0.612   3.656  1.4240 -1.1762  0.6923
 6097SOL    HW229925   1.677   0.602   3.511  0.1151 -0.1367 -1.3421
 6098SOL     OW29926   0.840   2.758  12.392  0.3462  0.0941 -0.0957
 6098SOL    HW129927   0.910   2.803  12.344 -0.1681  0.9954 -0.0037
 6098SOL    HW229928   0.776   2.741  12.323 -0.0163  0.2738  0.1972
 6099SOL     OW29929   2.115   4.625  15.375  0.0592  0.2084 -0.0838
 6099SOL    HW129930   2.079   4.685  15.310  1.3850  0.9568 -0.1350
 6099SOL    HW229931   2.030   4.602  15.410  0.5272 -1.2857  0.0756
 6100SOL     OW29932   3.719   4.340  14.547  0.1531 -0.1564  0.8286
 6100SOL    HW129933   3.675   4.257  14.528 -1.1367  0.0635  2.9061
 6100SOL    HW229934   3.689   4.344  14.637 -0.2475 -2.5683  0.8043
 6101SOL     OW29935   0.566   1.982   6.716  0.1073  0.2986 -0.1726
 6101SOL    HW129936   0.553   2.068   6.674 -0.3993  0.1023 -0.4135
 6101SOL    HW229937   0.616   1.938   6.647 -1.1937 -1.3801 -0.0540
 6102SOL     OW29938   1.313   3.230   5.143 -0.2629  0.0182 -0.3403
 6102SOL    HW129939   1.355   3.173   5.078  2.9830  2.9154 -0.8214
 6102SOL    HW229940   1.228   3.188   5.151  0.7519 -1.6800  1.5030
 6103SOL     OW29941   1.767   0.395   8.956 -0.2368 -0.1693 -0.0189
 6103SOL    HW129942   1.817   0.378   9.035  3.0930  1.6590 -1.7177
 6103SOL    HW229943   1.729   0.309   8.937  0.8585 -0.9163  1.1430
 6104SOL     OW29944   4.082   2.567   1.919 -0.2911 -0.3594  0.9956
 6104SOL    HW129945   4.023   2.594   1.848 -0.6456 -2.9504  0.3233
 6104SOL    HW229946   4.058   2.475   1.915 -1.4670 -0.0108 -0.1042
 6105SOL     OW29947   0.002   3.082   2.240 -0.1409 -0.1458  0.1645
 6105SOL    HW129948   4.681   3.008   2.247 -0.0989 -0.0084  1.7688
 6105SOL    HW229949   4.679   3.150   2.213  0.6132 -0.5204 -2.5840
 6106SOL     OW29950   1.028   0.449   2.537 -0.4513 -0.0798  0.2615
 6106SOL    HW129951   1.050   0.376   2.594  0.1969 -0.2329 -0.1809
 6106SOL    HW229952   1.112   0.458   2.492 -0.1841 -1.5472  0.4882
 6107SOL     OW29953   0.814   3.502   1.359  0.4331  0.3753 -0.6263
 6107SOL    HW129954   0.742   3.564   1.345 -0.8338 -0.2182  3.3169
 6107SOL    HW229955   0.890   3.559   1.370  0.0073  0.6156  1.1044
 6108SOL     OW29956   2.300   3.650   2.928 -0.1469 -0.3041  0.5478
 6108SOL    HW129957   2.220   3.681   2.885  0.2199 -1.2321 -0.8233
 6108SOL    HW229958   2.351   3.731   2.930 -0.9174  0.1915  0.1446
 6109SOL     OW29959   3.639   3.968   8.889  0.5057 -0.3521  0.9064
 6109SOL    HW129960   3.677   3.880   8.881  1.3120  0.1848 -1.0918
 6109SOL    HW229961   3.547   3.940   8.885  0.5809 -0.8123  2.3429
 6110SOL     OW29962   1.421   4.587   0.691  0.0194 -0.0487  0.4771
 6110SOL    HW129963   1.379   4.663   0.651  0.1252 -0.6318 -0.7687
 6110SOL    HW229964   1.504   4.586   0.644  0.7843 -0.4996  1.8558
 6111SOL     OW29965   1.854   3.348   4.509  0.2123  0.1459 -0.0737
 6111SOL    HW129966   1.764   3.377   4.495  0.6459  0.6325 -1.8958
 6111SOL    HW229967   1.863   3.310   4.422  0.3812  1.9224 -0.8321
 6112SOL     OW29968   0.508   0.780   6.358 -0.3756 -0.3471 -0.0065
 6112SOL    HW129969   0.603   0.766   6.355 -0.3423 -0.1694  0.2242
 6112SOL    HW229970   0.498   0.762   6.451 -1.0796  1.6457  0.3052
 6113SOL     OW29971   0.559   4.554   4.692 -0.8715  0.2031  0.7149
 6113SOL    HW129972   0.493   4.563   4.761 -0.3408  1.8945  1.0184
 6113SOL    HW229973   0.520   4.488   4.635  0.2973  1.0179 -1.0175
 6114SOL     OW29974   3.166   0.216   3.970  0.2397  0.1100  0.0038
 6114SOL    HW129975   3.218   0.153   4.019  0.9605  0.0756 -0.8031
 6114SOL    HW229976   3.209   0.215   3.884  0.7177 -1.1592  0.2551
 6115SOL     OW29977   0.770   2.332   2.062  0.0186 -0.1836 -0.0984
 6115SOL    HW129978   0.797   2.398   1.998  4.8458 -0.4796  1.6042
 6115SOL    HW229979   0.806   2.255   2.017  0.6475 -0.1591  0.3617
 6116SOL     OW29980   0.584   1.925   7.481 -0.1173  0.1820  0.1877
 6116SOL    HW129981   0.553   1.950   7.394 -1.5236  0.1085  0.6827
 6116SOL    HW229982   0.620   1.836   7.479  0.1604  0.3195 -1.2764
 6117SOL     OW29983   0.488   3.604   8.296  0.2362 -0.4982 -0.1749
 6117SOL    HW129984   0.559   3.645   8.345  1.2151  0.5975 -2.5054
 6117SOL    HW229985   0.411   3.620   8.350  0.3071 -2.9379  0.6583
 6118SOL     OW29986   0.295   3.122   8.548  0.4310  0.2765  0.4979
 6118SOL    HW129987   0.244   3.043   8.565  1.6441 -0.5069  0.5240
 6118SOL    HW229988   0.242   3.193   8.584  0.7169 -0.2713  2.0137
 6119SOL     OW29989   2.198   1.227   2.510 -0.2050  0.3828  0.2012
 6119SOL    HW129990   2.191   1.317   2.542  0.0956  0.4493  0.0810
 6119SOL    HW229991   2.290   1.208   2.527  0.2021  1.1788 -1.1338
 6120SOL     OW29992   2.800   4.203   8.268 -0.5053 -0.6011 -0.2196
 6120SOL    HW129993   2.760   4.223   8.184 -3.2209  1.4237  1.5421
 6120SOL    HW229994   2.878   4.153   8.243  0.2661  0.8451 -0.6779
 6121SOL     OW29995   0.047   1.648   4.494  0.3377  0.1943 -0.6238
 6121SOL    HW129996   0.135   1.630   4.463  0.7849  0.9163  0.2413
 6121SOL    HW229997   4.737   1.573   4.460  0.7376  0.1141 -1.0197
 6122SOL     OW29998   3.834   2.422   9.863  0.5152  0.3460  0.5382
 6122SOL    HW129999   3.781   2.493   9.825  1.4436 -1.3797 -3.9961
 6122SOL    HW230000   3.785   2.391   9.939  0.8608  0.5775  0.8521
 6123SOL     OW30001   3.214   4.469   6.899 -0.5443 -0.3276  0.2366
 6123SOL    HW130002   3.138   4.444   6.951 -2.1100  2.5547 -0.7193
 6123SOL    HW230003   3.173   4.528   6.836 -1.5734 -0.2903  0.9431
 6124SOL     OW30004   2.348   2.883  14.653  0.1711  0.0123  0.1396
 6124SOL    HW130005   2.430   2.897  14.701  1.5096  0.3651 -2.2280
 6124SOL    HW230006   2.356   2.794  14.619  0.7984  0.4161 -0.7724
 6125SOL     OW30007   3.344   1.845   4.059 -0.6788 -0.9211  0.2908
 6125SOL    HW130008   3.340   1.914   4.125 -1.8309 -0.2791 -0.4519
 6125SOL    HW230009   3.365   1.771   4.116  0.7585 -0.7182  0.0119
 6126SOL     OW30010   4.673   1.949   1.125 -0.1643  0.1239 -0.2554
 6126SOL    HW130011   4.649   2.041   1.121 -2.6076 -0.5329 -0.6710
 6126SOL    HW230012   0.015   1.951   1.176 -0.5890 -2.3193  0.5140
 6127SOL     OW30013   2.802   1.677   2.485  0.5927  0.5359  0.1275
 6127SOL    HW130014   2.728   1.708   2.432  0.1377 -0.6372  0.0780
 6127SOL    HW230015   2.750   1.634   2.552  1.2498 -0.7997 -0.2284
 6128SOL     OW30016   3.433   4.036  14.919 -0.7614  0.0869  0.5078
 6128SOL    HW130017   3.519   4.039  14.962 -0.9622 -4.3287  1.2728
 6128SOL    HW230018   3.373   4.019  14.991  1.5977 -1.2068  2.1746
 6129SOL     OW30019   1.652   4.513   4.071  0.8482  0.2252 -0.4738
 6129SOL    HW130020   1.693   4.586   4.118 -0.6489  0.0188  1.1674
 6129SOL    HW230021   1.562   4.541   4.057  0.9444  2.0398  2.5160
 6130SOL     OW30022   2.129   3.061   7.374 -0.0716  0.4582  0.1369
 6130SOL    HW130023   2.219   3.081   7.401  0.4692 -1.6591 -0.1002
 6130SOL    HW230024   2.070   3.134   7.396 -0.7699  0.5570 -2.0188
 6131SOL     OW30025   2.956   0.682   0.160 -0.2201  0.1413 -0.2049
 6131SOL    HW130026   2.982   0.677   0.067  3.1324 -1.4262  0.8113
 6131SOL    HW230027   2.892   0.615   0.180  0.1017  0.2248  1.0769
 6132SOL     OW30028   0.770   0.412   2.812  0.2642 -0.5736  0.0539
 6132SOL    HW130029   0.695   0.366   2.848 -0.7822 -0.1360 -1.5713
 6132SOL    HW230030   0.764   0.497   2.855 -2.8036  0.0319 -1.6066
 6133SOL     OW30031   2.186   3.287   1.048  0.1661  0.6514 -0.6262
 6133SOL    HW130032   2.139   3.296   1.130 -0.3884  2.7485 -1.1811
 6133SOL    HW230033   2.269   3.334   1.058  0.3125  0.5765 -1.4597
 6134SOL     OW30034   1.800   3.685   7.884 -0.0862  0.2629  0.0403
 6134SOL    HW130035   1.760   3.615   7.935  0.1213  0.0767 -0.0531
 6134SOL    HW230036   1.821   3.636   7.805  0.0765  0.1419  0.1576
 6135SOL     OW30037   3.702   1.353  13.665  0.0827 -0.0131  0.5697
 6135SOL    HW130038   3.662   1.266  13.675 -0.0522 -0.3492 -2.6099
 6135SOL    HW230039   3.630   1.406  13.698 -0.2675  0.1246 -0.4021
 6136SOL     OW30040   1.469   3.412   2.670  0.1263 -0.1525 -0.6157
 6136SOL    HW130041   1.456   3.487   2.612 -1.7830  0.9434  1.2116
 6136SOL    HW230042   1.515   3.351   2.613  0.6112 -0.3757  0.0060
 6137SOL     OW30043   2.778   0.199   5.582 -0.1050 -0.3932  0.6245
 6137SOL    HW130044   2.734   0.159   5.657 -0.9659 -1.6016 -0.5283
 6137SOL    HW230045   2.852   0.140   5.571 -1.2931 -2.0749  1.6070
 6138SOL     OW30046   3.236   1.921  14.156  0.1201 -0.3318  0.1052
 6138SOL    HW130047   3.261   1.958  14.240 -0.1358 -0.5831  0.2898
 6138SOL    HW230048   3.316   1.931  14.105  1.1787  1.7829  2.2152
 6139SOL     OW30049   0.943   2.635   7.201 -0.0554  0.0915  0.6711
 6139SOL    HW130050   0.894   2.579   7.262  0.2757 -0.1495  0.7147
 6139SOL    HW230051   1.000   2.568   7.163 -1.0207 -0.1004 -0.4660
 6140SOL     OW30052   0.265   0.129   1.546 -0.1096  0.2958  0.2533
 6140SOL    HW130053   0.325   0.117   1.474  1.1305 -2.4669  1.7262
 6140SOL    HW230054   0.218   0.045   1.540 -1.3527  1.0089 -0.0553
 6141SOL     OW30055   0.002   4.278   2.612  0.5100  0.5214  0.0243
 6141SOL    HW130056   4.680   4.296   2.540  2.6175  1.0113 -1.6308
 6141SOL    HW230057   0.011   4.368   2.642  3.9033 -0.5359  2.1676
 6142SOL     OW30058   2.214   2.877   5.048 -0.0968  0.5587 -0.4319
 6142SOL    HW130059   2.191   2.891   5.140 -1.0727  2.5244 -0.9820
 6142SOL    HW230060   2.283   2.943   5.042  0.7598 -0.5118 -2.2901
 6143SOL     OW30061   3.837   4.177   8.974 -0.4691 -0.5934 -0.4904
 6143SOL    HW130062   3.813   4.091   8.939 -0.4379 -0.1368 -1.6432
 6143SOL    HW230063   3.769   4.223   8.924 -0.2342  0.9599  0.6238
 6144SOL     OW30064   3.168   3.749   6.987  0.0761 -0.4206 -0.2493
 6144SOL    HW130065   3.204   3.795   7.063 -1.1853 -2.1923  1.4071
 6144SOL    HW230066   3.140   3.664   7.022  0.7910 -0.0039  1.3313
 6145SOL     OW30067   0.666   4.005   9.061  0.1228  0.6764  0.3681
 6145SOL    HW130068   0.589   3.970   9.106  0.5111 -1.8336 -0.8763
 6145SOL    HW230069   0.668   4.096   9.090 -2.4311  0.8601 -0.0231
 6146SOL     OW30070   3.714   1.518   9.231 -0.0846 -0.5171 -0.5620
 6146SOL    HW130071   3.775   1.591   9.222 -0.6314 -0.1202 -1.0829
 6146SOL    HW230072   3.631   1.555   9.202  0.7199  1.6852 -0.0508
 6147SOL     OW30073   1.113   0.249   8.405  0.0553 -0.6867  0.6397
 6147SOL    HW130074   1.021   0.222   8.412 -0.5655  1.4266  0.7962
 6147SOL    HW230075   1.094   0.338   8.375 -2.7458 -1.4649  0.0591
 6148SOL     OW30076   1.048   0.059  16.759  0.0193 -0.6280  0.7737
 6148SOL    HW130077   1.102   0.062  16.838  0.5244  1.3220  0.3423
 6148SOL    HW230078   0.967   0.018  16.789 -0.4113  0.6517  1.3440
 6149SOL     OW30079   2.939   4.418   3.924  0.1680 -0.4102 -0.4079
 6149SOL    HW130080   2.968   4.343   3.871 -0.8514 -0.6620 -0.6059
 6149SOL    HW230081   2.845   4.408   3.911  0.1758  0.3448 -1.0758
 6150SOL     OW30082   2.051   2.032   0.473  0.2179  0.4202  0.4777
 6150SOL    HW130083   2.057   2.086   0.394 -0.6044 -0.9121 -0.5020
 6150SOL    HW230084   1.956   2.037   0.489  0.0008 -0.3053 -0.6112
 6151SOL     OW30085   3.432   3.946  12.194  0.0079  0.7192  0.4986
 6151SOL    HW130086   3.475   3.969  12.277  0.8618  0.8616  0.0203
 6151SOL    HW230087   3.448   3.851  12.192  1.6810  1.0267 -0.5910
 6152SOL     OW30088   0.383   4.029  16.691  0.4290  0.1553 -0.1951
 6152SOL    HW130089   0.288   4.025  16.703  0.3175 -1.0810 -1.3468
 6152SOL    HW230090   0.401   4.122  16.701  4.0584 -0.8573  2.4409
 6153SOL     OW30091   2.736   0.450   3.571  0.5092 -0.0708  0.0926
 6153SOL    HW130092   2.808   0.436   3.632 -0.2214  2.2181  1.4923
 6153SOL    HW230093   2.662   0.462   3.630 -0.9643  0.9874 -1.9466
 6154SOL     OW30094   3.686   3.732   6.939  0.3650 -0.2471  0.0778
 6154SOL    HW130095   3.717   3.753   7.028  1.9489 -2.0674 -0.0434
 6154SOL    HW230096   3.603   3.778   6.935  0.3849 -0.2590 -0.4224
 6155SOL     OW30097   4.708   2.519  10.967  0.1272  0.0331  0.2405
 6155SOL    HW130098   0.003   2.565  11.044 -0.5223 -1.3530  1.3446
 6155SOL    HW230099   4.614   2.518  10.982  0.3817  2.6662  2.0305
 6156SOL     OW30100   2.279   3.513  11.205 -0.2055  0.4649 -0.4522
 6156SOL    HW130101   2.256   3.591  11.256  0.7988  0.3189  0.2098
 6156SOL    HW230102   2.373   3.520  11.222  0.0275 -1.4137 -0.9685
 6157SOL     OW30103   0.537   4.206   1.959 -0.5067 -0.7315 -0.0776
 6157SOL    HW130104   0.550   4.216   2.053 -2.2947 -0.3512  0.1144
 6157SOL    HW230105   0.599   4.135   1.941 -0.2277  0.3678 -3.4812
 6158SOL     OW30106   2.039   0.068  15.159  0.2656 -0.1954 -0.8352
 6158SOL    HW130107   2.130   0.092  15.144  0.0675  1.1984  0.1333
 6158SOL    HW230108   2.019   0.022  15.078  1.1424  0.0237 -1.1689
 6159SOL     OW30109   2.994   3.691   8.985  0.3494  0.1537  0.4205
 6159SOL    HW130110   2.983   3.771   8.934 -0.5869 -1.0362 -1.2308
 6159SOL    HW230111   2.921   3.687   9.046 -0.0552 -0.8949 -0.1418
 6160SOL     OW30112   3.965   2.056  16.547 -0.0276 -0.1184  0.0754
 6160SOL    HW130113   3.887   2.012  16.512  0.3318  1.2399 -2.4309
 6160SOL    HW230114   3.981   2.128  16.486  2.7548 -1.6102 -0.9369
 6161SOL     OW30115   3.029   4.442  16.577  0.1285  0.5573 -0.6741
 6161SOL    HW130116   2.977   4.521  16.593  0.4778  0.6685 -0.0964
 6161SOL    HW230117   2.969   4.386  16.528  0.8476 -1.3274  0.6072
 6162SOL     OW30118   4.689   3.440  13.422 -0.2103 -0.1092  0.0475
 6162SOL    HW130119   4.667   3.355  13.459  1.6800  0.0112  1.4666
 6162SOL    HW230120   4.650   3.504  13.482  0.1492  0.0773  0.0828
 6163SOL     OW30121   1.594   3.781  10.898 -0.0505 -0.2698  0.0491
 6163SOL    HW130122   1.548   3.735  10.968 -3.0645 -0.1758 -1.8542
 6163SOL    HW230123   1.558   3.733  10.823  0.6719 -1.0065  0.1721
 6164SOL     OW30124   1.732   2.869  11.635 -0.0914  0.2856 -0.9428
 6164SOL    HW130125   1.707   2.806  11.568 -3.6724  0.6508  0.0811
 6164SOL    HW230126   1.702   2.949  11.593 -0.2327  1.1642  0.8061
 6165SOL     OW30127   2.569   0.778  14.947  0.3095 -0.4810 -0.6700
 6165SOL    HW130128   2.617   0.827  15.013  2.2660 -2.5756 -0.5460
 6165SOL    HW230129   2.480   0.814  14.958  0.8391  0.6949 -0.2743
 6166SOL     OW30130   1.225   2.380   2.043  0.5987 -0.4274 -0.1077
 6166SOL    HW130131   1.243   2.430   1.964  1.5525 -0.1184  0.3042
 6166SOL    HW230132   1.194   2.450   2.100 -0.5538 -1.5533  0.6582
 6167SOL     OW30133   2.677   0.833   6.148  0.1622  0.1088  0.0327
 6167SOL    HW130134   2.693   0.917   6.192  1.4445  0.4077 -0.9951
 6167SOL    HW230135   2.760   0.835   6.101 -2.1183  0.5460 -4.0552
 6168SOL     OW30136   3.551   3.193   0.510  0.6718 -0.1965  0.2273
 6168SOL    HW130137   3.465   3.212   0.546  1.0002  0.3342  0.7281
 6168SOL    HW230138   3.590   3.265   0.559  0.7941 -0.8056  1.0213
 6169SOL     OW30139   3.764   1.395   0.455 -0.1668  0.8017  0.4736
 6169SOL    HW130140   3.839   1.407   0.513  0.5425  0.6151 -0.3972
 6169SOL    HW230141   3.696   1.353   0.508  0.8938 -1.9483 -0.3222
 6170SOL     OW30142   4.255   4.551   8.327  0.6094 -0.3785 -0.0392
 6170SOL    HW130143   4.202   4.622   8.291 -0.5401  0.2646  2.9098
 6170SOL    HW230144   4.210   4.530   8.409 -1.6038 -1.7026 -1.5734
 6171SOL     OW30145   1.326   1.031   0.324 -0.1671 -0.0638  0.0687
 6171SOL    HW130146   1.400   0.975   0.299 -1.4619 -1.3656 -0.8699
 6171SOL    HW230147   1.300   1.071   0.241 -0.4406 -0.7309 -0.1686
 6172SOL     OW30148   3.943   2.652   6.309 -0.8594  0.2591 -0.3430
 6172SOL    HW130149   3.886   2.589   6.265 -0.8055  0.2408 -0.3872
 6172SOL    HW230150   3.888   2.718   6.351 -1.2999  0.2042 -0.8459
 6173SOL     OW30151   0.386   2.953   6.056  0.1155 -0.7814  0.4863
 6173SOL    HW130152   0.387   2.890   6.128 -0.1882  0.3171  1.4435
 6173SOL    HW230153   0.376   3.027   6.115  1.7044 -1.2177  1.2987
 6174SOL     OW30154   3.168   2.971   7.016 -0.7345  0.4437 -0.1821
 6174SOL    HW130155   3.194   2.973   6.923  0.5672  0.9345  0.1951
 6174SOL    HW230156   3.085   3.019   7.016 -1.2390 -0.4304  2.3245
 6175SOL     OW30157   4.419   0.960  15.566 -0.2424 -0.2517 -0.6431
 6175SOL    HW130158   4.333   0.951  15.526  1.1338  0.2187 -3.6892
 6175SOL    HW230159   4.422   1.055  15.578 -0.6331 -0.6685  2.8486
 6176SOL     OW30160   2.943   4.553   2.513 -0.4114 -0.6466  0.2365
 6176SOL    HW130161   2.852   4.539   2.541 -0.2678 -1.6305  0.2286
 6176SOL    HW230162   2.973   4.576   2.601 -1.1589 -1.1283  0.6226
 6177SOL     OW30163   4.292   0.835   3.533  0.2376  0.4569 -0.3017
 6177SOL    HW130164   4.370   0.856   3.584 -0.0779  0.5178  0.1576
 6177SOL    HW230165   4.332   0.778   3.468  1.0024  1.4665 -0.7073
 6178SOL     OW30166   4.514   3.987   8.285  0.3955 -0.0632 -0.0309
 6178SOL    HW130167   4.545   4.054   8.347  3.3164  1.8381 -3.5659
 6178SOL    HW230168   4.592   3.962   8.237  0.7618 -1.9178  1.5311
 6179SOL     OW30169   1.050   3.594   1.482  0.1949  0.3353 -0.1819
 6179SOL    HW130170   1.070   3.579   1.575  0.9401 -0.3499 -0.4531
 6179SOL    HW230171   1.029   3.687   1.496  0.6119  0.1916  1.4238
 6180SOL     OW30172   4.029   0.328  16.492  0.1430  0.4436  0.3596
 6180SOL    HW130173   4.080   0.362  16.419 -1.0715  0.6078 -0.4092
 6180SOL    HW230174   4.042   0.389  16.565 -1.7800  2.2173 -0.7883
 6181SOL     OW30175   2.641   2.720  17.631  0.1583 -0.0924 -0.0673
 6181SOL    HW130176   2.600   2.741  17.715 -0.6765  2.3083 -1.0772
 6181SOL    HW230177   2.569   2.752  17.576  0.7194  0.6291 -0.3748
 6182SOL     OW30178   1.789   0.522   7.726 -0.2520 -0.3095  0.1297
 6182SOL    HW130179   1.774   0.498   7.634 -0.6654  2.1313 -0.4451
 6182SOL    HW230180   1.702   0.541   7.761  0.8172  0.6755  2.2293
 6183SOL     OW30181   4.524   3.497   2.463 -0.5378  0.0677  0.4470
 6183SOL    HW130182   4.448   3.472   2.515  0.3416 -1.8827  0.7993
 6183SOL    HW230183   4.591   3.500   2.531 -1.0971 -3.3772  1.1293
 6184SOL     OW30184   3.191   2.892  17.478 -0.3182  0.6535 -0.3833
 6184SOL    HW130185   3.169   2.888  17.572 -2.3481  0.2565 -0.8686
 6184SOL    HW230186   3.249   2.968  17.477 -0.0769  0.4866  0.2941
 6185SOL     OW30187   3.985   1.005   3.359  0.4452 -0.5584  0.5905
 6185SOL    HW130188   3.989   1.100   3.371 -3.1291 -0.5135  1.5507
 6185SOL    HW230189   4.074   0.992   3.326 -0.0011  1.8214 -1.4995
 6186SOL     OW30190   0.450   3.371   6.704 -0.1517  0.0446 -0.2710
 6186SOL    HW130191   0.372   3.322   6.731 -1.4418  1.2308 -1.7862
 6186SOL    HW230192   0.501   3.378   6.784 -1.8446 -4.3088  1.1985
 6187SOL     OW30193   3.962   0.984  16.596  0.1819 -0.1616 -0.4153
 6187SOL    HW130194   3.917   0.907  16.562  1.2416 -1.3081  0.7498
 6187SOL    HW230195   3.963   0.957  16.688  0.0893 -0.8232 -0.6050
 6188SOL     OW30196   0.384   3.836   2.892  0.0655 -0.4598  0.0427
 6188SOL    HW130197   0.371   3.911   2.834  1.6845  1.5599  2.3222
 6188SOL    HW230198   0.338   3.760   2.854 -1.1726  0.7416 -0.8414
 6189SOL     OW30199   4.030   3.542  16.483 -0.5595 -0.4018 -0.0514
 6189SOL    HW130200   4.043   3.600  16.408  2.7885 -0.6855  0.2933
 6189SOL    HW230201   4.113   3.566  16.526 -0.8688 -0.8187  0.7821
 6190SOL     OW30202   2.648   0.482   1.812 -0.2681 -0.3514  0.1772
 6190SOL    HW130203   2.697   0.542   1.756 -0.6611 -1.3097 -1.2197
 6190SOL    HW230204   2.571   0.533   1.835  0.3238  0.4670  0.3604
 6191SOL     OW30205   0.842   0.079   7.745  0.2960  0.6506 -0.2550
 6191SOL    HW130206   0.900   0.120   7.680 -0.7409  1.1421 -0.8761
 6191SOL    HW230207   0.803   0.014   7.686  1.1856  0.2355 -0.3986
 6192SOL     OW30208   0.407   3.618   3.545  0.0047  0.4304 -0.7722
 6192SOL    HW130209   0.493   3.643   3.512  0.2099  2.5735  1.3269
 6192SOL    HW230210   0.375   3.592   3.459 -1.6104 -1.9798  0.5484
 6193SOL     OW30211   1.635   1.744   7.981  0.6203 -0.3143 -0.4579
 6193SOL    HW130212   1.700   1.739   7.911  0.6129  0.0407 -0.4904
 6193SOL    HW230213   1.650   1.830   8.020  1.2691 -0.6800  0.0839
 6194SOL     OW30214   3.648   3.922   9.185  0.2781 -0.1041  0.1927
 6194SOL    HW130215   3.599   3.987   9.134  1.4000  2.2341  2.1002
 6194SOL    HW230216   3.609   3.840   9.154 -0.8771  0.8579 -0.9008
 6195SOL     OW30217   0.655   4.710   1.867  0.1377  0.4056  0.4649
 6195SOL    HW130218   0.639   4.729   1.775  1.2941 -1.2761 -0.0792
 6195SOL    HW230219   0.566   4.694   1.900 -0.7410  0.1426 -2.0841
 6196SOL     OW30220   1.958   4.071   9.563  0.1382 -0.4886 -0.3426
 6196SOL    HW130221   2.030   4.021   9.525 -0.0469 -0.3655 -0.8590
 6196SOL    HW230222   1.927   4.017   9.636  3.0572 -2.7764 -0.8124
 6197SOL     OW30223   2.397   1.239   6.309 -0.3726  0.2646 -0.2556
 6197SOL    HW130224   2.375   1.168   6.249  0.1713 -0.3355  0.2452
 6197SOL    HW230225   2.482   1.217   6.347  1.0031  2.4332 -2.0639
 6198SOL     OW30226   3.499   0.825   2.921  0.0987  0.1536  0.9007
 6198SOL    HW130227   3.580   0.865   2.891 -0.4888 -0.0457 -0.9754
 6198SOL    HW230228   3.490   0.868   3.006 -1.4083  0.0024  0.8302
 6199SOL     OW30229   2.373   3.991   9.212 -0.2250  0.7863  0.4151
 6199SOL    HW130230   2.315   4.058   9.247  0.3664  0.7311  1.4911
 6199SOL    HW230231   2.341   3.979   9.123  1.6733 -1.3139  0.0192
 6200SOL     OW30232   3.417   0.545   8.688 -0.2127 -0.0537 -0.3945
 6200SOL    HW130233   3.435   0.455   8.713  2.8309  0.5784 -0.3683
 6200SOL    HW230234   3.322   0.537   8.703 -0.2987  0.0146 -0.8727
 6201SOL     OW30235   0.995   2.157   5.431 -0.5237  0.2184 -0.2037
 6201SOL    HW130236   1.013   2.131   5.341  3.1137  3.0142 -0.2747
 6201SOL    HW230237   1.045   2.088   5.476  0.5078  1.5985  0.7715
 6202SOL     OW30238   4.074   2.664   5.450  0.1117  0.0984 -0.4396
 6202SOL    HW130239   4.111   2.576   5.455 -0.1597  0.0959  1.4223
 6202SOL    HW230240   4.124   2.705   5.520  0.1295  0.0291 -0.4118
 6203SOL     OW30241   0.898   4.210   5.144 -0.0672  0.2582  0.4013
 6203SOL    HW130242   0.864   4.129   5.106  0.3413  0.0689  0.4380
 6203SOL    HW230243   0.814   4.255   5.152 -0.0583  0.7274 -2.0438
 6204SOL     OW30244   3.927   2.232   7.320 -0.4233  0.1794  0.2460
 6204SOL    HW130245   4.018   2.229   7.352 -0.1830  0.3292 -0.4202
 6204SOL    HW230246   3.874   2.242   7.399 -1.3477  0.6708 -0.4396
 6205SOL     OW30247   2.309   2.435  14.359 -0.1433 -0.5673  0.1866
 6205SOL    HW130248   2.389   2.390  14.331 -0.6471  0.2662 -2.5826
 6205SOL    HW230249   2.261   2.443  14.277 -0.4269  1.0257  0.5111
 6206SOL     OW30250   2.736   1.277   6.707  0.2926  0.1348  0.1370
 6206SOL    HW130251   2.816   1.240   6.744  0.5652  0.0536 -0.5318
 6206SOL    HW230252   2.685   1.196   6.706 -0.9431  0.9552 -2.4242
 6207SOL     OW30253   0.136   1.240   8.884  0.0064 -0.0825 -0.5019
 6207SOL    HW130254   0.207   1.257   8.822  0.5399  0.0096  0.1336
 6207SOL    HW230255   0.175   1.269   8.966  1.3163 -0.8362 -0.8647
 6208SOL     OW30256   4.253   3.362   5.669  0.2666 -0.9041 -0.0822
 6208SOL    HW130257   4.300   3.355   5.586 -0.1502 -0.2518 -0.3698
 6208SOL    HW230258   4.326   3.373   5.730 -0.6063  0.3300  0.7359
 6209SOL     OW30259   3.942   2.607   8.147  0.0788  0.3219  0.0602
 6209SOL    HW130260   4.020   2.637   8.194 -0.5831 -0.3220  1.5941
 6209SOL    HW230261   3.884   2.588   8.222  1.3024 -0.1502  0.8821
 6210SOL     OW30262   1.430   2.232   1.056 -0.1159 -0.2746  0.4105
 6210SOL    HW130263   1.469   2.265   1.137  0.9064 -0.3518 -0.0534
 6210SOL    HW230264   1.414   2.314   1.009  0.1879  0.0395  0.8583
 6211SOL     OW30265   0.584   1.609  11.591  0.0049 -0.5513  0.1327
 6211SOL    HW130266   0.555   1.544  11.528  0.6703  0.5697 -1.3487
 6211SOL    HW230267   0.677   1.590  11.608  0.1279  0.4858  0.6261
 6212SOL     OW30268   3.082   1.674   7.153  0.2922 -0.3768  0.2159
 6212SOL    HW130269   3.003   1.623   7.168 -0.2434 -0.1784 -1.9361
 6212SOL    HW230270   3.094   1.729   7.231 -0.3391 -0.7155  0.5520
 6213SOL     OW30271   2.938   0.359   6.447  0.3972  0.3131  0.4175
 6213SOL    HW130272   2.891   0.284   6.485 -0.7541 -0.0976 -1.7520
 6213SOL    HW230273   2.872   0.395   6.387  0.9176  1.9844  0.8701
 6214SOL     OW30274   1.621   0.176   6.315  0.3262  0.2934  0.0682
 6214SOL    HW130275   1.689   0.135   6.369  1.6882  0.4873 -1.5050
 6214SOL    HW230276   1.671   0.222   6.248 -0.0812  0.4089 -0.1579
 6215SOL     OW30277   3.979   3.633   2.216  0.2750  0.0601 -0.8118
 6215SOL    HW130278   4.053   3.612   2.274 -2.4925  0.9699  3.0541
 6215SOL    HW230279   4.007   3.570   2.150  0.3568 -2.2724  1.4349
 6216SOL     OW30280   3.221   2.755   4.001  0.3336  0.3899  0.4128
 6216SOL    HW130281   3.288   2.807   3.957 -1.0560  0.1242 -2.0631
 6216SOL    HW230282   3.268   2.697   4.061  0.5648 -1.9354 -2.0144
 6217SOL     OW30283   1.153   1.586   0.963 -0.5498  0.3944  0.4876
 6217SOL    HW130284   1.123   1.651   0.900 -0.4342  0.7423  0.7893
 6217SOL    HW230285   1.228   1.634   0.999  1.5853 -1.0906 -1.8759
 6218SOL     OW30286   4.051   2.578   2.893  0.6590 -0.0765 -0.1236
 6218SOL    HW130287   4.137   2.607   2.863  0.9112 -2.5441 -1.7319
 6218SOL    HW230288   4.080   2.529   2.971 -2.0247  0.2122  1.0466
 6219SOL     OW30289   0.895   2.376  15.594 -0.6235  0.1690 -0.1157
 6219SOL    HW130290   0.969   2.436  15.605 -0.9509  0.4003  0.8354
 6219SOL    HW230291   0.873   2.401  15.504  0.6114 -0.6145 -0.6278
 6220SOL     OW30292   3.385   1.990   4.814 -0.0236  0.1170  0.0807
 6220SOL    HW130293   3.393   1.959   4.724  2.1244 -0.6088  0.5324
 6220SOL    HW230294   3.332   2.069   4.811 -0.0443  0.0816 -0.3987
 6221SOL     OW30295   2.565   2.649  16.682  0.1747 -0.2329  0.1944
 6221SOL    HW130296   2.598   2.637  16.771 -0.7458 -0.0367  0.5654
 6221SOL    HW230297   2.602   2.568  16.646  1.3212 -0.7241  2.4694
 6222SOL     OW30298   2.569   4.492   5.778 -0.2872 -0.3875  0.5470
 6222SOL    HW130299   2.618   4.478   5.859 -0.8263 -1.8281  0.6143
 6222SOL    HW230300   2.552   4.405   5.742 -1.9325 -0.5599  1.7762
 6223SOL     OW30301   2.631   1.030   6.680  0.0900  0.4348  0.4852
 6223SOL    HW130302   2.636   1.019   6.775  1.3844  1.8051  0.5786
 6223SOL    HW230303   2.541   1.004   6.663  0.7061 -1.5202  0.2392
 6224SOL     OW30304   1.958   3.271   4.255 -0.0809  0.1390  0.3942
 6224SOL    HW130305   2.015   3.334   4.212 -0.0263 -0.2905 -0.1595
 6224SOL    HW230306   1.881   3.282   4.200  0.3139  0.6006 -0.0638
 6225SOL     OW30307   1.714   2.934   7.400 -0.1484 -0.5945  0.5188
 6225SOL    HW130308   1.620   2.935   7.418 -0.2313 -0.8148  0.1059
 6225SOL    HW230309   1.723   2.848   7.359  2.6519 -0.3321  0.5386
 6226SOL     OW30310   3.125   3.590   6.188  0.2691  0.3319 -0.1197
 6226SOL    HW130311   3.118   3.664   6.129  0.8497 -0.7598 -1.5569
 6226SOL    HW230312   3.133   3.643   6.267  1.4492  0.4308 -0.3057
 6227SOL     OW30313   2.243   3.071  15.306  0.6521  0.6081 -0.3775
 6227SOL    HW130314   2.158   3.062  15.349  0.6867  0.9385 -0.2395
 6227SOL    HW230315   2.212   3.107  15.224  0.1858  2.1405  0.4705
 6228SOL     OW30316   3.488   0.990   7.353 -0.2192  0.2119  0.6233
 6228SOL    HW130317   3.446   1.073   7.377 -0.0987  0.6926 -0.8233
 6228SOL    HW230318   3.570   1.027   7.319 -0.0644  0.5788  1.4003
 6229SOL     OW30319   0.570   2.747  13.353 -0.2143 -0.1862 -0.6999
 6229SOL    HW130320   0.524   2.664  13.346 -0.4130 -0.2405  1.4434
 6229SOL    HW230321   0.606   2.754  13.441 -0.8878 -0.4228 -0.4111
 6230SOL     OW30322   1.411   1.883   3.319 -0.2374  0.0557  0.2207
 6230SOL    HW130323   1.431   1.859   3.229 -1.0313 -1.1496  0.3725
 6230SOL    HW230324   1.446   1.972   3.321  1.3273 -0.5759  2.1116
 6231SOL     OW30325   4.203   1.756   6.532 -0.1469 -0.1497 -0.0804
 6231SOL    HW130326   4.146   1.707   6.473 -1.5634  0.3617  0.8600
 6231SOL    HW230327   4.203   1.844   6.495  0.1559  0.5783  1.6596
 6232SOL     OW30328   2.268   4.404  15.436 -0.2555 -0.0798  0.6346
 6232SOL    HW130329   2.225   4.487  15.415  1.7190  1.1038  1.2479
 6232SOL    HW230330   2.205   4.341  15.469 -0.6549  0.6058  1.1914
 6233SOL     OW30331   1.312   3.032  13.220  0.2119  0.3073  0.0634
 6233SOL    HW130332   1.355   3.024  13.305 -1.0307  0.0292  0.6679
 6233SOL    HW230333   1.333   2.948  13.178 -0.3482  1.8342 -3.2903
 6234SOL     OW30334   0.740   3.940   6.204  0.3128 -0.3521 -0.5334
 6234SOL    HW130335   0.688   3.875   6.251  0.1689  0.6880  0.7523
 6234SOL    HW230336   0.673   3.993   6.159 -0.2192  1.1001  1.9541
 6235SOL     OW30337   3.761   4.564   8.451  0.0526  0.2227  0.3260
 6235SOL    HW130338   3.834   4.626   8.447 -0.1275  0.5851  2.9029
 6235SOL    HW230339   3.723   4.576   8.364  2.9056  3.5419 -0.4689
 6236SOL     OW30340   3.363   3.928  17.023  0.3987  0.0164  0.1704
 6236SOL    HW130341   3.280   3.941  17.069 -0.3379  1.2892 -1.5311
 6236SOL    HW230342   3.356   3.962  16.934  1.4582  1.2175  0.5383
 6237SOL     OW30343   4.614   3.771  15.042 -0.5363 -0.0046 -0.1405
 6237SOL    HW130344   4.639   3.858  15.012  0.0385 -0.2332 -0.3140
 6237SOL    HW230345   4.675   3.721  14.989 -1.4966 -1.5220  0.1837
 6238SOL     OW30346   0.690   0.944   3.461 -0.0887  0.0585  0.4288
 6238SOL    HW130347   0.641   0.960   3.541  5.0538  1.9685  3.2598
 6238SOL    HW230348   0.772   0.921   3.505  0.1239 -1.5430 -0.7663
 6239SOL     OW30349   1.267   0.197   7.703 -0.2571  0.2115  0.2471
 6239SOL    HW130350   1.244   0.106   7.718  0.9577 -0.0586  0.4522
 6239SOL    HW230351   1.281   0.205   7.609  1.0318  0.1133  0.4275
 6240SOL     OW30352   1.906   4.310   1.760  0.2056 -0.1795  0.0291
 6240SOL    HW130353   1.931   4.276   1.674 -1.1282  1.5365 -1.0353
 6240SOL    HW230354   1.845   4.379   1.732  0.3262  0.6852  1.9118
 6241SOL     OW30355   4.075   2.467   2.233 -0.0740 -0.6118  0.1059
 6241SOL    HW130356   4.007   2.510   2.182 -1.3218 -1.3764  1.1228
 6241SOL    HW230357   4.021   2.459   2.312 -0.7536 -3.4884 -0.6715
 6242SOL     OW30358   2.852   1.746   0.441 -0.1873 -0.2270 -0.2795
 6242SOL    HW130359   2.796   1.773   0.368 -2.3186  0.1381  1.5197
 6242SOL    HW230360   2.851   1.650   0.440 -1.6727 -0.2019 -0.1567
 6243SOL     OW30361   0.243   4.031  14.299  0.1323 -0.5998 -0.1118
 6243SOL    HW130362   0.256   4.119  14.333  0.5713 -1.8191  2.8419
 6243SOL    HW230363   0.177   3.989  14.354  1.4030 -1.4034  0.8038
 6244SOL     OW30364   1.329   3.550  11.386  0.1597  0.1406 -0.4746
 6244SOL    HW130365   1.335   3.643  11.408 -1.6552  0.7183 -2.3628
 6244SOL    HW230366   1.409   3.508  11.417  0.6823  1.2790 -0.2713
 6245SOL     OW30367   0.473   3.524   6.945 -0.4591 -0.2570  0.1522
 6245SOL    HW130368   0.433   3.595   6.896  1.3858 -0.7592 -2.0718
 6245SOL    HW230369   0.398   3.500   6.999  1.1842  3.1202  3.9505
 6246SOL     OW30370   4.543   2.346  10.269  0.8374 -0.1505 -0.2123
 6246SOL    HW130371   4.501   2.265  10.240  0.8559 -0.9003  1.7827
 6246SOL    HW230372   4.595   2.312  10.343 -1.1994 -1.4469  0.6395
 6247SOL     OW30373   4.689   2.653   5.917 -0.0727 -0.0160 -0.8648
 6247SOL    HW130374   0.027   2.710   5.916 -1.4953  1.9353  0.6756
 6247SOL    HW230375   4.649   2.697   5.992  1.7817 -1.6804  1.1361
 6248SOL     OW30376   2.672   0.046   2.561 -0.1829 -0.3876 -0.2150
 6248SOL    HW130377   2.589   0.014   2.527  0.1485 -1.0826 -0.3842
 6248SOL    HW230378   2.699   0.099   2.486  1.9675 -2.1969 -0.7394
 6249SOL     OW30379   3.688   0.697   2.412  0.0952  0.1098 -0.1350
 6249SOL    HW130380   3.671   0.665   2.324  2.0096 -0.0821 -0.4320
 6249SOL    HW230381   3.665   0.612   2.452  0.6667  1.1579  2.4485
 6250SOL     OW30382   0.722   2.889   1.132 -0.5342 -0.5793  0.6165
 6250SOL    HW130383   0.772   2.942   1.194 -3.6753  0.8730  1.9125
 6250SOL    HW230384   0.793   2.826   1.119  0.5001  0.7636 -0.3585
 6251SOL     OW30385   3.987   2.275   4.502 -0.5360 -0.0017 -0.0995
 6251SOL    HW130386   3.993   2.306   4.592 -1.3238 -2.0176  0.6464
 6251SOL    HW230387   4.071   2.229   4.502 -0.0178  0.9319 -2.0908
 6252SOL     OW30388   1.604   2.419   5.482  0.3232  0.1898  0.0772
 6252SOL    HW130389   1.668   2.485   5.508 -0.2713 -0.0140  2.0562
 6252SOL    HW230390   1.628   2.344   5.535  2.7455 -2.6508 -5.0427
 6253SOL     OW30391   0.765   3.810  14.118  0.3497 -0.1155  0.3157
 6253SOL    HW130392   0.715   3.784  14.195  0.2555  0.2914  0.3923
 6253SOL    HW230393   0.714   3.870  14.064 -0.0295  1.1262  2.0640
 6254SOL     OW30394   3.067   3.523   5.477  0.0243  0.0669  0.5215
 6254SOL    HW130395   3.060   3.565   5.563  1.8797  1.4511 -0.0016
 6254SOL    HW230396   2.978   3.489   5.473  0.1075 -0.1571  0.5658
 6255SOL     OW30397   0.340   4.200  12.000 -0.4645  0.1680  0.6006
 6255SOL    HW130398   0.253   4.194  12.039 -0.7689  0.6405 -0.0032
 6255SOL    HW230399   0.389   4.233  12.075  0.3304 -2.9312  1.4435
 6256SOL     OW30400   0.990   4.570   2.803  0.1569 -0.0704 -0.0087
 6256SOL    HW130401   1.003   4.655   2.760 -0.6964  0.1699  0.2217
 6256SOL    HW230402   0.937   4.606   2.874 -1.4438 -0.9317 -0.7865
 6257SOL     OW30403   3.598   2.763   4.276  0.3237 -0.6032 -0.0495
 6257SOL    HW130404   3.645   2.847   4.278 -0.5452 -0.1076 -0.3501
 6257SOL    HW230405   3.666   2.720   4.328  0.3425  0.8153  1.1070
 6258SOL     OW30406   1.662   0.436   1.124 -0.0358 -0.0942 -0.6615
 6258SOL    HW130407   1.635   0.523   1.152 -2.3310 -1.0086 -0.0841
 6258SOL    HW230408   1.595   0.409   1.061  1.2143 -3.3983 -0.6032
 6259SOL     OW30409   3.226   2.309   1.988 -0.5672 -0.4586 -0.0264
 6259SOL    HW130410   3.164   2.339   2.054  0.6286  0.5103  0.6508
 6259SOL    HW230411   3.285   2.255   2.041  0.7470 -0.5198 -1.5648
 6260SOL     OW30412   3.239   0.635   4.444  0.7528  0.3719 -0.3849
 6260SOL    HW130413   3.184   0.708   4.416  2.4634  0.6491 -2.9757
 6260SOL    HW230414   3.230   0.564   4.381 -0.2972  0.9761 -0.9078
 6261SOL     OW30415   2.954   1.277   3.611 -0.0021 -0.5847  0.4298
 6261SOL    HW130416   3.029   1.291   3.669 -1.3887  0.9807  1.8287
 6261SOL    HW230417   2.900   1.355   3.620  1.1680  0.3049 -0.3634
 6262SOL     OW30418   2.740   2.946   2.242  0.2165  0.1620  0.4640
 6262SOL    HW130419   2.691   2.880   2.293  0.9476  0.6756  1.8206
 6262SOL    HW230420   2.717   3.029   2.283  0.7505  0.4677  0.1395
 6263SOL     OW30421   3.793   1.205   2.594 -0.3322 -0.5235 -0.4753
 6263SOL    HW130422   3.812   1.235   2.505  0.4511  1.2370  0.2876
 6263SOL    HW230423   3.700   1.220   2.612  0.7665  2.3563  3.0277
 6264SOL     OW30424   4.078   1.036   6.463  0.3427  0.5536  0.1010
 6264SOL    HW130425   4.125   1.021   6.545 -0.1572 -1.8941 -0.0727
 6264SOL    HW230426   4.110   1.120   6.429 -0.4707  0.4278 -0.9859
 6265SOL     OW30427   0.313   0.251   2.113 -0.0736 -0.0319  0.0654
 6265SOL    HW130428   0.259   0.188   2.066  0.9075 -1.4471  0.8092
 6265SOL    HW230429   0.351   0.187   2.174  1.2835  2.2411  1.6167
 6266SOL     OW30430   3.118   2.160   5.978  0.0210  0.3992  0.4947
 6266SOL    HW130431   3.032   2.158   5.935  0.1140 -0.8187  0.3428
 6266SOL    HW230432   3.117   2.248   6.015 -1.5752  0.6813 -0.2095
 6267SOL     OW30433   4.661   4.035   5.709  0.2687 -0.0411 -0.0531
 6267SOL    HW130434   4.577   4.053   5.751  1.1995  0.3587  1.6179
 6267SOL    HW230435   4.635   3.985   5.632  1.1141 -2.0961  1.0172
 6268SOL     OW30436   3.523   2.158  12.342 -0.1991 -0.6652 -0.3043
 6268SOL    HW130437   3.586   2.226  12.366  1.0978 -2.3710  1.2095
 6268SOL    HW230438   3.473   2.139  12.421  0.4188 -0.4495  0.1413
 6269SOL     OW30439   2.223   0.316   5.868 -0.1613 -0.2322 -0.6556
 6269SOL    HW130440   2.292   0.334   5.932  0.6309  1.0647 -1.8773
 6269SOL    HW230441   2.269   0.315   5.784  1.0702 -0.8154  0.0148
 6270SOL     OW30442   2.316   4.285   7.173 -0.2205 -0.5610  0.2013
 6270SOL    HW130443   2.301   4.235   7.093 -0.6064 -3.5760  2.1584
 6270SOL    HW230444   2.287   4.372   7.144  0.5352 -0.7729 -1.1900
 6271SOL     OW30445   0.760   3.961   8.828 -0.6698  0.5867 -0.2972
 6271SOL    HW130446   0.715   3.975   8.911 -1.3986 -0.4303 -0.5077
 6271SOL    HW230447   0.687   3.918   8.782 -1.2315  3.1001 -1.7577
 6272SOL     OW30448   3.773   1.888  16.444 -0.1094 -0.3516 -0.0299
 6272SOL    HW130449   3.782   1.874  16.538  1.3649  1.7321  0.1525
 6272SOL    HW230450   3.698   1.834  16.419 -0.4768  0.1910 -0.1284
 6273SOL     OW30451   0.406   4.162   3.386 -0.5222 -0.1897 -0.1876
 6273SOL    HW130452   0.433   4.096   3.451 -1.8461 -0.3564  0.1899
 6273SOL    HW230453   0.390   4.233   3.448  1.9219  0.8985 -0.8003
 6274SOL     OW30454   0.646   3.404   7.915  0.6299  0.3715 -0.1144
 6274SOL    HW130455   0.583   3.455   7.865  0.6905 -0.9923 -1.5892
 6274SOL    HW230456   0.594   3.335   7.958  1.2398 -0.1481 -0.2010
 6275SOL     OW30457   3.658   3.316  16.625  0.1919  0.3030 -0.4014
 6275SOL    HW130458   3.739   3.316  16.675  0.3167 -1.6227 -0.6196
 6275SOL    HW230459   3.685   3.291  16.537 -0.9823  1.4329 -1.0834
 6276SOL     OW30460   2.559   0.174   5.433  0.0544 -0.0598  0.6120
 6276SOL    HW130461   2.521   0.196   5.518  2.2698  0.2617  1.5358
 6276SOL    HW230462   2.648   0.207   5.449  1.1750 -2.6969 -0.1643
 6277SOL     OW30463   1.459   1.461  14.796 -0.5462  0.2477  0.3222
 6277SOL    HW130464   1.376   1.480  14.839 -0.4972  1.4587 -0.0987
 6277SOL    HW230465   1.491   1.391  14.852 -0.4516 -0.5685 -0.7619
 6278SOL     OW30466   0.314   4.116  16.969 -0.4913  0.4699  0.0428
 6278SOL    HW130467   0.273   4.153  16.891 -0.4585 -0.5054 -0.4399
 6278SOL    HW230468   0.266   4.033  16.974  1.2125 -0.7135 -3.4176
 6279SOL     OW30469   2.474   4.097   3.918  0.4883  0.2376  0.1602
 6279SOL    HW130470   2.567   4.094   3.897  0.3201  0.6389 -0.6544
 6279SOL    HW230471   2.445   4.127   3.831  0.2747 -1.4228 -0.3329
 6280SOL     OW30472   0.056   2.156   2.790 -0.1863 -0.1447  0.0773
 6280SOL    HW130473   4.714   2.169   2.838  0.2629  2.9742 -0.0215
 6280SOL    HW230474   0.056   2.072   2.744 -0.6613 -0.6348  0.9865
 6281SOL     OW30475   2.486   3.036  15.210 -0.4542  0.1564  0.2658
 6281SOL    HW130476   2.516   3.010  15.297 -1.9794  0.1813  0.8035
 6281SOL    HW230477   2.390   3.039  15.218 -0.6067 -1.1140 -0.9747
 6282SOL     OW30478   0.726   1.673   7.230 -0.4009 -0.1980  0.4550
 6282SOL    HW130479   0.710   1.649   7.321  1.1479 -1.8988  0.2836
 6282SOL    HW230480   0.661   1.623   7.181  0.3131  1.9437 -2.6932
 6283SOL     OW30481   3.427   2.364   5.054  0.2876  0.2344  0.2579
 6283SOL    HW130482   3.492   2.414   5.003  0.9827 -0.7815  0.1490
 6283SOL    HW230483   3.475   2.360   5.137 -0.9215  0.6292  0.9772
 6284SOL     OW30484   4.107   4.242   7.705  0.2651 -0.1019  0.2715
 6284SOL    HW130485   4.095   4.335   7.688 -0.2360 -0.1181  0.5468
 6284SOL    HW230486   4.057   4.216   7.782  0.5859  0.2971  0.6109
 6285SOL     OW30487   0.469   2.200   4.686 -0.4215  0.3709 -0.4424
 6285SOL    HW130488   0.431   2.121   4.726 -2.9655  0.9348 -1.7163
 6285SOL    HW230489   0.536   2.223   4.750 -1.0675  2.4151 -0.5198
 6286SOL     OW30490   3.577   3.219   2.345  0.3322 -0.4020 -0.1357
 6286SOL    HW130491   3.531   3.303   2.341  2.1096  0.7231  3.5923
 6286SOL    HW230492   3.666   3.253   2.354  1.0323 -2.4890  0.8384
 6287SOL     OW30493   0.085   1.898  13.282 -0.0497 -0.2116 -0.2731
 6287SOL    HW130494   0.131   1.969  13.236  1.1244 -0.6836  0.1648
 6287SOL    HW230495   0.043   1.844  13.215 -1.3372  0.3446  0.0869
 6288SOL     OW30496   3.868   1.056   6.167 -0.2891 -0.1006 -0.3623
 6288SOL    HW130497   3.788   1.053   6.220  0.0159  0.9684  0.1667
 6288SOL    HW230498   3.833   1.066   6.079  0.6077 -1.3146 -0.8575
 6289SOL     OW30499   1.048   0.371  17.355  0.2094 -0.0296 -0.1507
 6289SOL    HW130500   1.075   0.336  17.440 -0.2564  0.5681  0.2338
 6289SOL    HW230501   1.058   0.304  17.286 -2.8543  1.0819 -1.6716
 6290SOL     OW30502   0.041   2.411   3.349  0.6133 -0.1519 -0.2779
 6290SOL    HW130503   0.132   2.442   3.342  0.5289  0.1533 -0.0106
 6290SOL    HW230504   4.733   2.488   3.380 -0.8573 -0.9835 -0.4361
 6291SOL     OW30505   1.163   3.784   0.137 -0.0498 -0.5057 -0.0505
 6291SOL    HW130506   1.200   3.870   0.116 -1.5815  0.1829  0.1085
 6291SOL    HW230507   1.072   3.806   0.118  0.1642  0.8232  0.4920
 6292SOL     OW30508   3.362   3.689   3.924  0.5996  0.0961  0.2897
 6292SOL    HW130509   3.389   3.603   3.955 -2.0027 -0.9110 -0.2505
 6292SOL    HW230510   3.281   3.668   3.878  0.8013  3.3651 -1.5099
 6293SOL     OW30511   0.128   2.167   3.063 -0.1079 -0.4402  0.2396
 6293SOL    HW130512   0.053   2.224   3.079 -0.6920 -0.8057 -1.2152
 6293SOL    HW230513   0.109   2.142   2.972 -1.2603 -1.1658  0.6822
 6294SOL     OW30514   0.457   3.016  15.164 -0.7221  0.4884 -0.3279
 6294SOL    HW130515   0.472   2.960  15.240 -1.4370  0.2649 -0.3567
 6294SOL    HW230516   0.401   3.085  15.199 -0.7933  0.3964 -0.2620
 6295SOL     OW30517   3.195   2.552  15.743 -0.1725  0.0719 -0.3779
 6295SOL    HW130518   3.269   2.572  15.686  0.3382  2.2576  1.0444
 6295SOL    HW230519   3.239   2.571  15.826 -1.2731  1.8222 -0.1918
 6296SOL     OW30520   0.577   0.513   0.900 -0.3251 -0.1445  0.3115
 6296SOL    HW130521   0.585   0.521   0.805 -0.7710 -0.9436  0.1993
 6296SOL    HW230522   0.516   0.583   0.922 -1.9419 -2.1987  2.4482
 6297SOL     OW30523   2.778   1.348   9.921  0.1810 -0.5827 -0.4643
 6297SOL    HW130524   2.870   1.341   9.946 -0.2579 -0.0741  1.2601
 6297SOL    HW230525   2.741   1.372  10.006  0.4714  2.4533 -1.2002
 6298SOL     OW30526   0.879   0.325   3.661 -0.3727 -0.0815 -0.2031
 6298SOL    HW130527   0.903   0.375   3.583 -1.3369  0.0474 -0.4212
 6298SOL    HW230528   0.923   0.376   3.729  2.0026 -0.6591 -1.3201
 6299SOL     OW30529   0.665   3.701   1.771  0.3246  0.6492 -0.5729
 6299SOL    HW130530   0.630   3.661   1.691 -0.1483  1.4080 -0.7466
 6299SOL    HW230531   0.595   3.680   1.832  2.8765 -1.3251  1.7002
 6300SOL     OW30532   1.192   3.055   1.746  0.2830 -0.5072  1.2685
 6300SOL    HW130533   1.151   3.035   1.831  1.9482 -0.2094  2.1330
 6300SOL    HW230534   1.112   3.071   1.695  0.2176 -1.5589  1.0343
 6301SOL     OW30535   4.415   2.239   4.998 -0.1529  0.0453 -0.3040
 6301SOL    HW130536   4.353   2.302   4.961 -1.0839 -0.2429  0.7654
 6301SOL    HW230537   4.476   2.226   4.926 -0.1966  1.7649 -0.6635
 6302SOL     OW30538   4.316   3.249   8.078 -0.0518 -0.3735  0.0492
 6302SOL    HW130539   4.240   3.305   8.095  1.1698  0.2956  3.4140
 6302SOL    HW230540   4.323   3.273   7.986  0.8812  0.1423  0.2561
 6303SOL     OW30541   3.596   1.911  13.716 -0.4638  0.0383  0.1123
 6303SOL    HW130542   3.535   1.850  13.674  1.7040 -0.5831 -2.1834
 6303SOL    HW230543   3.677   1.861  13.716 -0.0533  0.6844 -0.8376
 6304SOL     OW30544   1.287   2.679   7.525 -0.4050 -0.7319 -0.0175
 6304SOL    HW130545   1.236   2.628   7.587  0.7120  0.4262  1.8418
 6304SOL    HW230546   1.216   2.731   7.487  0.7929  1.4331  0.6761
 6305SOL     OW30547   4.354   2.186   2.575  0.1477  0.7794  0.0278
 6305SOL    HW130548   4.375   2.116   2.514  0.4388  0.5314  0.4188
 6305SOL    HW230549   4.302   2.134   2.637  0.9927 -1.5562 -1.2375
 6306SOL     OW30550   2.667   2.519  10.158 -0.5236 -0.3738 -0.2082
 6306SOL    HW130551   2.759   2.509  10.181 -0.1583 -0.9939 -1.9164
 6306SOL    HW230552   2.680   2.553  10.070 -0.0746  2.9528  1.1570
 6307SOL     OW30553   1.326   1.980  12.647 -0.0119 -0.7184  0.3807
 6307SOL    HW130554   1.354   1.932  12.570 -1.4925 -1.5209  0.3442
 6307SOL    HW230555   1.236   1.998  12.618  0.1893  0.4380  0.4472
 6308SOL     OW30556   4.641   2.742   9.375 -0.6111  0.4628  0.3765
 6308SOL    HW130557   4.695   2.818   9.399  0.1118  0.3438 -0.8568
 6308SOL    HW230558   4.598   2.721   9.458  0.7639  0.1961  1.0332
 6309SOL     OW30559   1.162   2.588   9.407 -0.1566 -0.5070 -0.0863
 6309SOL    HW130560   1.229   2.608   9.342 -0.1295 -1.9204 -0.4722
 6309SOL    HW230561   1.091   2.642   9.372 -0.9163 -1.3768  0.1312
 6310SOL     OW30562   0.816   0.707   4.671  0.1417  0.0247  0.6455
 6310SOL    HW130563   0.753   0.760   4.622  0.2059 -1.4066 -0.9885
 6310SOL    HW230564   0.878   0.766   4.712  0.1873  0.7813 -0.5035
 6311SOL     OW30565   3.886   3.466   4.048 -0.1600 -0.0572  0.6104
 6311SOL    HW130566   3.954   3.436   4.108 -0.1496 -1.3021 -0.0401
 6311SOL    HW230567   3.864   3.388   3.997  1.3250  1.2060 -1.9616
 6312SOL     OW30568   2.225   0.846   6.862 -0.1498  0.3083 -0.6070
 6312SOL    HW130569   2.275   0.766   6.882 -0.2703  0.2282 -0.6221
 6312SOL    HW230570   2.283   0.915   6.893 -2.1731  2.7381 -2.2518
 6313SOL     OW30571   2.183   3.839   7.688 -0.4366  0.0793  0.5388
 6313SOL    HW130572   2.126   3.912   7.711 -0.6545  0.8049 -2.3207
 6313SOL    HW230573   2.154   3.775   7.754 -0.9332  0.0440  0.2907
 6314SOL     OW30574   0.428   3.028   3.360 -0.1105  0.0712 -0.1994
 6314SOL    HW130575   0.490   3.028   3.433  1.3470 -1.0370 -1.4515
 6314SOL    HW230576   0.372   3.105   3.373 -1.2558 -0.4951 -1.7530
 6315SOL     OW30577   0.684   1.186  13.982  0.6534 -0.2839  0.3816
 6315SOL    HW130578   0.739   1.258  13.951 -0.0001 -0.3878 -1.0492
 6315SOL    HW230579   0.686   1.126  13.907 -0.5513 -2.3711  2.0287
 6316SOL     OW30580   2.157   1.134  17.332 -0.1514 -0.6034  0.1216
 6316SOL    HW130581   2.142   1.145  17.238 -2.2865 -3.0391  0.1943
 6316SOL    HW230582   2.238   1.186  17.331  0.3295 -1.3541  0.3840
 6317SOL     OW30583   3.646   4.511   4.213  0.1105 -0.0633 -0.2333
 6317SOL    HW130584   3.553   4.533   4.214  0.4950  1.6690 -2.5968
 6317SOL    HW230585   3.639   4.451   4.138 -1.0985 -0.5562  0.2689
 6318SOL     OW30586   1.260   3.067   5.452  0.3578 -0.7778 -0.5700
 6318SOL    HW130587   1.335   3.010   5.435  0.8455 -0.0301 -0.8870
 6318SOL    HW230588   1.234   3.085   5.362 -2.1782 -1.6236 -0.0302
 6319SOL     OW30589   3.673   4.102   7.903  0.0940 -0.5351 -0.0835
 6319SOL    HW130590   3.616   4.113   7.979  0.1621  1.0592 -0.2676
 6319SOL    HW230591   3.647   4.019   7.863  0.5151 -0.8504  0.2993
 6320SOL     OW30592   1.898   2.352  12.843  0.6592  0.0461  0.1764
 6320SOL    HW130593   1.846   2.407  12.902 -2.2982 -0.7483 -1.7008
 6320SOL    HW230594   1.906   2.274  12.899  1.0999 -0.9763 -1.3320
 6321SOL     OW30595   3.797   0.683   7.198 -0.0788 -0.3895  0.5649
 6321SOL    HW130596   3.807   0.703   7.105  0.5740 -1.2580  0.4406
 6321SOL    HW230597   3.767   0.766   7.232 -1.6562 -0.8735  0.3289
 6322SOL     OW30598   1.568   2.847   3.536  0.0081  0.3038 -0.1433
 6322SOL    HW130599   1.631   2.777   3.549  0.3758  0.3055 -1.8858
 6322SOL    HW230600   1.579   2.884   3.623 -0.2182  0.1040 -0.0294
 6323SOL     OW30601   0.367   1.383  15.427 -0.2691 -0.6309 -0.2860
 6323SOL    HW130602   0.289   1.433  15.402  1.0729 -0.1929 -3.5814
 6323SOL    HW230603   0.371   1.388  15.523  3.3953 -0.5819 -0.4270
 6324SOL     OW30604   4.460   2.810   7.013  0.0735  0.4048  0.3743
 6324SOL    HW130605   4.396   2.740   7.012  0.7120 -0.2072  2.1688
 6324SOL    HW230606   4.438   2.840   7.101  0.5719 -1.6269  1.1933
 6325SOL     OW30607   3.847   3.666   0.650  0.4227  0.3005  0.5246
 6325SOL    HW130608   3.892   3.607   0.711  0.2551 -0.5581 -0.1845
 6325SOL    HW230609   3.842   3.617   0.568  1.0805  0.1910  0.5428
 6326SOL     OW30610   4.255   3.880   4.945 -0.2464 -0.1919  0.1229
 6326SOL    HW130611   4.335   3.904   4.897 -0.8937 -1.7531 -1.7561
 6326SOL    HW230612   4.261   3.933   5.024  2.8798  0.9407 -0.8617
 6327SOL     OW30613   2.817   3.875   5.896 -0.6735  0.0112 -0.0086
 6327SOL    HW130614   2.774   3.960   5.908  0.1148  0.6369 -1.5228
 6327SOL    HW230615   2.836   3.885   5.803  1.4608  3.6239  0.7799
 6328SOL     OW30616   1.760   1.952   8.145  0.1034  0.0799  0.3203
 6328SOL    HW130617   1.721   1.987   8.225  0.4714  0.7849  0.1916
 6328SOL    HW230618   1.847   1.926   8.175 -0.5094 -0.5885  1.4982
 6329SOL     OW30619   3.849   3.082   5.855 -0.3726  0.6999  0.5686
 6329SOL    HW130620   3.783   3.119   5.797  0.0576 -1.6336 -1.4371
 6329SOL    HW230621   3.929   3.120   5.820 -0.7771  1.6092  0.6504
 6330SOL     OW30622   3.251   0.221   8.130  0.2075 -0.6754 -0.1011
 6330SOL    HW130623   3.185   0.194   8.066 -0.3407 -0.6325  0.4557
 6330SOL    HW230624   3.189   0.241   8.200 -0.9354 -0.7638 -1.0811
 6331SOL     OW30625   3.250   2.105   5.676  0.2065  0.0538  0.0775
 6331SOL    HW130626   3.240   2.198   5.659 -0.9489  0.0055  0.4911
 6331SOL    HW230627   3.158   2.087   5.692 -0.1427  0.4982 -1.4576
 6332SOL     OW30628   3.628   0.745   3.508  0.5776 -0.0117  0.2512
 6332SOL    HW130629   3.675   0.679   3.559 -0.4316 -0.8473  0.0845
 6332SOL    HW230630   3.656   0.826   3.550  0.6776  0.3227 -0.4599
 6333SOL     OW30631   3.731   1.022   9.489 -0.3242  0.2700 -0.1429
 6333SOL    HW130632   3.797   0.998   9.425 -1.2305  0.5515 -1.1904
 6333SOL    HW230633   3.709   1.111   9.460 -0.0556  0.1377 -0.7467
 6334SOL     OW30634   2.398   1.902   5.872 -0.2849  0.2126  0.0788
 6334SOL    HW130635   2.338   1.843   5.918  0.1611 -0.1472  0.1975
 6334SOL    HW230636   2.451   1.844   5.817  3.7101  0.9525  3.1980
 6335SOL     OW30637   2.205   0.346   5.189 -0.0657 -0.6391  0.1923
 6335SOL    HW130638   2.139   0.400   5.145  0.8052  0.3375  0.1006
 6335SOL    HW230639   2.141   0.293   5.237 -1.8858 -0.1174 -1.6640
 6336SOL     OW30640   1.741   2.475   7.568 -0.0854  0.1158 -0.1051
 6336SOL    HW130641   1.685   2.552   7.580 -0.8291 -0.1552 -1.7743
 6336SOL    HW230642   1.823   2.508   7.602 -0.9843  0.1671  1.9862
 6337SOL     OW30643   3.753   3.309   6.014 -0.3536 -0.3322 -0.0123
 6337SOL    HW130644   3.742   3.302   6.109  1.7564  0.5327  0.2941
 6337SOL    HW230645   3.765   3.219   5.983 -0.6866 -0.2167 -0.4776
 6338SOL     OW30646   1.087   2.098   3.371 -0.3850 -0.3251  0.1020
 6338SOL    HW130647   1.116   2.016   3.412  0.3177  1.0621  2.3605
 6338SOL    HW230648   1.005   2.061   3.337 -0.4357  1.9347 -2.2319
 6339SOL     OW30649   1.459   1.548   7.683 -0.3525 -0.2745 -0.0212
 6339SOL    HW130650   1.543   1.532   7.725 -0.5248  0.6766  0.6677
 6339SOL    HW230651   1.468   1.640   7.659  1.9522 -0.3600  0.5418
 6340SOL     OW30652   1.539   0.518   0.522 -0.6664 -0.1714  0.3820
 6340SOL    HW130653   1.537   0.596   0.577  1.6765 -0.5325  0.9924
 6340SOL    HW230654   1.619   0.486   0.562  0.4731  0.2158 -1.5682
 6341SOL     OW30655   3.713   1.412  12.551  0.0488 -0.6114  0.4465
 6341SOL    HW130656   3.739   1.478  12.616 -1.4788 -2.2960  2.7633
 6341SOL    HW230657   3.631   1.449  12.521  0.2141  0.4468  1.3242
 6342SOL     OW30658   1.692   0.026   2.010  0.8411  0.5214 -0.0389
 6342SOL    HW130659   1.784   0.024   1.984  0.9495 -2.1318  0.5884
 6342SOL    HW230660   1.674   4.674   1.987  0.6433  1.1510 -2.4132
 6343SOL     OW30661   3.222   1.586   7.488 -0.7399  0.4086  0.1978
 6343SOL    HW130662   3.180   1.504   7.513  1.5590 -1.1298 -0.9260
 6343SOL    HW230663   3.221   1.639   7.568  2.9984  1.2580 -0.2852
 6344SOL     OW30664   0.863   1.966   2.638  0.1253  0.4154  0.2345
 6344SOL    HW130665   0.906   1.897   2.588  0.0341  0.8869 -0.4933
 6344SOL    HW230666   0.769   1.956   2.624  0.0015  1.2351  0.4776
 6345SOL     OW30667   0.406   3.756  12.374  0.1899 -1.0812  0.2327
 6345SOL    HW130668   0.358   3.817  12.318 -0.1796 -3.0221 -1.5675
 6345SOL    HW230669   0.384   3.674  12.330 -2.3197 -1.1225  1.5964
 6346SOL     OW30670   2.031   1.897  14.284  0.2997 -0.0386 -0.5304
 6346SOL    HW130671   2.032   1.915  14.378 -0.0398 -1.0299 -0.3383
 6346SOL    HW230672   2.117   1.929  14.255  0.7129 -2.3240 -1.8144
 6347SOL     OW30673   4.619   0.106   5.798 -0.9180 -0.1072 -0.6323
 6347SOL    HW130674   4.662   0.028   5.763 -0.0684 -0.8103  1.9757
 6347SOL    HW230675   4.695   0.164   5.794  0.7544 -2.3812 -1.6868
 6348SOL     OW30676   3.147   4.359   4.710  0.1114 -0.3778  0.1279
 6348SOL    HW130677   3.112   4.446   4.731  1.8037  0.2173  0.4801
 6348SOL    HW230678   3.230   4.363   4.758  0.1125  0.6852  0.0451
 6349SOL     OW30679   0.755   2.664  11.605 -0.2100  0.2685 -0.0538
 6349SOL    HW130680   0.806   2.644  11.684  0.7902 -1.3086 -1.1323
 6349SOL    HW230681   0.672   2.620  11.624 -1.4584  2.2708 -0.8410
 6350SOL     OW30682   0.920   1.521   4.641 -0.0820  0.2589 -0.0543
 6350SOL    HW130683   0.948   1.438   4.679 -1.4235 -0.3094 -0.3116
 6350SOL    HW230684   0.840   1.508   4.590 -0.7654  0.0309  1.0557
 6351SOL     OW30685   0.695   4.094   5.912 -0.1156 -0.0661  0.2830
 6351SOL    HW130686   0.707   4.002   5.933 -0.0126  0.0529  0.7442
 6351SOL    HW230687   0.603   4.088   5.888 -0.0401 -0.2959  0.0521
 6352SOL     OW30688   2.610   1.773   2.328 -0.3363 -0.1132 -0.2720
 6352SOL    HW130689   2.601   1.866   2.345 -2.7203  0.0401 -2.4398
 6352SOL    HW230690   2.520   1.749   2.307  0.0819 -0.0385 -2.1249
 6353SOL     OW30691   0.107   0.526   5.862  0.2842 -0.0618  0.2460
 6353SOL    HW130692   0.191   0.570   5.848 -0.3678  0.2150 -2.7958
 6353SOL    HW230693   0.053   0.554   5.788  0.7941 -1.1917 -0.5553
 6354SOL     OW30694   3.014   3.925   0.934 -0.0141  0.3796 -0.2984
 6354SOL    HW130695   3.092   3.975   0.909 -0.1115  0.7970  0.2542
 6354SOL    HW230696   2.978   3.961   1.015  0.2733 -0.6563  0.2927
 6355SOL     OW30697   3.575   4.626   3.180 -0.1040  0.4860 -0.7731
 6355SOL    HW130698   3.583   4.713   3.140 -1.7338  1.1635  0.3606
 6355SOL    HW230699   3.498   4.594   3.132 -1.9684 -0.1463  2.7004
 6356SOL     OW30700   1.787   1.288   8.237 -0.1369  0.4779  0.0438
 6356SOL    HW130701   1.745   1.373   8.223  0.3182  0.5146 -1.1462
 6356SOL    HW230702   1.873   1.319   8.264 -0.7545  1.3825  0.9459
 6357SOL     OW30703   2.940   0.023   9.084  0.4085 -0.2404 -0.8173
 6357SOL    HW130704   2.968   0.107   9.048  0.2352  0.2896  0.2997
 6357SOL    HW230705   2.852   0.044   9.116  0.7424  0.5241 -0.3897
 6358SOL     OW30706   0.292   1.207  17.528 -1.0642 -0.2063  0.4710
 6358SOL    HW130707   0.218   1.255  17.490 -0.2747  0.9226  0.3574
 6358SOL    HW230708   0.362   1.244  17.474 -0.8359  0.2980  1.1172
 6359SOL     OW30709   2.175   3.014   6.067  0.3789 -0.0192 -0.1145
 6359SOL    HW130710   2.158   2.923   6.043 -0.3841  0.1618 -0.2523
 6359SOL    HW230711   2.095   3.051   6.104 -1.1309 -0.8840 -2.5075
 6360SOL     OW30712   0.152   1.430  10.077 -0.1801  0.0700  0.2364
 6360SOL    HW130713   0.180   1.522  10.073 -0.8673  0.1855 -2.1459
 6360SOL    HW230714   0.207   1.402  10.150  1.0244 -1.5646 -1.2852
 6361SOL     OW30715   0.676   1.790   1.126  0.3108 -0.6049 -0.7407
 6361SOL    HW130716   0.730   1.862   1.158 -1.0229  0.0834 -0.0657
 6361SOL    HW230717   0.616   1.786   1.200 -1.7101  3.3595 -2.1235
 6362SOL     OW30718   2.570   1.955   5.111  0.1288  0.3621 -0.2619
 6362SOL    HW130719   2.657   1.989   5.134  0.7715 -2.0767  0.9146
 6362SOL    HW230720   2.571   1.883   5.174  1.8588 -1.9813 -3.0308
 6363SOL     OW30721   0.542   4.247   2.221  0.6587  0.0152 -0.2426
 6363SOL    HW130722   0.453   4.238   2.255  0.3181 -0.2720 -1.2342
 6363SOL    HW230723   0.585   4.216   2.301 -0.7745 -1.1104  0.0865
 6364SOL     OW30724   2.428   1.124   7.285 -0.7157  1.0670  0.2516
 6364SOL    HW130725   2.335   1.127   7.308 -0.2291  0.7206  2.2034
 6364SOL    HW230726   2.469   1.100   7.367  0.1203 -0.0256 -0.4834
 6365SOL     OW30727   3.306   4.731  15.769 -0.3749 -0.3363  0.2590
 6365SOL    HW130728   3.392   4.692  15.756 -0.3207  1.0590 -3.6333
 6365SOL    HW230729   3.325   0.081  15.739 -1.5140 -0.3237 -0.4251
 6366SOL     OW30730   0.766   1.680   2.703 -0.0938 -0.6314 -0.5686
 6366SOL    HW130731   0.713   1.696   2.781 -0.3438  1.1289 -1.1166
 6366SOL    HW230732   0.717   1.619   2.648  0.2037  1.5564 -3.2624
 6367SOL     OW30733   2.302   0.410  11.273 -0.0538 -0.2432 -0.1275
 6367SOL    HW130734   2.393   0.417  11.243  0.4217  1.7756  1.7290
 6367SOL    HW230735   2.283   0.317  11.282  1.2295 -0.2283  2.8211
 6368SOL     OW30736   2.031   1.747   4.267  0.2151 -0.0503 -0.3793
 6368SOL    HW130737   1.975   1.799   4.324  0.7191  0.8364 -0.6902
 6368SOL    HW230738   2.085   1.702   4.332 -0.9520  1.2978  1.5373
 6369SOL     OW30739   3.888   1.361  16.985  0.4548  0.3137  0.4858
 6369SOL    HW130740   3.939   1.416  17.045 -0.3209  1.2078  0.3226
 6369SOL    HW230741   3.843   1.305  17.049  0.5370 -0.9435 -0.5764
 6370SOL     OW30742   1.382   1.542   5.395  0.5526 -0.4849  0.3502
 6370SOL    HW130743   1.429   1.531   5.312  0.0388 -1.2356  0.1525
 6370SOL    HW230744   1.327   1.464   5.386  0.3242 -0.3624  0.6748
 6371SOL     OW30745   0.518   1.751  10.540 -0.6882  0.2760  0.1751
 6371SOL    HW130746   0.456   1.695  10.586  0.5645  0.4835  2.1205
 6371SOL    HW230747   0.591   1.697  10.510 -0.6647 -0.0806  0.8761
 6372SOL     OW30748   3.120   1.576   4.070 -0.0725  0.3497 -0.7235
 6372SOL    HW130749   3.132   1.481   4.072  2.2937  0.6566 -0.6853
 6372SOL    HW230750   3.195   1.612   4.116 -1.3041  2.0455 -0.0346
 6373SOL     OW30751   0.153   3.793   5.429  0.1295  0.1029 -0.3126
 6373SOL    HW130752   0.185   3.744   5.505 -2.7890 -2.6016 -0.8385
 6373SOL    HW230753   0.087   3.732   5.398  1.6866 -1.5522 -0.3315
 6374SOL     OW30754   0.827   1.048   8.781  0.1718  0.5007 -0.4900
 6374SOL    HW130755   0.737   1.050   8.814  0.2663 -1.1903 -0.1606
 6374SOL    HW230756   0.868   1.097   8.852 -1.8599  3.1694 -1.1597
 6375SOL     OW30757   2.064   1.914   3.733 -0.0567 -0.2820  0.4692
 6375SOL    HW130758   2.050   1.945   3.823  4.8636  0.7899  0.8474
 6375SOL    HW230759   2.158   1.896   3.741  0.3536  1.5643 -0.4318
 6376SOL     OW30760   4.306   0.335   3.656  0.0664 -0.1934 -0.0911
 6376SOL    HW130761   4.230   0.363   3.606 -1.0136 -2.0172  0.5733
 6376SOL    HW230762   4.268   0.381   3.731 -1.4541  2.5129 -2.5010
 6377SOL     OW30763   4.651   1.602   4.893 -0.2743 -0.0404 -0.2104
 6377SOL    HW130764   4.593   1.536   4.855 -0.3491 -1.5467  2.5430
 6377SOL    HW230765   4.693   1.558   4.967  2.5343 -1.3643 -2.5878
 6378SOL     OW30766   1.110   1.422  15.109 -0.4184 -0.2283 -0.1182
 6378SOL    HW130767   1.157   1.482  15.052 -1.5132  1.8936  1.1980
 6378SOL    HW230768   1.184   1.416  15.170  1.8825 -1.1528 -3.0380
 6379SOL     OW30769   3.899   3.611  15.425 -0.1897  0.6608  0.2116
 6379SOL    HW130770   3.929   3.605  15.334 -0.5897 -1.0187  0.1880
 6379SOL    HW230771   3.831   3.678  15.415 -0.2503  0.5698  0.0064
 6380SOL     OW30772   4.667   1.324   3.579 -0.0174  0.2788 -0.3348
 6380SOL    HW130773   4.704   1.403   3.541  0.4915  0.3455  0.2945
 6380SOL    HW230774   4.705   1.337   3.666 -0.7912  0.3174 -0.0048
 6381SOL     OW30775   2.923   1.300   9.555  0.3532 -0.2798  0.2761
 6381SOL    HW130776   2.932   1.206   9.569 -0.1962 -0.6284 -1.6614
 6381SOL    HW230777   2.996   1.324   9.498  1.2940 -1.7492  0.8907
 6382SOL     OW30778   3.028   1.277   8.672  0.4612  0.0106 -0.5090
 6382SOL    HW130779   3.091   1.213   8.707  0.8813  0.3184 -0.6986
 6382SOL    HW230780   3.023   1.258   8.579 -0.9435 -0.3353 -0.3557
 6383SOL     OW30781   1.219   4.276   8.353 -0.0128  0.0158 -0.1717
 6383SOL    HW130782   1.213   4.200   8.295 -0.5319  0.5743 -0.8519
 6383SOL    HW230783   1.219   4.227   8.436  1.3427  0.2784 -0.0155
 6384SOL     OW30784   4.298   4.201   1.745  0.3312 -0.2217  0.3118
 6384SOL    HW130785   4.210   4.213   1.781 -0.3172 -0.4721 -1.2050
 6384SOL    HW230786   4.343   4.264   1.801 -0.5115  0.1295  0.5875
 6385SOL     OW30787   0.451   2.295   3.474 -0.4369  0.3042 -0.0609
 6385SOL    HW130788   0.431   2.366   3.535  1.2501  0.8860 -0.2016
 6385SOL    HW230789   0.389   2.317   3.405 -1.4316  1.9496  1.3487
 6386SOL     OW30790   2.478   2.263   2.995 -0.4051 -0.6499  0.5833
 6386SOL    HW130791   2.466   2.356   3.012 -2.2416 -1.3619  3.2761
 6386SOL    HW230792   2.420   2.249   2.920 -1.7515  3.6426  0.8136
 6387SOL     OW30793   4.541   3.533   0.440  0.4172 -0.2342  0.6013
 6387SOL    HW130794   4.580   3.516   0.526  0.4408  1.1870  0.8691
 6387SOL    HW230795   4.482   3.607   0.450 -0.9579 -1.2111 -0.2313
 6388SOL     OW30796   0.303   2.994   0.190  0.1755 -0.4914  0.1535
 6388SOL    HW130797   0.266   3.058   0.130  1.0717  0.0727  0.2042
 6388SOL    HW230798   0.324   3.047   0.267  0.7323 -0.8185  0.2252
 6389SOL     OW30799   0.367   4.066  17.299 -0.2240  0.8118  0.1656
 6389SOL    HW130800   0.335   4.150  17.265 -1.3532 -0.8727 -3.0067
 6389SOL    HW230801   0.434   4.030  17.241  2.0413  3.2195  1.2658
 6390SOL     OW30802   0.337   0.085   4.333  0.3329 -0.2359  0.3267
 6390SOL    HW130803   0.426   0.058   4.312  0.1529  0.5403 -1.4456
 6390SOL    HW230804   0.353   0.120   4.421 -2.2683  2.5346 -0.2943
 6391SOL     OW30805   1.598   0.749   8.822 -0.6170  0.1987 -0.6808
 6391SOL    HW130806   1.591   0.718   8.912  1.9711 -1.7468 -1.1790
 6391SOL    HW230807   1.554   0.678   8.775  2.6037 -1.7950 -0.6746
 6392SOL     OW30808   0.625   4.545   8.573  0.2815 -0.0798 -0.1595
 6392SOL    HW130809   0.544   4.566   8.526  0.7678  0.4296 -0.7756
 6392SOL    HW230810   0.682   4.536   8.497 -1.2268 -1.2194 -1.1721
 6393SOL     OW30811   0.473   4.529   6.081 -0.0472 -0.1470  1.1119
 6393SOL    HW130812   0.423   4.592   6.030  0.8274 -0.8777 -0.6389
 6393SOL    HW230813   0.411   4.503   6.149 -0.0201 -0.0344  1.1789
 6394SOL     OW30814   4.489   2.330   6.643 -0.2348 -0.0036 -0.5097
 6394SOL    HW130815   4.406   2.336   6.691  1.3343  2.7869  1.8583
 6394SOL    HW230816   4.469   2.266   6.575  1.2691  0.2137 -1.1642
 6395SOL     OW30817   2.572   3.405  16.925 -0.6028  0.3848 -0.4393
 6395SOL    HW130818   2.571   3.464  16.849  0.8001  0.6029 -0.2846
 6395SOL    HW230819   2.509   3.337  16.903 -0.5317  0.4867 -0.9749
 6396SOL     OW30820   0.957   0.955   7.796  0.0866  0.3619 -0.2882
 6396SOL    HW130821   0.941   0.864   7.769 -3.1194  0.7321  0.2916
 6396SOL    HW230822   0.935   0.949   7.889  1.0603  1.3095 -0.0034
 6397SOL     OW30823   2.678   3.990  11.386 -0.3387  0.2212  0.8031
 6397SOL    HW130824   2.714   3.933  11.453  1.6915 -2.6606 -2.7328
 6397SOL    HW230825   2.623   3.924  11.343 -0.0820 -0.8643  2.1591
 6398SOL     OW30826   0.765   0.610  17.129 -0.5755  0.5945 -0.3143
 6398SOL    HW130827   0.703   0.605  17.201  1.4641  0.3908  1.4074
 6398SOL    HW230828   0.719   0.671  17.070 -1.1184  1.9865  1.5586
 6399SOL     OW30829   1.977   2.907   8.090  0.3201  0.5031  0.3119
 6399SOL    HW130830   2.029   2.843   8.139  0.5282  0.5761  0.1839
 6399SOL    HW230831   1.902   2.850   8.075 -1.2497  2.8948 -0.9003
 6400SOL     OW30832   0.589   2.666  12.924  0.8018 -0.2858  0.1757
 6400SOL    HW130833   0.630   2.742  12.882  2.7389 -0.5099  1.6381
 6400SOL    HW230834   0.663   2.623  12.967  1.4354  0.4785 -0.1387
 6401SOL     OW30835   4.390   3.705  13.219  0.1893  0.2345  0.1804
 6401SOL    HW130836   4.377   3.793  13.183 -0.7264 -0.6256 -1.5714
 6401SOL    HW230837   4.378   3.723  13.313 -2.1502  1.7297 -0.4226
 6402SOL     OW30838   4.651   0.333  10.068 -0.8395  0.4123  0.2252
 6402SOL    HW130839   4.659   0.401  10.135 -2.0764 -0.4049  1.2009
 6402SOL    HW230840   4.737   0.344  10.029 -0.7047 -1.1499  0.0781
 6403SOL     OW30841   2.040   1.024   6.014 -0.0606  0.2408  0.1639
 6403SOL    HW130842   2.038   0.945   5.960  0.9334  1.3067 -1.4297
 6403SOL    HW230843   2.006   1.082   5.946  0.9508 -1.1469 -1.5151
 6404SOL     OW30844   0.620   1.914   3.404 -0.0704 -0.1759 -0.2709
 6404SOL    HW130845   0.531   1.878   3.400  0.1619 -0.9399  1.7205
 6404SOL    HW230846   0.665   1.843   3.357  1.7533  0.5790  0.3442
 6405SOL     OW30847   0.505   4.000   7.909  0.5382  0.6118  0.5771
 6405SOL    HW130848   0.508   3.915   7.953 -2.9746 -0.0730 -0.4814
 6405SOL    HW230849   0.473   4.045   7.987  2.4652  1.5824  0.7907
 6406SOL     OW30850   4.007   4.133  15.289  0.1004 -0.0849  0.1529
 6406SOL    HW130851   4.035   4.216  15.250 -2.0391  0.0690 -1.0795
 6406SOL    HW230852   3.914   4.142  15.269  0.3061  1.1838 -0.2776
 6407SOL     OW30853   3.424   0.859  12.766 -0.7363  0.3053 -0.3222
 6407SOL    HW130854   3.421   0.766  12.743 -1.7230  0.0778  0.7335
 6407SOL    HW230855   3.371   0.850  12.845 -2.6870 -0.0464 -1.6690
 6408SOL     OW30856   3.563   3.630   9.437 -0.6856 -0.4053 -0.0352
 6408SOL    HW130857   3.548   3.665   9.349  1.3724  0.1831 -0.1424
 6408SOL    HW230858   3.586   3.540   9.411 -3.4580 -1.0442 -0.2225
 6409SOL     OW30859   0.079   3.427   6.383  0.7642 -0.0619  0.1783
 6409SOL    HW130860   0.074   3.332   6.393  2.4352 -0.1265  0.4244
 6409SOL    HW230861   0.172   3.451   6.388  0.6285  0.7300 -1.1633
 6410SOL     OW30862   0.701   2.788   8.344 -0.1116 -0.8904 -0.2321
 6410SOL    HW130863   0.704   2.790   8.439  0.0201  0.4649 -0.2633
 6410SOL    HW230864   0.796   2.789   8.333 -0.0695  2.2189  0.4186
 6411SOL     OW30865   1.326   1.625   4.622 -0.6773  0.2542 -0.8156
 6411SOL    HW130866   1.294   1.539   4.595  0.1853  0.2149 -1.7188
 6411SOL    HW230867   1.410   1.599   4.661  0.7109  1.2754 -3.1195
 6412SOL     OW30868   3.874   1.720   3.306  0.2925  0.9353  0.2837
 6412SOL    HW130869   3.900   1.742   3.217 -3.3836  2.1747 -0.4736
 6412SOL    HW230870   3.929   1.643   3.321 -0.1987  0.5918  0.3326
 6413SOL     OW30871   1.802   4.620   6.602  0.4319  0.7481 -0.0063
 6413SOL    HW130872   1.839   4.698   6.561 -1.2547  1.4047 -0.3124
 6413SOL    HW230873   1.710   4.646   6.592 -0.5047 -2.3113  0.4678
 6414SOL     OW30874   0.443   2.831   1.316 -0.0823 -0.2149  0.4255
 6414SOL    HW130875   0.397   2.850   1.234  1.0000 -1.0678 -0.3800
 6414SOL    HW230876   0.525   2.871   1.288  0.3192 -1.0008  0.4666
 6415SOL     OW30877   4.401   2.112  16.767 -0.0476 -0.0154  0.1124
 6415SOL    HW130878   4.327   2.075  16.719  0.7992 -1.8503  0.2041
 6415SOL    HW230879   4.371   2.201  16.788  3.4087  0.7813  1.7699
 6416SOL     OW30880   1.808   2.112   5.405  0.0099 -0.4520 -0.1452
 6416SOL    HW130881   1.759   2.155   5.335  1.5987  0.0587 -0.9510
 6416SOL    HW230882   1.876   2.171   5.439 -0.4318  1.0642 -1.9223
 6417SOL     OW30883   0.831   4.571   8.059 -0.1879  0.0741  0.4135
 6417SOL    HW130884   0.811   4.479   8.043 -0.5299  0.3135 -0.5536
 6417SOL    HW230885   0.925   4.576   8.040 -0.4652  2.4270 -0.3737
 6418SOL     OW30886   2.122   2.850   4.790 -0.2610  0.2050  0.4650
 6418SOL    HW130887   2.161   2.854   4.878 -0.2504 -1.3735  0.5384
 6418SOL    HW230888   2.186   2.889   4.731 -0.8582  1.0593  0.3853
 6419SOL     OW30889   2.902   1.934   9.569  0.3428  0.4620  0.1619
 6419SOL    HW130890   2.952   1.922   9.489 -1.6382  2.6167 -1.3731
 6419SOL    HW230891   2.820   1.893   9.543  1.2054 -2.8955  2.6774
 6420SOL     OW30892   1.594   1.200  11.571 -0.6025 -0.0575 -0.0723
 6420SOL    HW130893   1.602   1.117  11.526  1.2779  0.4011 -0.5977
 6420SOL    HW230894   1.527   1.163  11.628  0.0977 -0.1181  0.7222
 6421SOL     OW30895   3.016   3.896  16.900  0.0292  0.1839  0.0278
 6421SOL    HW130896   3.058   3.943  16.971 -1.6513 -3.1395  3.2190
 6421SOL    HW230897   2.988   3.968  16.844  1.9303 -0.1252 -1.3330
 6422SOL     OW30898   3.868   3.828   6.062  0.5021  0.7268  0.4603
 6422SOL    HW130899   3.887   3.745   6.018 -1.3668  1.4818 -1.7481
 6422SOL    HW230900   3.940   3.829   6.125  1.8549 -0.9617 -1.0714
 6423SOL     OW30901   1.444   4.705   2.384  0.0766 -0.0366 -0.2447
 6423SOL    HW130902   1.409   4.640   2.444  2.8758 -1.1866  0.1544
 6423SOL    HW230903   1.365   0.000   2.342 -0.5158  1.0913  1.7743
 6424SOL     OW30904   3.016   4.645   5.042  0.0147  0.1587  0.2303
 6424SOL    HW130905   3.026   4.728   4.995 -1.7335  1.1616  1.6129
 6424SOL    HW230906   2.980   4.664   5.128  0.7942 -0.7456  0.7562
 6425SOL     OW30907   3.155   1.327   7.022  0.5651  0.0252 -0.1178
 6425SOL    HW130908   3.236   1.342   6.972 -1.6903  2.2693 -3.1396
 6425SOL    HW230909   3.190   1.364   7.104  1.2057  0.3736 -0.5392
 6426SOL     OW30910   3.475   1.647   9.153  0.1309 -0.2997 -0.4936
 6426SOL    HW130911   3.451   1.636   9.061 -1.4154 -0.6817 -0.0574
 6426SOL    HW230912   3.462   1.739   9.177 -0.4821 -0.6026  0.3754
 6427SOL     OW30913   0.389   2.512   1.896 -0.5543 -0.0012 -0.1104
 6427SOL    HW130914   0.427   2.438   1.945 -0.7605 -1.0315 -1.4958
 6427SOL    HW230915   0.462   2.571   1.876 -1.7488  0.8167 -2.0784
 6428SOL     OW30916   0.807   2.957   2.259 -0.1071  0.0704 -0.5850
 6428SOL    HW130917   0.727   2.971   2.210  0.0449  0.6225 -0.6748
 6428SOL    HW230918   0.776   2.887   2.315  1.1835 -1.2685 -1.5457
 6429SOL     OW30919   0.408   0.515   1.257 -0.1647  0.4491 -0.5021
 6429SOL    HW130920   0.367   0.445   1.207 -2.0680  1.2062 -0.0283
 6429SOL    HW230921   0.348   0.512   1.332  1.5680 -0.6941  0.8238
 6430SOL     OW30922   2.750   1.826   6.414 -0.2357 -0.2579  0.2593
 6430SOL    HW130923   2.812   1.861   6.478 -0.3169 -0.1727  0.2909
 6430SOL    HW230924   2.804   1.836   6.335  0.5096 -1.4069  0.6257
 6431SOL     OW30925   0.253   0.259   2.625 -1.3604 -0.0991 -0.3412
 6431SOL    HW130926   0.254   0.328   2.558 -1.1210 -0.5025 -0.7526
 6431SOL    HW230927   0.332   0.212   2.599 -1.0422 -1.4672  3.1837
 6432SOL     OW30928   2.398   2.092   5.328 -0.7177 -0.7845  0.2525
 6432SOL    HW130929   2.445   2.027   5.275  0.4307 -0.6424  1.1038
 6432SOL    HW230930   2.309   2.082   5.294 -0.2411  1.7909 -1.7288
 6433SOL     OW30931   2.495   2.006   2.418  0.2075 -0.1752 -0.9202
 6433SOL    HW130932   2.420   1.963   2.458  1.6722 -1.9582 -0.0680
 6433SOL    HW230933   2.504   2.091   2.462  4.0510 -0.5093 -1.0144
 6434SOL     OW30934   3.551   4.656   8.628  0.0114  0.2796  0.2664
 6434SOL    HW130935   3.494   4.584   8.656 -0.8093  1.0435  0.5510
 6434SOL    HW230936   3.613   4.608   8.573 -0.0542  0.8109 -0.2703
 6435SOL     OW30937   1.508   3.433   3.866 -0.6355 -0.0159  0.0957
 6435SOL    HW130938   1.415   3.425   3.885 -0.9379 -1.7005 -2.1033
 6435SOL    HW230939   1.555   3.422   3.949  0.1589 -1.8611 -0.5899
 6436SOL     OW30940   3.767   0.842   7.951 -0.7984 -0.5014 -0.1063
 6436SOL    HW130941   3.828   0.902   7.908  1.7503 -2.2385  1.0534
 6436SOL    HW230942   3.766   0.771   7.886 -0.7828  0.6705 -1.3843
 6437SOL     OW30943   1.901   3.812   2.967 -0.0115 -0.1490 -0.3121
 6437SOL    HW130944   1.882   3.829   3.060 -0.1420 -0.6901 -0.2428
 6437SOL    HW230945   1.837   3.866   2.920  0.9762  1.0272 -0.3275
 6438SOL     OW30946   2.634   2.673   3.450 -0.2787 -0.1315 -0.3292
 6438SOL    HW130947   2.551   2.720   3.455  0.3538  0.8682  0.6628
 6438SOL    HW230948   2.627   2.633   3.363  1.1025 -4.5840  1.6209
 6439SOL     OW30949   1.288   4.216   2.860  0.7134  0.0237  0.3940
 6439SOL    HW130950   1.375   4.203   2.822  0.2624 -2.4438  0.2400
 6439SOL    HW230951   1.313   4.288   2.918  0.4411  0.6453 -0.2587
 6440SOL     OW30952   0.015   1.912  11.249  0.1168 -0.3926  0.2161
 6440SOL    HW130953   4.681   1.852  11.268 -1.8075  2.1350  0.9152
 6440SOL    HW230954   4.726   1.987  11.301  0.1978 -0.4251  0.3058
 6441SOL     OW30955   3.737   4.424   3.193 -0.3318  0.6740  0.5313
 6441SOL    HW130956   3.686   4.504   3.202 -1.3227 -0.2137  2.7849
 6441SOL    HW230957   3.756   4.443   3.101 -0.1730 -4.5139 -0.5594
 6442SOL     OW30958   2.287   2.873   3.694  0.3084 -0.1057  0.2202
 6442SOL    HW130959   2.360   2.919   3.651 -0.3943  1.1930  0.4246
 6442SOL    HW230960   2.299   2.920   3.777 -0.3053 -0.4775  0.5171
 6443SOL     OW30961   3.801   1.170   8.024 -0.0588 -0.5404 -0.2767
 6443SOL    HW130962   3.754   1.145   7.944  1.0334 -0.7645 -0.8571
 6443SOL    HW230963   3.749   1.115   8.082 -0.8035  1.5803  1.0560
 6444SOL     OW30964   2.249   4.653   8.253 -0.1045 -0.0925  0.2719
 6444SOL    HW130965   2.169   4.599   8.256 -0.7143  0.7509 -0.6783
 6444SOL    HW230966   2.235   4.715   8.181  1.7410  0.1068  0.0916
 6445SOL     OW30967   0.295   2.491   0.849 -0.1024  0.0523 -0.2091
 6445SOL    HW130968   0.292   2.435   0.927 -0.1592 -1.5755 -1.3851
 6445SOL    HW230969   0.311   2.579   0.883 -0.1635 -0.0566  0.1086
 6446SOL     OW30970   4.581   2.106   3.798 -0.1033 -0.5692  0.1585
 6446SOL    HW130971   4.546   2.188   3.832  0.4996 -0.7493  1.2169
 6446SOL    HW230972   4.502   2.080   3.751  0.3301  0.5732 -1.2148
 6447SOL     OW30973   1.663   2.824  12.487  0.3054 -0.1282 -0.2127
 6447SOL    HW130974   1.721   2.884  12.440  0.1466  0.9608  0.9738
 6447SOL    HW230975   1.714   2.820  12.567 -0.6635 -0.1950  0.4000
 6448SOL     OW30976   2.526   1.434  11.906  0.4699  0.0278  0.4070
 6448SOL    HW130977   2.500   1.464  11.993 -1.1076  0.6721 -0.2907
 6448SOL    HW230978   2.599   1.495  11.896 -0.8954  1.5539 -0.2485
 6449SOL     OW30979   4.193   2.650  16.037  0.0999  0.2095  0.2632
 6449SOL    HW130980   4.228   2.735  16.013 -0.7687  1.4736  3.5630
 6449SOL    HW230981   4.136   2.677  16.109 -1.6396  0.0534 -1.0628
 6450SOL     OW30982   2.817   2.554   3.828 -0.3762  0.1488  0.4959
 6450SOL    HW130983   2.882   2.522   3.766 -0.1602 -2.0360  1.8618
 6450SOL    HW230984   2.744   2.557   3.766 -0.1424 -3.8357  0.0339
 6451SOL     OW30985   0.092   2.800   7.502  0.2364 -0.4121 -0.1707
 6451SOL    HW130986   0.118   2.775   7.413  0.3337  1.2959 -0.6226
 6451SOL    HW230987   0.171   2.847   7.527  0.4340 -0.9887  0.2954
 6452SOL     OW30988   2.142   2.604  14.024  0.1565  0.1879 -0.4318
 6452SOL    HW130989   2.147   2.511  14.046 -1.2220  0.2011 -0.0431
 6452SOL    HW230990   2.158   2.598  13.930 -0.7984 -1.2454 -0.5053
 6453SOL     OW30991   0.561   1.927   2.631 -0.6572  0.2709 -0.7025
 6453SOL    HW130992   0.543   1.948   2.540  1.1276 -0.7653 -1.3012
 6453SOL    HW230993   0.541   1.834   2.619  1.2072 -0.2555  0.1563
 6454SOL     OW30994   1.909   3.985  12.133 -0.1979  0.3150  0.9684
 6454SOL    HW130995   1.920   3.890  12.128  1.5024  0.5837 -0.3112
 6454SOL    HW230996   1.869   3.997  12.219 -5.0167 -0.3728 -1.1513
 6455SOL     OW30997   2.205   1.251  14.680  1.0143  0.5718 -0.1099
 6455SOL    HW130998   2.113   1.266  14.699  1.1158  1.5910 -0.4077
 6455SOL    HW230999   2.246   1.336  14.666  0.5128  0.9690  0.8524
 6456SOL     OW31000   1.564   1.073   7.232  0.2987  0.2871 -0.0169
 6456SOL    HW131001   1.501   1.060   7.303 -0.2897  2.3327 -0.1413
 6456SOL    HW231002   1.522   1.138   7.176 -0.5901  0.1526  0.4947
 6457SOL     OW31003   1.521   2.697   7.078  0.1875 -0.1538  0.0963
 6457SOL    HW131004   1.484   2.785   7.085 -1.7346 -1.0198  0.7835
 6457SOL    HW231005   1.457   2.661   7.139 -0.4335 -0.7142 -0.8769
 6458SOL     OW31006   1.590   2.675   2.982 -0.2334  0.1747  0.0200
 6458SOL    HW131007   1.661   2.614   2.966 -0.4175  0.0996 -0.4978
 6458SOL    HW231008   1.634   2.758   2.968 -1.0499  0.9126  1.8232
 6459SOL     OW31009   3.533   4.215   6.828 -0.8940  0.0115  0.3457
 6459SOL    HW131010   3.512   4.149   6.893 -0.1525 -0.1898  0.3816
 6459SOL    HW231011   3.522   4.293   6.883  1.3034  0.4909  0.1311
 6460SOL     OW31012   1.335   1.364   7.497 -0.7382 -0.0690  0.1226
 6460SOL    HW131013   1.370   1.417   7.568 -2.2225  0.6844  0.2933
 6460SOL    HW231014   1.307   1.290   7.551 -0.4573 -0.3931 -0.1773
 6461SOL     OW31015   1.755   0.307   5.280  1.2974  0.7321  0.4198
 6461SOL    HW131016   1.690   0.373   5.303 -0.5941 -0.4792 -1.4858
 6461SOL    HW231017   1.786   0.267   5.361  1.0300 -0.7297 -0.2014
 6462SOL     OW31018   4.544   0.006   5.017  0.5808 -0.3329  0.6165
 6462SOL    HW131019   4.622   0.058   4.996 -0.1965  0.2193 -0.8751
 6462SOL    HW231020   4.523   0.055   5.097 -1.6011  0.6761 -0.5632
 6463SOL     OW31021   0.566   1.987   6.068  0.0928  0.1413 -0.1616
 6463SOL    HW131022   0.602   2.051   6.130 -0.6796 -1.4261  1.9139
 6463SOL    HW231023   0.639   1.926   6.059 -0.5596 -1.0398  2.4151
 6464SOL     OW31024   3.300   0.519  10.713  0.2871  0.9695  0.1630
 6464SOL    HW131025   3.290   0.580  10.786  2.1515  2.8108 -1.1260
 6464SOL    HW231026   3.336   0.576  10.645  0.6595  1.2066  0.5606
 6465SOL     OW31027   3.905   0.552   7.788 -0.3183  0.4581  0.4495
 6465SOL    HW131028   3.973   0.583   7.728 -2.1554  0.4688 -1.6125
 6465SOL    HW231029   3.928   0.459   7.795  2.1495  0.9340 -1.2606
 6466SOL     OW31030   3.580   3.550   9.933 -0.6410  0.4665  0.3622
 6466SOL    HW131031   3.601   3.640   9.907 -1.9354  0.2370 -1.4770
 6466SOL    HW231032   3.574   3.557  10.028 -0.9126  1.6519  0.2519
 6467SOL     OW31033   0.555   1.195   5.161 -0.2465 -0.1392  0.0874
 6467SOL    HW131034   0.478   1.230   5.206  0.2900  2.7691 -1.2303
 6467SOL    HW231035   0.593   1.275   5.126  0.1618  1.0019  3.1678
 6468SOL     OW31036   0.954   3.320   9.001  0.4446  0.4193  0.0703
 6468SOL    HW131037   1.013   3.390   8.975 -0.0496  0.4389 -1.0310
 6468SOL    HW231038   0.925   3.340   9.090  1.4053 -2.0736  0.9456
 6469SOL     OW31039   2.133   3.619   8.545  0.4494  0.2331  0.6466
 6469SOL    HW131040   2.052   3.615   8.595  1.0062 -2.0221  1.3838
 6469SOL    HW231041   2.137   3.711   8.520  1.6354 -0.0858 -0.3615
 6470SOL     OW31042   3.242   1.888   8.399  0.1990  0.3871  0.6417
 6470SOL    HW131043   3.322   1.916   8.354 -1.0100  1.1547 -1.0204
 6470SOL    HW231044   3.222   1.802   8.361  0.3143  0.4213  0.5042
 6471SOL     OW31045   1.676   1.900   4.262  0.1192 -0.0261  0.2195
 6471SOL    HW131046   1.669   1.810   4.230 -1.3262  1.0675 -2.5593
 6471SOL    HW231047   1.583   1.915   4.282  0.4500  0.5836  1.2741
 6472SOL     OW31048   4.595   0.779   3.085 -0.6195 -0.3330  0.0666
 6472SOL    HW131049   4.552   0.825   3.157 -0.5067  1.1635 -0.8251
 6472SOL    HW231050   4.608   0.852   3.024  1.0189 -1.0866 -0.4574
 6473SOL     OW31051   2.574   0.234   9.561  0.1545  0.3161  0.0853
 6473SOL    HW131052   2.615   0.320   9.563  0.1499  0.3140  0.3035
 6473SOL    HW231053   2.630   0.192   9.626 -1.4119 -0.7737  0.7421
 6474SOL     OW31054   0.033   0.173   4.936 -0.2310 -0.3863  0.2589
 6474SOL    HW131055   4.728   0.258   4.933  2.9947  1.2424 -1.7508
 6474SOL    HW231056   0.104   0.201   4.994 -0.4222 -0.0206  0.3142
 6475SOL     OW31057   3.184   3.579   9.198  0.7233 -0.4827  0.0265
 6475SOL    HW131058   3.126   3.584   9.122  0.0284 -1.2758  0.5080
 6475SOL    HW231059   3.158   3.638   9.268 -2.1144  0.1914 -1.5837
 6476SOL     OW31060   4.049   1.351   9.143 -0.4024 -0.3802 -0.2379
 6476SOL    HW131061   4.111   1.362   9.071  0.8479 -1.5533  0.6665
 6476SOL    HW231062   3.977   1.304   9.100  0.8162 -1.7325 -0.8052
 6477SOL     OW31063   1.924   1.254   3.242 -0.0564  0.1127 -0.5448
 6477SOL    HW131064   1.897   1.330   3.191  1.7674 -0.1741 -1.9249
 6477SOL    HW231065   1.958   1.305   3.316 -0.5597  1.5001 -1.2631
 6478SOL     OW31066   1.214   3.079   2.996 -0.3595  0.0243 -0.2020
 6478SOL    HW131067   1.257   3.093   2.912 -1.7125 -0.6728 -1.0111
 6478SOL    HW231068   1.271   3.122   3.059 -0.9200  2.5177 -1.4140
 6479SOL     OW31069   1.103   4.103   7.038 -0.0493  0.3206  0.4484
 6479SOL    HW131070   1.110   4.152   7.120  0.4676  0.4911  0.3046
 6479SOL    HW231071   1.058   4.172   6.989  2.1688  1.0013 -0.6588
 6480SOL     OW31072   2.775   4.381   7.196  0.2856 -0.0952 -0.0269
 6480SOL    HW131073   2.727   4.456   7.231  0.6451 -1.4339  3.3194
 6480SOL    HW231074   2.732   4.310   7.243 -0.9272  0.9117  0.3925
 6481SOL     OW31075   0.774   3.260   1.494 -0.7441  0.1123 -0.4415
 6481SOL    HW131076   0.753   3.332   1.434 -1.4721  0.8817  0.7385
 6481SOL    HW231077   0.694   3.242   1.543 -0.4183 -2.6762 -0.9566
 6482SOL     OW31078   4.558   1.129   6.412 -0.1250 -0.1987 -0.1256
 6482SOL    HW131079   4.589   1.050   6.456 -0.6750 -0.1491  0.3446
 6482SOL    HW231080   4.498   1.162   6.478 -0.9944 -0.2076 -0.9057
 6483SOL     OW31081   0.035   3.291  13.199  0.4252  0.0528 -0.3250
 6483SOL    HW131082   0.003   3.359  13.257 -1.7834 -0.4110 -0.9959
 6483SOL    HW231083   0.017   3.211  13.249 -0.6558  1.4340  1.4839
 6484SOL     OW31084   3.784   3.619   9.618  0.2366 -0.3761  0.4829
 6484SOL    HW131085   3.706   3.601   9.671  0.5926 -1.1506  0.7474
 6484SOL    HW231086   3.745   3.660   9.540  1.8193 -1.3055 -0.7876
 6485SOL     OW31087   3.241   1.678  13.995  0.2111 -0.0829 -0.7422
 6485SOL    HW131088   3.292   1.606  14.033  0.6646  0.3651 -0.5092
 6485SOL    HW231089   3.286   1.751  14.036  0.4707 -0.6996  0.0825
 6486SOL     OW31090   0.636   4.022   4.538  0.3196  0.2503 -0.0257
 6486SOL    HW131091   0.562   4.055   4.588  1.3701  0.6847  1.2273
 6486SOL    HW231092   0.653   3.951   4.600  1.2619  1.3557  0.9529
 6487SOL     OW31093   2.797   2.746   6.018 -0.1931  0.2333  0.2784
 6487SOL    HW131094   2.820   2.814   5.955  1.1198 -1.1707 -0.7665
 6487SOL    HW231095   2.843   2.669   5.984  0.8728  0.3339  1.4743
 6488SOL     OW31096   1.115   2.978   8.478  0.0830 -0.2966  0.1330
 6488SOL    HW131097   1.207   2.990   8.503 -0.8684  2.6697  2.1792
 6488SOL    HW231098   1.076   3.040   8.539 -0.4133  0.5033 -1.0144
 6489SOL     OW31099   4.504   3.492  11.777 -0.0067  0.2611  0.0210
 6489SOL    HW131100   4.496   3.565  11.839  0.1648  1.7018 -1.6244
 6489SOL    HW231101   4.554   3.537  11.709  2.0202  0.6154  1.7428
 6490SOL     OW31102   1.620   2.996   8.501  0.4349 -0.0209  0.0097
 6490SOL    HW131103   1.636   3.018   8.410  0.4691 -0.1404 -0.0134
 6490SOL    HW231104   1.705   2.967   8.533  0.7322 -1.2938 -1.9428
 6491SOL     OW31105   1.273   0.864   3.715  0.5126  0.6375  0.0877
 6491SOL    HW131106   1.329   0.857   3.637  0.6619 -1.1381  0.3525
 6491SOL    HW231107   1.257   0.958   3.717 -2.8752  0.1076 -1.9665
 6492SOL     OW31108   3.570   3.907  14.678 -0.6634 -0.5647 -0.4546
 6492SOL    HW131109   3.640   3.952  14.725  1.4318 -3.0110 -1.2046
 6492SOL    HW231110   3.494   3.940  14.726  0.0328  0.9945 -0.4386
 6493SOL     OW31111   4.271   3.817   9.257 -0.0668 -0.1763  0.4219
 6493SOL    HW131112   4.218   3.841   9.180  1.8360 -0.9893 -1.1263
 6493SOL    HW231113   4.204   3.788   9.320 -1.9682 -0.0021 -1.5005
 6494SOL     OW31114   3.366   2.627   4.197 -0.3917 -0.1643  0.5856
 6494SOL    HW131115   3.299   2.586   4.251  0.0443 -1.5592  0.0843
 6494SOL    HW231116   3.427   2.664   4.260 -1.1043  1.2944  0.4192
 6495SOL     OW31117   2.392   4.494   2.011 -0.1532  0.0827 -0.3903
 6495SOL    HW131118   2.378   4.401   1.992  2.2361 -0.2374 -0.5547
 6495SOL    HW231119   2.403   4.542   1.929 -0.0857 -3.4897 -2.4364
 6496SOL     OW31120   2.595   1.901   4.122  0.2474 -0.1065  0.1564
 6496SOL    HW131121   2.649   1.891   4.201  0.9375 -1.7535 -0.5388
 6496SOL    HW231122   2.552   1.984   4.146  0.4544  0.2378 -0.6816
 6497SOL     OW31123   0.649   4.490   2.284 -0.2317  0.0034 -0.2614
 6497SOL    HW131124   0.708   4.421   2.315 -0.9449 -0.9197 -0.9496
 6497SOL    HW231125   0.580   4.434   2.250  0.5307 -0.3051 -1.3138
 6498SOL     OW31126   2.997   0.770  17.160 -0.3372  0.2776  0.0506
 6498SOL    HW131127   3.088   0.743  17.151  0.0354  1.7955 -0.7870
 6498SOL    HW231128   3.000   0.834  17.231 -3.4447  0.8370 -0.3046
 6499SOL     OW31129   3.613   2.671   6.321  0.0727  0.3982  0.1711
 6499SOL    HW131130   3.584   2.755   6.285 -1.2362 -0.1374 -0.0333
 6499SOL    HW231131   3.533   2.640   6.363 -0.4212 -0.5741 -1.5282
 6500SOL     OW31132   3.308   3.397  17.564  0.2525 -0.1051 -0.0203
 6500SOL    HW131133   3.359   3.447  17.500  0.2679 -0.8226 -0.5724
 6500SOL    HW231134   3.218   3.422  17.542  0.0509  0.1076  1.0737
 6501SOL     OW31135   4.525   2.941  17.665  0.0415  0.2991 -0.2121
 6501SOL    HW131136   4.585   2.923  17.738  1.2993 -0.3348 -1.3969
 6501SOL    HW231137   4.467   3.000  17.713 -1.7031 -1.0888 -0.6556
 6502SOL     OW31138   4.441   1.936   0.814  0.4924 -0.3910 -0.4372
 6502SOL    HW131139   4.361   1.940   0.865  1.0301  0.4372  0.3405
 6502SOL    HW231140   4.445   1.842   0.796  0.6917 -0.0812 -2.0208
 6503SOL     OW31141   3.323   4.424   0.584  0.6579  0.0540  0.0734
 6503SOL    HW131142   3.339   4.509   0.624  0.3840  1.0187 -1.8842
 6503SOL    HW231143   3.230   4.420   0.561  0.3365  0.0667  1.3508
 6504SOL     OW31144   0.363   1.173   7.414 -0.2475  0.1643 -0.4885
 6504SOL    HW131145   0.275   1.188   7.379 -1.3728 -0.0378  2.2524
 6504SOL    HW231146   0.408   1.179   7.330 -0.5255  0.1301 -0.6428
 6505SOL     OW31147   1.381   2.454   8.684  0.1371  0.1233  0.1950
 6505SOL    HW131148   1.433   2.526   8.721  1.9832 -0.2798 -1.6380
 6505SOL    HW231149   1.410   2.380   8.736 -0.1860  0.3903  0.7542
 6506SOL     OW31150   0.897   0.135   1.905 -0.4075 -0.6412  0.5362
 6506SOL    HW131151   0.824   0.108   1.849 -2.1159  0.9187  2.0112
 6506SOL    HW231152   0.970   0.132   1.844 -1.5494  0.5929 -0.9188
 6507SOL     OW31153   2.685   4.601   4.957 -0.3680 -0.1205 -0.1920
 6507SOL    HW131154   2.602   4.649   4.958  0.2833  0.9559  1.6590
 6507SOL    HW231155   2.707   4.621   5.048 -0.5353 -0.6377 -0.0376
 6508SOL     OW31156   2.684   1.306   5.151  0.1220 -0.3159  0.1287
 6508SOL    HW131157   2.601   1.277   5.188  1.0259 -1.1764  1.4988
 6508SOL    HW231158   2.665   1.343   5.065 -0.4220  0.6812  0.6740
 6509SOL     OW31159   1.676   0.538   0.296 -0.0169  0.3829  0.0447
 6509SOL    HW131160   1.623   0.517   0.373 -1.3983  0.6579 -0.8380
 6509SOL    HW231161   1.683   0.449   0.261 -0.6308 -0.4506  2.0439
 6510SOL     OW31162   2.669   0.237   1.868  0.4504 -0.2444  0.4320
 6510SOL    HW131163   2.656   0.331   1.857  0.6866 -0.2754 -0.1048
 6510SOL    HW231164   2.728   0.222   1.794  0.1665 -2.1081  0.5855
 6511SOL     OW31165   4.137   1.152   8.631 -0.0415  0.4327  0.0346
 6511SOL    HW131166   4.207   1.216   8.615  0.6521 -0.6934 -1.3383
 6511SOL    HW231167   4.102   1.150   8.542 -0.7154 -0.8079  0.3310
 6512SOL     OW31168   4.118   2.612  17.383  0.2581  0.3945  0.1239
 6512SOL    HW131169   4.090   2.522  17.401 -1.1757  0.9328  0.5790
 6512SOL    HW231170   4.142   2.643  17.471  1.6572  0.6078 -0.3259
 6513SOL     OW31171   0.630   1.784   9.420 -0.5953  0.4018 -0.4551
 6513SOL    HW131172   0.625   1.688   9.419 -0.4405  0.4123 -2.2113
 6513SOL    HW231173   0.681   1.795   9.500  0.1321 -2.6760 -0.4627
 6514SOL     OW31174   0.223   4.237   4.436 -0.3039 -0.0067 -0.1246
 6514SOL    HW131175   0.210   4.183   4.513  1.0595  0.3776  0.3789
 6514SOL    HW231176   0.159   4.197   4.376  0.2134 -2.2283  0.8188
 6515SOL     OW31177   3.562   1.117   4.065 -0.3946  0.0376 -0.1577
 6515SOL    HW131178   3.649   1.126   4.104  0.3989 -1.8926 -1.4799
 6515SOL    HW231179   3.540   1.029   4.093 -1.2260  0.5061  0.6546
 6516SOL     OW31180   1.370   4.383  17.733 -0.4237  0.3243  0.2836
 6516SOL    HW131181   1.294   4.378  17.675 -0.2277  0.3317  0.0252
 6516SOL    HW231182   1.421   4.303  17.726  0.8218  1.1740 -0.3589
 6517SOL     OW31183   1.411   1.234  16.545  0.3477 -0.2335 -0.2206
 6517SOL    HW131184   1.504   1.221  16.528 -0.1817 -1.6506 -2.1082
 6517SOL    HW231185   1.378   1.282  16.469 -2.2376  0.0721  1.1048
 6518SOL     OW31186   0.417   0.909   8.401  0.1865  0.1131 -0.3268
 6518SOL    HW131187   0.483   0.885   8.336  2.8628 -0.1251  2.5172
 6518SOL    HW231188   0.476   0.956   8.459  0.4042 -0.5774  0.0025
 6519SOL     OW31189   4.522   3.083   7.526  0.4743 -0.5799 -0.3486
 6519SOL    HW131190   4.461   3.015   7.552 -2.1750  1.7115 -0.5335
 6519SOL    HW231191   4.606   3.037   7.529 -1.0210 -3.2142  1.0782
 6520SOL     OW31192   3.248   4.056   5.827 -0.2912 -0.6115  0.6499
 6520SOL    HW131193   3.333   4.079   5.865 -0.1599  0.4806 -0.3232
 6520SOL    HW231194   3.242   4.122   5.759  1.9401 -0.7348  0.3471
 6521SOL     OW31195   2.151   1.892   3.306  0.1931 -0.4802  0.4502
 6521SOL    HW131196   2.233   1.845   3.287  0.6047  1.0351 -1.5255
 6521SOL    HW231197   2.151   1.946   3.227  1.6523  0.3897  1.0337
 6522SOL     OW31198   0.141   4.221   8.703  0.1033 -0.4518 -0.0864
 6522SOL    HW131199   0.220   4.248   8.657 -1.4489  0.4860 -2.1923
 6522SOL    HW231200   0.173   4.185   8.786  0.9405 -0.5122 -0.4319
 6523SOL     OW31201   1.388   2.089   5.325 -0.0939  0.3227 -0.4978
 6523SOL    HW131202   1.360   1.998   5.335  1.3317 -0.0347  0.3757
 6523SOL    HW231203   1.330   2.121   5.256  2.6349  0.1263 -2.9121
 6524SOL     OW31204   2.117   3.096   4.389  0.0735 -0.0739  0.4124
 6524SOL    HW131205   2.040   3.122   4.339  0.5989 -1.0548 -0.9274
 6524SOL    HW231206   2.124   3.013   4.342  0.6223  0.3810 -0.3092
 6525SOL     OW31207   0.284   4.280   7.692  0.2269 -0.1393 -0.3775
 6525SOL    HW131208   0.347   4.336   7.736  0.2152  1.0494 -1.8619
 6525SOL    HW231209   0.226   4.339   7.643  0.7974  0.9036  0.2069
 6526SOL     OW31210   4.557   0.567  16.300 -0.1138 -0.5291  0.1667
 6526SOL    HW131211   4.523   0.510  16.231 -1.2599 -0.5730  0.7746
 6526SOL    HW231212   4.512   0.649  16.282 -3.9949 -2.8009 -0.3924
 6527SOL     OW31213   3.100   0.129   9.533 -0.2350 -0.2235  0.1646
 6527SOL    HW131214   3.036   0.060   9.521 -0.7084  0.0169  1.2567
 6527SOL    HW231215   3.078   0.179   9.455  1.8909  0.0108 -0.2767
 6528SOL     OW31216   1.298   1.351  14.565 -0.5626 -0.3913  0.4903
 6528SOL    HW131217   1.283   1.287  14.635  0.6713 -0.5556  0.6141
 6528SOL    HW231218   1.347   1.422  14.609  1.0622 -0.9617 -0.4012
 6529SOL     OW31219   0.170   1.323   7.268 -0.0889 -0.3008  0.0181
 6529SOL    HW131220   0.118   1.367   7.200 -2.2162 -1.0238  1.1999
 6529SOL    HW231221   0.254   1.320   7.222 -0.8187  0.1408 -1.3469
 6530SOL     OW31222   0.795   0.575   3.827 -0.0053  0.5339 -0.1739
 6530SOL    HW131223   0.829   0.516   3.894  0.3864  0.1589 -0.6984
 6530SOL    HW231224   0.862   0.643   3.839 -0.9315  1.2655  0.7804
 6531SOL     OW31225   1.617   2.532   8.096 -0.0616 -0.3872 -0.4739
 6531SOL    HW131226   1.584   2.569   8.177  0.3023  2.6811 -1.7360
 6531SOL    HW231227   1.535   2.503   8.055  0.8377  0.4137 -2.8690
 6532SOL     OW31228   4.149   1.230   3.624  0.0242  0.5095 -0.2784
 6532SOL    HW131229   4.238   1.236   3.659  0.7256  0.4585 -2.0074
 6532SOL    HW231230   4.105   1.202   3.704 -1.0863  1.9363 -0.3943
 6533SOL     OW31231   1.938   2.038   3.515  0.6027  0.2171 -0.0050
 6533SOL    HW131232   1.994   2.006   3.585  0.4164 -0.2207 -0.0529
 6533SOL    HW231233   1.983   1.995   3.442 -0.8587 -1.9768  0.3894
 6534SOL     OW31234   0.457   3.912  10.091  0.2244  0.2167 -0.3103
 6534SOL    HW131235   0.523   3.981  10.079  0.7490  0.3967  3.5431
 6534SOL    HW231236   0.443   3.912  10.186 -0.5809  0.7811 -0.4288
 6535SOL     OW31237   0.064   0.001   5.233  0.4089  0.2900 -0.4473
 6535SOL    HW131238   0.108   0.034   5.311 -1.0636 -1.4041  1.0985
 6535SOL    HW231239   0.121   0.046   5.170 -1.6911  2.5795 -0.7148
 6536SOL     OW31240   1.593   1.723   4.087  0.1909 -0.3758 -0.4135
 6536SOL    HW131241   1.663   1.661   4.065  1.0644 -0.2661  1.9743
 6536SOL    HW231242   1.516   1.670   4.071  0.2956 -0.4328 -0.7250
 6537SOL     OW31243   0.224   2.558  10.790  0.4558 -0.3891 -0.3426
 6537SOL    HW131244   0.197   2.552  10.882 -1.1035  3.0996 -0.5779
 6537SOL    HW231245   0.312   2.594  10.797  0.4772 -0.5998  0.6029
 6538SOL     OW31246   1.476   3.380   5.278 -0.2035  0.4457 -0.2886
 6538SOL    HW131247   1.441   3.354   5.363 -2.6276 -1.1786 -1.7814
 6538SOL    HW231248   1.431   3.317   5.221 -0.7399  0.5076  0.0715
 6539SOL     OW31249   4.567   3.663   5.651 -0.5195 -0.0935  0.3296
 6539SOL    HW131250   4.514   3.628   5.579 -0.0074 -3.2798  1.4995
 6539SOL    HW231251   4.575   3.753   5.618  2.9036  0.1800  1.8859
 6540SOL     OW31252   3.284   4.680   4.053  0.0353 -0.3665  0.8470
 6540SOL    HW131253   3.250   4.672   4.143 -0.4011  0.7763  0.7884
 6540SOL    HW231254   3.278   4.590   4.022 -0.4138 -0.4480  1.1514
 6541SOL     OW31255   3.571   2.837  11.496  0.1058  0.2895 -0.6233
 6541SOL    HW131256   3.520   2.885  11.430 -0.5084 -0.2580 -0.5496
 6541SOL    HW231257   3.645   2.893  11.519  1.0730 -0.8699 -0.9199
 6542SOL     OW31258   0.532   4.164   4.756  0.0809 -0.4260 -0.1624
 6542SOL    HW131259   0.578   4.208   4.827 -0.1349 -0.1349 -0.2067
 6542SOL    HW231260   0.489   4.234   4.707  1.9087  1.1987  0.5341
 6543SOL     OW31261   1.596   3.123  16.008  0.6237 -0.0630 -0.1980
 6543SOL    HW131262   1.578   3.168  15.926  2.1919  0.8234 -0.0676
 6543SOL    HW231263   1.673   3.170  16.042 -0.8906  0.6864  2.2056
 6544SOL     OW31264   1.848   4.734   5.204 -0.4437 -0.7711  0.1877
 6544SOL    HW131265   1.848   0.004   5.108 -1.6698  1.0604  0.3576
 6544SOL    HW231266   1.800   4.652   5.218 -2.3003  0.5233  1.2635
 6545SOL     OW31267   0.170   2.464   7.100 -0.4180  0.0910  0.7712
 6545SOL    HW131268   0.187   2.537   7.039  0.9678  0.2100  1.3002
 6545SOL    HW231269   0.244   2.476   7.160 -0.4998 -2.1325  1.3176
 6546SOL     OW31270   3.632   1.135  11.554  0.1132 -0.4174 -0.7821
 6546SOL    HW131271   3.712   1.137  11.501  0.8095 -2.0014  0.2096
 6546SOL    HW231272   3.587   1.214  11.524  2.6788  0.5582 -2.0460
 6547SOL     OW31273   3.002   0.902   2.801 -0.4373  0.1751  0.3519
 6547SOL    HW131274   2.993   0.882   2.894  0.9379 -1.4373  0.1515
 6547SOL    HW231275   2.974   0.818   2.763 -3.2061  0.6336  1.3898
 6548SOL     OW31276   1.725   3.036   5.668  0.7517  0.2968  0.1464
 6548SOL    HW131277   1.814   3.003   5.660  0.9007  0.6802  0.2736
 6548SOL    HW231278   1.730   3.076   5.581 -2.1973 -0.7144 -0.5077
 6549SOL     OW31279   3.636   0.373   3.773  0.1335  0.3302 -0.2913
 6549SOL    HW131280   3.566   0.423   3.730  1.7776  1.1698 -1.9551
 6549SOL    HW231281   3.619   0.381   3.867 -0.3799 -1.0190 -0.2795
 6550SOL     OW31282   0.545   2.877   6.552  0.1054 -0.2976 -0.0432
 6550SOL    HW131283   0.588   2.924   6.624 -0.4556 -2.0026  1.4203
 6550SOL    HW231284   0.458   2.916   6.551 -0.0211 -0.5675  0.3311
 6551SOL     OW31285   0.502   1.149   2.590  0.3947  0.2871 -0.4121
 6551SOL    HW131286   0.548   1.095   2.654 -2.0835  0.1267  1.2501
 6551SOL    HW231287   0.578   1.189   2.548  0.8292  1.2646  1.2964
 6552SOL     OW31288   2.576   3.301   2.653  0.4253  0.3491  0.0153
 6552SOL    HW131289   2.525   3.307   2.572  0.0989 -1.3701  0.0961
 6552SOL    HW231290   2.517   3.341   2.717 -0.0712  0.6246 -0.6191
 6553SOL     OW31291   2.374   0.716  13.751 -0.2815 -0.1168 -0.0596
 6553SOL    HW131292   2.446   0.752  13.700 -0.0427  0.2899  0.5589
 6553SOL    HW231293   2.329   0.654  13.694 -0.0669 -0.4251  0.1073
 6554SOL     OW31294   4.298   1.295   9.433  0.0510  0.0905  1.0908
 6554SOL    HW131295   4.209   1.287   9.465 -0.6882  0.3361 -0.9244
 6554SOL    HW231296   4.347   1.293   9.516 -0.5913  0.3348  1.4693
 6555SOL     OW31297   1.006   4.378   3.678 -0.5076 -0.9696  0.3350
 6555SOL    HW131298   1.051   4.458   3.704  1.5702 -0.9740 -3.3347
 6555SOL    HW231299   0.987   4.340   3.764  0.7014  0.8758  1.4023
 6556SOL     OW31300   2.607   3.584  16.707 -0.6805  0.0461 -0.4274
 6556SOL    HW131301   2.613   3.554  16.616 -1.7381  2.3946 -1.2676
 6556SOL    HW231302   2.664   3.661  16.711  0.9772 -1.2564  0.8327
 6557SOL     OW31303   3.606   1.415  15.776  0.9408  0.1559  0.0989
 6557SOL    HW131304   3.618   1.488  15.715  3.6112  0.0631  0.5028
 6557SOL    HW231305   3.512   1.432  15.776  1.1413  1.2628  0.6546
 6558SOL     OW31306   1.110   1.419   6.962  0.3090  0.6748 -0.5619
 6558SOL    HW131307   1.087   1.481   7.032 -0.4124 -0.0267 -0.1813
 6558SOL    HW231308   1.206   1.420   6.952  0.0730  1.6402 -2.7357
 6559SOL     OW31309   4.274   1.047   6.021 -0.1908  0.2874 -0.0721
 6559SOL    HW131310   4.339   1.096   6.071 -0.8654  1.3461 -0.2210
 6559SOL    HW231311   4.336   1.026   5.952 -0.3501  1.0546 -0.4542
 6560SOL     OW31312   0.229   3.406   4.011 -0.2248 -0.2435  0.0618
 6560SOL    HW131313   0.285   3.429   3.938 -0.3116  1.2192  0.4605
 6560SOL    HW231314   0.149   3.385   3.962 -0.8270  2.5394 -0.1614
 6561SOL     OW31315   0.271   1.828   5.904 -0.0110  0.6942  0.9243
 6561SOL    HW131316   0.273   1.860   5.994  0.5521 -1.3976  1.6628
 6561SOL    HW231317   0.357   1.839   5.862 -0.4598 -0.3446 -0.2569
 6562SOL     OW31318   2.521   1.533   8.450  0.1216 -0.4808  0.3907
 6562SOL    HW131319   2.515   1.628   8.455  1.3088 -0.1901 -3.3457
 6562SOL    HW231320   2.435   1.507   8.415  1.0056 -2.0623 -0.5975
 6563SOL     OW31321   2.741   3.789   2.532 -0.1425 -0.1808  0.3073
 6563SOL    HW131322   2.743   3.697   2.507 -1.8614  0.9409 -3.9732
 6563SOL    HW231323   2.655   3.818   2.501  1.6299  4.4833 -0.1199
 6564SOL     OW31324   1.907   0.725   1.264 -0.3591 -0.6712 -0.2491
 6564SOL    HW131325   1.892   0.634   1.288  0.0845 -0.8724 -0.7374
 6564SOL    HW231326   1.928   0.718   1.171  1.5130  3.7527 -0.1637
 6565SOL     OW31327   4.107   1.523   6.024 -0.0949  0.6335  0.6395
 6565SOL    HW131328   4.175   1.481   6.076  2.5461 -2.1503 -5.0179
 6565SOL    HW231329   4.064   1.443   5.994  1.1011  0.5126 -0.7544
 6566SOL     OW31330   4.525   2.160   0.510 -0.4505  0.1849  0.1517
 6566SOL    HW131331   4.543   2.168   0.603 -0.7228  1.9101  0.0538
 6566SOL    HW231332   4.604   2.110   0.488 -0.4807  2.1716 -4.4836
 6567SOL     OW31333   3.559   0.359  11.669 -0.1196 -0.2527 -0.4868
 6567SOL    HW131334   3.625   0.396  11.728 -1.5133 -0.2256  1.0480
 6567SOL    HW231335   3.589   0.270  11.648  2.4623  0.7187 -0.8832
 6568SOL     OW31336   0.482   2.836  15.363  0.0440 -0.0915 -0.4566
 6568SOL    HW131337   0.538   2.760  15.382  1.1892  0.4377 -1.7573
 6568SOL    HW231338   0.481   2.882  15.447  1.1558 -0.0246 -0.4770
 6569SOL     OW31339   3.735   1.497  16.227  0.4560  0.3777  0.1764
 6569SOL    HW131340   3.691   1.545  16.156  1.3980 -0.1806 -0.7817
 6569SOL    HW231341   3.747   1.416  16.176 -4.2824 -0.9152  1.1644
 6570SOL     OW31342   1.976   2.390   1.192 -0.2248  0.4963 -0.1959
 6570SOL    HW131343   2.008   2.403   1.103 -2.8234 -0.2467 -1.2454
 6570SOL    HW231344   2.035   2.442   1.247  0.0459  0.4263 -0.4208
 6571SOL     OW31345   0.321   1.218   2.025  0.4199 -1.0307  0.2368
 6571SOL    HW131346   0.340   1.124   2.027  1.3839 -0.8103  0.8530
 6571SOL    HW231347   0.226   1.217   2.009  0.7220  0.6563 -1.5975
 6572SOL     OW31348   1.824   1.813   5.790  0.1985  0.1376  0.1636
 6572SOL    HW131349   1.886   1.755   5.746  1.0256 -0.8290  2.6185
 6572SOL    HW231350   1.863   1.899   5.773  0.7554 -0.1327  0.0947
 6573SOL     OW31351   0.009   0.335   7.531 -0.2968 -0.1880  0.4836
 6573SOL    HW131352   0.062   0.375   7.600 -0.0582 -0.1429  0.2723
 6573SOL    HW231353   0.012   0.244   7.559  1.3067 -0.3844 -0.3191
 6574SOL     OW31354   4.129   0.907  14.993 -0.0707 -0.2340 -0.0447
 6574SOL    HW131355   4.134   0.979  15.055  0.5115  1.2116 -1.7760
 6574SOL    HW231356   4.037   0.879  14.996 -0.4137  1.0292  0.9828
 6575SOL     OW31357   3.555   1.514  11.721 -0.6575  0.2302  0.1268
 6575SOL    HW131358   3.488   1.466  11.672 -0.2999  0.0510 -0.1875
 6575SOL    HW231359   3.540   1.481  11.810 -6.1078  1.7810 -0.2263
 6576SOL     OW31360   3.945   2.686   4.372 -0.9849  0.2364  0.0747
 6576SOL    HW131361   3.965   2.631   4.296  0.3366  0.6651  0.1250
 6576SOL    HW231362   3.954   2.771   4.330  2.7362  0.4291  1.2751
 6577SOL     OW31363   3.871   2.440   2.420  0.0385 -0.5548 -0.0141
 6577SOL    HW131364   3.799   2.501   2.435  0.2516 -0.5191  0.8628
 6577SOL    HW231365   3.902   2.427   2.510  1.5331  0.9120 -0.3282
 6578SOL     OW31366   1.116   2.286   2.686 -0.7163 -0.1824 -0.6277
 6578SOL    HW131367   1.170   2.225   2.635 -0.4339 -0.2059 -0.2949
 6578SOL    HW231368   1.169   2.365   2.679 -2.0216  0.7309 -0.2438
 6579SOL     OW31369   2.640   1.511   2.646 -0.7555 -0.7703 -0.0873
 6579SOL    HW131370   2.675   1.437   2.694  0.6951 -0.5369 -0.7629
 6579SOL    HW231371   2.596   1.473   2.570 -0.8664  2.6874 -1.7536
 6580SOL     OW31372   1.184   0.095  16.489 -0.4533 -0.4837  0.5271
 6580SOL    HW131373   1.118   0.153  16.526  0.4843  0.8682  0.0732
 6580SOL    HW231374   1.213   0.049  16.568 -1.0248 -1.8805 -0.0664
 6581SOL     OW31375   3.755   2.676  10.187 -0.0666 -0.3662  0.5981
 6581SOL    HW131376   3.845   2.696  10.160 -0.0643  0.4970  1.2495
 6581SOL    HW231377   3.720   2.765  10.183 -1.1547 -0.7935  0.5928
 6582SOL     OW31378   0.186   4.296   8.155  0.1340  0.9056  0.0713
 6582SOL    HW131379   0.139   4.351   8.217 -1.1463 -0.6874  0.5090
 6582SOL    HW231380   0.231   4.360   8.100 -0.1008  0.9563 -0.0627
 6583SOL     OW31381   1.430   3.642   6.720 -0.1534 -0.0503  0.2948
 6583SOL    HW131382   1.418   3.553   6.686  1.3192  0.6247 -1.9820
 6583SOL    HW231383   1.500   3.620   6.781  0.1465  0.8992  0.2889
 6584SOL     OW31384   0.715   0.384   2.556  0.0754  0.1845  0.4799
 6584SOL    HW131385   0.730   0.379   2.650 -0.6176 -0.9436  0.5350
 6584SOL    HW231386   0.780   0.449   2.532  1.1707 -1.4483 -0.9556
 6585SOL     OW31387   3.533   1.405   4.757  0.1721  0.0335  0.4480
 6585SOL    HW131388   3.478   1.342   4.805  0.3895 -0.8957 -0.5362
 6585SOL    HW231389   3.480   1.484   4.764  1.1098  0.6040  1.0492
 6586SOL     OW31390   2.003   1.624  15.113 -0.4688  0.4913  0.2333
 6586SOL    HW131391   1.957   1.614  15.029  2.1201 -1.1810 -0.9805
 6586SOL    HW231392   2.062   1.698  15.096 -2.0360  1.7502  0.2229
 6587SOL     OW31393   0.436   4.040   5.861 -0.3515  0.4431  0.2641
 6587SOL    HW131394   0.367   3.978   5.884 -1.9475  1.5296 -1.5719
 6587SOL    HW231395   0.385   4.120   5.847 -0.0295  1.0112  2.3135
 6588SOL     OW31396   0.125   0.447   2.174  0.3230  0.5487 -0.2050
 6588SOL    HW131397   0.186   0.381   2.142  1.0969  0.8828  0.6123
 6588SOL    HW231398   0.112   0.506   2.099 -0.6150 -0.3196 -0.7316
 6589SOL     OW31399   1.067   0.835   3.256  0.8792  0.6601 -0.2215
 6589SOL    HW131400   1.091   0.765   3.317 -2.2191 -1.8550 -1.8800
 6589SOL    HW231401   1.058   0.777   3.180  1.4239  1.7174 -1.1006
 6590SOL     OW31402   0.757   4.498   3.176 -0.0405  0.2053 -0.4885
 6590SOL    HW131403   0.816   4.511   3.250  0.6484 -1.0246 -0.8370
 6590SOL    HW231404   0.719   4.412   3.192  0.1106  0.9737  4.1059
 6591SOL     OW31405   0.419   0.740  12.536 -0.1847  0.0842 -0.0736
 6591SOL    HW131406   0.415   0.833  12.558  2.2141  0.6747 -2.0813
 6591SOL    HW231407   0.345   0.706  12.586  0.7271 -3.0103 -0.7813
 6592SOL     OW31408   1.046   0.027  15.718  0.1042  0.1241  0.1818
 6592SOL    HW131409   0.956   0.051  15.693  0.2620  0.4486 -0.0795
 6592SOL    HW231410   1.076   4.710  15.646 -1.0831 -0.1088 -0.1387
 6593SOL     OW31411   0.408   2.451   4.528 -0.4699  0.0686 -0.1201
 6593SOL    HW131412   0.421   2.374   4.583  1.6300  0.8323  0.4397
 6593SOL    HW231413   0.350   2.417   4.459  0.6140  1.5604 -1.7583
 6594SOL     OW31414   2.794   2.491   3.555  0.1669 -0.8064 -0.2185
 6594SOL    HW131415   2.735   2.560   3.524  0.8115 -0.3081 -0.3417
 6594SOL    HW231416   2.739   2.417   3.579  2.1242 -1.9202  0.8780
 6595SOL     OW31417   3.297   3.671   5.393 -0.0169 -0.2802 -0.1542
 6595SOL    HW131418   3.223   3.611   5.403 -0.2654 -0.0505 -0.5960
 6595SOL    HW231419   3.293   3.708   5.305  0.8418 -1.4008 -0.6620
 6596SOL     OW31420   0.823   4.691  11.511 -0.1339 -0.8770  0.0338
 6596SOL    HW131421   0.747   4.669  11.566  0.5704 -0.1045  1.3003
 6596SOL    HW231422   0.795   4.661  11.424 -0.8977 -0.4778  0.1383
 6597SOL     OW31423   4.392   3.327   8.703 -0.0510 -0.2932 -0.5584
 6597SOL    HW131424   4.335   3.329   8.626 -0.2031 -0.0135 -0.4368
 6597SOL    HW231425   4.360   3.401   8.754 -0.6451 -1.0713  0.1918
 6598SOL     OW31426   3.997   0.220   2.764 -0.0555  0.4866 -1.0769
 6598SOL    HW131427   4.012   0.178   2.849  1.8129  0.0892 -1.6050
 6598SOL    HW231428   4.070   0.282   2.765 -2.3791  3.2350 -1.3670
 6599SOL     OW31429   0.093   3.681  12.506 -0.3097 -0.1615  0.1226
 6599SOL    HW131430   0.079   3.775  12.517 -3.0640 -0.4633 -0.7411
 6599SOL    HW231431   0.091   3.660  12.600  0.1422 -1.2859 -0.1270
 6600SOL     OW31432   0.732   1.072  10.885 -0.0924  0.9049 -0.5159
 6600SOL    HW131433   0.754   1.127  10.960 -0.9215  0.4313  0.0751
 6600SOL    HW231434   0.818   1.031  10.875 -0.5297 -0.3949  1.1689
 6601SOL     OW31435   0.938   3.574  11.924 -0.1128 -0.1932 -0.6306
 6601SOL    HW131436   0.856   3.596  11.879 -0.8797 -2.0318 -0.1534
 6601SOL    HW231437   0.927   3.627  12.003 -2.1107 -0.4110 -0.7537
 6602SOL     OW31438   0.468   2.318   7.676 -0.1272 -0.5674 -0.0181
 6602SOL    HW131439   0.415   2.282   7.748 -3.1204  2.1420 -0.8854
 6602SOL    HW231440   0.549   2.326   7.726 -0.6027 -0.3746  0.7356
 6603SOL     OW31441   1.510   0.258   5.592 -0.2625  0.3274  0.2856
 6603SOL    HW131442   1.543   0.195   5.528 -2.5224  2.6549 -3.2107
 6603SOL    HW231443   1.423   0.223   5.611  0.1746  1.1152  3.7096
 6604SOL     OW31444   1.184   0.743   1.629  0.1261  0.4464  0.2402
 6604SOL    HW131445   1.132   0.684   1.683 -0.8574 -0.5702 -1.8209
 6604SOL    HW231446   1.268   0.713   1.663  0.4668 -1.4394 -2.2395
 6605SOL     OW31447   0.802   0.845   3.958 -0.1439 -0.1692 -0.3152
 6605SOL    HW131448   0.721   0.830   4.007  0.5095 -0.0217  0.8387
 6605SOL    HW231449   0.829   0.930   3.995  0.4783 -0.2582 -0.5580
 6606SOL     OW31450   4.477   1.704   1.769  0.4270 -0.0407 -0.4045
 6606SOL    HW131451   4.519   1.744   1.693 -0.6837  1.2179 -0.3452
 6606SOL    HW231452   4.556   1.677   1.817  0.4575  1.0104  0.1256
 6607SOL     OW31453   3.910   3.230  15.953  0.0047 -0.6509  0.3121
 6607SOL    HW131454   3.836   3.239  15.894 -0.2044 -2.1150  0.3504
 6607SOL    HW231455   3.973   3.292  15.917 -0.5711 -0.1316  0.2033
 6608SOL     OW31456   1.185   3.623  15.294  0.1728  0.0774  0.3768
 6608SOL    HW131457   1.241   3.657  15.224 -0.2088  1.4583  0.7555
 6608SOL    HW231458   1.235   3.545  15.320 -0.1150 -0.6351 -1.2056
 6609SOL     OW31459   0.693   3.261   4.071  0.8108  0.2275 -0.3474
 6609SOL    HW131460   0.692   3.342   4.123 -0.6377  0.0696 -0.1484
 6609SOL    HW231461   0.653   3.208   4.140 -0.4015  0.5498 -0.8019
 6610SOL     OW31462   2.233   3.446   8.134 -0.0653  0.1198  0.3215
 6610SOL    HW131463   2.190   3.446   8.219 -1.2757  1.1755 -0.2720
 6610SOL    HW231464   2.284   3.365   8.135 -3.5015 -2.0352  1.1242
 6611SOL     OW31465   3.937   0.971  11.763 -0.4456 -0.7412 -0.5353
 6611SOL    HW131466   3.904   1.059  11.780 -0.0289 -0.3633 -1.6817
 6611SOL    HW231467   4.008   0.988  11.700 -0.5930 -1.4302 -0.8829
 6612SOL     OW31468   2.793   3.999   3.038 -0.0836 -0.4175 -0.1710
 6612SOL    HW131469   2.867   3.973   3.093 -0.0158 -0.3480 -0.2298
 6612SOL    HW231470   2.787   3.935   2.966 -0.9775  0.4248 -0.8383
 6613SOL     OW31471   2.227   0.356  14.342  0.5614  0.5503  0.6392
 6613SOL    HW131472   2.245   0.441  14.303 -0.0746 -0.6630 -2.2882
 6613SOL    HW231473   2.312   0.320  14.368 -0.4568  0.6282  4.1059
 6614SOL     OW31474   2.516   2.767   2.019  0.3295  0.4396  0.2981
 6614SOL    HW131475   2.518   2.771   2.115 -0.0582  0.2041  0.3156
 6614SOL    HW231476   2.601   2.737   1.988 -0.1097  0.6262 -1.1034
 6615SOL     OW31477   2.940   3.317   9.001  0.2407  0.6655  0.1203
 6615SOL    HW131478   2.953   3.336   9.094  1.7432 -2.1528  0.4643
 6615SOL    HW231479   2.859   3.267   9.006  0.3798  0.3602 -0.7735
 6616SOL     OW31480   4.101   4.235   3.161  0.2946 -0.2956  0.3789
 6616SOL    HW131481   4.144   4.262   3.080 -1.0817  1.1522  0.1179
 6616SOL    HW231482   4.030   4.189   3.117  1.3855 -2.1074  0.5318
 6617SOL     OW31483   3.009   0.804  15.992  0.1692  0.2414 -0.1775
 6617SOL    HW131484   2.924   0.771  16.022 -0.9768  1.7932 -1.7050
 6617SOL    HW231485   2.980   0.812  15.902 -0.2188 -1.4444 -0.1833
 6618SOL     OW31486   1.063   1.485   8.537  0.1561 -0.3159  0.0979
 6618SOL    HW131487   1.028   1.573   8.552  1.6220  0.9430 -3.8736
 6618SOL    HW231488   1.053   1.458   8.628 -1.8158 -0.2279 -0.0900
 6619SOL     OW31489   2.872   1.178  14.681  0.2043  0.7148  0.1547
 6619SOL    HW131490   2.779   1.164  14.661  0.8721 -1.9532 -1.0334
 6619SOL    HW231491   2.911   1.161  14.595  0.5246  1.1563  0.2131
 6620SOL     OW31492   2.973   2.483   5.558  0.2632 -0.0115  0.3595
 6620SOL    HW131493   2.982   2.567   5.511  3.6052 -1.6620 -1.9579
 6620SOL    HW231494   2.902   2.450   5.503  0.0684  0.9398  0.0419
 6621SOL     OW31495   2.103   3.110   3.389  0.6403  0.1192 -0.1721
 6621SOL    HW131496   2.122   3.141   3.477 -0.4993 -0.4094  0.2592
 6621SOL    HW231497   2.061   3.025   3.402  1.1788 -0.3262 -1.3106
 6622SOL     OW31498   3.551   2.405   4.654 -0.0789 -0.0737  0.0450
 6622SOL    HW131499   3.597   2.330   4.693 -0.8502 -0.6810 -0.2032
 6622SOL    HW231500   3.621   2.442   4.601  0.8981  0.0082  1.3854
 6623SOL     OW31501   0.109   4.078   2.803  0.5905  0.2358 -0.2459
 6623SOL    HW131502   0.049   4.004   2.790  0.3817  0.0718  1.6141
 6623SOL    HW231503   0.075   4.140   2.739  0.0538 -0.5773 -0.7391
 6624SOL     OW31504   0.456   2.634   9.179 -0.1631 -0.7220  0.1526
 6624SOL    HW131505   0.389   2.691   9.142 -0.2349 -1.0463 -0.2155
 6624SOL    HW231506   0.509   2.690   9.235 -0.4969  0.3518 -0.6063
 6625SOL     OW31507   1.550   2.266  12.011 -1.0995  0.1452 -0.0377
 6625SOL    HW131508   1.631   2.278  12.060  0.0049 -0.2920 -1.7161
 6625SOL    HW231509   1.487   2.300  12.073 -2.8493 -0.8708 -1.2408
 6626SOL     OW31510   3.272   3.134   5.719 -0.1787  0.0032 -0.3154
 6626SOL    HW131511   3.318   3.196   5.663 -1.0025 -0.2840 -1.3130
 6626SOL    HW231512   3.217   3.189   5.774  0.2228  0.8466 -0.7547
 6627SOL     OW31513   4.591   4.600  16.683  0.2678  0.8085  0.1012
 6627SOL    HW131514   4.528   4.559  16.624 -1.6448  1.7852  1.4757
 6627SOL    HW231515   4.579   4.695  16.679  2.0027  0.9686 -1.3868
 6628SOL     OW31516   1.177   0.165   7.408 -0.3204 -0.3117 -0.5262
 6628SOL    HW131517   1.230   0.232   7.366 -1.6011  0.4596 -0.9328
 6628SOL    HW231518   1.188   0.093   7.346 -1.6207  0.9736 -2.2549
 6629SOL     OW31519   4.035   1.508  17.157  0.4471  0.0482 -0.1909
 6629SOL    HW131520   4.020   1.527  17.250 -0.2522 -2.0014  0.1313
 6629SOL    HW231521   4.121   1.467  17.158  0.4238 -0.0236 -0.9814
 6630SOL     OW31522   0.569   1.989  14.123  0.3711 -0.0231  0.3912
 6630SOL    HW131523   0.492   1.933  14.107  0.5896 -0.2292  0.0481
 6630SOL    HW231524   0.556   2.012  14.214  2.1974  4.2848 -0.4723
 6631SOL     OW31525   3.875   2.001   0.937 -0.1050  0.4239 -0.1091
 6631SOL    HW131526   3.908   1.920   0.974  0.4516 -0.2165 -1.9959
 6631SOL    HW231527   3.939   2.015   0.867 -0.3909 -1.0898 -0.6636
 6632SOL     OW31528   2.294   2.355   4.998  0.2282 -0.3973  0.1402
 6632SOL    HW131529   2.284   2.437   4.951  0.0842 -0.5874 -0.1660
 6632SOL    HW231530   2.263   2.388   5.082  3.4247  2.2597  0.2696
 6633SOL     OW31531   1.932   1.572   0.184  0.1904 -0.1661 -0.2308
 6633SOL    HW131532   1.961   1.604   0.099 -0.1616 -1.1282 -0.7138
 6633SOL    HW231533   1.905   1.485   0.156  1.9845 -0.9060  0.3515
 6634SOL     OW31534   1.103   2.114   2.154 -0.6158  0.3238 -0.3759
 6634SOL    HW131535   1.127   2.206   2.142 -0.1117  0.6607  2.9779
 6634SOL    HW231536   1.019   2.119   2.200  0.1094  0.5816  0.9389
 6635SOL     OW31537   2.549   4.421  15.394  0.3041  0.0300 -0.1759
 6635SOL    HW131538   2.458   4.407  15.421 -0.0958  3.1285  0.0369
 6635SOL    HW231539   2.545   4.516  15.385 -0.3180 -0.2099 -2.3262
 6636SOL     OW31540   3.034   0.417   0.032  0.4361  0.0468  0.2776
 6636SOL    HW131541   3.087   0.389   0.106 -0.1373  1.5200  1.2433
 6636SOL    HW231542   3.086   0.487  17.746 -1.4646  1.9403  1.1464
 6637SOL     OW31543   2.997   2.175  12.648 -0.1380 -0.1484 -0.0195
 6637SOL    HW131544   2.950   2.209  12.724  0.9165  0.1203  0.5183
 6637SOL    HW231545   3.017   2.254  12.599 -0.2646 -0.4058 -0.4851
 6638SOL     OW31546   2.224   0.450  15.788  0.3382  0.1467 -0.0605
 6638SOL    HW131547   2.149   0.397  15.760 -0.2285 -0.0826  1.9606
 6638SOL    HW231548   2.295   0.407  15.739 -1.4540 -1.1935 -1.4962
 6639SOL     OW31549   0.635   4.249   3.274  0.3023 -0.1814 -0.1449
 6639SOL    HW131550   0.568   4.181   3.265  0.9441 -0.3417 -3.6366
 6639SOL    HW231551   0.622   4.274   3.366  1.8370  1.8911 -0.4950
 6640SOL     OW31552   1.498   3.564   3.055  0.4159  0.1906 -0.3729
 6640SOL    HW131553   1.461   3.555   3.142  1.5356 -0.1267  0.0666
 6640SOL    HW231554   1.486   3.658   3.042  0.2313 -0.0002 -1.5881
 6641SOL     OW31555   1.521   1.659  14.613  0.0979  0.3046  0.4104
 6641SOL    HW131556   1.542   1.728  14.676 -0.5434  0.5344  0.3643
 6641SOL    HW231557   1.503   1.587  14.674 -0.6907  0.8422  0.8060
 6642SOL     OW31558   3.636   3.877  10.634 -0.4071  0.0187 -0.4051
 6642SOL    HW131559   3.557   3.828  10.610  0.2802 -1.0647 -0.4287
 6642SOL    HW231560   3.622   3.965  10.598 -3.7585 -0.2793  0.1501
 6643SOL     OW31561   2.892   4.002   7.431 -0.2929 -0.2617  0.0475
 6643SOL    HW131562   2.848   4.001   7.346 -0.3007  0.9449  0.0325
 6643SOL    HW231563   2.822   3.955   7.475  0.2761 -0.7509  0.4199
 6644SOL     OW31564   4.012   1.068   2.521  0.0180 -0.0578  0.8110
 6644SOL    HW131565   4.053   1.037   2.602  0.8561 -2.3767 -0.4940
 6644SOL    HW231566   3.931   1.105   2.558  0.4348  2.2051 -0.5174
 6645SOL     OW31567   1.728   3.376   0.478 -0.0596  0.3973  0.0579
 6645SOL    HW131568   1.702   3.390   0.569  1.8291 -2.0435  0.9733
 6645SOL    HW231569   1.795   3.444   0.466  2.2052 -2.1288 -1.5282
 6646SOL     OW31570   1.519   1.570   7.097  0.7317  0.1853 -0.3221
 6646SOL    HW131571   1.563   1.646   7.060 -0.3101  0.6729 -0.5729
 6646SOL    HW231572   1.587   1.535   7.154  1.9647  0.3005 -1.7112
 6647SOL     OW31573   4.562   4.081   2.767  0.3946  0.4014  0.0973
 6647SOL    HW131574   4.569   4.088   2.862 -0.3136 -0.8933  0.2321
 6647SOL    HW231575   4.537   4.172   2.748 -0.0220  0.0257 -1.1699
 6648SOL     OW31576   1.941   0.054   1.933 -0.2629 -0.1067 -0.1032
 6648SOL    HW131577   1.975   4.708   1.906 -1.5514  0.0139 -2.1135
 6648SOL    HW231578   2.007   0.082   1.997  1.5288 -3.7064 -0.3877
 6649SOL     OW31579   2.753   1.669   5.079 -0.2407  0.5745 -0.3895
 6649SOL    HW131580   2.750   1.604   5.149  0.1789  0.3314 -0.6042
 6649SOL    HW231581   2.838   1.705   5.104  0.6692 -0.7384 -1.5775
 6650SOL     OW31582   3.526   1.663  16.313 -0.5382  0.3491 -0.4556
 6650SOL    HW131583   3.565   1.734  16.262 -2.0950  0.1650 -1.8832
 6650SOL    HW231584   3.607   1.619  16.339  0.2509  1.6804 -0.6773
 6651SOL     OW31585   1.961   1.345   2.729 -0.3014 -0.1566 -0.3673
 6651SOL    HW131586   2.002   1.292   2.798  0.0598 -2.4201 -2.3203
 6651SOL    HW231587   2.016   1.422   2.741 -0.6268 -0.0195  0.2578
 6652SOL     OW31588   1.879   2.578   7.824  0.0061  0.1216 -0.4528
 6652SOL    HW131589   1.900   2.546   7.911  0.2343 -0.1732 -0.6138
 6652SOL    HW231590   1.792   2.540   7.809 -0.6305  1.2161  0.4922
 6653SOL     OW31591   3.163   3.594   7.376  0.6314 -0.1149  0.3892
 6653SOL    HW131592   3.068   3.597   7.384  0.5403 -1.4318 -0.1262
 6653SOL    HW231593   3.185   3.618   7.466  0.1153 -2.2489  1.0862
 6654SOL     OW31594   1.767   0.186   0.506  0.4498  0.4052 -0.0801
 6654SOL    HW131595   1.700   0.181   0.439  0.0807 -0.0035  0.3175
 6654SOL    HW231596   1.826   0.131   0.454 -0.2848  0.5817 -1.0912
 6655SOL     OW31597   3.638   1.691  13.949  1.0923 -0.7774 -0.2288
 6655SOL    HW131598   3.682   1.728  13.873 -0.3721  0.4327 -0.4786
 6655SOL    HW231599   3.698   1.622  13.977  1.8510 -0.2303 -0.5000
 6656SOL     OW31600   2.821   0.858  11.519 -0.2370 -0.0007  0.2914
 6656SOL    HW131601   2.747   0.809  11.552 -1.3957  0.9686 -0.8611
 6656SOL    HW231602   2.794   0.949  11.531  1.1507  0.5109 -0.3776
 6657SOL     OW31603   1.020   4.091   1.862  0.1709 -0.3338 -0.0474
 6657SOL    HW131604   0.924   4.099   1.864  0.0256 -2.0258  0.0107
 6657SOL    HW231605   1.039   4.099   1.955  2.5923 -1.1588 -0.4712
 6658SOL     OW31606   2.312   0.724   3.008  0.1295  0.4460 -0.1981
 6658SOL    HW131607   2.305   0.752   3.099  1.8180  1.7867 -0.4835
 6658SOL    HW231608   2.402   0.739   2.980  0.3552  3.4102  2.1651
 6659SOL     OW31609   3.271   0.895   1.090  0.3068 -0.4945 -0.1345
 6659SOL    HW131610   3.277   0.811   1.134 -0.6328 -1.8617 -2.5782
 6659SOL    HW231611   3.232   0.946   1.161 -1.9877 -1.9708 -0.3429
 6660SOL     OW31612   2.704   2.115   1.906  0.1797  0.4135  0.0669
 6660SOL    HW131613   2.641   2.046   1.886 -0.8487  1.0017  1.3492
 6660SOL    HW231614   2.674   2.149   1.990  0.4310  1.0403 -0.0921
 6661SOL     OW31615   4.202   4.592  12.397 -0.6362  0.8956 -0.1654
 6661SOL    HW131616   4.198   4.668  12.338  2.3971  0.4179 -1.0133
 6661SOL    HW231617   4.141   4.530  12.356  0.1216 -0.5497  0.9129
 6662SOL     OW31618   1.901   3.127   7.708 -0.7735  0.0853 -0.4090
 6662SOL    HW131619   1.905   3.158   7.618 -0.5767  0.9213 -0.1099
 6662SOL    HW231620   1.831   3.062   7.703 -0.1131 -0.5892 -0.9642
 6663SOL     OW31621   4.392   1.655   2.436  0.1492  0.4599  0.0645
 6663SOL    HW131622   4.335   1.634   2.510 -0.8470  3.4345  0.1101
 6663SOL    HW231623   4.326   1.665   2.368 -1.3873  0.6918  1.6078
 6664SOL     OW31624   2.959   1.513  10.472  0.0504 -0.3472 -0.0682
 6664SOL    HW131625   3.045   1.480  10.499  0.1307  1.2688  1.6077
 6664SOL    HW231626   2.939   1.584  10.533  1.2826 -0.1907  0.1499
 6665SOL     OW31627   1.272   3.346   8.932 -0.2616 -0.1572  0.2783
 6665SOL    HW131628   1.269   3.373   8.840 -1.3186 -1.0247  0.0647
 6665SOL    HW231629   1.316   3.413   8.985 -1.2165  0.4912  0.2411
 6666SOL     OW31630   4.161   0.376   5.747 -0.0556  0.5459 -0.0548
 6666SOL    HW131631   4.172   0.455   5.800 -0.4913 -0.3051  1.3060
 6666SOL    HW231632   4.072   0.382   5.713 -0.1733 -0.4035  0.0874
 6667SOL     OW31633   2.982   1.272  15.706 -0.5288  0.3209  0.5402
 6667SOL    HW131634   2.949   1.210  15.771  0.7662 -2.0405 -1.0355
 6667SOL    HW231635   3.011   1.209  15.640 -0.9138 -0.0908  0.7650
 6668SOL     OW31636   3.661   0.835   4.876 -0.5961 -0.0539  0.0327
 6668SOL    HW131637   3.629   0.918   4.914  0.6832 -0.1313  1.2764
 6668SOL    HW231638   3.579   0.802   4.838 -0.6194 -1.5540  1.4021
 6669SOL     OW31639   3.565   2.455   5.278 -0.6735  0.3101 -0.1229
 6669SOL    HW131640   3.659   2.469   5.286 -0.5504  0.8058 -2.4054
 6669SOL    HW231641   3.542   2.426   5.366  0.6755  1.9475  0.7570
 6670SOL     OW31642   3.316   2.265   1.523  0.1340 -0.2805 -0.2589
 6670SOL    HW131643   3.378   2.219   1.467  0.0097 -0.6705 -0.0807
 6670SOL    HW231644   3.290   2.203   1.592 -1.8780 -0.0630 -0.8124
 6671SOL     OW31645   4.544   1.694   0.027  0.0664  0.3769 -0.0024
 6671SOL    HW131646   4.470   1.740   0.067 -0.1805 -0.7620  0.8711
 6671SOL    HW231647   4.558   1.730  17.693 -1.5884  3.1232  0.8639
 6672SOL     OW31648   3.110   4.644   4.768  0.0963 -0.2987  0.6466
 6672SOL    HW131649   3.017   4.658   4.750  0.2600  0.4161  0.3555
 6672SOL    HW231650   3.141   4.731   4.796 -0.0461  0.4069 -1.4267
 6673SOL     OW31651   1.934   0.611  10.838 -0.5480  0.0859  0.0013
 6673SOL    HW131652   1.897   0.590  10.924 -0.7597  0.5247  0.0169
 6673SOL    HW231653   1.971   0.697  10.856 -0.4568 -0.2101  1.2425
 6674SOL     OW31654   1.233   1.129   3.751  0.0426 -0.5567  0.4764
 6674SOL    HW131655   1.279   1.207   3.721  3.1516 -2.1729  1.0139
 6674SOL    HW231656   1.208   1.156   3.840 -1.3464 -1.0570  0.2371
 6675SOL     OW31657   4.002   3.098   6.207 -0.2167 -0.5538  0.6797
 6675SOL    HW131658   3.967   3.024   6.158  0.6611 -0.4836 -0.0695
 6675SOL    HW231659   3.924   3.136   6.248 -0.0284  0.0217  0.5070
 6676SOL     OW31660   0.399   0.673   7.471 -0.0348 -0.3843 -0.0526
 6676SOL    HW131661   0.454   0.596   7.486 -0.3554 -0.5513  0.2623
 6676SOL    HW231662   0.311   0.637   7.474 -0.0641 -0.5215 -2.4006
 6677SOL     OW31663   1.235   0.130   5.570 -0.3962  0.1169  0.0914
 6677SOL    HW131664   1.143   0.117   5.592 -0.5515  0.5602 -0.2946
 6677SOL    HW231665   1.255   0.037   5.558 -0.2274  0.0664  0.7776
 6678SOL     OW31666   3.902   2.053   4.158  0.1691 -0.4126  0.1053
 6678SOL    HW131667   3.926   1.984   4.096  0.7832 -0.9063  0.8839
 6678SOL    HW231668   3.807   2.060   4.150  0.2185  0.4846  0.3287
 6679SOL     OW31669   3.775   3.302  17.018  0.3835 -0.6863  0.8159
 6679SOL    HW131670   3.852   3.260  16.978 -0.0367 -0.7861  0.1068
 6679SOL    HW231671   3.714   3.316  16.946  1.8215  0.0882 -0.2651
 6680SOL     OW31672   0.196   1.343   9.126  0.3733 -0.1165  0.3202
 6680SOL    HW131673   0.102   1.356   9.120  0.3201 -0.0971  1.2334
 6680SOL    HW231674   0.214   1.328   9.219  1.0982  2.3365  0.5761
 6681SOL     OW31675   4.582   1.872   7.221  0.0847 -0.0909 -0.4213
 6681SOL    HW131676   4.643   1.884   7.293  0.6002 -2.8609 -0.4110
 6681SOL    HW231677   4.528   1.805   7.264 -0.5949 -0.5577 -1.9878
 6682SOL     OW31678   0.419   1.147   7.141 -0.1511 -0.1595 -0.0809
 6682SOL    HW131679   0.499   1.194   7.116  1.4646 -0.8923  3.7933
 6682SOL    HW231680   0.442   1.055   7.125  1.4279  0.0549  0.9475
 6683SOL     OW31681   2.428   4.209   3.651 -0.4028 -0.7145 -0.4887
 6683SOL    HW131682   2.459   4.294   3.621  0.8347 -0.3329  1.8521
 6683SOL    HW231683   2.334   4.223   3.646 -0.7500 -2.2955  1.5407
 6684SOL     OW31684   0.063   3.669  12.800 -0.1357 -0.2425  0.2384
 6684SOL    HW131685   0.113   3.743  12.832 -1.9132  1.0268  0.1198
 6684SOL    HW231686   0.064   3.602  12.868 -2.6687 -0.6373 -0.0892
 6685SOL     OW31687   2.153   3.809   6.771  0.0439 -0.1255  0.5556
 6685SOL    HW131688   2.133   3.747   6.841 -0.3308  0.8516  1.3340
 6685SOL    HW231689   2.244   3.793   6.747 -0.8743 -2.4092 -1.3939
 6686SOL     OW31690   1.883   2.487  15.311 -0.5052 -0.5866  0.8471
 6686SOL    HW131691   1.818   2.498  15.240 -1.3748 -2.8923  1.2931
 6686SOL    HW231692   1.836   2.520  15.388 -0.1456  2.2578 -0.1295
 6687SOL     OW31693   1.237   1.235   4.926  0.2983 -0.0276 -0.4775
 6687SOL    HW131694   1.214   1.142   4.924  2.2773 -0.5495  1.2037
 6687SOL    HW231695   1.309   1.236   4.989  1.1974  3.2960 -1.5478
 6688SOL     OW31696   4.532   0.379   5.990 -0.1193  0.1935 -0.4321
 6688SOL    HW131697   4.611   0.408   5.945  2.1886  0.1917  3.6270
 6688SOL    HW231698   4.478   0.410   5.917 -0.7007 -0.0887 -0.1149
 6689SOL     OW31699   1.835   0.123   2.740 -0.7973  1.1912  0.3858
 6689SOL    HW131700   1.869   0.145   2.827 -0.4825  1.5645  0.1722
 6689SOL    HW231701   1.762   0.184   2.730 -0.9031  0.6354 -2.2089
 6690SOL     OW31702   3.527   4.020   7.061  0.3197  0.0934 -0.0186
 6690SOL    HW131703   3.477   4.075   7.120 -0.4061 -0.8258  0.2223
 6690SOL    HW231704   3.452   3.970   7.027  0.3498  0.0929 -0.0851
 6691SOL     OW31705   4.588   3.593   7.420 -0.1984 -0.2802  0.3828
 6691SOL    HW131706   4.512   3.558   7.467  0.2550 -2.4590 -0.5306
 6691SOL    HW231707   4.586   3.543   7.339 -0.5313  3.2992 -1.8311
 6692SOL     OW31708   1.145   1.171   0.011  0.3427  0.4147 -0.5004
 6692SOL    HW131709   1.173   1.214  17.683  0.3116  0.4567 -0.4887
 6692SOL    HW231710   1.053   1.169  17.741 -0.1558  0.0069  1.5637
 6693SOL     OW31711   1.562   4.580  11.071 -0.6642 -0.7122  0.5968
 6693SOL    HW131712   1.471   4.591  11.045  0.2747  0.8871 -2.0286
 6693SOL    HW231713   1.588   4.671  11.054 -0.7556 -0.9107 -0.5925
 6694SOL     OW31714   3.194   3.849   1.600  0.0478  0.1117 -0.2202
 6694SOL    HW131715   3.111   3.801   1.594 -0.3901  1.0087 -1.2411
 6694SOL    HW231716   3.250   3.781   1.562 -1.6464 -0.8247 -1.0059
 6695SOL     OW31717   4.589   3.196   7.203  0.2974  0.2391 -0.5340
 6695SOL    HW131718   4.534   3.119   7.220  1.4789 -0.5531 -0.2940
 6695SOL    HW231719   4.639   3.208   7.283  0.8396 -1.0256 -0.6767
 6696SOL     OW31720   4.305   3.813   8.378 -0.3817  0.4875 -0.0366
 6696SOL    HW131721   4.368   3.880   8.352 -0.3688  0.5848  0.2440
 6696SOL    HW231722   4.223   3.857   8.357  0.2193  0.7056 -1.9567
 6697SOL     OW31723   3.292   1.811   5.588 -0.1015 -0.1010 -0.8905
 6697SOL    HW131724   3.348   1.851   5.521  0.9556 -0.3752 -0.1708
 6697SOL    HW231725   3.244   1.880   5.633 -1.2547 -1.7846  0.4785
 6698SOL     OW31726   1.526   4.241   3.721 -0.2776 -0.4529 -0.3015
 6698SOL    HW131727   1.453   4.298   3.697 -0.7094 -1.4174 -1.2477
 6698SOL    HW231728   1.551   4.202   3.638  0.2754 -1.0028  0.1322
 6699SOL     OW31729   3.558   0.015   4.050  0.1436 -0.0570 -0.2311
 6699SOL    HW131730   3.476   4.705   4.046 -0.1018  0.3041  0.4108
 6699SOL    HW231731   3.585   0.023   4.141  0.9287 -0.0190 -0.4644
 6700SOL     OW31732   1.605   0.875  12.398 -0.7019  0.4761 -0.1351
 6700SOL    HW131733   1.522   0.880  12.350 -0.2836 -0.2635 -0.9320
 6700SOL    HW231734   1.578   0.826  12.476 -0.8278  0.8599  0.0586
 6701SOL     OW31735   3.194   1.511  13.793 -0.1616  0.6835 -0.2570
 6701SOL    HW131736   3.198   1.563  13.873 -2.0108  0.8510 -0.2926
 6701SOL    HW231737   3.174   1.581  13.731 -1.0852 -0.6377 -1.4517
 6702SOL     OW31738   3.884   2.869  17.560 -0.1666  0.4260 -0.2994
 6702SOL    HW131739   3.968   2.835  17.592 -0.7626 -0.6910  0.1000
 6702SOL    HW231740   3.859   2.816  17.485 -3.2963  0.4193  0.7477
 6703SOL     OW31741   1.125   0.904   9.771  0.1399  0.0662  0.1497
 6703SOL    HW131742   1.050   0.929   9.824  1.4391  0.2616  1.8816
 6703SOL    HW231743   1.164   0.985   9.737  1.6988 -0.3804  0.8957
 6704SOL     OW31744   1.776   2.277  12.162 -0.0301 -0.4264 -0.2651
 6704SOL    HW131745   1.829   2.346  12.201 -1.3557 -0.4452  1.5501
 6704SOL    HW231746   1.822   2.247  12.083  3.7338 -3.5130  3.1003
 6705SOL     OW31747   3.803   0.056   9.553 -0.2833 -0.2456 -0.0124
 6705SOL    HW131748   3.855   0.083   9.628 -0.5569  2.6145 -0.8536
 6705SOL    HW231749   3.826   4.702   9.546 -2.5678 -0.6266 -2.9971
 6706SOL     OW31750   0.966   0.082   5.567 -0.0660  0.1562  0.1664
 6706SOL    HW131751   0.877   0.106   5.595  0.0998  1.0733 -0.0644
 6706SOL    HW231752   0.956   0.016   5.499  0.7917  0.3327 -0.1288
 6707SOL     OW31753   3.868   0.457  13.142  0.7097  0.0742  0.1789
 6707SOL    HW131754   3.941   0.395  13.139  0.7880  0.0980  1.3599
 6707SOL    HW231755   3.924   0.523  13.183 -2.0500  1.6558  1.4020
 6708SOL     OW31756   0.381   4.291   0.464  0.9218  0.5376  0.5712
 6708SOL    HW131757   0.378   4.382   0.494  0.1085  0.9908 -0.8686
 6708SOL    HW231758   0.296   4.272   0.425  0.5398 -1.0688  2.1930
 6709SOL     OW31759   3.387   3.155   7.274  0.0159 -0.0658 -0.4366
 6709SOL    HW131760   3.339   3.237   7.260 -1.5667 -0.6128  1.8970
 6709SOL    HW231761   3.397   3.151   7.369  0.0693  0.3965 -0.4189
 6710SOL     OW31762   0.083   3.164   6.423 -0.5345  0.4622 -0.3746
 6710SOL    HW131763   0.149   3.101   6.394  0.4161  0.8213  1.0235
 6710SOL    HW231764   0.088   3.146   6.517 -0.4450 -0.1201 -0.4907
 6711SOL     OW31765   1.005   2.618  13.807 -0.5826  0.0289 -0.6186
 6711SOL    HW131766   1.085   2.567  13.824 -0.3302  0.5141 -0.3456
 6711SOL    HW231767   1.038   2.691  13.754  1.3937 -0.3466  0.0865
 6712SOL     OW31768   0.828   2.574   3.838 -0.1003 -0.0239 -0.4103
 6712SOL    HW131769   0.917   2.594   3.869 -1.0797 -1.6060  3.3874
 6712SOL    HW231770   0.844   2.544   3.748  0.9593 -0.8971  0.0628
 6713SOL     OW31771   0.649   2.661   6.009 -0.1123  0.5599  0.3416
 6713SOL    HW131772   0.562   2.656   6.049  0.2162 -1.0333  0.8466
 6713SOL    HW231773   0.630   2.723   5.938  1.3164 -1.5925 -1.9453
 6714SOL     OW31774   0.531   3.786   3.141 -0.4598 -0.0342 -0.0009
 6714SOL    HW131775   0.477   3.785   3.062  0.9439  0.4399 -0.9628
 6714SOL    HW231776   0.620   3.782   3.106 -0.9213 -1.0938 -1.0378
 6715SOL     OW31777   1.928   1.852   6.344  0.5159 -0.4340  0.1684
 6715SOL    HW131778   1.990   1.917   6.377 -0.6813  0.5307  0.5395
 6715SOL    HW231779   1.879   1.827   6.423  0.6118  0.3235  0.4661
 6716SOL     OW31780   0.019   1.731   9.156 -0.0431  0.2975  0.1015
 6716SOL    HW131781   4.736   1.819   9.187  1.9745  0.8904 -0.1434
 6716SOL    HW231782   0.113   1.743   9.165  0.1140 -2.2677  1.9618
 6717SOL     OW31783   4.553   3.893   2.384  0.2550  0.2651  0.2310
 6717SOL    HW131784   4.475   3.917   2.434  0.6356  0.1053  0.8964
 6717SOL    HW231785   4.564   3.973   2.333 -0.0963 -0.7797 -1.4878
 6718SOL     OW31786   0.672   3.437   2.653 -0.1986  0.1538  0.3723
 6718SOL    HW131787   0.608   3.391   2.707  1.0475 -0.9402  0.9147
 6718SOL    HW231788   0.654   3.529   2.672  2.8379  0.9686 -0.6600
 6719SOL     OW31789   3.491   2.462   6.156 -0.8815 -0.0391  0.2764
 6719SOL    HW131790   3.456   2.466   6.245  0.2414  2.2006  0.6378
 6719SOL    HW231791   3.541   2.543   6.167 -0.5770 -0.1091 -0.5732
 6720SOL     OW31792   3.634   0.227   9.250  0.2978 -0.3759  0.2157
 6720SOL    HW131793   3.555   0.189   9.288  1.8036 -1.6359  2.0750
 6720SOL    HW231794   3.683   0.150   9.220  0.8310  0.1727 -0.3485
 6721SOL     OW31795   1.265   1.191   9.403 -0.2714 -0.3125 -0.5891
 6721SOL    HW131796   1.306   1.108   9.377  0.3720 -0.3232  0.4872
 6721SOL    HW231797   1.244   1.222   9.315  0.8469  1.9198 -0.0673
 6722SOL     OW31798   1.684   1.840  17.107  0.4447  0.3101 -0.3916
 6722SOL    HW131799   1.709   1.755  17.071  2.9200  1.4724 -1.4480
 6722SOL    HW231800   1.690   1.894  17.029  0.0810 -0.0285 -0.6495
 6723SOL     OW31801   4.645   4.478   5.870 -0.2180  0.4084 -0.6906
 6723SOL    HW131802   4.561   4.524   5.870  0.2103  1.1786 -0.9803
 6723SOL    HW231803   4.691   4.537   5.812 -0.6436  0.6531 -0.7792
 6724SOL     OW31804   0.991   2.601   4.975  0.1539 -0.2870 -0.5501
 6724SOL    HW131805   1.007   2.506   4.975  1.8068 -0.0188  1.8641
 6724SOL    HW231806   1.025   2.616   5.064  0.3197  0.9747 -0.8282
 6725SOL     OW31807   0.355   2.639   9.959  0.2164 -0.6037  0.3366
 6725SOL    HW131808   0.422   2.703   9.981 -0.7886  0.4301  0.3752
 6725SOL    HW231809   0.276   2.677   9.997  1.2838  0.3391  1.6116
 6726SOL     OW31810   4.296   3.385   2.209 -0.4968 -0.3280  0.7158
 6726SOL    HW131811   4.247   3.463   2.182 -1.4305 -1.3078 -0.4009
 6726SOL    HW231812   4.353   3.422   2.277  0.3368  0.4291 -0.3873
 6727SOL     OW31813   2.673   1.450   3.012 -0.0124  0.1772  0.4884
 6727SOL    HW131814   2.742   1.412   3.068  0.9465 -0.6831 -1.2593
 6727SOL    HW231815   2.692   1.407   2.929  2.8757 -0.2512  1.3406
 6728SOL     OW31816   2.089   3.424   4.628 -0.2887  0.1793  0.1950
 6728SOL    HW131817   2.148   3.378   4.568 -1.9105 -1.2895 -0.2475
 6728SOL    HW231818   2.004   3.394   4.597  0.7182  0.0925 -2.5067
 6729SOL     OW31819   1.088   4.339   3.171  0.4734  0.1823 -0.4704
 6729SOL    HW131820   1.015   4.391   3.137 -0.9885 -0.4056  1.7684
 6729SOL    HW231821   1.041   4.260   3.198 -1.8444  2.5692  2.5670
 6730SOL     OW31822   2.654   2.037   5.584  0.3691  0.4944  0.2625
 6730SOL    HW131823   2.591   2.104   5.556 -0.8788 -1.1270 -0.8262
 6730SOL    HW231824   2.717   2.093   5.628  1.9508  0.0210 -1.3940
 6731SOL     OW31825   3.888   0.226  15.807 -0.1961  0.0032  0.3893
 6731SOL    HW131826   3.879   0.312  15.848 -1.2884  0.5617 -1.0302
 6731SOL    HW231827   3.851   0.164  15.870  0.1072  0.3232  0.8827
 6732SOL     OW31828   2.449   0.931   7.883  0.2064  0.1049 -0.2347
 6732SOL    HW131829   2.368   0.883   7.899  2.4098 -3.2116  1.0447
 6732SOL    HW231830   2.502   0.907   7.959  0.6816  1.9590  0.0097
 6733SOL     OW31831   2.444   4.347  17.690 -0.3116  0.5869 -0.1664
 6733SOL    HW131832   2.428   4.373  17.600 -2.7591  2.6609  0.8796
 6733SOL    HW231833   2.481   4.259  17.679 -2.0124  0.1732 -2.4638
 6734SOL     OW31834   4.548   1.646   5.984 -0.2858  0.1999  0.5616
 6734SOL    HW131835   4.508   1.678   5.904 -1.9347  1.2529  1.8003
 6734SOL    HW231836   4.486   1.686   6.045  0.3596  2.5425 -0.3020
 6735SOL     OW31837   2.370   1.317   5.087  0.8839  0.0778 -0.1851
 6735SOL    HW131838   2.279   1.296   5.110  0.4693  1.6125 -0.3858
 6735SOL    HW231839   2.415   1.272   5.158  1.6449 -1.2953 -1.5572
 6736SOL     OW31840   3.476   1.271   5.983 -0.6934 -0.7193  0.3069
 6736SOL    HW131841   3.502   1.183   6.011  0.1182 -1.1442 -1.7877
 6736SOL    HW231842   3.519   1.277   5.898  0.3921 -0.2501  0.8854
 6737SOL     OW31843   3.952   3.993  15.529  0.1625 -0.2207  0.7354
 6737SOL    HW131844   3.970   4.013  15.437  2.0925 -0.9386  0.9588
 6737SOL    HW231845   3.865   3.953  15.526 -0.4904  1.3261 -0.4029
 6738SOL     OW31846   1.518   0.532  12.254  0.7535  0.2952  0.1546
 6738SOL    HW131847   1.458   0.593  12.297 -0.2228  0.4094 -1.3381
 6738SOL    HW231848   1.584   0.592  12.218  0.7858  0.2320  0.1079
 6739SOL     OW31849   2.156   3.905   3.000 -0.2648 -0.3316 -0.0709
 6739SOL    HW131850   2.081   3.846   2.992 -0.9487  0.7121 -1.5350
 6739SOL    HW231851   2.106   3.984   3.018  0.5715  0.0817  0.4189
 6740SOL     OW31852   4.417   3.320   7.444  0.3336 -0.6086  0.2592
 6740SOL    HW131853   4.430   3.360   7.530  0.1768 -1.3322  0.6174
 6740SOL    HW231854   4.447   3.230   7.454 -2.9019 -1.9596 -2.2866
 6741SOL     OW31855   3.133   0.824   8.063 -0.1289  0.3136  0.0384
 6741SOL    HW131856   3.149   0.916   8.039 -2.0706  1.1144  1.8021
 6741SOL    HW231857   3.219   0.784   8.066 -0.6499 -0.6664  1.6279
 6742SOL     OW31858   3.075   3.013   2.952  0.3827  0.4354 -0.3151
 6742SOL    HW131859   3.041   3.085   3.006 -0.7039 -0.1047 -0.2785
 6742SOL    HW231860   3.074   2.941   3.015  0.1650 -0.3153 -1.1778
 6743SOL     OW31861   3.561   3.240  16.875 -0.4576 -0.5288  0.6924
 6743SOL    HW131862   3.570   3.217  16.783 -0.8504 -0.0332  0.5327
 6743SOL    HW231863   3.611   3.164  16.905 -0.1931 -1.0436 -1.1003
 6744SOL     OW31864   1.092   1.456  11.456  0.6008  0.0785  0.6957
 6744SOL    HW131865   1.179   1.495  11.447  0.8903 -0.7202  0.0027
 6744SOL    HW231866   1.081   1.469  11.550 -3.2821 -0.5255  0.3385
 6745SOL     OW31867   4.685   4.644  12.050 -0.0331 -0.1013  0.1738
 6745SOL    HW131868   4.601   4.611  12.080 -0.6961  0.4889 -1.0475
 6745SOL    HW231869   4.685   4.732  12.087 -2.7811  0.8850 -2.2021
 6746SOL     OW31870   4.087   4.395  12.230 -0.7349 -0.2783 -0.0884
 6746SOL    HW131871   4.105   4.314  12.279  0.2297 -0.7323 -1.1955
 6746SOL    HW231872   4.160   4.393  12.168  1.2941 -0.8204  2.2812
 6747SOL     OW31873   0.381   3.549   3.247 -0.7430 -0.5808 -0.2289
 6747SOL    HW131874   0.296   3.524   3.212 -0.0390 -1.1806 -1.5454
 6747SOL    HW231875   0.433   3.544   3.167  0.4407 -1.5510  0.6042
 6748SOL     OW31876   3.889   0.886   4.090  0.1323  0.0875  0.2268
 6748SOL    HW131877   3.874   0.800   4.129 -0.3633  0.9704  1.9591
 6748SOL    HW231878   3.975   0.863   4.053 -1.2860 -2.2915 -1.6016
 6749SOL     OW31879   3.058   1.888   5.750  0.7930 -0.0107 -0.0234
 6749SOL    HW131880   2.970   1.921   5.766  0.1695 -2.4637  1.6344
 6749SOL    HW231881   3.033   1.824   5.683  0.0879  0.5171 -0.2510
 6750SOL     OW31882   4.514   1.387   5.012 -0.2651  0.1546 -0.3482
 6750SOL    HW131883   4.432   1.431   4.994 -0.5820 -1.1258 -2.0927
 6750SOL    HW231884   4.534   1.419   5.100  1.6235  2.3507 -1.5585
 6751SOL     OW31885   2.171   0.745   6.217 -1.2428  0.4122 -0.1541
 6751SOL    HW131886   2.105   0.689   6.259 -1.3004 -0.5494 -1.5386
 6751SOL    HW231887   2.154   0.735   6.124 -0.1921  0.9332 -0.3997
 6752SOL     OW31888   2.912   4.533   4.332  0.0046 -0.1348 -0.2472
 6752SOL    HW131889   2.939   4.501   4.418 -3.4850  1.5244  1.4437
 6752SOL    HW231890   2.870   4.457   4.293  0.9084  0.6431 -2.7096
 6753SOL     OW31891   1.979   4.198  11.988 -0.0488 -0.4035  0.0933
 6753SOL    HW131892   1.935   4.129  12.038  1.0707 -0.3387  1.1842
 6753SOL    HW231893   1.914   4.222  11.923  1.2624 -1.8296 -1.7327
 6754SOL     OW31894   2.665   4.294   8.048  0.1901  0.0667  0.2902
 6754SOL    HW131895   2.628   4.260   7.967  0.4636  0.3017  0.0703
 6754SOL    HW231896   2.588   4.344   8.074 -0.9115 -1.3101 -0.3209
 6755SOL     OW31897   3.087   0.464   6.688 -0.3674  0.2999  0.1745
 6755SOL    HW131898   3.032   0.530   6.646  0.9835  1.7740  0.7507
 6755SOL    HW231899   3.017   0.420   6.737 -0.4722 -1.3999 -1.5050
 6756SOL     OW31900   2.703   0.964   4.319  0.2733 -0.0704  0.4913
 6756SOL    HW131901   2.707   1.015   4.239  1.3502  0.8944  1.1561
 6756SOL    HW231902   2.698   0.874   4.288  0.4404  0.5846 -1.4094
 6757SOL     OW31903   1.324   3.701   6.943  0.6366 -0.1419 -0.4896
 6757SOL    HW131904   1.322   3.691   6.848  3.1682 -0.5363 -0.5000
 6757SOL    HW231905   1.416   3.701   6.969  0.4161  0.8002  0.2861
 6758SOL     OW31906   0.832   1.836   4.817 -0.1365  0.7306  0.2631
 6758SOL    HW131907   0.751   1.789   4.794  1.0844 -1.1309 -0.2142
 6758SOL    HW231908   0.839   1.905   4.751 -1.6410  0.5923 -0.0389
 6759SOL     OW31909   2.553   3.844   7.165  0.5650  0.4089  0.2208
 6759SOL    HW131910   2.573   3.773   7.104 -1.2560 -0.3085  0.4778
 6759SOL    HW231911   2.474   3.812   7.207  1.7064 -1.5441  0.8956
 6760SOL     OW31912   0.592   2.662   5.260 -0.3044  0.4935 -0.1731
 6760SOL    HW131913   0.684   2.647   5.283 -0.3773  0.2697 -0.0247
 6760SOL    HW231914   0.589   2.658   5.165 -1.2580  1.5745 -0.1839
 6761SOL     OW31915   4.656   3.487   9.487  0.0464  0.2514  0.1921
 6761SOL    HW131916   4.566   3.457   9.494 -0.3254  1.1476 -0.8287
 6761SOL    HW231917   4.706   3.415   9.524 -0.7042  0.8476  2.3919
 6762SOL     OW31918   4.363   4.563   2.351  0.0744  0.7775 -0.2615
 6762SOL    HW131919   4.308   4.549   2.274  0.6732  0.6182 -0.6584
 6762SOL    HW231920   4.345   4.657   2.361 -3.2663 -0.0151  1.0884
 6763SOL     OW31921   0.303   2.313   5.296 -0.0998  0.2495 -0.0004
 6763SOL    HW131922   0.219   2.359   5.291 -0.0185  0.4388  0.4285
 6763SOL    HW231923   0.335   2.346   5.212  0.2559 -3.0895 -1.1776
 6764SOL     OW31924   2.983   0.566  14.903 -0.4632  0.2085 -0.1325
 6764SOL    HW131925   2.944   0.609  14.827 -0.4006 -0.7476 -0.7010
 6764SOL    HW231926   2.996   0.481  14.861 -0.4799  0.1588 -0.0364
 6765SOL     OW31927   4.281   3.852  10.003  0.0942 -0.0514  0.1920
 6765SOL    HW131928   4.338   3.875   9.930 -0.8489 -0.8621 -0.8113
 6765SOL    HW231929   4.192   3.861   9.968  0.1957 -1.1765 -0.3642
 6766SOL     OW31930   1.740   0.911   7.591  0.4577  0.2337  0.5982
 6766SOL    HW131931   1.697   0.835   7.631  0.7986  0.5122  1.5015
 6766SOL    HW231932   1.668   0.972   7.573  1.2772  1.1830  0.5255
 6767SOL     OW31933   0.742   1.888  17.275  0.2869 -0.4306  0.1699
 6767SOL    HW131934   0.747   1.804  17.322  3.3781 -0.3844 -0.0675
 6767SOL    HW231935   0.777   1.855  17.192 -1.8614 -0.6989 -0.6322
 6768SOL     OW31936   3.977   1.081   6.938  0.4865 -0.1906 -0.0417
 6768SOL    HW131937   4.064   1.120   6.936 -0.4252  1.9028  0.6695
 6768SOL    HW231938   3.931   1.162   6.961  0.3465 -0.4485  0.5959
 6769SOL     OW31939   2.933   2.639  14.899 -0.2319 -0.0393  0.5362
 6769SOL    HW131940   2.908   2.557  14.857  2.0149  0.8643 -2.5416
 6769SOL    HW231941   2.853   2.690  14.885  1.1057  1.8374 -0.2624
 6770SOL     OW31942   1.642   4.294   7.289  0.0496  0.3985  0.4099
 6770SOL    HW131943   1.651   4.352   7.365  0.4856  0.2894  0.4396
 6770SOL    HW231944   1.564   4.241   7.305  1.1024 -1.2942 -0.0933
 6771SOL     OW31945   2.292   2.105   4.216 -0.1717 -0.3093 -0.0680
 6771SOL    HW131946   2.375   2.140   4.184 -1.3031  2.3939 -0.0525
 6771SOL    HW231947   2.298   2.010   4.223  4.3435  0.1759  2.1374
 6772SOL     OW31948   0.799   4.562   2.587 -0.0544  0.4739  0.1685
 6772SOL    HW131949   0.862   4.566   2.658  1.8986 -0.5488 -1.5047
 6772SOL    HW231950   0.749   4.643   2.595  2.0077  1.9805 -1.9544
 6773SOL     OW31951   1.666   2.531   1.656 -0.3431 -0.3714  0.6254
 6773SOL    HW131952   1.600   2.552   1.722 -0.5170  1.9496 -0.2620
 6773SOL    HW231953   1.649   2.604   1.595 -1.4330 -0.8995  0.2994
 6774SOL     OW31954   0.520   0.449   7.167  0.3973 -0.2795 -0.4254
 6774SOL    HW131955   0.578   0.374   7.173 -0.9024 -1.2327  0.2869
 6774SOL    HW231956   0.509   0.459   7.072  0.6673  2.9108 -0.1423
 6775SOL     OW31957   1.796   2.334   1.390  0.5316 -0.5272 -0.5167
 6775SOL    HW131958   1.855   2.361   1.320  0.4960  2.0789  0.4442
 6775SOL    HW231959   1.823   2.383   1.468  1.6024  0.5582 -1.5758
 6776SOL     OW31960   4.572   2.534   1.769 -0.4414 -0.7138 -0.8854
 6776SOL    HW131961   4.666   2.551   1.772 -0.8694  1.6577 -0.7881
 6776SOL    HW231962   4.578   2.445   1.804  2.1366  0.0972  0.7305
 6777SOL     OW31963   2.707   2.143  13.085  0.2920 -0.2978  0.0683
 6777SOL    HW131964   2.704   2.219  13.142 -2.5359 -0.0012 -0.4299
 6777SOL    HW231965   2.792   2.108  13.111  0.0020 -0.0257  1.3578
 6778SOL     OW31966   1.840   1.926   3.077 -0.2659  0.7701  0.5283
 6778SOL    HW131967   1.790   1.845   3.078  0.0325  0.5839  0.1953
 6778SOL    HW231968   1.772   1.980   3.036  1.9756  2.6558 -0.7373
 6779SOL     OW31969   3.446   1.799   7.003  0.4188  0.6571 -0.0772
 6779SOL    HW131970   3.371   1.763   6.957 -2.3250  2.7591  2.7037
 6779SOL    HW231971   3.414   1.888   7.017 -1.0511  0.2100 -0.5599
 6780SOL     OW31972   0.428   1.887  10.323  0.0520 -0.0046 -0.2184
 6780SOL    HW131973   0.438   1.820  10.391  1.6256  0.3629 -0.1132
 6780SOL    HW231974   0.334   1.907  10.322  0.5669  2.2851 -1.3214
 6781SOL     OW31975   2.449   0.243   0.348 -0.1414  0.6449  0.0285
 6781SOL    HW131976   2.429   0.217   0.258  1.7783 -1.3658  0.2074
 6781SOL    HW231977   2.505   0.174   0.382 -0.9832 -0.5968 -1.1169
 6782SOL     OW31978   0.499   2.742   6.931 -0.2113  0.2558 -0.0556
 6782SOL    HW131979   0.553   2.669   6.900 -0.8734 -0.7749  1.2080
 6782SOL    HW231980   0.535   2.821   6.892  0.0840  0.6665  1.0499
 6783SOL     OW31981   1.926   0.139   7.125 -0.1968 -0.2890 -0.4677
 6783SOL    HW131982   1.997   0.157   7.187 -0.7217 -0.0368  0.0569
 6783SOL    HW231983   1.859   0.206   7.139  0.4758  0.0929  0.9021
 6784SOL     OW31984   2.780   1.726   7.786  0.3028 -0.0378 -0.0917
 6784SOL    HW131985   2.744   1.638   7.800 -0.4380  0.2290 -0.3033
 6784SOL    HW231986   2.819   1.749   7.871  0.7870  0.4545 -0.4496
 6785SOL     OW31987   3.889   3.060   8.220 -0.1382 -0.0008 -0.2816
 6785SOL    HW131988   3.981   3.055   8.195  0.0937 -3.3905  1.1490
 6785SOL    HW231989   3.898   2.977   8.268 -2.5188 -0.4557 -0.6065
 6786SOL     OW31990   0.885   2.489   7.661 -0.1766 -0.6143  0.0955
 6786SOL    HW131991   0.967   2.514   7.703 -0.9408 -0.3674  1.4444
 6786SOL    HW231992   0.844   2.575   7.648  1.3342  0.1316  0.2501
 6787SOL     OW31993   2.788   2.757   2.799  0.2019  0.2139 -0.2171
 6787SOL    HW131994   2.778   2.714   2.714 -1.7105 -1.8610  1.0584
 6787SOL    HW231995   2.866   2.721   2.841 -0.2162  0.0024  0.3760
 6788SOL     OW31996   4.653   4.155   3.692  0.3668  0.2588 -0.0921
 6788SOL    HW131997   4.636   4.208   3.614  2.1434 -0.1123 -0.7496
 6788SOL    HW231998   4.568   4.112   3.693 -0.9028  2.7729 -0.5121
 6789SOL     OW31999   0.650   2.088   1.794  0.5410  0.1534 -0.1585
 6789SOL    HW132000   0.595   2.164   1.809  3.5147  2.3371 -0.4363
 6789SOL    HW232001   0.728   2.112   1.844  1.2026  1.6973 -1.9107
 6790SOL     OW32002   4.111   0.405   3.037  0.0669  0.6856  0.0654
 6790SOL    HW132003   4.154   0.405   2.951  1.0279 -1.7478  0.5677
 6790SOL    HW232004   4.159   0.332   3.075 -0.1752 -0.3991 -1.7058
 6791SOL     OW32005   2.091   3.319  10.446  0.1438  0.0064  0.1299
 6791SOL    HW132006   2.156   3.375  10.487  0.4480 -1.6635  1.8985
 6791SOL    HW232007   2.071   3.366  10.365  1.5281  1.5960  0.7330
 6792SOL     OW32008   1.578   4.420   2.539  0.3174 -0.1296  0.5209
 6792SOL    HW132009   1.485   4.443   2.540  0.5224  0.8127 -2.2350
 6792SOL    HW232010   1.589   4.418   2.444  0.7190 -1.4394  0.5952
 6793SOL     OW32011   3.392   1.420   6.869 -0.5576 -0.0499 -0.5192
 6793SOL    HW132012   3.475   1.465   6.855 -1.5195  2.0614  0.5062
 6793SOL    HW232013   3.342   1.499   6.850  0.9807  1.0927  0.2116
 6794SOL     OW32014   0.157   3.316   3.615 -0.0352  0.1849 -0.7992
 6794SOL    HW132015   0.118   3.254   3.554  0.8195 -0.4252 -0.7303
 6794SOL    HW232016   0.250   3.317   3.590  0.5398  0.8266  1.3160
 6795SOL     OW32017   3.188   0.545   6.410 -0.2900  0.2860 -0.0065
 6795SOL    HW132018   3.233   0.574   6.489 -0.1216 -3.0351  1.1239
 6795SOL    HW232019   3.149   0.460   6.432 -0.3652 -0.5430 -3.3616
 6796SOL     OW32020   2.248   2.111   5.759 -0.1240 -0.5774  0.0706
 6796SOL    HW132021   2.297   2.040   5.801  0.5934  0.9997  1.8999
 6796SOL    HW232022   2.291   2.177   5.813 -0.4419 -0.6749  0.4455
 6797SOL     OW32023   2.928   1.267  11.363 -0.2944 -0.3922  0.1376
 6797SOL    HW132024   2.929   1.254  11.268 -0.3833  1.2840 -0.1059
 6797SOL    HW232025   2.960   1.357  11.372  0.4101 -0.6005 -0.3211
 6798SOL     OW32026   1.882   2.276   7.206 -0.3016 -0.0633 -0.7517
 6798SOL    HW132027   1.904   2.257   7.115  0.1805  2.2971 -1.1300
 6798SOL    HW232028   1.806   2.219   7.217 -0.3847  0.4438  1.3100
 6799SOL     OW32029   2.907   2.398   1.887 -0.9837  0.0142  0.1592
 6799SOL    HW132030   2.968   2.398   1.813 -1.3117 -0.8507 -0.1069
 6799SOL    HW232031   2.885   2.491   1.880 -2.5532 -0.5654 -2.5344
 6800SOL     OW32032   3.148   2.756   1.590  0.0616  0.4710  0.5153
 6800SOL    HW132033   3.232   2.710   1.593 -0.0917  0.2788  1.7003
 6800SOL    HW232034   3.170   2.849   1.598 -0.6523  0.6817  0.0830
 6801SOL     OW32035   3.967   4.730   4.899 -0.5030  0.0518 -0.3279
 6801SOL    HW132036   3.975   0.059   4.832  0.3882  1.1524  0.8751
 6801SOL    HW232037   4.057   4.698   4.901 -0.7412 -0.5898  0.1570
 6802SOL     OW32038   2.579   1.049   0.887  0.1261  0.4270 -0.2959
 6802SOL    HW132039   2.582   0.989   0.813  1.0041  0.7635 -0.5316
 6802SOL    HW232040   2.655   1.107   0.878  2.9227 -2.7145  2.9099
 6803SOL     OW32041   0.884   1.224   9.296  0.4105  0.3665 -0.2814
 6803SOL    HW132042   0.959   1.275   9.328 -0.2563  0.6631  0.8165
 6803SOL    HW232043   0.867   1.153   9.357  0.6801  0.5319 -0.0110
 6804SOL     OW32044   3.322   0.459  17.139 -0.0187  0.2204  0.2860
 6804SOL    HW132045   3.363   0.478  17.223 -0.0746 -0.4791  0.4692
 6804SOL    HW232046   3.265   0.536  17.132  2.0310  2.0390  3.3498
 6805SOL     OW32047   2.752   2.640   2.554 -0.0708  0.2526  0.3178
 6805SOL    HW132048   2.740   2.588   2.475 -0.7869 -0.7662  1.1033
 6805SOL    HW232049   2.665   2.680   2.561  0.2437  1.3507 -2.1488
 6806SOL     OW32050   1.020   2.203   4.797  0.8747  1.1508 -0.4010
 6806SOL    HW132051   1.108   2.239   4.789  0.6999  1.5096 -0.7279
 6806SOL    HW232052   1.040   2.109   4.800  0.2502  1.0738  1.3485
 6807SOL     OW32053   2.037   3.465   3.046 -0.1706  0.1441 -0.3656
 6807SOL    HW132054   2.056   3.493   2.956  2.9311 -0.6656  0.0381
 6807SOL    HW232055   2.003   3.550   3.074 -1.2276  0.0207 -1.2589
 6808SOL     OW32056   4.122   1.465   5.353  0.1043 -0.0693 -0.4533
 6808SOL    HW132057   4.056   1.457   5.422 -0.3876 -1.5049 -1.0881
 6808SOL    HW232058   4.134   1.560   5.352  0.9160 -0.1729  1.2082
 6809SOL     OW32059   3.003   1.319   0.078 -0.1270  0.6190  0.0424
 6809SOL    HW132060   3.051   1.394   0.045  0.1686  1.1350  1.6408
 6809SOL    HW232061   3.067   1.264   0.123 -1.4015 -1.6627 -0.9097
 6810SOL     OW32062   2.643   1.800   5.753  0.1701 -0.0850  0.3648
 6810SOL    HW132063   2.600   1.725   5.711  0.6968 -0.3142  0.2327
 6810SOL    HW232064   2.645   1.777   5.845 -1.4039 -0.1812  0.3745
 6811SOL     OW32065   3.457   2.292  16.177 -0.5745 -0.2393  0.3003
 6811SOL    HW132066   3.478   2.383  16.157  0.0338 -0.0338  1.8599
 6811SOL    HW232067   3.431   2.299  16.269 -1.4844  1.7264 -0.1065
 6812SOL     OW32068   4.442   2.204   6.382 -0.3328 -0.2496 -0.1194
 6812SOL    HW132069   4.470   2.118   6.353  0.9991  0.3397 -0.5482
 6812SOL    HW232070   4.367   2.231   6.329  1.1445  1.9009 -1.1166
 6813SOL     OW32071   3.083   2.359   9.107  0.1105  0.0212  0.1392
 6813SOL    HW132072   3.049   2.273   9.134 -0.4359 -0.1074 -0.9814
 6813SOL    HW232073   3.174   2.333   9.100 -0.6079 -1.4956 -3.2098
 6814SOL     OW32074   4.420   1.931  14.419 -0.2599 -0.2612  0.0572
 6814SOL    HW132075   4.448   2.023  14.415  0.5141 -0.4672  0.5773
 6814SOL    HW232076   4.468   1.888  14.348  0.3320 -1.9613  1.4985
 6815SOL     OW32077   3.325   0.143   1.157  0.6344 -0.1663  0.5283
 6815SOL    HW132078   3.382   0.097   1.095 -1.0701  0.6916 -1.6625
 6815SOL    HW232079   3.300   0.214   1.098 -3.1314 -0.2276  2.0430
 6816SOL     OW32080   3.425   1.478   8.548 -0.2631  0.0494  0.4034
 6816SOL    HW132081   3.425   1.428   8.467  2.6121  3.2271 -1.5444
 6816SOL    HW232082   3.512   1.517   8.556  1.5472 -3.2812 -3.6430
 6817SOL     OW32083   0.889   1.517  14.118 -0.1020 -0.1740  0.3526
 6817SOL    HW132084   0.887   1.466  14.038 -2.5022  1.8605 -0.8971
 6817SOL    HW232085   0.796   1.538  14.123  0.1295  0.6734  1.2661
 6818SOL     OW32086   4.224   0.290   1.825 -0.0836  0.1723 -0.5378
 6818SOL    HW132087   4.309   0.328   1.846 -0.8457  2.1788 -1.1196
 6818SOL    HW232088   4.211   0.321   1.736  1.3532 -1.5991 -1.3510
 6819SOL     OW32089   1.261   4.603  13.039 -0.2594  0.0626  0.1748
 6819SOL    HW132090   1.286   4.688  13.001  4.0056 -0.8136  1.0293
 6819SOL    HW232091   1.288   4.543  12.969 -0.9060 -0.3557  0.2864
 6820SOL     OW32092   3.195   2.386   6.145 -0.5454 -0.0542 -0.6680
 6820SOL    HW132093   3.163   2.414   6.231  1.5344  0.1746  0.0567
 6820SOL    HW232094   3.282   2.359   6.174  0.3364  2.4353 -0.9287
 6821SOL     OW32095   0.953   2.523   2.475 -0.2881 -0.2856 -0.7450
 6821SOL    HW132096   0.898   2.461   2.427 -2.3605  1.1847 -0.2578
 6821SOL    HW232097   0.909   2.524   2.560 -1.0025  0.8478 -1.1388
 6822SOL     OW32098   3.468   1.588   4.485  0.7292  0.3747  0.4124
 6822SOL    HW132099   3.434   1.574   4.573 -0.7131 -0.6477 -0.3080
 6822SOL    HW232100   3.540   1.651   4.491  2.1399 -1.1594 -0.3836
 6823SOL     OW32101   3.329   4.048   4.543  0.7625  0.0399 -0.0681
 6823SOL    HW132102   3.404   4.103   4.520  0.2326  0.6754 -0.2740
 6823SOL    HW232103   3.351   3.962   4.506 -2.6859 -1.1762  0.6705
 6824SOL     OW32104   3.720   3.758   5.794 -0.0850 -0.2558  0.2730
 6824SOL    HW132105   3.700   3.822   5.862  2.7336  0.3860  0.5135
 6824SOL    HW232106   3.772   3.696   5.846 -0.4843  0.3927  1.4506
 6825SOL     OW32107   2.040   4.244  13.496 -0.2307 -0.4215 -0.1154
 6825SOL    HW132108   1.958   4.294  13.499  1.2801  2.0046  1.5255
 6825SOL    HW232109   2.106   4.314  13.500 -0.0325 -0.5458 -1.1948
 6826SOL     OW32110   0.952   4.630   5.319 -0.4563  0.2745  0.7215
 6826SOL    HW132111   0.889   4.683   5.270  0.2198 -0.6269 -1.1359
 6826SOL    HW232112   1.032   4.675   5.291 -0.2798  1.2467  2.8335
 6827SOL     OW32113   2.492   1.889  14.389 -0.1202  0.2084  0.8123
 6827SOL    HW132114   2.414   1.848  14.427  0.5946 -0.3522  1.6784
 6827SOL    HW232115   2.458   1.887  14.299 -0.2008  0.0491  0.8461
 6828SOL     OW32116   0.585   0.259   1.619 -0.5052 -0.8693  0.4153
 6828SOL    HW132117   0.525   0.331   1.634 -0.4475 -1.0770  1.6458
 6828SOL    HW232118   0.668   0.301   1.598 -0.4007  0.2856  3.1897
 6829SOL     OW32119   3.091   1.813   1.447 -0.4113 -0.0110  0.3542
 6829SOL    HW132120   3.121   1.724   1.466  2.3490  1.2298  1.7808
 6829SOL    HW232121   3.173   1.860   1.432  0.2513 -1.4834 -0.7313
 6830SOL     OW32122   0.992   3.632   2.889  0.1219 -0.0638  0.5471
 6830SOL    HW132123   1.060   3.593   2.833 -1.2666  1.4430 -2.1747
 6830SOL    HW232124   1.025   3.636   2.979 -0.2164 -1.7574  0.7474
 6831SOL     OW32125   2.808   3.231   0.318 -0.5646 -0.3786  0.0665
 6831SOL    HW132126   2.780   3.182   0.394 -1.9618  0.8630  0.3564
 6831SOL    HW232127   2.738   3.297   0.318 -1.7504 -1.6239 -1.2171
 6832SOL     OW32128   2.119   0.557   7.459 -0.3786 -0.3630  0.1707
 6832SOL    HW132129   2.088   0.467   7.457 -2.2292  0.3553 -3.5143
 6832SOL    HW232130   2.041   0.609   7.477  2.0859  2.8652  1.4594
 6833SOL     OW32131   0.412   0.455   5.546  0.1617 -0.2080  0.2739
 6833SOL    HW132132   0.337   0.514   5.542 -0.5370 -1.2227 -1.2881
 6833SOL    HW232133   0.451   0.472   5.460  1.5167  1.8266  1.2929
 6834SOL     OW32134   1.360   0.599   7.604 -0.2700  0.3439  0.2220
 6834SOL    HW132135   1.390   0.545   7.531 -2.3802 -1.7202  0.8998
 6834SOL    HW232136   1.265   0.585   7.607 -0.2648  0.6426  1.8715
 6835SOL     OW32137   3.664   1.422   8.006  0.6429  0.1126  0.2174
 6835SOL    HW132138   3.715   1.456   7.933 -2.1804  1.8321 -0.9537
 6835SOL    HW232139   3.716   1.342   8.017  0.4839  0.1115  0.9674
 6836SOL     OW32140   1.078   3.542   9.278  0.1311  0.5203  0.3877
 6836SOL    HW132141   1.104   3.554   9.187 -1.1285  0.8961  0.0659
 6836SOL    HW232142   1.042   3.630   9.290 -2.8552 -0.5877 -0.4094
 6837SOL     OW32143   2.227   0.860  11.146 -0.1890  0.0881 -0.2926
 6837SOL    HW132144   2.280   0.781  11.153  1.0074  1.1182  2.4168
 6837SOL    HW232145   2.186   0.862  11.233 -0.5312 -2.0441 -0.4074
 6838SOL     OW32146   1.954   3.866   2.126  0.0599 -0.3583 -0.1566
 6838SOL    HW132147   2.009   3.825   2.060 -1.3264 -1.6002 -0.5338
 6838SOL    HW232148   1.966   3.957   2.099 -0.6830 -0.4438 -0.7535
 6839SOL     OW32149   2.563   2.702   2.276 -0.0170 -0.2568 -0.3418
 6839SOL    HW132150   2.555   2.723   2.369 -1.5429 -4.0117  0.3973
 6839SOL    HW232151   2.644   2.651   2.280 -0.6041 -1.2479 -1.2918
 6840SOL     OW32152   2.827   4.244  16.492  0.5207  0.5861 -0.3635
 6840SOL    HW132153   2.755   4.181  16.486 -0.7167  1.9502  0.0600
 6840SOL    HW232154   2.784   4.290  16.564 -0.2403 -1.0150  0.1944
 6841SOL     OW32155   1.265   0.108   0.974  0.2292  0.4400 -0.4146
 6841SOL    HW132156   1.344   0.097   0.922  0.2103 -0.1351 -0.3176
 6841SOL    HW232157   1.297   0.109   1.064 -0.3304 -0.4616 -0.2105
 6842SOL     OW32158   3.603   1.236   2.989 -0.1636 -0.7077 -0.3788
 6842SOL    HW132159   3.614   1.330   2.973 -0.7074 -0.1739  2.3079
 6842SOL    HW232160   3.695   1.212   3.003 -0.3421 -1.2568 -0.1722
 6843SOL     OW32161   1.765   1.895  15.010 -0.0557 -0.1277  0.1277
 6843SOL    HW132162   1.813   1.969  14.973  1.5453 -1.0569  0.3693
 6843SOL    HW232163   1.800   1.879  15.097 -1.9755  0.4803  1.0212
 6844SOL     OW32164   2.407   0.005   3.816  0.0048 -0.7489  0.1133
 6844SOL    HW132165   2.396   4.649   3.815 -1.6917 -0.5700  1.5481
 6844SOL    HW232166   2.493   0.025   3.780  0.4564  0.4660  1.8621
 6845SOL     OW32167   4.021   0.476   6.235  0.1616 -0.2595  0.0559
 6845SOL    HW132168   4.068   0.538   6.179  1.4467  0.9635  2.4690
 6845SOL    HW232169   3.956   0.432   6.181 -0.2326  0.9671 -0.4637
 6846SOL     OW32170   3.537   1.210   5.692 -0.3795 -0.2838 -0.5923
 6846SOL    HW132171   3.442   1.219   5.678 -0.3412 -0.4349 -0.9511
 6846SOL    HW232172   3.574   1.270   5.628 -1.7803  1.2533  0.0227
 6847SOL     OW32173   0.353   2.895   4.618  0.0447 -0.4321  0.3558
 6847SOL    HW132174   0.313   2.811   4.599  1.4405 -1.2727  1.1436
 6847SOL    HW232175   0.422   2.893   4.551 -0.0571  0.4616  0.2255
 6848SOL     OW32176   1.906   4.035   2.478 -0.5297 -0.1380 -0.2492
 6848SOL    HW132177   1.826   4.031   2.426 -0.4663  1.1120 -0.4398
 6848SOL    HW232178   1.931   4.126   2.463 -0.1706 -0.7503 -3.2142
 6849SOL     OW32179   1.726   1.982  13.737  0.1000  0.0209  0.0536
 6849SOL    HW132180   1.784   1.989  13.812  2.5096 -0.0945 -1.8090
 6849SOL    HW232181   1.721   1.887  13.723 -1.8137 -0.0893  1.5154
 6850SOL     OW32182   0.001   2.256   9.171  0.0311 -0.1123  0.0333
 6850SOL    HW132183   0.063   2.319   9.208 -1.2969 -0.0243  2.1272
 6850SOL    HW232184   4.655   2.301   9.176 -0.5888 -1.2144 -0.7252
 6851SOL     OW32185   0.392   2.793  15.044  0.3954 -0.1531 -0.1469
 6851SOL    HW132186   0.390   2.885  15.073  0.0035 -0.5401  1.0686
 6851SOL    HW232187   0.469   2.797  14.988 -0.3199 -0.0219 -1.1304
 6852SOL     OW32188   0.698   2.414   4.646 -0.1916  0.4966 -0.1301
 6852SOL    HW132189   0.721   2.349   4.580 -0.8557  1.0310 -0.8891
 6852SOL    HW232190   0.631   2.460   4.594 -2.4642 -1.3015  1.2078
 6853SOL     OW32191   1.033   3.355   6.075 -0.3995 -0.0925  0.2267
 6853SOL    HW132192   1.097   3.309   6.128  0.5214 -0.7804 -1.5027
 6853SOL    HW232193   1.072   3.353   5.988  0.1554  2.3543  0.4046
 6854SOL     OW32194   1.205   1.364   5.418 -0.0907 -0.4934  0.2102
 6854SOL    HW132195   1.148   1.352   5.494 -1.6223  1.1705 -0.6942
 6854SOL    HW232196   1.214   1.273   5.390  2.8358  0.1572 -0.9607
 6855SOL     OW32197   0.695   4.388  12.892  0.3003 -0.3023  0.5433
 6855SOL    HW132198   0.677   4.355  12.804 -2.2766 -0.7695  1.2431
 6855SOL    HW232199   0.612   4.431  12.911 -0.7694 -1.8767 -0.5306
 6856SOL     OW32200   0.678   1.331   6.119  0.3497  0.3368  0.1241
 6856SOL    HW132201   0.642   1.401   6.063 -0.1825 -0.0074  0.0359
 6856SOL    HW232202   0.625   1.335   6.199 -0.1449  1.8250 -0.2734
 6857SOL     OW32203   0.862   2.735  12.862 -0.2232 -0.3339 -0.3485
 6857SOL    HW132204   0.847   2.829  12.875 -2.7048 -0.6576 -0.8326
 6857SOL    HW232205   0.835   2.730  12.770  0.4168 -0.9858 -0.4931
 6858SOL     OW32206   3.540   3.451  10.199 -0.0123  0.2165 -0.1119
 6858SOL    HW132207   3.577   3.369  10.166  0.3524 -0.3715  1.7217
 6858SOL    HW232208   3.445   3.450  10.184  0.0896 -0.5553 -0.6919
 6859SOL     OW32209   2.131   3.893   2.361 -0.3336 -0.1254 -0.1700
 6859SOL    HW132210   2.078   3.871   2.285 -0.5126 -0.6155  0.0963
 6859SOL    HW232211   2.069   3.937   2.419 -0.9395 -1.0028 -0.1544
 6860SOL     OW32212   3.483   1.884   9.311  0.2403 -0.2555  0.0105
 6860SOL    HW132213   3.506   1.952   9.374 -1.1976  0.0859  0.1634
 6860SOL    HW232214   3.415   1.832   9.355 -0.9059  1.8578  0.7025
 6861SOL     OW32215   3.100   2.446   4.658  0.0865  0.2214  0.0788
 6861SOL    HW132216   3.148   2.464   4.739  1.7857 -0.3576 -0.7804
 6861SOL    HW232217   3.012   2.426   4.688 -0.1568 -1.2702 -1.5859
 6862SOL     OW32218   0.923   2.707   1.082 -0.2878  0.6679  0.0999
 6862SOL    HW132219   0.940   2.622   1.123 -0.4189  1.3811  1.6030
 6862SOL    HW232220   1.001   2.762   1.087 -1.2985  2.1807 -0.7649
 6863SOL     OW32221   0.020   3.979   7.842 -0.0412 -0.2864  0.1244
 6863SOL    HW132222   0.112   4.000   7.824 -0.0536  0.7032  1.2568
 6863SOL    HW232223   4.721   3.973   7.755 -0.6329 -4.7984  0.6630
 6864SOL     OW32224   4.096   0.870   1.034  0.2618 -0.0460  0.1861
 6864SOL    HW132225   4.153   0.890   0.960  0.9404 -2.5259  0.0400
 6864SOL    HW232226   4.165   0.859   1.098  0.1521 -1.2568  0.0912
 6865SOL     OW32227   1.350   4.577  14.887  0.2341 -0.4062 -0.2722
 6865SOL    HW132228   1.292   4.622  14.826 -1.1591 -0.3488  1.0860
 6865SOL    HW232229   1.327   4.618  14.971 -2.9303 -0.6998 -1.0322
 6866SOL     OW32230   4.584   0.123   7.295  0.4210  0.8784 -0.3734
 6866SOL    HW132231   4.495   0.122   7.260  0.1414  1.5956  0.3151
 6866SOL    HW232232   4.580   0.213   7.325  0.4894  0.6381  0.3623
 6867SOL     OW32233   2.913   1.786   1.965  0.3380 -0.0679 -0.3141
 6867SOL    HW132234   2.924   1.856   2.029  0.0504 -0.5609  0.2746
 6867SOL    HW232235   2.998   1.799   1.923  0.5690 -0.0546  0.1563
 6868SOL     OW32236   1.547   1.016   5.341  0.2965  0.0291 -0.2991
 6868SOL    HW132237   1.476   0.974   5.390 -1.2001  0.2429 -2.2987
 6868SOL    HW232238   1.505   1.042   5.259  0.1908 -0.0234 -0.2612
 6869SOL     OW32239   2.956   2.735   6.276 -0.6061 -0.0934 -0.0325
 6869SOL    HW132240   2.927   2.694   6.195 -0.3638 -0.1476 -0.0926
 6869SOL    HW232241   2.873   2.723   6.321 -0.5201  1.0590  0.4508
 6870SOL     OW32242   1.120   2.165   7.339  0.2422 -0.3863  0.3856
 6870SOL    HW132243   1.051   2.115   7.294 -1.9757  0.4282  2.8661
 6870SOL    HW232244   1.068   2.203   7.409  0.6992  2.5187 -0.8330
 6871SOL     OW32245   1.890   1.131   1.531  0.0252  0.3920 -0.0526
 6871SOL    HW132246   1.915   1.040   1.514 -1.7512 -0.6222  2.7176
 6871SOL    HW232247   1.890   1.171   1.444  0.3574  1.0487  0.2473
 6872SOL     OW32248   4.066   3.287  10.081  0.3353  0.2788  0.2207
 6872SOL    HW132249   4.139   3.341  10.113 -0.3663  0.4739  1.5074
 6872SOL    HW232250   4.000   3.356  10.081  1.3624  1.2556 -1.6265
 6873SOL     OW32251   4.566   3.305   9.738  0.3279 -0.0674  0.4902
 6873SOL    HW132252   4.511   3.254   9.679 -1.3236  2.6868 -0.3394
 6873SOL    HW232253   4.639   3.302   9.676  0.1855  1.7458  0.2419
 6874SOL     OW32254   2.491   0.160  13.881  0.4871 -0.6697  0.5986
 6874SOL    HW132255   2.416   0.219  13.877  0.6613 -0.5083 -0.1732
 6874SOL    HW232256   2.539   0.171  13.799 -0.3396 -1.0815  0.0633
 6875SOL     OW32257   0.947   1.309   1.713 -0.6650 -0.4450  0.3201
 6875SOL    HW132258   0.890   1.234   1.730 -1.5560  0.1549 -0.0431
 6875SOL    HW232259   0.907   1.357   1.641  0.8081  0.6027  0.1853
 6876SOL     OW32260   1.808   4.291   9.544 -0.0910 -0.3576  0.2382
 6876SOL    HW132261   1.838   4.226   9.608  0.9595  0.7712  0.9046
 6876SOL    HW232262   1.785   4.360   9.606  3.4907 -0.6744  1.9382
 6877SOL     OW32263   3.333   1.256  15.108 -0.0101  0.2439 -0.3632
 6877SOL    HW132264   3.326   1.304  15.025  2.9580  0.7234 -0.3235
 6877SOL    HW232265   3.249   1.289  15.142  0.0957  0.0347  0.0985
 6878SOL     OW32266   4.696   0.555   1.705  0.1465  0.1112 -0.0301
 6878SOL    HW132267   0.041   0.598   1.690 -0.8786  1.7589 -0.9927
 6878SOL    HW232268   4.708   0.473   1.656 -3.3616 -0.0015 -0.6987
 6879SOL     OW32269   1.629   3.504   5.622  0.6735  0.5880  0.5102
 6879SOL    HW132270   1.559   3.561   5.655  1.6504  1.3518  1.2561
 6879SOL    HW232271   1.650   3.552   5.542  0.9243 -1.5385 -0.6969
 6880SOL     OW32272   0.748   4.248  10.478 -0.3820  0.6993  0.1348
 6880SOL    HW132273   0.744   4.340  10.452 -0.9934  0.6758  0.1479
 6880SOL    HW232274   0.657   4.248  10.509 -0.3201  0.0822  0.3201
 6881SOL     OW32275   2.239   1.301  12.967 -0.0611 -0.3636  0.0493
 6881SOL    HW132276   2.166   1.308  13.029 -0.8374 -1.7909 -0.7059
 6881SOL    HW232277   2.246   1.392  12.937  0.0627 -0.5400 -0.4578
 6882SOL     OW32278   3.180   0.531   7.481 -0.0376 -0.2906  0.0617
 6882SOL    HW132279   3.201   0.578   7.400 -1.6996  0.6505  0.1822
 6882SOL    HW232280   3.086   0.536   7.464  0.4717 -2.1962 -3.3196
 6883SOL     OW32281   3.085   4.666   3.876 -0.0647 -0.0487 -0.0223
 6883SOL    HW132282   3.049   4.598   3.934 -0.2756 -0.1911 -0.3212
 6883SOL    HW232283   3.162   4.702   3.921 -0.1186 -0.8473  0.7043
 6884SOL     OW32284   4.333   3.472   4.065 -0.1763 -0.0240  0.2448
 6884SOL    HW132285   4.419   3.482   4.024  0.4554 -1.3465  1.2652
 6884SOL    HW232286   4.262   3.526   4.029  1.0323  2.1810  1.1414
 6885SOL     OW32287   3.124   3.247   7.912 -0.0931 -0.2251  0.6370
 6885SOL    HW132288   3.032   3.245   7.884 -0.7745  1.1941  2.7900
 6885SOL    HW232289   3.139   3.339   7.890  1.7775 -1.3493 -2.8754
 6886SOL     OW32290   0.824   0.652   2.507 -0.0746  0.4915 -0.3847
 6886SOL    HW132291   0.912   0.625   2.533  0.4128  1.5568 -0.9223
 6886SOL    HW232292   0.820   0.645   2.412  1.1637  0.9529 -0.4823
 6887SOL     OW32293   3.895   3.254   0.096 -0.2309 -0.3254  0.0005
 6887SOL    HW132294   3.846   3.263   0.177 -0.6514  0.7208 -0.3826
 6887SOL    HW232295   3.829   3.269   0.029  0.9166 -2.2628 -1.5748
 6888SOL     OW32296   4.683   2.536   8.311 -0.6864  0.2884 -0.3629
 6888SOL    HW132297   4.710   2.444   8.315  2.2028  1.2045  1.1344
 6888SOL    HW232298   0.023   2.586   8.329  1.5757 -3.0561 -1.0826
 6889SOL     OW32299   2.887   0.920   4.504 -0.3439  0.5684  0.4650
 6889SOL    HW132300   2.827   0.921   4.429 -0.2556 -1.5870  0.3858
 6889SOL    HW232301   2.819   0.943   4.567 -1.9561 -3.4483  0.1495
 6890SOL     OW32302   0.134   2.607   2.287  0.3352 -0.0058 -0.4133
 6890SOL    HW132303   0.205   2.664   2.258 -1.4165  2.3459 -0.0699
 6890SOL    HW232304   0.060   2.637   2.233  1.6452  0.7679 -1.7739
 6891SOL     OW32305   2.071   4.715   9.508  0.2717 -0.1035  0.0737
 6891SOL    HW132306   1.976   4.728   9.500  0.0687 -0.2494  2.3662
 6891SOL    HW232307   2.067   4.620   9.521  2.1649 -0.3254 -0.9014
 6892SOL     OW32308   4.105   0.643   2.750 -0.1360  0.1758  0.3643
 6892SOL    HW132309   4.015   0.664   2.777  0.3182  2.0275  0.4296
 6892SOL    HW232310   4.103   0.684   2.664 -0.4444 -0.2073  0.1933
 6893SOL     OW32311   3.714   0.946   2.774  0.7089  0.2021  0.2940
 6893SOL    HW132312   3.738   1.012   2.839 -2.2755  2.1969 -0.5796
 6893SOL    HW232313   3.724   1.008   2.701 -0.6095  0.2691  0.1546
 6894SOL     OW32314   2.095   0.412   6.554  0.4256 -0.1135 -0.1785
 6894SOL    HW132315   2.160   0.482   6.565  0.3554 -0.1581  0.5346
 6894SOL    HW232316   2.142   0.334   6.584 -0.2408 -1.2401 -2.0795
 6895SOL     OW32317   1.463   0.560   4.291 -0.5841 -0.0574 -0.2104
 6895SOL    HW132318   1.382   0.602   4.261  1.4245  4.7011  1.0918
 6895SOL    HW232319   1.525   0.625   4.260  0.4270 -0.2084  1.4972
 6896SOL     OW32320   3.677   3.075   2.805  0.2770 -0.3387  0.3614
 6896SOL    HW132321   3.694   2.987   2.839 -0.0114 -0.5232  0.0280
 6896SOL    HW232322   3.642   3.053   2.719  1.3149  0.9183 -0.3772
 6897SOL     OW32323   2.426   2.344   6.747 -0.5030 -0.3359 -0.1082
 6897SOL    HW132324   2.350   2.321   6.693 -1.3103  1.0519  0.4193
 6897SOL    HW232325   2.493   2.357   6.681  1.1050 -0.3095  1.5426
 6898SOL     OW32326   2.510   1.477  10.414 -0.2479 -0.1192  0.3173
 6898SOL    HW132327   2.494   1.567  10.441 -1.7018 -0.4096  0.4337
 6898SOL    HW232328   2.424   1.458  10.376 -0.4656 -0.9982  1.2669
 6899SOL     OW32329   0.107   2.074   5.877  0.2371  0.3189  0.5763
 6899SOL    HW132330   0.185   2.083   5.930  0.6687 -1.2630  0.2072
 6899SOL    HW232331   0.154   2.042   5.799 -0.9539  0.6494 -0.2831
 6900SOL     OW32332   1.655   1.341   7.348 -0.5202  0.1645 -0.3250
 6900SOL    HW132333   1.659   1.276   7.419 -1.3337  1.3999  0.8359
 6900SOL    HW232334   1.569   1.321   7.312  0.6727  0.0860 -3.0640
 6901SOL     OW32335   2.725   0.413   6.314  0.2465 -0.1836  0.3317
 6901SOL    HW132336   2.665   0.398   6.387 -2.5450 -0.1760 -1.9731
 6901SOL    HW232337   2.680   0.481   6.263 -0.6716 -0.8790  0.2053
 6902SOL     OW32338   1.534   3.218   3.397 -0.1947 -0.3686 -0.3151
 6902SOL    HW132339   1.452   3.240   3.441  1.0114  1.7264  0.8719
 6902SOL    HW232340   1.588   3.297   3.399 -1.6926  0.6397  0.4130
 6903SOL     OW32341   0.011   1.991   9.231 -0.4684 -0.5207 -0.4562
 6903SOL    HW132342   4.724   2.083   9.223 -0.6062 -0.6841 -1.7769
 6903SOL    HW232343   0.096   1.993   9.275  0.5073 -2.3135 -2.2528
 6904SOL     OW32344   0.606   0.687   4.399 -0.1823  0.0498  0.0946
 6904SOL    HW132345   0.681   0.630   4.384  0.1630  1.0432 -1.9245
 6904SOL    HW232346   0.540   0.632   4.442 -1.5518  1.0836 -0.6873
 6905SOL     OW32347   4.006   1.494   8.028 -0.2387 -0.1580  0.4151
 6905SOL    HW132348   3.999   1.450   7.943  0.9376 -0.5322  0.5101
 6905SOL    HW232349   3.974   1.581   8.006 -0.3749  0.4776  3.1438
 6906SOL     OW32350   4.117   2.743   3.438  0.0790 -0.0476 -0.2012
 6906SOL    HW132351   4.152   2.809   3.499 -0.7114  1.0677 -0.9564
 6906SOL    HW232352   4.201   2.704   3.412 -0.0711 -1.4673  1.4408
 6907SOL     OW32353   0.817   3.296   1.173  0.4373 -0.2586 -0.0392
 6907SOL    HW132354   0.803   3.320   1.081  0.5566  2.3835  0.6238
 6907SOL    HW232355   0.831   3.381   1.214  2.5456 -0.4756 -0.3509
 6908SOL     OW32356   3.273   1.581  14.648 -0.0893 -0.2692 -0.9824
 6908SOL    HW132357   3.189   1.620  14.623 -0.8192 -0.4555  1.1728
 6908SOL    HW232358   3.319   1.657  14.684 -0.9659 -0.1674 -0.0778
 6909SOL     OW32359   4.495   3.697   9.154 -0.2223  0.8557 -0.6414
 6909SOL    HW132360   4.543   3.731   9.230 -0.4539  0.1598 -0.1775
 6909SOL    HW232361   4.401   3.706   9.174  0.0273  2.0588  0.0014
 6910SOL     OW32362   1.722   1.638  15.221 -0.3777 -0.2900  0.4181
 6910SOL    HW132363   1.706   1.566  15.282  0.1439 -0.1601  0.7127
 6910SOL    HW232364   1.817   1.626  15.216 -0.0084  2.9943 -0.8228
 6911SOL     OW32365   4.274   1.534   3.726 -0.3066  0.6901 -0.2851
 6911SOL    HW132366   4.182   1.544   3.751 -0.1691  2.6164 -0.5203
 6911SOL    HW232367   4.278   1.574   3.640  0.6406 -0.1285 -0.6294
 6912SOL     OW32368   0.499   2.803   1.908  0.0497  0.3205 -0.3430
 6912SOL    HW132369   0.533   2.745   1.839  1.8046  0.1557  0.6691
 6912SOL    HW232370   0.411   2.819   1.875  0.8132 -1.9433 -3.5787
 6913SOL     OW32371   3.949   0.735   6.448  0.2205  0.2233 -0.5202
 6913SOL    HW132372   3.972   0.826   6.468 -0.2638  0.2849 -0.2318
 6913SOL    HW232373   3.977   0.743   6.357 -1.2607  4.9721 -0.5938
 6914SOL     OW32374   0.125   2.025   6.858 -0.2868  0.4613 -0.4602
 6914SOL    HW132375   0.152   1.964   6.788  2.3431 -1.7879  2.5208
 6914SOL    HW232376   0.153   2.109   6.823 -0.2311  1.3309  1.7357
 6915SOL     OW32377   3.062   1.522   2.826 -0.8286 -0.4433 -0.1541
 6915SOL    HW132378   3.037   1.613   2.815 -0.4588 -0.6344 -2.6292
 6915SOL    HW232379   3.028   1.488   2.743  1.4341 -0.1280 -1.2291
 6916SOL     OW32380   3.663   2.167   9.904  0.4237  0.3826 -0.2783
 6916SOL    HW132381   3.666   2.231   9.975  2.0906  1.8829 -1.6741
 6916SOL    HW232382   3.629   2.220   9.832 -1.0340 -2.1211 -1.4018
 6917SOL     OW32383   2.875   0.588  14.320 -0.1939  0.0186 -0.3300
 6917SOL    HW132384   2.806   0.604  14.256 -1.3692 -0.7041  0.7459
 6917SOL    HW232385   2.888   0.676  14.355 -0.4639  0.1837 -0.6355
 6918SOL     OW32386   1.178   2.542   8.527 -0.0027 -0.2468 -0.7664
 6918SOL    HW132387   1.105   2.505   8.577  0.9641 -1.7570 -0.4578
 6918SOL    HW232388   1.250   2.514   8.583  1.2269 -0.4476 -2.4822
 6919SOL     OW32389   2.926   4.403   5.219  0.4268 -0.2385 -0.1489
 6919SOL    HW132390   2.986   4.412   5.144 -0.2925 -0.7367 -0.7813
 6919SOL    HW232391   2.988   4.441   5.281 -2.0977  2.0774  0.9702
 6920SOL     OW32392   3.303   0.474   4.024 -0.4039 -0.0939 -0.5188
 6920SOL    HW132393   3.266   0.392   3.993  0.4660 -0.9418  0.7000
 6920SOL    HW232394   3.274   0.528   3.950 -0.4271  0.6452  0.0283
 6921SOL     OW32395   0.899   3.197  12.164  0.5601 -0.3072  0.1791
 6921SOL    HW132396   0.958   3.201  12.090  0.0776  2.8404 -0.0433
 6921SOL    HW232397   0.943   3.257  12.224  2.7127 -0.2010 -1.5265
 6922SOL     OW32398   2.834   3.314   3.872  0.2465  0.1151 -0.0789
 6922SOL    HW132399   2.767   3.382   3.885 -1.1589 -1.2597 -0.1078
 6922SOL    HW232400   2.783   3.233   3.875 -1.0545  0.8540 -1.8826
 6923SOL     OW32401   2.569   2.878   2.917 -0.0822 -0.0943 -0.3583
 6923SOL    HW132402   2.528   2.893   2.832 -0.6481  0.1775 -0.0387
 6923SOL    HW232403   2.653   2.846   2.886  0.7470  1.9932 -0.2322
 6924SOL     OW32404   4.303   4.388   2.550 -0.2682 -0.0255  0.1052
 6924SOL    HW132405   4.317   4.454   2.483  0.1354  0.0463  0.2572
 6924SOL    HW232406   4.262   4.326   2.490  1.5521 -0.7502 -0.3905
 6925SOL     OW32407   3.926   1.753   0.738 -0.1474 -0.5027  0.3052
 6925SOL    HW132408   3.845   1.702   0.727 -0.7631  0.2312  1.4291
 6925SOL    HW232409   3.921   1.756   0.834  3.0806 -1.5223  0.4898
 6926SOL     OW32410   2.790   0.521   7.012 -0.3126 -0.0929 -0.1146
 6926SOL    HW132411   2.826   0.565   6.935 -2.0491 -0.3728 -1.0790
 6926SOL    HW232412   2.862   0.499   7.071  0.7825 -4.3836 -3.0964
 6927SOL     OW32413   0.961   1.157   9.003  0.2981 -0.2112 -0.3640
 6927SOL    HW132414   1.026   1.092   9.027 -0.3478 -0.4773  0.6472
 6927SOL    HW232415   0.931   1.183   9.090 -1.7092  1.2729 -1.4909
 6928SOL     OW32416   0.573   3.598   1.517 -0.1834 -0.2946 -0.1541
 6928SOL    HW132417   0.549   3.619   1.426 -1.2118  0.0480  0.1959
 6928SOL    HW232418   0.554   3.504   1.520 -1.7045  0.0143  0.1002
 6929SOL     OW32419   0.325   1.289   3.648  0.0544  0.0950  0.9223
 6929SOL    HW132420   0.249   1.308   3.703  0.6825  1.8134  1.2080
 6929SOL    HW232421   0.339   1.199   3.675 -0.0607  0.5401  2.4470
 6930SOL     OW32422   2.985   0.734   7.791 -0.3800 -0.1953 -0.1306
 6930SOL    HW132423   2.983   0.770   7.880  1.6256 -3.7129  1.3293
 6930SOL    HW232424   3.011   0.642   7.799 -1.6722 -0.4912  0.8671
 6931SOL     OW32425   2.594   3.610   3.435 -0.2488 -0.1600  0.4792
 6931SOL    HW132426   2.621   3.680   3.376 -0.1909 -1.2534 -0.7784
 6931SOL    HW232427   2.624   3.536   3.382  2.0256  0.9019  0.2874
 6932SOL     OW32428   4.430   3.143   2.630  0.2476 -0.5883 -0.2872
 6932SOL    HW132429   4.452   3.194   2.552 -0.6451  1.0475  0.5203
 6932SOL    HW232430   4.342   3.176   2.645  0.0683 -1.5667  0.7681
 6933SOL     OW32431   3.923   4.160   2.968 -0.0138 -0.1811  0.2147
 6933SOL    HW132432   3.833   4.180   2.940 -0.4493 -0.0584  1.7336
 6933SOL    HW232433   3.932   4.070   2.935 -0.4814  0.1758 -0.8973
 6934SOL     OW32434   1.015   4.498   2.414  0.0566 -0.1946  0.3885
 6934SOL    HW132435   0.984   4.449   2.337  2.9550 -0.7983 -0.3835
 6934SOL    HW232436   0.942   4.508   2.476  0.4010  0.6377  0.6528
 6935SOL     OW32437   0.496   1.383  13.825  0.3383 -0.2715 -0.3504
 6935SOL    HW132438   0.564   1.437  13.866  0.8537 -1.1658 -0.0470
 6935SOL    HW232439   0.466   1.442  13.756  0.2162  0.3284  0.2176
 6936SOL     OW32440   0.792   1.653   9.954 -0.3860 -0.5086 -0.5621
 6936SOL    HW132441   0.860   1.601   9.997 -0.2749  0.9589  1.0302
 6936SOL    HW232442   0.823   1.740   9.977  0.7054 -0.6129 -1.6542
 6937SOL     OW32443   1.314   3.200   2.167  0.2275  0.3738  0.1023
 6937SOL    HW132444   1.364   3.136   2.218  0.2965  0.1396 -0.2609
 6937SOL    HW232445   1.387   3.247   2.126  0.8792 -0.9388 -0.2386
 6938SOL     OW32446   1.876   2.952   3.719 -0.0783  0.2271 -0.0471
 6938SOL    HW132447   1.857   2.978   3.628 -1.3259 -1.2356 -0.2111
 6938SOL    HW232448   1.786   2.939   3.747  0.3939 -0.1266  1.2869
 6939SOL     OW32449   2.120   0.230   3.980  0.0768  0.0826 -0.4523
 6939SOL    HW132450   2.105   0.137   3.961  0.5340 -0.1354  0.2710
 6939SOL    HW232451   2.030   0.251   4.002 -0.3070 -1.8118 -0.1704
 6940SOL     OW32452   1.670   1.700   3.056 -0.3239 -0.2384  0.4309
 6940SOL    HW132453   1.599   1.637   3.053  0.5701 -1.2961  1.3524
 6940SOL    HW232454   1.649   1.756   2.982  0.3180 -0.8437 -0.2109
 6941SOL     OW32455   1.319   0.087   4.529  0.5795  0.1342  0.5715
 6941SOL    HW132456   1.372   0.010   4.549  1.8707  0.5330 -1.2741
 6941SOL    HW232457   1.384   0.154   4.508 -0.3321  0.5554 -0.8861
 6942SOL     OW32458   3.416   3.857   8.984  0.0142  0.4848 -0.5070
 6942SOL    HW132459   3.343   3.917   8.995  0.3100  0.7106  0.2151
 6942SOL    HW232460   3.372   3.812   8.911  0.8664  1.7858 -1.8238
 6943SOL     OW32461   0.799   2.232   8.799  0.1549 -0.0371  0.0240
 6943SOL    HW132462   0.836   2.269   8.878 -1.0015  1.0247  0.0656
 6943SOL    HW232463   0.707   2.242   8.822  0.0975  0.7694 -0.5526
 6944SOL     OW32464   4.724   4.462   9.303 -0.3102 -0.0526 -0.0724
 6944SOL    HW132465   4.691   4.550   9.286  2.3065  1.1378  1.1046
 6944SOL    HW232466   4.693   4.404   9.233 -1.7714  1.2444 -0.5083
 6945SOL     OW32467   0.794   1.682   3.335 -0.5602 -0.1394 -0.2273
 6945SOL    HW132468   0.817   1.596   3.372  0.9893 -0.1666 -1.2339
 6945SOL    HW232469   0.745   1.651   3.259 -2.7303  1.5434  0.5047
 6946SOL     OW32470   1.282   2.014  14.434  0.8272  0.7154 -0.5195
 6946SOL    HW132471   1.187   2.017  14.447  0.7899  0.0866 -0.6499
 6946SOL    HW232472   1.316   2.022  14.523  0.1852  0.2354 -0.2329
 6947SOL     OW32473   2.389   2.522   9.315  0.3653 -0.8650 -0.1654
 6947SOL    HW132474   2.485   2.530   9.317  0.1637  0.7265  1.9892
 6947SOL    HW232475   2.380   2.519   9.219 -0.2160 -1.1697 -0.0979
 6948SOL     OW32476   3.793   0.766  12.620  0.5741  0.0301  0.5006
 6948SOL    HW132477   3.747   0.687  12.592  0.2332  0.1412  0.7392
 6948SOL    HW232478   3.860   0.779  12.553 -2.4213  0.5983 -2.4295
 6949SOL     OW32479   3.846   1.777   8.215 -0.0506  0.0045  0.0205
 6949SOL    HW132480   3.940   1.796   8.218 -0.7647  3.4107  0.7018
 6949SOL    HW232481   3.817   1.865   8.192 -0.3964  0.2310  1.3392
 6950SOL     OW32482   2.858   1.382   4.009 -0.5870  0.1196  0.0836
 6950SOL    HW132483   2.931   1.437   4.038 -1.1569  0.3367  1.1261
 6950SOL    HW232484   2.826   1.424   3.929 -1.1923  0.2876  0.4038
 6951SOL     OW32485   3.576   2.452   3.196 -0.0024  0.0410  0.1266
 6951SOL    HW132486   3.648   2.392   3.178 -0.3185 -0.1622 -0.4739
 6951SOL    HW232487   3.589   2.511   3.121 -0.1855 -2.0497 -1.5440
 6952SOL     OW32488   1.353   3.058   6.400 -0.2958  0.5114  0.3439
 6952SOL    HW132489   1.360   2.963   6.389  0.5331  0.5960  0.1478
 6952SOL    HW232490   1.393   3.065   6.487 -0.5845 -1.5450  0.6458
 6953SOL     OW32491   1.716   2.018  14.685  0.2671 -0.1143 -0.1627
 6953SOL    HW132492   1.765   1.944  14.649 -1.4827 -0.6175 -1.4786
 6953SOL    HW232493   1.748   2.042  14.772  0.9210 -1.7794  0.0511
 6954SOL     OW32494   2.337   4.461   6.471 -0.5978  0.2125 -0.2086
 6954SOL    HW132495   2.292   4.545   6.460 -1.3744  0.0203  1.5976
 6954SOL    HW232496   2.429   4.476   6.452 -0.4991  1.9416  1.6991
 6955SOL     OW32497   2.344   1.885   3.807 -0.3040 -0.1117  0.1698
 6955SOL    HW132498   2.429   1.845   3.785 -0.3103 -0.1465  0.2086
 6955SOL    HW232499   2.332   1.850   3.895 -1.1092  2.0424  0.8967
 6956SOL     OW32500   0.065   3.184  16.917 -0.0416 -0.6126 -0.8085
 6956SOL    HW132501   0.067   3.266  16.867 -0.5879  0.5845  1.1615
 6956SOL    HW232502   4.727   3.137  16.886  0.7052 -2.0789 -0.4541
 6957SOL     OW32503   0.026   2.902   3.998  0.2256  0.4905 -0.5135
 6957SOL    HW132504   0.039   2.833   3.934  0.8131 -0.5042  0.6869
 6957SOL    HW232505   0.092   2.970   3.978  0.6553  0.3062  0.3004
 6958SOL     OW32506   1.158   1.115   7.488 -0.2633 -0.2096  0.5339
 6958SOL    HW132507   1.092   1.050   7.466  1.2769 -0.8424 -2.2063
 6958SOL    HW232508   1.102   1.190   7.467  0.1888 -0.0993 -0.3204
 6959SOL     OW32509   1.889   3.733   7.499 -0.1103 -0.3100 -0.0229
 6959SOL    HW132510   1.846   3.651   7.474 -2.6182  0.5543  1.4830
 6959SOL    HW232511   1.958   3.716   7.563 -0.2492  0.7898  0.4037
 6960SOL     OW32512   2.938   1.563   7.373 -0.8216  0.0242  0.2513
 6960SOL    HW132513   2.995   1.624   7.420  0.3656 -1.1006  0.2606
 6960SOL    HW232514   2.884   1.524   7.442  0.6974  0.2700  1.5751
 6961SOL     OW32515   1.164   3.104  10.152  0.4636  0.1129 -0.1048
 6961SOL    HW132516   1.131   3.014  10.146  1.3967 -0.2180 -0.2388
 6961SOL    HW232517   1.255   3.096  10.179  0.6536  2.8603 -0.0098
 6962SOL     OW32518   2.155   4.211   6.197 -0.0387  0.2883 -0.2043
 6962SOL    HW132519   2.243   4.247   6.187 -0.8162  1.8285 -1.5293
 6962SOL    HW232520   2.152   4.168   6.111  1.2826 -0.4059  0.1005
 6963SOL     OW32521   3.120   3.890   8.294  0.1869  0.3614  0.3760
 6963SOL    HW132522   3.042   3.855   8.250 -0.7111  1.4557  1.0986
 6963SOL    HW232523   3.074   3.912   8.376  0.7559  1.1719  0.4707
 6964SOL     OW32524   0.362   1.090   5.651 -0.4972  0.1831  0.2543
 6964SOL    HW132525   0.410   1.084   5.734  1.2813  0.7295 -0.7402
 6964SOL    HW232526   0.279   1.045   5.669 -0.0207 -0.7667  0.0555
 6965SOL     OW32527   1.919   0.187   1.505  0.6331  0.7735  0.0344
 6965SOL    HW132528   1.899   0.181   1.599 -1.1687  1.7571 -0.3078
 6965SOL    HW232529   1.911   0.096   1.478 -2.3182  0.2370  2.7177
 6966SOL     OW32530   1.134   2.780   1.655  0.0387 -0.2506  0.0118
 6966SOL    HW132531   1.138   2.873   1.630 -1.3913 -0.4525 -0.9664
 6966SOL    HW232532   1.209   2.763   1.599  0.7148  0.5276  0.6696
 6967SOL     OW32533   3.609   3.730   5.300 -0.5836  0.1977 -0.4356
 6967SOL    HW132534   3.526   3.777   5.300 -0.4465  0.4378  0.0426
 6967SOL    HW232535   3.648   3.764   5.381  1.8880  1.4223 -2.1262
 6968SOL     OW32536   0.362   1.705   9.872  0.1427  0.6674  0.4773
 6968SOL    HW132537   0.291   1.674   9.815  2.0025 -0.1386 -1.3989
 6968SOL    HW232538   0.369   1.791   9.831  0.3627  1.5757  2.4418
 6969SOL     OW32539   1.429   1.779   3.713 -0.5620  0.3221 -0.3867
 6969SOL    HW132540   1.461   1.746   3.629  0.9053 -0.1340  0.3559
 6969SOL    HW232541   1.336   1.788   3.693 -0.0418  0.1948 -2.8621
 6970SOL     OW32542   0.879   2.023   7.301  0.7415 -0.0472  0.2751
 6970SOL    HW132543   0.938   1.948   7.290 -0.9121 -1.1237 -1.2493
 6970SOL    HW232544   0.854   2.026   7.394  0.9465 -1.5953  0.3815
 6971SOL     OW32545   1.598   4.343   4.577 -0.4370 -0.7220 -0.2880
 6971SOL    HW132546   1.525   4.281   4.588 -1.9570  1.8308  4.2058
 6971SOL    HW232547   1.610   4.348   4.482 -0.9625  1.1624 -0.2520
 6972SOL     OW32548   1.240   0.360   7.946  0.1630  0.5128 -0.1721
 6972SOL    HW132549   1.222   0.454   7.957  0.6797  0.5772  0.1275
 6972SOL    HW232550   1.245   0.350   7.851  2.2758 -1.9619  0.1955
 6973SOL     OW32551   3.833   3.884  12.481 -0.1920 -0.3237 -0.3596
 6973SOL    HW132552   3.812   3.805  12.531  0.1273  1.3632  2.4595
 6973SOL    HW232553   3.775   3.949  12.521  0.3988 -0.3405  0.5263
 6974SOL     OW32554   2.120   1.186  13.929 -0.3704 -0.1855  0.6348
 6974SOL    HW132555   2.156   1.114  13.878  0.4162  1.0858 -0.5839
 6974SOL    HW232556   2.119   1.144  14.015  2.2142 -1.2052  0.1328
 6975SOL     OW32557   4.150   3.387   3.194 -0.2601 -0.3232 -0.0296
 6975SOL    HW132558   4.185   3.464   3.239  1.5401 -1.6797  0.8609
 6975SOL    HW232559   4.058   3.392   3.218 -0.4919  1.3738 -1.2550
 6976SOL     OW32560   4.470   1.865  14.131 -0.3446 -0.4772  0.0225
 6976SOL    HW132561   4.405   1.822  14.076 -0.4181  0.7234 -0.8280
 6976SOL    HW232562   4.487   1.944  14.080 -0.7774 -0.6642 -0.4146
 6977SOL     OW32563   1.253   2.284   0.464  0.0250  0.1425  0.2267
 6977SOL    HW132564   1.268   2.339   0.387  0.6263 -0.0903  0.1744
 6977SOL    HW232565   1.241   2.198   0.425 -0.2327 -0.3760  1.4408
 6978SOL     OW32566   3.632   3.656   7.936 -0.0711 -0.4018 -0.3103
 6978SOL    HW132567   3.608   3.747   7.917  0.9981 -0.2000 -0.6843
 6978SOL    HW232568   3.702   3.640   7.873  1.1406 -0.5593  1.0720
 6979SOL     OW32569   1.156   0.084  15.353 -0.3357 -0.6806 -0.0326
 6979SOL    HW132570   1.159   0.028  15.430 -0.0099  0.6927  0.9560
 6979SOL    HW232571   1.230   0.051  15.302  1.1550 -0.5606  2.0470
 6980SOL     OW32572   1.779   1.138   6.924 -0.5450  0.3241 -0.3364
 6980SOL    HW132573   1.685   1.140   6.946 -0.6562 -0.2236 -0.7676
 6980SOL    HW232574   1.814   1.071   6.983 -0.7448 -1.4796 -2.2831
 6981SOL     OW32575   3.176   2.232   4.138 -0.4469  0.5760  0.3057
 6981SOL    HW132576   3.186   2.310   4.193 -1.0810  0.4268  0.6299
 6981SOL    HW232577   3.220   2.172   4.198 -0.5380 -0.4944 -0.6978
 6982SOL     OW32578   4.257   1.068   7.206  0.0870  0.0512 -0.0758
 6982SOL    HW132579   4.180   1.123   7.221  1.6830  1.7781  1.6338
 6982SOL    HW232580   4.260   1.003   7.276  2.2702 -1.8164 -1.9136
 6983SOL     OW32581   2.745   0.124   2.827  0.0674  0.1925 -0.0194
 6983SOL    HW132582   2.729   0.103   2.735  0.4091 -2.3418  0.5056
 6983SOL    HW232583   2.813   0.189   2.811  1.7270 -1.3646  0.6912
 6984SOL     OW32584   1.356   0.890   8.447 -0.2086 -0.1225  0.2030
 6984SOL    HW132585   1.423   0.946   8.408  0.1709  1.1217  2.6143
 6984SOL    HW232586   1.400   0.878   8.531 -1.2506  1.3467  0.9652
 6985SOL     OW32587   2.228   4.008   6.412 -0.2329 -0.1745 -0.0400
 6985SOL    HW132588   2.171   3.970   6.478 -0.7513 -1.3922 -1.1802
 6985SOL    HW232589   2.313   3.973   6.439 -0.1159 -2.2159 -2.9602
 6986SOL     OW32590   2.616   4.317   9.181 -0.4663 -0.3388 -0.0143
 6986SOL    HW132591   2.695   4.336   9.233 -0.9631  2.5043 -0.2737
 6986SOL    HW232592   2.555   4.336   9.252 -0.5148 -0.0560 -0.1323
 6987SOL     OW32593   0.918   2.733   9.263  0.8012 -0.2293 -0.2731
 6987SOL    HW132594   0.947   2.672   9.196  0.7205 -1.6152  0.9573
 6987SOL    HW232595   0.927   2.819   9.221  1.4476  0.7279  1.7942
 6988SOL     OW32596   4.034   2.378  17.484  0.3353  0.8686  0.2938
 6988SOL    HW132597   4.029   2.283  17.492  3.4494  0.6250 -0.4268
 6988SOL    HW232598   3.942   2.403  17.489  0.2208  0.9945 -2.4078
 6989SOL     OW32599   2.803   1.719   9.116 -0.6474 -0.6597 -0.2823
 6989SOL    HW132600   2.851   1.728   9.034 -0.4003  1.1994  0.0631
 6989SOL    HW232601   2.804   1.624   9.122  4.7965 -0.6084 -0.1426
 6990SOL     OW32602   1.106   2.920   4.569 -0.5336 -0.1476  0.2603
 6990SOL    HW132603   1.196   2.891   4.583 -0.2598  0.3584 -0.4615
 6990SOL    HW232604   1.083   2.947   4.658 -2.5952 -2.7517  0.5289
 6991SOL     OW32605   0.124   2.540  12.675 -0.5505 -0.1517 -0.5425
 6991SOL    HW132606   0.097   2.561  12.764 -0.4393 -0.1534 -0.5085
 6991SOL    HW232607   0.077   2.458  12.665 -0.5628 -0.1194 -0.7612
 6992SOL     OW32608   3.913   0.224   2.246 -0.2123  0.0313 -0.0341
 6992SOL    HW132609   3.915   0.229   2.342 -0.4058  3.4438 -0.1961
 6992SOL    HW232610   3.972   0.150   2.238 -0.1106 -0.0015  0.9429
 6993SOL     OW32611   0.856   0.643   3.398  0.0603 -0.1572 -0.3531
 6993SOL    HW132612   0.841   0.666   3.490  0.2305  1.7732 -0.8042
 6993SOL    HW232613   0.794   0.689   3.342 -1.6754 -0.9648  0.9186
 6994SOL     OW32614   1.499   1.312  17.372 -0.0065 -0.6843  0.2937
 6994SOL    HW132615   1.543   1.375  17.316 -1.6249  0.6299  0.5118
 6994SOL    HW232616   1.476   1.250  17.302 -0.9472 -1.7158  1.5006
 6995SOL     OW32617   0.716   0.415   9.036  0.1263  0.3898  0.3960
 6995SOL    HW132618   0.745   0.449   8.951 -1.5037 -0.8293 -0.6388
 6995SOL    HW232619   0.626   0.447   9.037  0.4734  1.3208  3.7741
 6996SOL     OW32620   0.906   2.090   2.368 -0.2703 -0.4505  0.2761
 6996SOL    HW132621   0.859   2.168   2.396  1.3946  0.8819 -0.6799
 6996SOL    HW232622   0.832   2.031   2.352  0.2957 -1.2872  0.7313
 6997SOL     OW32623   0.766   2.370   2.331  0.3365  0.0757 -0.5480
 6997SOL    HW132624   0.685   2.318   2.335  0.2892  0.2914  1.3766
 6997SOL    HW232625   0.772   2.383   2.236  1.8774  0.5888 -0.3740
 6998SOL     OW32626   1.576   3.118   5.894  0.6113  0.3553 -0.1122
 6998SOL    HW132627   1.621   3.057   5.951 -0.0741 -1.9481 -2.0249
 6998SOL    HW232628   1.639   3.120   5.821  0.8532 -1.1378  0.0737
 6999SOL     OW32629   4.043   0.314  11.701 -0.3441  1.2149 -0.0851
 6999SOL    HW132630   3.988   0.303  11.624  0.5118 -0.3898 -0.4487
 6999SOL    HW232631   4.125   0.295  11.656  0.2215  1.4619  0.8427
 7000SOL     OW32632   2.901   1.102   3.090  0.4799 -0.0445 -0.3151
 7000SOL    HW132633   2.809   1.099   3.117  1.0143 -0.8686  1.4336
 7000SOL    HW232634   2.923   1.013   3.062 -0.5174 -0.1316 -0.8502
 7001SOL     OW32635   3.395   2.011   5.432 -0.1735  0.0289  0.2827
 7001SOL    HW132636   3.351   2.063   5.365  2.0728  0.3994 -0.8987
 7001SOL    HW232637   3.359   2.048   5.512  0.6137  1.2605  0.0596
 7002SOL     OW32638   4.336   4.410  16.244  0.1496 -0.1003  0.1843
 7002SOL    HW132639   4.344   4.426  16.150 -1.2694  0.9720  0.2514
 7002SOL    HW232640   4.367   4.320  16.248  0.0126 -0.1647 -0.3007
 7003SOL     OW32641   4.701   1.093   8.467  0.4549  0.3079  0.1906
 7003SOL    HW132642   0.048   1.107   8.427 -0.2073  0.8309 -1.0103
 7003SOL    HW232643   4.657   1.171   8.434  0.1173 -0.7666 -1.8940
 7004SOL     OW32644   1.012   1.814   2.869 -0.3352  0.8357 -0.0312
 7004SOL    HW132645   0.938   1.818   2.930 -1.1230 -0.2026 -0.9288
 7004SOL    HW232646   0.975   1.857   2.791 -1.2812 -1.2877 -0.7431
 7005SOL     OW32647   0.965   2.426   4.049  0.6557 -0.0894 -0.3821
 7005SOL    HW132648   1.060   2.430   4.043  0.6850 -1.0671 -0.6224
 7005SOL    HW232649   0.953   2.510   4.094 -0.0892 -0.5596  0.3080
 7006SOL     OW32650   0.877   3.138  10.063  0.3737  0.1068 -0.3063
 7006SOL    HW132651   0.949   3.134  10.125 -1.3733 -2.0272  1.5645
 7006SOL    HW232652   0.870   3.232  10.043 -0.7762 -0.0622 -0.7071
 7007SOL     OW32653   3.652   3.810   4.487  0.2990  0.2373  0.1152
 7007SOL    HW132654   3.704   3.751   4.542 -3.4034  0.8480  4.2843
 7007SOL    HW232655   3.699   3.892   4.498  1.6412 -0.3796 -0.9831
 7008SOL     OW32656   0.792   1.839   6.053 -0.2141 -0.3378 -0.1156
 7008SOL    HW132657   0.869   1.891   6.078 -0.5938  2.0262 -3.8560
 7008SOL    HW232658   0.816   1.758   6.098 -1.4016 -1.4422 -1.5030
 7009SOL     OW32659   0.367   3.608  11.947 -0.2282 -0.2054 -0.2422
 7009SOL    HW132660   0.437   3.544  11.936  2.5570  2.5024  1.4759
 7009SOL    HW232661   0.412   3.682  11.989 -1.6095  0.1379  0.6357
 7010SOL     OW32662   0.953   0.398   5.362  0.1808 -0.9688  0.3491
 7010SOL    HW132663   0.907   0.482   5.362  1.9333 -0.0128  3.1406
 7010SOL    HW232664   0.975   0.384   5.270  2.1367 -0.2106  0.7147
 7011SOL     OW32665   2.414   0.418   5.377 -0.7035 -0.3506 -0.1062
 7011SOL    HW132666   2.422   0.323   5.371 -0.6650 -0.4717  1.7121
 7011SOL    HW232667   2.393   0.443   5.288 -0.3231 -2.4181 -0.7798
 7012SOL     OW32668   1.384   3.151   2.785  0.2455 -0.2556 -0.7320
 7012SOL    HW132669   1.321   3.125   2.718  0.6328 -1.5138 -0.6030
 7012SOL    HW232670   1.414   3.236   2.752 -0.6640  0.5752  0.5552
 7013SOL     OW32671   0.970   0.929   4.798  0.1981  0.0111 -0.0278
 7013SOL    HW132672   1.026   0.968   4.866  0.3663  0.2069 -0.2779
 7013SOL    HW232673   1.035   0.896   4.737 -0.3209 -0.5663 -0.2633
 7014SOL     OW32674   1.913   1.575   8.558  0.3263  0.3363 -0.3592
 7014SOL    HW132675   1.852   1.629   8.607  2.4481  0.0102  2.6086
 7014SOL    HW232676   1.893   1.483   8.576 -1.2846  0.9981  1.1926
 7015SOL     OW32677   1.670   0.704  15.551 -0.0797 -0.2936  0.2088
 7015SOL    HW132678   1.636   0.638  15.491 -0.3723 -0.9807  1.1287
 7015SOL    HW232679   1.692   0.767  15.482 -0.0600 -0.3884  0.1283
 7016SOL     OW32680   2.952   1.089   7.557 -0.5281 -0.2477  0.4096
 7016SOL    HW132681   3.032   1.081   7.506 -0.3139 -0.6389  0.8077
 7016SOL    HW232682   2.899   1.112   7.480 -0.2584  0.4899  0.4392
 7017SOL     OW32683   2.048   1.347  15.193 -0.0063 -0.0089  0.4988
 7017SOL    HW132684   2.138   1.361  15.220 -0.2982  0.5636  1.1583
 7017SOL    HW232685   2.019   1.438  15.188 -0.4416 -0.1653  0.1530
 7018SOL     OW32686   1.947   3.149   0.479 -0.1404  0.1672 -0.2913
 7018SOL    HW132687   2.038   3.177   0.464 -0.0367  0.0775  0.1714
 7018SOL    HW232688   1.897   3.218   0.436 -0.4591  0.4821  0.5854
 7019SOL     OW32689   3.372   0.163   2.060 -1.0101 -0.2564  0.0116
 7019SOL    HW132690   3.407   0.086   2.105  1.7665  0.6406 -0.5869
 7019SOL    HW232691   3.336   0.112   1.988  2.9358 -1.5966 -1.0108
 7020SOL     OW32692   2.591   3.230   3.586  0.5690 -0.6488  0.2987
 7020SOL    HW132693   2.631   3.290   3.523 -1.3306  0.2829 -0.0202
 7020SOL    HW232694   2.524   3.286   3.624 -0.4046 -1.0312 -0.8398
 7021SOL     OW32695   1.621   4.696   3.214  0.0351 -0.3445  0.1130
 7021SOL    HW132696   1.649   0.039   3.255 -2.0851  0.6296 -0.3731
 7021SOL    HW232697   1.705   4.656   3.191  0.2570 -0.5766  1.2991
 7022SOL     OW32698   3.345   2.544   5.889 -0.1729 -0.6337 -0.1367
 7022SOL    HW132699   3.273   2.605   5.908  0.8264  0.3900  0.4113
 7022SOL    HW232700   3.371   2.540   5.981  1.1837  0.6541 -0.4647
 7023SOL     OW32701   0.311   0.229   7.644 -0.1649 -0.3858  0.4530
 7023SOL    HW132702   0.228   0.180   7.647 -0.8190  0.9153  3.5574
 7023SOL    HW232703   0.342   0.234   7.735  1.9884 -0.9260 -0.2731
 7024SOL     OW32704   3.939   2.307   4.041  0.9876 -0.8871  0.1188
 7024SOL    HW132705   3.899   2.268   3.964 -0.4449  0.5728  0.1225
 7024SOL    HW232706   3.950   2.235   4.103 -3.1274 -1.2609  0.3848
 7025SOL     OW32707   1.644   3.237  12.152 -0.0315 -0.2583 -0.3214
 7025SOL    HW132708   1.633   3.168  12.086  1.4557 -1.0969  0.3232
 7025SOL    HW232709   1.690   3.188  12.220 -0.1758  0.0456 -0.0067
 7026SOL     OW32710   0.709   1.910   2.314 -0.6420  0.1391 -0.0355
 7026SOL    HW132711   0.623   1.870   2.324 -0.8508  0.5357 -0.2870
 7026SOL    HW232712   0.756   1.854   2.252 -1.3241 -1.2390  0.6932
 7027SOL     OW32713   2.805   1.605   8.164 -0.1112 -0.0250 -0.4784
 7027SOL    HW132714   2.788   1.658   8.241  0.0321 -2.1103  0.9773
 7027SOL    HW232715   2.726   1.552   8.173 -0.2017  0.1440 -0.2905
 7028SOL     OW32716   1.208   1.521  17.344 -0.1260 -0.2513  1.3502
 7028SOL    HW132717   1.140   1.586  17.329  1.3857  0.7776 -1.0023
 7028SOL    HW232718   1.282   1.581  17.334 -1.8638  1.3231 -2.0410
 7029SOL     OW32719   3.560   1.335   4.443  0.4536  0.1565 -0.3351
 7029SOL    HW132720   3.516   1.420   4.449 -1.7680 -0.9373 -1.2108
 7029SOL    HW232721   3.572   1.319   4.536  2.9490 -0.7620 -0.8278
 7030SOL     OW32722   2.326   3.876  16.218  0.3731  0.2800 -0.0051
 7030SOL    HW132723   2.240   3.918  16.217 -0.5514 -1.6167 -0.3516
 7030SOL    HW232724   2.372   3.944  16.169  1.0326  0.3926  0.7820
 7031SOL     OW32725   3.773   4.653   9.934 -0.1113 -0.5022  0.2632
 7031SOL    HW132726   3.824   4.583   9.892  0.4716  0.5373 -0.7717
 7031SOL    HW232727   3.729   4.696   9.861 -1.9471  0.2956  1.8292
 7032SOL     OW32728   0.949   2.269   0.473  0.0214 -0.3304  0.4752
 7032SOL    HW132729   0.938   2.359   0.501 -1.3948 -0.2629 -0.2949
 7032SOL    HW232730   1.028   2.289   0.423  0.9512  1.3737  2.6281
 7033SOL     OW32731   0.077   1.483   5.856 -0.5638  0.2820  0.7188
 7033SOL    HW132732   0.171   1.502   5.863 -0.6614  0.9805  0.1057
 7033SOL    HW232733   0.072   1.409   5.795 -0.3630  0.2329  0.7593
 7034SOL     OW32734   1.968   4.061  10.328  0.6219 -0.7532  0.0291
 7034SOL    HW132735   2.004   4.096  10.410  0.5388 -2.7468  0.9026
 7034SOL    HW232736   1.873   4.067  10.334  0.5049 -4.2106  1.6816
 7035SOL     OW32737   1.719   1.701   8.773  0.5632  0.0493  0.9644
 7035SOL    HW132738   1.626   1.716   8.789  0.4076  1.4650 -1.2308
 7035SOL    HW232739   1.717   1.611   8.806 -1.7013 -0.4160 -0.4251
 7036SOL     OW32740   3.139   4.681   4.280  0.2367  0.5791 -0.2947
 7036SOL    HW132741   3.057   4.637   4.303 -0.2281  1.7787  0.3539
 7036SOL    HW232742   3.196   4.673   4.356 -0.0894  2.4414  0.1497
 7037SOL     OW32743   1.271   4.696   7.192  0.5748 -0.4657  0.3377
 7037SOL    HW132744   1.259   4.627   7.127  0.2631 -0.4988  0.4282
 7037SOL    HW232745   1.366   4.704   7.196  0.6788 -0.3372 -1.9705
 7038SOL     OW32746   4.104   4.692   7.863  0.3696 -0.2743  0.3788
 7038SOL    HW132747   4.177   4.640   7.898  1.4472 -0.6628 -2.4532
 7038SOL    HW232748   4.112   4.683   7.768  0.2118  0.3582  0.3082
 7039SOL     OW32749   2.478   1.619   4.304 -0.2502 -0.3742 -0.0486
 7039SOL    HW132750   2.444   1.531   4.319 -1.9748  0.3903  0.5657
 7039SOL    HW232751   2.563   1.607   4.262  0.2079 -1.3432  1.1646
 7040SOL     OW32752   3.892   4.568  10.221  0.3476 -0.5218  0.1867
 7040SOL    HW132753   3.913   4.627  10.149  4.0098 -0.4566  1.2794
 7040SOL    HW232754   3.918   4.619  10.298  1.4566 -0.5766 -0.1579
 7041SOL     OW32755   3.819   0.664   3.769  0.6684  0.1753  0.2257
 7041SOL    HW132756   3.824   0.600   3.840 -0.4288  1.3163  1.3322
 7041SOL    HW232757   3.901   0.714   3.764  1.0790 -0.7675 -2.5357
 7042SOL     OW32758   0.339   1.544   4.417 -0.5137 -0.1537 -0.1542
 7042SOL    HW132759   0.429   1.576   4.420 -0.5811  0.1603 -1.4059
 7042SOL    HW232760   0.354   1.457   4.454  1.9357  0.0931 -0.6019
 7043SOL     OW32761   2.097   3.877   1.868 -0.1072  0.0543 -0.7301
 7043SOL    HW132762   2.021   3.924   1.835 -1.8859 -2.5834 -0.4503
 7043SOL    HW232763   2.081   3.793   1.826 -1.0540 -0.6802  1.0668
 7044SOL     OW32764   2.326   1.728   1.379 -0.1707 -0.0923 -0.1533
 7044SOL    HW132765   2.256   1.678   1.420  1.4099 -1.1805  1.2259
 7044SOL    HW232766   2.326   1.818   1.414  1.3845 -1.0448  2.2966
 7045SOL     OW32767   3.877   2.692   9.713 -0.2888  0.1611  0.1486
 7045SOL    HW132768   3.819   2.674   9.787 -1.3210  4.0127  0.2862
 7045SOL    HW232769   3.928   2.761   9.755  0.0379  1.3997 -2.3032
 7046SOL     OW32770   2.054   3.291   5.471 -0.0656  0.3554 -0.1188
 7046SOL    HW132771   2.114   3.365   5.486  0.8736 -1.1021  3.3816
 7046SOL    HW232772   1.997   3.284   5.548  0.1974 -1.3099 -0.0951
 7047SOL     OW32773   3.379   2.942  10.320  0.2141 -0.0676 -0.0817
 7047SOL    HW132774   3.324   2.997  10.264  1.8217 -0.3849 -2.0091
 7047SOL    HW232775   3.399   3.004  10.389 -1.5621 -0.2339  0.5827
 7048SOL     OW32776   0.181   3.980  10.695  0.5369  0.2041 -0.1768
 7048SOL    HW132777   0.103   3.973  10.640  1.2183  1.1855 -1.2740
 7048SOL    HW232778   0.200   4.071  10.669  1.9039 -0.4170 -1.3602
 7049SOL     OW32779   0.739   2.499   8.082  0.2741  0.3649 -0.2964
 7049SOL    HW132780   0.710   2.439   8.012 -0.9386  1.4851 -0.7637
 7049SOL    HW232781   0.676   2.570   8.072  1.5198  1.6273  0.8642
 7050SOL     OW32782   0.744   3.237  15.859 -0.1667 -0.0447  0.4586
 7050SOL    HW132783   0.714   3.320  15.820  1.2345  0.1899 -0.1427
 7050SOL    HW232784   0.823   3.224  15.806 -0.3717 -1.0768  0.4110
 7051SOL     OW32785   0.194   2.776  15.254  0.2513 -0.1791 -0.1976
 7051SOL    HW132786   0.224   2.788  15.164  0.8050 -1.4381 -0.1809
 7051SOL    HW232787   0.273   2.794  15.304  1.2733  1.3084 -2.3423
 7052SOL     OW32788   3.658   3.229   8.238 -0.3126 -0.0521 -0.2760
 7052SOL    HW132789   3.699   3.315   8.236 -0.1972 -0.1043 -0.0434
 7052SOL    HW232790   3.737   3.177   8.254  0.3860  1.4098  0.9654
 7053SOL     OW32791   1.249   2.422  17.062 -0.0314  0.4534 -0.1432
 7053SOL    HW132792   1.240   2.502  17.010 -0.0283 -0.0355 -0.8933
 7053SOL    HW232793   1.160   2.399  17.087 -0.2330  2.2936  0.8500
 7054SOL     OW32794   1.783   3.573   8.286 -0.1075  0.4012 -0.2202
 7054SOL    HW132795   1.874   3.601   8.286 -0.1379  0.5147  1.4342
 7054SOL    HW232796   1.785   3.519   8.207 -1.1679  0.9975 -0.6538
 7055SOL     OW32797   2.235   1.843   4.697 -0.4430 -0.2178  0.3511
 7055SOL    HW132798   2.294   1.838   4.622 -1.3759 -0.3349 -0.3783
 7055SOL    HW232799   2.299   1.862   4.766  1.0109 -2.1048 -0.4835
 7056SOL     OW32800   4.049   2.239   6.438 -0.2206  0.2551 -0.3124
 7056SOL    HW132801   4.110   2.313   6.434 -1.6034  1.3188 -1.6070
 7056SOL    HW232802   4.040   2.214   6.347 -1.8840 -1.3395  0.3078
 7057SOL     OW32803   2.862   2.134   6.144 -0.4193  0.0984  0.2978
 7057SOL    HW132804   2.790   2.072   6.158 -1.9391  1.9071  0.5414
 7057SOL    HW232805   2.937   2.087   6.181  0.3971  2.7566  1.9842
 7058SOL     OW32806   0.971   0.135   2.390 -0.3729  0.3678 -0.3486
 7058SOL    HW132807   0.991   0.088   2.471  0.8742  0.5279 -0.5548
 7058SOL    HW232808   0.883   0.100   2.375 -0.4800  0.8583 -0.8513
 7059SOL     OW32809   3.069   1.490   1.830 -0.7573 -0.0323  0.2627
 7059SOL    HW132810   3.121   1.545   1.890 -0.5859  1.0932 -0.9215
 7059SOL    HW232811   3.024   1.434   1.892 -1.8605 -0.6454 -1.1041
 7060SOL     OW32812   2.182   4.258   3.771  0.2062 -0.0536  0.2678
 7060SOL    HW132813   2.159   4.198   3.842  0.0429 -1.1822 -0.7459
 7060SOL    HW232814   2.101   4.277   3.723  1.2814 -2.0907 -2.3486
 7061SOL     OW32815   2.853   2.108   4.227 -0.1696  0.7438  0.4542
 7061SOL    HW132816   2.846   2.015   4.250 -0.7660  0.5591 -0.4567
 7061SOL    HW232817   2.897   2.149   4.302 -0.2437  0.6738  0.5367
 7062SOL     OW32818   2.099   4.370   1.924 -0.3755  1.2000  0.6278
 7062SOL    HW132819   2.116   4.457   1.888  2.0572  0.7467  0.6772
 7062SOL    HW232820   2.025   4.346   1.869 -1.6075  2.3218  1.8102
 7063SOL     OW32821   2.005   2.708   5.457 -0.7136  0.1477 -0.6212
 7063SOL    HW132822   2.051   2.658   5.389 -2.3293  1.0350 -2.3562
 7063SOL    HW232823   2.016   2.798   5.425  0.8489 -0.1502 -0.9595
 7064SOL     OW32824   0.832   4.700  14.198  0.3199  0.5165  0.2709
 7064SOL    HW132825   0.924   4.725  14.192 -0.1225  1.7772 -1.3431
 7064SOL    HW232826   0.824   4.719  14.291 -1.1489  1.2491 -0.0063
 7065SOL     OW32827   2.496   3.946   3.621 -0.4949  0.7432 -0.5112
 7065SOL    HW132828   2.476   4.036   3.647 -1.4038  0.0956  1.0288
 7065SOL    HW232829   2.586   3.940   3.652 -0.4916  1.2224 -0.4289
 7066SOL     OW32830   1.286   3.489   2.875 -0.7022  0.3157 -0.1915
 7066SOL    HW132831   1.348   3.457   2.810  1.0176 -1.3711  2.2747
 7066SOL    HW232832   1.346   3.511   2.946 -0.8976 -2.4408  0.8291
 7067SOL     OW32833   3.373   2.897   8.678  0.1273 -0.2422 -0.2754
 7067SOL    HW132834   3.427   2.824   8.708 -0.0442  0.4601  1.7578
 7067SOL    HW232835   3.423   2.923   8.602 -0.4556  1.5871 -0.0428
 7068SOL     OW32836   3.751   2.281  12.395 -0.6310 -1.0622 -0.2645
 7068SOL    HW132837   3.821   2.216  12.395 -1.3247 -1.8102 -1.0821
 7068SOL    HW232838   3.785   2.360  12.354  2.5128 -2.7152 -0.8125
 7069SOL     OW32839   3.382   1.296   2.505 -0.1460  0.4327  0.8671
 7069SOL    HW132840   3.420   1.228   2.450 -0.2518  1.8176 -0.9454
 7069SOL    HW232841   3.421   1.269   2.588  0.2328  1.3288  0.9860
 7070SOL     OW32842   2.698   0.635   3.058  0.1986 -0.0428  0.4936
 7070SOL    HW132843   2.648   0.633   3.140  0.4498  1.6196  0.6780
 7070SOL    HW232844   2.724   0.543   3.053  3.2124  0.7814  1.0379
 7071SOL     OW32845   0.992   2.772  11.511  0.2277  0.1103 -0.1183
 7071SOL    HW132846   0.900   2.797  11.511  0.1425 -0.1881 -0.7427
 7071SOL    HW232847   1.035   2.846  11.552  2.1882 -0.3022 -1.4300
 7072SOL     OW32848   0.924   1.033   6.070 -0.3261  0.3297  0.3617
 7072SOL    HW132849   0.996   0.970   6.071 -1.1812 -0.6645 -1.6726
 7072SOL    HW232850   0.957   1.118   6.097 -0.8850  1.3657 -2.2479
 7073SOL     OW32851   0.704   1.146   6.758 -0.1177 -0.0962  0.0113
 7073SOL    HW132852   0.767   1.101   6.815 -0.5454 -0.1705  0.4207
 7073SOL    HW232853   0.626   1.098   6.786 -1.3281  0.7478 -1.8738
 7074SOL     OW32854   0.618   2.024  11.277 -0.4109  0.3319 -0.1293
 7074SOL    HW132855   0.545   2.084  11.292 -0.7465 -0.2610  0.6528
 7074SOL    HW232856   0.663   2.031  11.361  1.5212 -0.1208 -1.1234
 7075SOL     OW32857   1.676   0.077  15.912 -0.0146 -0.3512 -0.3902
 7075SOL    HW132858   1.648   0.050  15.999 -0.6355  2.1983  0.2096
 7075SOL    HW232859   1.695   4.729  15.878 -0.2249 -0.5469 -0.0104
 7076SOL     OW32860   2.655   4.261   8.921  0.5792 -0.1170  0.0589
 7076SOL    HW132861   2.621   4.245   9.009 -0.1486  2.8151  0.3099
 7076SOL    HW232862   2.729   4.316   8.947  0.6284  0.2334 -0.7965
 7077SOL     OW32863   2.699   3.406  11.988 -0.4667  0.1158  0.2761
 7077SOL    HW132864   2.777   3.403  12.043 -0.3027  2.4992  0.1890
 7077SOL    HW232865   2.653   3.328  12.017  0.6546 -0.5752  0.1760
 7078SOL     OW32866   0.015   4.077   3.265 -0.0692  0.0685  0.0870
 7078SOL    HW132867   0.047   4.160   3.299 -0.0482  0.7548 -1.6101
 7078SOL    HW232868   0.035   4.017   3.337  3.2887 -0.1722 -1.0203
 7079SOL     OW32869   0.278   1.388   3.358  0.2139  0.2747 -0.2089
 7079SOL    HW132870   0.209   1.440   3.401  0.8638  0.4141  0.6418
 7079SOL    HW232871   0.326   1.350   3.431 -0.5206 -1.1479 -0.4656
 7080SOL     OW32872   0.140   0.882   1.872  0.3414  0.0335  0.5579
 7080SOL    HW132873   0.164   0.811   1.811  1.6858 -1.1029  2.3937
 7080SOL    HW232874   0.062   0.915   1.830  0.9355 -0.3546 -0.8531
 7081SOL     OW32875   0.248   3.164   4.261 -0.2969  0.5314 -0.5750
 7081SOL    HW132876   0.187   3.136   4.329  1.0309  1.0178  0.8147
 7081SOL    HW232877   0.207   3.249   4.249 -0.8949  0.3558  0.1956
 7082SOL     OW32878   1.718   2.882   7.724 -0.4882  0.3422 -0.0136
 7082SOL    HW132879   1.670   2.843   7.651  0.5470  0.0947 -0.5624
 7082SOL    HW232880   1.809   2.858   7.705 -0.2354  3.6696 -3.0759
 7083SOL     OW32881   4.411   0.382   9.926 -0.4300 -0.4030 -0.1843
 7083SOL    HW132882   4.499   0.360   9.958  0.3721 -0.1351 -2.2063
 7083SOL    HW232883   4.425   0.477   9.928  0.2881 -0.5071 -0.0011
 7084SOL     OW32884   2.964   0.076   3.572  0.2120  0.3478 -0.2754
 7084SOL    HW132885   3.030   0.006   3.572 -3.0208 -2.6694 -1.9990
 7084SOL    HW232886   2.887   0.031   3.538  3.1446 -3.7063 -1.5984
 7085SOL     OW32887   3.258   1.633   3.721  0.5913  0.5388  0.2555
 7085SOL    HW132888   3.205   1.667   3.793  0.3981 -2.0679  1.3301
 7085SOL    HW232889   3.342   1.607   3.759  1.2958 -0.6267 -2.0689
 7086SOL     OW32890   3.403   3.577  11.998 -0.3660 -0.0180  0.2028
 7086SOL    HW132891   3.415   3.633  12.074 -1.1411  1.1459 -0.5300
 7086SOL    HW232892   3.488   3.595  11.958 -0.9565 -0.7754 -1.4250
 7087SOL     OW32893   0.975   2.020   5.191 -0.3715 -0.0886 -0.2689
 7087SOL    HW132894   0.994   1.931   5.162  1.4909 -0.1850  1.2248
 7087SOL    HW232895   0.880   2.012   5.183 -0.1544 -0.9761 -1.9494
 7088SOL     OW32896   2.749   1.620  16.866  0.5006 -0.2186 -0.5682
 7088SOL    HW132897   2.779   1.708  16.887 -0.4466  0.1839 -0.9425
 7088SOL    HW232898   2.792   1.581  16.942  2.1978  2.3690 -0.2163
 7089SOL     OW32899   0.271   0.369   1.757  0.0843  0.6584  0.1167
 7089SOL    HW132900   0.367   0.365   1.756  0.0078 -1.7525  1.7979
 7089SOL    HW232901   0.243   0.288   1.715 -0.1693  0.1130  1.3416
 7090SOL     OW32902   0.599   0.094   9.249  0.5960  0.2267 -0.7085
 7090SOL    HW132903   0.607   0.025   9.182  0.9181 -0.9948  0.5915
 7090SOL    HW232904   0.597   0.052   9.335 -0.8223  0.2152 -0.7383
 7091SOL     OW32905   4.397   1.434   7.866 -0.3707  0.0697 -0.1563
 7091SOL    HW132906   4.448   1.406   7.942  0.7141 -1.4870 -1.4835
 7091SOL    HW232907   4.390   1.355   7.813  1.3446 -1.1806  1.4495
 7092SOL     OW32908   1.231   0.306   7.068 -0.1671  0.3192  0.0088
 7092SOL    HW132909   1.200   0.221   7.037  1.4926 -0.1333 -0.4215
 7092SOL    HW232910   1.188   0.364   7.005 -2.1686  0.1755  1.2378
 7093SOL     OW32911   2.107   4.092   3.997 -0.1539 -0.0822 -0.4372
 7093SOL    HW132912   2.185   4.076   4.050 -1.7369 -0.8293  1.6823
 7093SOL    HW232913   2.087   4.001   3.976 -2.6797 -0.0534  1.8852
 7094SOL     OW32914   2.582   2.829   5.382 -0.4009 -0.0863 -0.1750
 7094SOL    HW132915   2.540   2.771   5.319 -0.0859  0.8518 -1.2530
 7094SOL    HW232916   2.552   2.779   5.458  0.2224  0.3833  0.3764
 7095SOL     OW32917   3.559   0.446  15.732 -0.0983 -0.4573  0.3306
 7095SOL    HW132918   3.491   0.506  15.764  0.4951 -0.1305  0.9901
 7095SOL    HW232919   3.637   0.502  15.729 -1.0576  0.7706 -1.9277
 7096SOL     OW32920   3.889   1.762   3.026 -0.0776  0.2123 -0.0370
 7096SOL    HW132921   3.874   1.766   2.932  0.7108 -1.4792 -0.2377
 7096SOL    HW232922   3.963   1.701   3.027  0.3867  0.7785  0.7074
 7097SOL     OW32923   1.748   0.062   0.761  0.5112  0.5089 -0.0004
 7097SOL    HW132924   1.777   0.136   0.814  0.0327 -2.2365  4.1572
 7097SOL    HW232925   1.743   0.105   0.676 -1.0031 -2.4037 -1.3857
 7098SOL     OW32926   1.377   1.314   1.718 -0.4116  0.3871 -0.4409
 7098SOL    HW132927   1.392   1.382   1.652  3.3133  1.4113  1.4989
 7098SOL    HW232928   1.408   1.232   1.679 -0.0423  0.7838 -0.9718
 7099SOL     OW32929   3.785   3.636  12.573  0.0145  0.1248  0.2542
 7099SOL    HW132930   3.728   3.590  12.512  0.6382 -0.7650  0.3317
 7099SOL    HW232931   3.844   3.565  12.601 -0.1037  0.1701  0.6208
 7100SOL     OW32932   4.558   1.206   8.799 -0.2368 -0.2717  0.2232
 7100SOL    HW132933   4.531   1.115   8.812  0.7306 -0.8036 -1.5029
 7100SOL    HW232934   4.620   1.214   8.871  0.6452  1.4272 -0.7008
 7101SOL     OW32935   3.279   3.473   3.738  0.3070 -0.1644 -0.2609
 7101SOL    HW132936   3.318   3.448   3.821  2.8479 -0.6258 -1.6016
 7101SOL    HW232937   3.196   3.425   3.733  0.5701 -0.7943  1.7976
 7102SOL     OW32938   0.943   0.898  10.203  0.4387 -0.6239  0.4448
 7102SOL    HW132939   0.916   0.921  10.292 -0.7833 -0.3791  0.0046
 7102SOL    HW232940   1.037   0.913  10.214  0.5661 -0.5410 -0.7408
 7103SOL     OW32941   0.224   2.874   1.817 -0.1559 -0.4868 -0.4407
 7103SOL    HW132942   0.208   2.946   1.756  1.0637  0.9489  0.9425
 7103SOL    HW232943   0.134   2.867   1.849  0.7716 -1.7356  1.8672
 7104SOL     OW32944   3.158   0.841   7.443 -0.2105  0.3972 -1.0762
 7104SOL    HW132945   3.228   0.815   7.503 -1.2165  0.2234  0.0104
 7104SOL    HW232946   3.186   0.789   7.367  1.0043  0.1832 -0.4857
 7105SOL     OW32947   4.378   3.981   3.015 -0.1952  0.2169 -0.0974
 7105SOL    HW132948   4.356   3.919   3.084  0.4331  0.6062  0.4442
 7105SOL    HW232949   4.448   4.030   3.057  0.4437 -0.3923 -0.4629
 7106SOL     OW32950   3.833   2.396   6.155 -0.3908  0.5509 -0.0751
 7106SOL    HW132951   3.777   2.457   6.107  2.0700  3.1448  0.3102
 7106SOL    HW232952   3.911   2.398   6.100  0.6564  0.2071  1.3806
 7107SOL     OW32953   4.440   4.174  12.155 -0.7863  0.5843  0.7085
 7107SOL    HW132954   4.365   4.215  12.111 -1.7691 -1.4273  0.5023
 7107SOL    HW232955   4.411   4.086  12.179 -2.2256  0.6646 -0.7517
 7108SOL     OW32956   0.932   1.342  12.715 -0.7409 -0.0584 -0.3067
 7108SOL    HW132957   1.022   1.314  12.701 -0.4385  0.5406  0.3915
 7108SOL    HW232958   0.928   1.360  12.809 -0.7890  0.8802 -0.4882
 7109SOL     OW32959   1.755   4.719   7.318 -0.1149  0.0543 -0.4345
 7109SOL    HW132960   1.828   0.007   7.263  0.5833  2.0605  1.4688
 7109SOL    HW232961   1.779   0.032   7.395 -1.2750 -0.6375  0.4042
 7110SOL     OW32962   3.136   2.829  10.503  0.0952  0.2607 -0.1546
 7110SOL    HW132963   3.111   2.766  10.570  1.4780  0.4523  0.5365
 7110SOL    HW232964   3.207   2.784  10.458 -0.6473  0.4241 -1.4916
 7111SOL     OW32965   4.484   2.933   4.649 -0.1994 -0.1448  0.5900
 7111SOL    HW132966   4.553   2.993   4.678  1.0225 -1.2959  0.0418
 7111SOL    HW232967   4.482   2.870   4.720  1.1760  0.3889  1.0937
 7112SOL     OW32968   0.113   2.535   3.658  0.1516 -0.1733 -0.1307
 7112SOL    HW132969   0.089   2.447   3.688  0.1767 -1.0484 -2.7194
 7112SOL    HW232970   0.209   2.531   3.650  0.0205 -0.9416 -1.3120
 7113SOL     OW32971   1.999   2.307   5.848 -0.4182  0.3734  0.2354
 7113SOL    HW132972   1.947   2.249   5.903 -0.0621  0.0576  0.2434
 7113SOL    HW232973   2.087   2.288   5.881 -0.0726  1.1589 -0.2442
 7114SOL     OW32974   1.934   4.610   2.831 -0.3310  0.2019  0.0916
 7114SOL    HW132975   1.891   4.690   2.802  0.7103  0.4242 -0.8261
 7114SOL    HW232976   2.023   4.629   2.801  0.2662 -2.1659  0.3587
 7115SOL     OW32977   3.195   0.593   4.705  0.3501 -0.2822  0.7020
 7115SOL    HW132978   3.221   0.589   4.613 -1.1193  0.4396  0.2665
 7115SOL    HW232979   3.104   0.622   4.701 -0.0358 -1.3880  1.3015
 7116SOL     OW32980   2.260   0.732   5.653  0.0062  0.1146 -0.0222
 7116SOL    HW132981   2.298   0.819   5.642  1.2881 -0.6122 -1.2235
 7116SOL    HW232982   2.330   0.670   5.638  0.3797  0.9190 -1.6296
 7117SOL     OW32983   1.315   2.575   4.474 -0.1905 -0.2428  0.5200
 7117SOL    HW132984   1.285   2.621   4.552 -0.0357  0.6436  0.0605
 7117SOL    HW232985   1.255   2.596   4.402 -0.6419 -0.6659  0.7743
 7118SOL     OW32986   4.493   1.178  13.262 -0.0057  0.2740 -0.3407
 7118SOL    HW132987   4.579   1.146  13.234  0.9621  0.2023  2.7354
 7118SOL    HW232988   4.514   1.190  13.354 -2.8581  2.5937 -0.0018
 7119SOL     OW32989   3.226   1.325  14.576  0.0264  0.1090  0.6646
 7119SOL    HW132990   3.293   1.307  14.510 -1.4314 -0.0641 -0.7825
 7119SOL    HW232991   3.243   1.415  14.605  2.6812 -0.5343  1.0793
 7120SOL     OW32992   2.158   0.677   8.653 -0.0888 -0.0598 -0.5971
 7120SOL    HW132993   2.173   0.702   8.744  0.4926  0.3740 -0.8172
 7120SOL    HW232994   2.236   0.631   8.623  1.6985  2.4242  0.2785
 7121SOL     OW32995   2.932   1.122   3.367  0.1280 -0.2543  0.1035
 7121SOL    HW132996   2.852   1.077   3.395 -0.3850  1.2340  0.9809
 7121SOL    HW232997   2.966   1.152   3.451  3.2495  1.9796 -1.9593
 7122SOL     OW32998   0.784   2.911   5.568  0.1998 -0.3596  0.3128
 7122SOL    HW132999   0.873   2.945   5.581 -0.4914  0.6972  2.4296
 7122SOL    HW233000   0.791   2.837   5.629 -0.3290  0.9699  2.0141
 7123SOL     OW33001   4.679   2.101  11.422 -0.1486  0.0413 -0.3278
 7123SOL    HW133002   4.714   2.157  11.352 -0.4312  0.3445 -0.2284
 7123SOL    HW233003   4.655   2.168  11.486 -0.3666 -0.3965  0.0425
 7124SOL     OW33004   0.926   4.207   5.804 -0.0766 -0.6530 -0.1992
 7124SOL    HW133005   0.901   4.201   5.712 -1.3890  0.7185  0.0634
 7124SOL    HW233006   0.847   4.160   5.832 -1.2313  2.3296  1.5945
 7125SOL     OW33007   0.778   1.225   3.088 -0.0702  0.1930 -0.4203
 7125SOL    HW133008   0.684   1.240   3.079 -0.6652 -1.7583  2.4360
 7125SOL    HW233009   0.783   1.143   3.138 -0.6076 -0.2737 -1.1227
 7126SOL     OW33010   4.581   4.323   8.128  0.4386 -0.6680 -0.3969
 7126SOL    HW133011   4.630   4.391   8.082  0.8482  0.6460  1.9780
 7126SOL    HW233012   4.590   4.345   8.221  2.1901 -0.3539 -0.6385
 7127SOL     OW33013   1.177   0.943  11.508 -0.1263  0.4575  0.2045
 7127SOL    HW133014   1.215   0.906  11.587  0.0319 -2.2410 -1.1182
 7127SOL    HW233015   1.105   0.882  11.495  1.2607 -0.7333 -1.9733
 7128SOL     OW33016   3.834   2.361   3.486 -0.5700 -0.0875  0.1941
 7128SOL    HW133017   3.852   2.422   3.415  2.1103 -2.5184 -1.2119
 7128SOL    HW233018   3.758   2.314   3.453  1.0981 -1.3548 -1.8107
 7129SOL     OW33019   1.473   3.973   1.684  0.7935 -0.3624  0.4419
 7129SOL    HW133020   1.441   3.884   1.692 -0.7653  0.3683  2.3026
 7129SOL    HW233021   1.458   3.997   1.775  0.3332 -2.0206  0.7837
 7130SOL     OW33022   1.783   4.092  15.884 -0.3104 -0.4402  0.4884
 7130SOL    HW133023   1.872   4.056  15.879  0.0873  0.7227 -0.7652
 7130SOL    HW233024   1.727   4.023  15.846  0.4209 -1.3249  1.0177
 7131SOL     OW33025   1.927   4.662   5.900 -0.2009 -0.3089 -0.2852
 7131SOL    HW133026   1.870   4.706   5.838 -1.7738 -1.7320  0.1456
 7131SOL    HW233027   1.932   4.578   5.854  1.3209 -0.2688 -0.1894
 7132SOL     OW33028   2.938   0.172   7.521 -0.1022 -0.0100 -0.5697
 7132SOL    HW133029   2.990   0.095   7.497 -0.7048 -0.7082  0.3763
 7132SOL    HW233030   3.002   0.221   7.572  1.6660 -1.3065 -1.5257
 7133SOL     OW33031   3.192   4.439   5.075  0.3365 -0.1733 -0.4161
 7133SOL    HW133032   3.251   4.423   5.001  1.3252 -1.1924  0.5859
 7133SOL    HW233033   3.136   4.509   5.042  0.1066  0.8000  1.9992
 7134SOL     OW33034   0.322   0.373   3.822  0.0420  0.5784  0.3489
 7134SOL    HW133035   0.397   0.431   3.808  0.5791  0.5006  2.8917
 7134SOL    HW233036   0.362   0.311   3.883 -1.0836 -1.0308 -0.5344
 7135SOL     OW33037   2.215   4.440  16.641 -0.0984 -0.4199 -0.1576
 7135SOL    HW133038   2.219   4.345  16.658  1.5528 -0.3437 -0.1969
 7135SOL    HW233039   2.216   4.432  16.546 -0.4258 -0.5666 -0.1525
 7136SOL     OW33040   3.560   0.942   2.441 -0.2041  0.1598  0.3455
 7136SOL    HW133041   3.501   0.928   2.515  1.3046 -1.7778  1.1712
 7136SOL    HW233042   3.598   0.854   2.437 -2.2936 -0.7084 -0.6642
 7137SOL     OW33043   0.052   0.269   8.274  0.6549  0.3240  0.0181
 7137SOL    HW133044   0.063   0.307   8.362 -1.5875 -0.0500  0.4714
 7137SOL    HW233045   0.004   0.335   8.224 -0.3071  1.6984  2.7646
 7138SOL     OW33046   4.292   2.075   6.605 -0.3768  0.3191  0.1357
 7138SOL    HW133047   4.259   2.064   6.516 -0.4405  0.6301  0.1204
 7138SOL    HW233048   4.227   2.121   6.659 -0.5090  0.1834  0.0938
 7139SOL     OW33049   2.217   2.875   2.703 -0.8497 -0.4303 -0.3662
 7139SOL    HW133050   2.158   2.950   2.694  1.6874  1.3295 -2.1722
 7139SOL    HW233051   2.294   2.931   2.696 -2.0005  1.0046 -1.7015
 7140SOL     OW33052   2.325   2.490   9.060 -0.3777  0.7948  0.6312
 7140SOL    HW133053   2.245   2.445   9.088  0.7666 -1.2243  0.6236
 7140SOL    HW233054   2.342   2.446   8.977 -1.8570 -0.0420  0.7722
 7141SOL     OW33055   0.023   3.033   8.226  0.4746  0.0385  0.3342
 7141SOL    HW133056   0.008   3.027   8.320  1.2090  1.9489  0.5664
 7141SOL    HW233057   4.673   3.038   8.190  0.7531 -0.7380 -0.4738
 7142SOL     OW33058   4.331   2.686   3.181 -0.2563  0.1961 -0.5408
 7142SOL    HW133059   4.379   2.646   3.108 -0.9452 -0.0909 -0.8427
 7142SOL    HW233060   4.383   2.761   3.207  0.1882 -0.2957 -0.0128
 7143SOL     OW33061   1.256   4.475   3.329 -0.0176  0.1163 -0.5498
 7143SOL    HW133062   1.196   4.543   3.297 -0.3631  0.2762  0.4516
 7143SOL    HW233063   1.224   4.401   3.277 -0.0819  0.3173 -0.8027
 7144SOL     OW33064   1.657   4.328   4.321 -0.6329 -0.1015 -0.2697
 7144SOL    HW133065   1.752   4.318   4.332 -0.5763 -0.3313 -0.9440
 7144SOL    HW233066   1.653   4.360   4.231 -3.1731 -0.6015 -0.3178
 7145SOL     OW33067   2.511   4.356   4.067 -0.3448 -0.3925 -0.6421
 7145SOL    HW133068   2.590   4.359   4.013 -0.0564 -1.1809 -0.2651
 7145SOL    HW233069   2.483   4.267   4.045  1.1850 -1.0281  0.0356
 7146SOL     OW33070   1.151   1.766   3.675  0.1091  0.4779  0.5411
 7146SOL    HW133071   1.057   1.784   3.670  0.5467  2.2396 -1.6354
 7146SOL    HW233072   1.191   1.848   3.646  1.0508  0.0987  0.7454
 7147SOL     OW33073   1.432   2.051   0.725  0.2829  0.8078  0.3915
 7147SOL    HW133074   1.453   2.006   0.807  0.0716 -0.7700 -0.4333
 7147SOL    HW233075   1.502   2.024   0.666 -1.0905  0.2594 -0.9703
 7148SOL     OW33076   2.125   2.951  14.968 -0.5560 -0.2012  0.6791
 7148SOL    HW133077   2.067   2.903  14.910 -0.5904  0.1645  0.4092
 7148SOL    HW233078   2.187   2.985  14.903  0.7633 -0.2190  1.9240
 7149SOL     OW33079   3.006   2.188  10.944  0.5715  0.1673 -0.5591
 7149SOL    HW133080   3.060   2.240  11.003 -0.9383  1.3056 -0.1662
 7149SOL    HW233081   3.028   2.221  10.857 -1.1476 -0.9784 -1.4354
 7150SOL     OW33082   0.242   2.297   6.793  0.6771  0.0612  0.4617
 7150SOL    HW133083   0.266   2.374   6.844  0.5155 -0.9764  2.1031
 7150SOL    HW233084   0.301   2.236   6.838  0.3941  1.2061  2.3904
 7151SOL     OW33085   0.159   4.606  12.431  0.5473 -0.3692  0.1102
 7151SOL    HW133086   0.137   4.662  12.506 -0.0514 -1.1980  0.5568
 7151SOL    HW233087   0.214   4.669  12.384  2.4066  0.6153  3.6216
 7152SOL     OW33088   4.611   1.132   2.077  0.0081 -0.3238  0.1199
 7152SOL    HW133089   4.680   1.073   2.107 -1.5082 -0.3804  3.4576
 7152SOL    HW233090   4.570   1.159   2.159  2.2356  2.3700  0.3669
 7153SOL     OW33091   3.105   2.726   7.905 -0.3921  0.1257  0.1361
 7153SOL    HW133092   3.157   2.649   7.881  0.7484  0.5067  1.3671
 7153SOL    HW233093   3.159   2.765   7.974  0.7134 -0.5773 -0.3278
 7154SOL     OW33094   4.366   3.401   9.481  0.7206  0.0101 -0.6279
 7154SOL    HW133095   4.380   3.307   9.470  0.4763 -0.3362  2.0520
 7154SOL    HW233096   4.340   3.411   9.389  1.2879  1.3615 -0.6436
 7155SOL     OW33097   3.722   3.519   2.916 -0.5076 -0.0487  0.9081
 7155SOL    HW133098   3.634   3.496   2.886 -0.1529 -1.1129  0.6544
 7155SOL    HW233099   3.782   3.458   2.873 -0.2694 -0.2535  1.5287
 7156SOL     OW33100   3.389   3.832   4.413  0.2117 -0.0626  0.4171
 7156SOL    HW133101   3.475   3.835   4.456  0.3668  0.5306  0.0694
 7156SOL    HW233102   3.382   3.750   4.365  1.1570  0.9451 -1.4342
 7157SOL     OW33103   4.478   1.797   3.378 -0.0703  0.4102 -0.3265
 7157SOL    HW133104   4.573   1.791   3.376  0.0171  1.8368 -0.6488
 7157SOL    HW233105   4.463   1.884   3.341 -1.4687  0.6903  0.8532
 7158SOL     OW33106   1.023   2.111   1.682 -0.3752  0.6029  0.3211
 7158SOL    HW133107   1.076   2.163   1.621  1.6376 -0.5094  1.1386
 7158SOL    HW233108   1.080   2.093   1.757  0.9296 -0.9925 -1.0644
 7159SOL     OW33109   3.948   1.573   7.342  0.1773 -0.2522  0.1444
 7159SOL    HW133110   3.919   1.641   7.403  0.9045 -1.1587  1.5192
 7159SOL    HW233111   4.029   1.617   7.315  1.0458 -2.0583 -0.2169
 7160SOL     OW33112   2.980   2.463   3.351 -0.4594 -0.0109  0.3522
 7160SOL    HW133113   2.941   2.478   3.437 -0.6295  2.2949 -0.1066
 7160SOL    HW233114   3.042   2.536   3.355  0.7789 -0.9860 -1.1583
 7161SOL     OW33115   0.578   2.686   8.898  0.2038  0.0390 -0.0188
 7161SOL    HW133116   0.561   2.630   8.974 -1.0160 -0.2583 -0.5177
 7161SOL    HW233117   0.584   2.771   8.942 -1.4010 -1.5012  3.2092
 7162SOL     OW33118   0.276   2.958   6.555 -0.2993 -0.1264  0.3445
 7162SOL    HW133119   0.235   2.874   6.579 -2.0479  0.7185  0.3108
 7162SOL    HW233120   0.258   2.952   6.461  1.4728 -2.9148  0.1816
 7163SOL     OW33121   4.277   1.430  17.131  0.3994  0.1761 -0.2748
 7163SOL    HW133122   4.329   1.440  17.051  2.2495 -0.3118  0.8739
 7163SOL    HW233123   4.349   1.446  17.193  1.4118 -1.4825 -1.0257
 7164SOL     OW33124   0.965   3.262   4.022  0.0245  0.0601  0.7361
 7164SOL    HW133125   0.871   3.277   4.026  0.0476  0.4095 -0.2492
 7164SOL    HW233126   0.989   3.326   3.956  0.9009  1.5601  2.5292
 7165SOL     OW33127   4.448   0.800  10.561 -0.2295 -0.1207  0.0719
 7165SOL    HW133128   4.425   0.794  10.468 -0.5023 -1.2225  0.2040
 7165SOL    HW233129   4.427   0.888  10.593 -0.4002 -0.4869  0.9706
 7166SOL     OW33130   3.233   4.595  16.466  0.5710 -0.0538  0.1026
 7166SOL    HW133131   3.190   4.630  16.388 -0.3981  0.8638  1.0541
 7166SOL    HW233132   3.167   4.535  16.500  1.0079  0.5056  1.9098
 7167SOL     OW33133   1.848   3.267   3.293  0.5223 -0.2662  0.0201
 7167SOL    HW133134   1.872   3.248   3.203  1.0854 -0.0776  0.1287
 7167SOL    HW233135   1.884   3.195   3.344  2.9372  0.4508 -0.6729
 7168SOL     OW33136   0.086   1.963  13.545  0.1713  0.2170 -0.0962
 7168SOL    HW133137   0.075   1.905  13.469 -1.1589 -1.3098  1.2682
 7168SOL    HW233138   0.167   2.002  13.512 -0.1993 -0.0157 -1.3112
 7169SOL     OW33139   3.675   1.160   7.212 -0.3267 -0.4334 -0.7690
 7169SOL    HW133140   3.604   1.199   7.161  0.4601 -0.5258 -1.9390
 7169SOL    HW233141   3.723   1.243   7.218 -1.9261  0.4408  0.0623
 7170SOL     OW33142   0.987   2.676   2.144 -0.0965 -0.6551 -0.1843
 7170SOL    HW133143   0.947   2.650   2.061  0.9937  0.0470 -0.9315
 7170SOL    HW233144   0.915   2.705   2.200  0.8884 -0.0672  0.7881
 7171SOL     OW33145   0.003   3.973   1.882  1.1256 -0.3152 -0.1912
 7171SOL    HW133146   0.038   3.903   1.937 -1.5110 -1.5268 -0.0224
 7171SOL    HW233147   4.689   3.925   1.818  0.1668  0.4901  0.0013
 7172SOL     OW33148   2.313   0.321  14.659 -0.5109  0.3053 -0.4496
 7172SOL    HW133149   2.328   0.340  14.752 -0.5081 -2.3724  0.1192
 7172SOL    HW233150   2.361   0.238  14.655 -0.3894  0.4890 -2.5876
 7173SOL     OW33151   3.953   0.447   6.955  0.1177  0.2036  0.3627
 7173SOL    HW133152   4.021   0.382   6.974 -0.7306 -0.8791 -0.3037
 7173SOL    HW233153   3.952   0.466   6.861 -0.0273 -0.1368  0.2939
 7174SOL     OW33154   1.161   2.089  17.255 -0.2912 -1.2043  0.1336
 7174SOL    HW133155   1.086   2.082  17.314 -0.2346  0.7505  0.4345
 7174SOL    HW233156   1.232   2.055  17.310 -0.8777 -0.9635  1.0392
 7175SOL     OW33157   2.954   0.128   1.980  0.4145 -0.4281 -0.1450
 7175SOL    HW133158   2.893   0.064   1.945  1.1886 -0.6486 -1.1047
 7175SOL    HW233159   2.979   0.097   2.067 -1.6625  0.8414  0.9103
 7176SOL     OW33160   1.768   0.448   7.415 -0.3640  0.0927 -0.1871
 7176SOL    HW133161   1.809   0.534   7.418 -0.4275  0.1017  0.4215
 7176SOL    HW233162   1.760   0.431   7.321  0.6364 -0.2410 -0.2116
 7177SOL     OW33163   1.996   2.976   5.680  0.0496  0.1932  0.5150
 7177SOL    HW133164   2.088   2.998   5.693 -0.3371  0.3155  3.0434
 7177SOL    HW233165   2.009   2.889   5.716  0.0865  0.3412  0.8572
 7178SOL     OW33166   0.660   2.993   3.546 -0.4563  0.3031 -0.2335
 7178SOL    HW133167   0.738   2.959   3.500 -1.7786 -2.1574 -0.6851
 7178SOL    HW233168   0.697   2.994   3.634 -0.1660 -0.1793 -0.3465
 7179SOL     OW33169   0.255   4.489   7.051 -0.6511 -0.1278 -0.3252
 7179SOL    HW133170   0.203   4.412   7.074 -1.0709 -0.0369 -0.9773
 7179SOL    HW233171   0.319   4.440   6.999  0.6848 -0.1551  1.3455
 7180SOL     OW33172   4.727   3.497   9.033 -0.2052 -0.5164 -0.5609
 7180SOL    HW133173   4.649   3.448   9.008 -0.6808  0.3765 -0.8016
 7180SOL    HW233174   4.699   3.574   8.984  2.1449  0.3219 -0.5940
 7181SOL     OW33175   0.192   2.781  15.893 -0.2661  0.2371  0.3790
 7181SOL    HW133176   0.261   2.797  15.957 -0.5698 -4.3352  1.8549
 7181SOL    HW233177   0.200   2.870  15.859  0.5446 -0.0884 -0.2597
 7182SOL     OW33178   1.265   3.776   4.733  0.2687 -0.0506  0.5031
 7182SOL    HW133179   1.178   3.817   4.733  0.0274 -0.5611  1.0424
 7182SOL    HW233180   1.268   3.743   4.643 -0.0548  1.7516 -0.1724
 7183SOL     OW33181   3.120   4.479  17.148  0.1554  0.3531  0.5332
 7183SOL    HW133182   3.123   4.400  17.202  1.5868 -0.8064 -1.2299
 7183SOL    HW233183   3.049   4.525  17.194 -1.8780  1.0010 -3.1993
 7184SOL     OW33184   1.330   2.515  14.137  0.2729 -0.0599 -0.3366
 7184SOL    HW133185   1.386   2.535  14.062  0.5293  1.3884  0.2393
 7184SOL    HW233186   1.285   2.448  14.085  1.7229 -1.9394  0.8708
 7185SOL     OW33187   3.315   1.402  14.878  0.8524  0.3423  0.3841
 7185SOL    HW133188   3.323   1.488  14.837 -1.3363  0.7105  0.7254
 7185SOL    HW233189   3.388   1.357  14.834 -0.6672 -2.3205  0.5544
 7186SOL     OW33190   3.398   2.651   5.656  0.1175  0.0294  0.1205
 7186SOL    HW133191   3.371   2.613   5.740  1.4955 -0.8539  0.1608
 7186SOL    HW233192   3.315   2.696   5.638  0.9982  0.9898 -1.5322
 7187SOL     OW33193   1.952   1.394   0.454  0.1554 -0.3134  0.3043
 7187SOL    HW133194   1.860   1.420   0.460 -0.1139 -1.1285 -0.1517
 7187SOL    HW233195   1.973   1.435   0.370 -0.1257 -0.0309  0.3714
 7188SOL     OW33196   3.435   4.349   2.705 -0.2686  0.7118 -0.3238
 7188SOL    HW133197   3.368   4.281   2.694  0.3562  0.0528 -0.0325
 7188SOL    HW233198   3.450   4.350   2.800  1.5926 -1.6291 -0.6215
 7189SOL     OW33199   3.467   4.344   2.975 -0.3248 -0.3714  0.0231
 7189SOL    HW133200   3.424   4.415   3.023  0.6290 -0.4538  0.9876
 7189SOL    HW233201   3.553   4.338   3.016  0.0230 -0.0470 -0.6520
 7190SOL     OW33202   3.893   3.566   5.965  0.0449  0.4427  0.5339
 7190SOL    HW133203   3.931   3.548   5.879  2.3955  0.5348  1.5459
 7190SOL    HW233204   3.871   3.475   5.985  2.7821 -0.5092 -0.8169
 7191SOL     OW33205   0.031   0.444   3.413  0.1880  0.3374  0.0904
 7191SOL    HW133206   0.073   0.453   3.499 -1.3823 -0.4301  0.9334
 7191SOL    HW233207   4.682   0.432   3.449 -0.1658 -0.8684 -1.1973
 7192SOL     OW33208   1.275   3.486   3.575 -0.0426 -0.4559 -0.3304
 7192SOL    HW133209   1.266   3.392   3.558  0.4313 -0.8721  1.8160
 7192SOL    HW233210   1.210   3.501   3.644  1.1363 -2.0709  1.1290
 7193SOL     OW33211   3.589   2.693   9.468 -0.6113 -0.5901 -0.3386
 7193SOL    HW133212   3.615   2.778   9.432  1.9062 -0.4556  1.7398
 7193SOL    HW233213   3.564   2.734   9.550  0.2696  3.3262 -2.0475
 7194SOL     OW33214   3.881   4.545   7.908 -0.4602  0.6793 -0.2670
 7194SOL    HW133215   3.961   4.596   7.897  1.0504 -0.9590  3.2109
 7194SOL    HW233216   3.897   4.494   7.829 -0.5962 -0.0662  0.1907
 7195SOL     OW33217   4.183   1.726   2.916 -0.1670 -0.6507  0.7740
 7195SOL    HW133218   4.188   1.765   2.829 -2.2126 -2.2451 -0.0631
 7195SOL    HW233219   4.208   1.797   2.975  1.0915  0.0238 -0.5721
 7196SOL     OW33220   3.096   3.131  11.831  0.1325 -0.6031  0.0999
 7196SOL    HW133221   3.139   3.089  11.906 -0.3940  0.7266  1.1479
 7196SOL    HW233222   3.013   3.084  11.832 -1.3713  2.0640  0.4066
 7197SOL     OW33223   2.215   1.638   4.418  0.1646  0.0035 -0.7493
 7197SOL    HW133224   2.311   1.637   4.410  0.3179 -0.4662  1.1581
 7197SOL    HW233225   2.211   1.575   4.490 -4.0304  0.5228 -0.5172
 7198SOL     OW33226   0.549   3.405  11.828 -0.3545 -0.2069  0.1682
 7198SOL    HW133227   0.493   3.400  11.750 -0.0865 -1.1940  0.0523
 7198SOL    HW233228   0.569   3.315  11.853 -1.0440 -0.0234  1.3527
 7199SOL     OW33229   1.086   4.004   0.980  0.0891 -0.0014  0.2203
 7199SOL    HW133230   1.108   4.050   0.899 -2.6045  1.0323  0.0601
 7199SOL    HW233231   1.137   4.044   1.051  0.5031  1.0606 -0.6784
 7200SOL     OW33232   2.315   3.806  10.500  0.2228 -0.2707 -0.7190
 7200SOL    HW133233   2.296   3.899  10.488  1.7659 -0.1170 -1.9368
 7200SOL    HW233234   2.392   3.814  10.556  0.4372 -0.2066 -1.0240
 7201SOL     OW33235   2.104   3.513   1.562 -0.0922  0.0730  0.2977
 7201SOL    HW133236   2.033   3.456   1.531  1.1835  0.1003 -2.6495
 7201SOL    HW233237   2.180   3.454   1.564 -0.2016 -0.0471  0.9283
 7202SOL     OW33238   2.934   2.813   4.086 -0.4215  0.1472 -0.1408
 7202SOL    HW133239   3.022   2.792   4.055 -0.0376 -0.0533  1.0780
 7202SOL    HW233240   2.956   2.823   4.178  0.0450 -0.3243 -0.2058
 7203SOL     OW33241   1.901   3.054   7.224  0.2492  0.2095 -0.0643
 7203SOL    HW133242   1.841   3.001   7.276 -1.0364  1.4977 -0.2285
 7203SOL    HW233243   1.973   3.056   7.287  0.1231 -2.8641  0.1630
 7204SOL     OW33244   4.667   3.437   4.624 -0.1141  0.1541 -0.0001
 7204SOL    HW133245   4.582   3.403   4.653 -0.8132  1.7166 -0.2221
 7204SOL    HW233246   4.695   3.383   4.550 -0.3509  0.5244 -0.3537
 7205SOL     OW33247   0.375   1.874   4.610 -0.8564 -0.3055  0.3772
 7205SOL    HW133248   0.282   1.890   4.595 -1.2000 -1.3271  1.4308
 7205SOL    HW233249   0.389   1.909   4.697  0.1733 -0.7995  0.4135
 7206SOL     OW33250   4.425   0.123   0.643  0.4315 -0.2354 -0.0294
 7206SOL    HW133251   4.348   0.095   0.693  0.7338  0.2450  0.7046
 7206SOL    HW233252   4.492   0.116   0.711  3.4000  1.6934 -2.7888
 7207SOL     OW33253   4.275   3.425  13.279  0.6108  0.2212 -0.1974
 7207SOL    HW133254   4.218   3.405  13.205 -0.0714  0.5894  0.2299
 7207SOL    HW233255   4.308   3.514  13.263  0.9379  0.0284 -0.5811
 7208SOL     OW33256   1.031   1.525   6.715 -0.3942 -0.4022 -0.4816
 7208SOL    HW133257   1.099   1.473   6.758  0.7837  2.1729  0.7558
 7208SOL    HW233258   1.002   1.577   6.790 -1.6796 -0.1413 -1.1552
 7209SOL     OW33259   2.711   4.055   6.559  0.2164 -0.2235  0.1522
 7209SOL    HW133260   2.743   3.979   6.512 -1.5826 -1.0531  0.2564
 7209SOL    HW233261   2.723   4.020   6.647  0.3351 -0.6798 -0.0501
 7210SOL     OW33262   2.739   0.654   7.662  0.9581 -0.2299 -0.3133
 7210SOL    HW133263   2.704   0.741   7.642 -0.2709 -0.4337  0.9436
 7210SOL    HW233264   2.820   0.687   7.700  1.2730 -0.3638 -0.8632
 7211SOL     OW33265   0.195   1.888   4.270  0.2663  0.1944 -0.7424
 7211SOL    HW133266   0.151   1.870   4.353  2.8529  1.8621  0.9602
 7211SOL    HW233267   0.232   1.974   4.289  1.5544 -0.5115 -0.1105
 7212SOL     OW33268   0.599   3.745   8.724 -0.4052 -0.3879  0.0466
 7212SOL    HW133269   0.602   3.658   8.764  0.5521 -0.5942 -0.4662
 7212SOL    HW233270   0.629   3.724   8.635  1.0555  0.2289  0.3928
 7213SOL     OW33271   2.400   1.975   1.482  0.0547  0.0072  0.3004
 7213SOL    HW133272   2.481   1.965   1.431 -0.6939  1.0161 -1.0862
 7213SOL    HW233273   2.376   2.066   1.463 -1.3850  0.0523  2.4622
 7214SOL     OW33274   4.654   3.604  11.001  0.6287 -0.1279 -0.0888
 7214SOL    HW133275   4.714   3.676  11.022  0.0333  0.4438 -0.3473
 7214SOL    HW233276   4.678   3.605  10.908 -2.2014  0.4120 -0.8000
 7215SOL     OW33277   1.121   2.538  10.607 -0.6013 -0.1114 -0.6107
 7215SOL    HW133278   1.055   2.591  10.562  1.3815  0.8753 -2.3541
 7215SOL    HW233279   1.184   2.600  10.644 -2.6462  1.2952  0.5263
 7216SOL     OW33280   3.059   3.782   4.435  0.2924 -0.9695 -0.1796
 7216SOL    HW133281   3.008   3.761   4.513  0.1236  0.0810  0.0034
 7216SOL    HW233282   3.149   3.768   4.465  1.0823  2.4490 -0.9477
 7217SOL     OW33283   0.853   0.759   5.041  0.3900 -0.2057  0.0224
 7217SOL    HW133284   0.864   0.802   4.957  1.5893 -0.2088  0.1771
 7217SOL    HW233285   0.934   0.774   5.090  0.0202  0.6707  0.3663
 7218SOL     OW33286   4.209   4.201   6.144  0.1531  0.3813  0.2095
 7218SOL    HW133287   4.247   4.244   6.220 -2.7740 -0.9366  2.4305
 7218SOL    HW233288   4.143   4.154   6.195 -0.5777 -0.3348 -1.4168
 7219SOL     OW33289   4.732   1.116   1.023  0.0458  0.0380  0.1729
 7219SOL    HW133290   4.638   1.130   1.014 -0.3393 -0.7365  2.9219
 7219SOL    HW233291   0.016   1.108   0.930 -0.4852  1.9037 -0.1025
 7220SOL     OW33292   0.731   0.704   6.689  0.2333 -0.2531  0.1919
 7220SOL    HW133293   0.806   0.761   6.705 -1.5426  2.2525 -0.3708
 7220SOL    HW233294   0.764   0.674   6.604  0.4728 -1.1937  0.6142
 7221SOL     OW33295   2.092   2.481   3.451  0.1884 -0.1242  0.1514
 7221SOL    HW133296   2.101   2.551   3.515 -1.5110  1.2950 -1.1853
 7221SOL    HW233297   2.166   2.423   3.474  1.9603  1.7150 -0.9025
 7222SOL     OW33298   1.263   2.298  11.717  0.2470 -0.1545  0.4759
 7222SOL    HW133299   1.183   2.247  11.728  0.1664 -0.3934 -1.1907
 7222SOL    HW233300   1.274   2.332  11.806 -0.1306  3.3961 -0.8270
 7223SOL     OW33301   0.443   4.377   4.512 -0.0163  0.7370 -0.2021
 7223SOL    HW133302   0.483   4.412   4.432  2.1750 -0.6216  0.2780
 7223SOL    HW233303   0.379   4.316   4.477 -1.0252  0.6047  1.8756
 7224SOL     OW33304   0.134   4.144  11.337 -0.3152 -0.5801 -0.5043
 7224SOL    HW133305   0.083   4.216  11.299 -1.8613 -0.5746  1.5361
 7224SOL    HW233306   0.068   4.108  11.396 -0.3142 -0.6584 -0.5515
 7225SOL     OW33307   4.351   2.717   7.961 -0.3646 -0.0063  0.1989
 7225SOL    HW133308   4.343   2.630   7.921  0.9281  0.7092 -1.6375
 7225SOL    HW233309   4.269   2.739   8.004 -0.0399 -0.1191  0.8691
 7226SOL     OW33310   0.698   2.459  13.146  0.5178  0.2733  0.1309
 7226SOL    HW133311   0.605   2.435  13.143 -0.2045  3.0629  0.7870
 7226SOL    HW233312   0.741   2.396  13.203 -2.2999  0.0577  2.0205
 7227SOL     OW33313   1.161   1.464   1.309  0.6513  0.0523  0.6441
 7227SOL    HW133314   1.092   1.527   1.288  0.1206 -0.8567 -0.3549
 7227SOL    HW233315   1.229   1.516   1.351  1.8417 -0.5819 -0.5085
 7228SOL     OW33316   1.328   3.549  10.960  0.2994 -0.3722 -0.7046
 7228SOL    HW133317   1.361   3.566  10.872 -0.9144  1.8518 -0.7278
 7228SOL    HW233318   1.368   3.463  10.977  0.3886  0.0988  1.4594
 7229SOL     OW33319   4.282   4.072   9.511 -0.1530 -0.3606  0.4184
 7229SOL    HW133320   4.302   4.047   9.602  0.3966 -0.8974  0.1462
 7229SOL    HW233321   4.365   4.114   9.489 -0.0776 -1.0496 -0.5738
 7230SOL     OW33322   4.460   1.738  10.113  0.1852 -0.5765 -0.1896
 7230SOL    HW133323   4.392   1.787  10.158 -0.0357 -0.0187 -1.1314
 7230SOL    HW233324   4.530   1.761  10.174  0.5785  0.4522 -1.0249
 7231SOL     OW33325   2.937   3.230  11.328 -0.3205  0.1542 -0.2776
 7231SOL    HW133326   2.946   3.139  11.356  3.1458 -0.0970 -2.1230
 7231SOL    HW233327   2.956   3.278  11.408  2.5379 -0.0660 -0.8050
 7232SOL     OW33328   3.584   0.104  14.206  0.1306  0.9232 -0.3105
 7232SOL    HW133329   3.647   0.171  14.181  0.6298  0.5398 -0.0625
 7232SOL    HW233330   3.562   0.137  14.293  2.3489  1.1514  0.1497
 7233SOL     OW33331   0.855   0.964   5.383 -0.0200 -0.0689 -0.1041
 7233SOL    HW133332   0.920   0.914   5.432 -0.8016 -0.7895  0.1788
 7233SOL    HW233333   0.776   0.911   5.382 -0.6770  0.9349 -1.0844
 7234SOL     OW33334   4.356   0.401   6.199  0.2014 -0.0184 -0.7747
 7234SOL    HW133335   4.280   0.455   6.179 -0.2008 -0.7752 -1.2949
 7234SOL    HW233336   4.411   0.415   6.122  1.2338  1.1794  0.1883
 7235SOL     OW33337   1.953   4.290   3.658  0.1229  0.3969 -0.4786
 7235SOL    HW133338   1.894   4.348   3.706  1.2523  1.0065  0.1694
 7235SOL    HW233339   1.900   4.209   3.660  1.7521 -0.6578  0.1568
 7236SOL     OW33340   2.624   3.476   3.904 -0.5618  0.5822 -0.2062
 7236SOL    HW133341   2.633   3.530   3.983 -0.5251 -0.4538  0.5043
 7236SOL    HW233342   2.647   3.538   3.835  3.0962  0.2108  0.6479
 7237SOL     OW33343   2.708   3.080   6.984 -0.3294 -0.0488 -0.3710
 7237SOL    HW133344   2.709   3.042   6.896  1.0122  0.7106 -0.6828
 7237SOL    HW233345   2.760   3.010   7.024 -1.3296  0.0733  1.0939
 7238SOL     OW33346   3.817   0.315   9.459 -0.0159 -0.1914 -0.1518
 7238SOL    HW133347   3.750   0.287   9.396 -1.2406  3.2369 -0.3880
 7238SOL    HW233348   3.829   0.231   9.502 -0.7186  0.5286  1.4501
 7239SOL     OW33349   3.851   2.307  14.305 -0.3611  0.3317 -0.5733
 7239SOL    HW133350   3.841   2.302  14.400  0.3731  2.3807 -0.3809
 7239SOL    HW233351   3.898   2.223  14.297  1.7247  1.3521  0.9185
 7240SOL     OW33352   0.432   1.822   2.334  0.0557 -0.1860 -0.3417
 7240SOL    HW133353   0.477   1.751   2.288  0.6676 -0.3623  0.5246
 7240SOL    HW233354   0.344   1.789   2.351 -0.1304 -0.3429 -1.5968
 7241SOL     OW33355   1.735   0.055   4.559 -0.2542  0.1342  0.0146
 7241SOL    HW133356   1.764   0.144   4.577  1.0578 -0.0623 -1.1021
 7241SOL    HW233357   1.657   0.049   4.613 -0.6482  1.7396 -0.3878
 7242SOL     OW33358   0.778   0.795   2.023 -0.2207 -0.2360  0.2819
 7242SOL    HW133359   0.789   0.786   2.118  0.3759 -4.6390 -0.2173
 7242SOL    HW233360   0.692   0.760   2.001 -0.0323 -1.2697  1.1889
 7243SOL     OW33361   0.997   0.609   0.790 -0.0132 -0.6396 -0.0272
 7243SOL    HW133362   0.976   0.693   0.750 -0.4421 -0.3106  0.8769
 7243SOL    HW233363   1.088   0.622   0.816 -0.0703 -0.6965  0.2013
 7244SOL     OW33364   1.604   3.620   5.367  0.2652  0.0820 -0.1173
 7244SOL    HW133365   1.596   3.681   5.294  0.1257  1.4851  1.0797
 7244SOL    HW233366   1.544   3.553   5.336  0.0856 -0.9255  2.4190
 7245SOL     OW33367   0.032   3.260   4.418  0.6520  0.3125 -0.0115
 7245SOL    HW133368   0.085   3.197   4.467 -1.4144  0.0769  1.9378
 7245SOL    HW233369   4.692   3.210   4.396 -0.7203  1.9415  1.2070
 7246SOL     OW33370   0.208   0.746   6.348 -0.0082  0.2366  0.4854
 7246SOL    HW133371   0.179   0.702   6.268  0.5090 -2.3677  1.7267
 7246SOL    HW233372   0.300   0.724   6.333 -0.5967 -1.1120 -1.1252
 7247SOL     OW33373   1.542   2.488   9.388 -0.3893 -0.4216 -0.6562
 7247SOL    HW133374   1.531   2.496   9.483  0.8989  2.2580 -0.7297
 7247SOL    HW233375   1.515   2.576   9.361 -1.0062 -0.0099  1.2257
 7248SOL     OW33376   1.111   2.140   8.071  0.2416 -0.7550  0.3058
 7248SOL    HW133377   1.038   2.084   8.045 -1.3374  0.9046  1.1466
 7248SOL    HW233378   1.131   2.093   8.151 -2.0512 -0.5389  0.9975
 7249SOL     OW33379   2.834   1.735  14.254 -0.1334  1.2457  0.3203
 7249SOL    HW133380   2.916   1.730  14.304  0.8890 -0.6990 -1.6065
 7249SOL    HW233381   2.798   1.648  14.266  2.1372  0.1449 -0.7624
 7250SOL     OW33382   2.110   1.329   1.863 -0.0138  0.2436 -0.0781
 7250SOL    HW133383   2.145   1.351   1.777  0.0862 -0.9680 -0.3497
 7250SOL    HW233384   2.035   1.388   1.871 -0.4664 -0.4723  1.0677
 7251SOL     OW33385   4.522   2.829   4.069  0.0892 -0.4685  0.8976
 7251SOL    HW133386   4.601   2.881   4.054 -0.5522  0.1826 -0.1969
 7251SOL    HW233387   4.492   2.850   4.158 -1.2577  1.5424 -0.0255
 7252SOL     OW33388   4.662   1.786   2.362  0.1439  0.0116 -0.1434
 7252SOL    HW133389   4.655   1.857   2.299 -0.3762 -0.2936 -0.4327
 7252SOL    HW233390   4.570   1.761   2.365 -0.2855  1.5709 -0.5274
 7253SOL     OW33391   0.863   3.781   0.756  0.1658  0.4567  0.1130
 7253SOL    HW133392   0.810   3.842   0.706 -1.7388 -3.0419 -2.1306
 7253SOL    HW233393   0.952   3.803   0.726  1.1327 -3.0006  0.4531
 7254SOL     OW33394   4.495   4.010   0.771 -0.4302  0.6518 -0.1958
 7254SOL    HW133395   4.588   4.029   0.776 -0.3282  0.7845 -2.6281
 7254SOL    HW233396   4.483   3.959   0.851 -1.9893  2.6624  0.8581
 7255SOL     OW33397   3.146   3.096  10.398  0.6764  0.0241 -0.4310
 7255SOL    HW133398   3.083   3.081  10.327 -0.4087 -0.2181  0.5999
 7255SOL    HW233399   3.141   3.017  10.451 -1.5357  0.7745  0.4975
 7256SOL     OW33400   2.778   0.674   5.838 -0.3078  0.5781  0.2494
 7256SOL    HW133401   2.751   0.763   5.819 -0.3434  0.0947 -1.9632
 7256SOL    HW233402   2.740   0.621   5.767 -2.3061  0.8339  1.1329
 7257SOL     OW33403   0.719   1.508   4.409 -0.3411  0.0492  0.3390
 7257SOL    HW133404   0.681   1.593   4.386  0.5339 -0.1862 -2.0151
 7257SOL    HW233405   0.676   1.446   4.350 -2.2348 -0.2572  2.0724
 7258SOL     OW33406   1.640   3.488  11.301 -0.3042 -0.0603  0.0440
 7258SOL    HW133407   1.716   3.532  11.338 -1.2714 -0.5417  2.6192
 7258SOL    HW233408   1.599   3.453  11.380  3.2014  0.1281  1.9439
 7259SOL     OW33409   2.379   0.890   5.026 -0.1096 -0.1317  0.0208
 7259SOL    HW133410   2.413   0.813   5.071 -0.8660 -1.7449 -2.2252
 7259SOL    HW233411   2.302   0.905   5.081  0.2468  0.3759  0.3863
 7260SOL     OW33412   0.334   4.216  12.290  0.2612 -0.6421 -0.0658
 7260SOL    HW133413   0.415   4.166  12.277  0.8193  0.4370 -0.6411
 7260SOL    HW233414   0.368   4.305  12.292 -0.7381 -0.3257  2.8099
 7261SOL     OW33415   0.027   3.510   8.371 -0.0585  0.0253  0.5303
 7261SOL    HW133416   0.001   3.600   8.387  0.0955  0.1753 -0.0816
 7261SOL    HW233417   0.122   3.518   8.380  0.0666 -2.4751  1.3971
 7262SOL     OW33418   0.619   0.378  14.802 -0.2887 -0.1072 -0.7791
 7262SOL    HW133419   0.620   0.322  14.724  1.4993 -1.6749  0.3760
 7262SOL    HW233420   0.655   0.463  14.777 -1.9561  0.5710 -0.8751
 7263SOL     OW33421   3.035   3.521   9.559  0.0726 -0.2723 -0.0343
 7263SOL    HW133422   2.940   3.526   9.564  0.0575 -1.8825  1.3496
 7263SOL    HW233423   3.043   3.576   9.481  0.8389 -0.6655 -0.2431
 7264SOL     OW33424   1.381   2.454  16.377  0.3357 -0.7276 -0.2894
 7264SOL    HW133425   1.294   2.490  16.362  0.1868 -1.2056 -0.5722
 7264SOL    HW233426   1.424   2.535  16.350 -2.3109  0.8353  0.2282
 7265SOL     OW33427   3.986   3.046  10.717 -0.0449  0.0010  0.0651
 7265SOL    HW133428   3.954   3.126  10.675 -1.0636  0.4707  1.7040
 7265SOL    HW233429   4.012   2.989  10.645 -0.4593  1.2588 -1.0897
 7266SOL     OW33430   3.211   1.143   0.222 -0.2454 -0.2840 -0.9055
 7266SOL    HW133431   3.301   1.142   0.190  0.5512  1.9869  1.2031
 7266SOL    HW233432   3.203   1.053   0.254  1.1761  0.8162  2.5513
 7267SOL     OW33433   4.495   3.448   0.860 -0.1876 -0.0101  0.4101
 7267SOL    HW133434   4.465   3.444   0.951 -0.1453 -2.4377  0.3408
 7267SOL    HW233435   4.582   3.484   0.875 -0.3449  0.1658  0.8943
 7268SOL     OW33436   0.537   3.120   1.715  0.1488  0.4094  0.6267
 7268SOL    HW133437   0.526   3.142   1.807 -2.9123  0.5618  0.2120
 7268SOL    HW233438   0.601   3.049   1.720 -1.0872 -0.7239  0.3673
 7269SOL     OW33439   4.656   4.129  11.971  0.2275  0.1319 -0.3880
 7269SOL    HW133440   4.730   4.132  12.031 -0.4690 -2.6878  0.6232
 7269SOL    HW233441   4.582   4.163  12.020 -2.8252 -2.9430 -2.8096
 7270SOL     OW33442   4.490   2.232   8.706 -0.2725  0.4845 -0.2280
 7270SOL    HW133443   4.525   2.310   8.750 -0.2939  1.5095 -2.0388
 7270SOL    HW233444   4.441   2.184   8.773  0.1117  1.6796  0.9193
 7271SOL     OW33445   0.161   0.028   9.387  0.0269 -0.3844  0.0077
 7271SOL    HW133446   0.169   4.673   9.371 -1.4611 -0.2880 -1.2757
 7271SOL    HW233447   0.161   0.060   9.297 -2.2721  0.9868  0.5000
 7272SOL     OW33448   3.116   3.461   2.891  0.2511 -1.0001 -0.0919
 7272SOL    HW133449   3.028   3.452   2.854  1.5973 -3.0394 -2.8687
 7272SOL    HW233450   3.166   3.484   2.813  1.8515 -1.5353  0.7901
 7273SOL     OW33451   1.348   0.817   7.122  0.0625 -0.2214 -0.4554
 7273SOL    HW133452   1.332   0.885   7.056  1.6587  0.1676 -0.4428
 7273SOL    HW233453   1.259   0.825   7.155  1.5158  0.4592  3.2109
 7274SOL     OW33454   3.246   2.982   2.426 -0.1513  0.0861  0.0476
 7274SOL    HW133455   3.213   3.052   2.482  1.9262 -0.0607  1.4546
 7274SOL    HW233456   3.318   3.024   2.380 -0.4384  0.9134  0.3624
 7275SOL     OW33457   0.373   3.909   2.198 -0.4315  0.8416  0.4295
 7275SOL    HW133458   0.452   3.888   2.148  0.3684  2.2690  1.0613
 7275SOL    HW233459   0.369   4.002   2.175 -0.1985  0.5223 -0.9194
 7276SOL     OW33460   0.248   3.199   6.726  0.4409 -0.3502 -0.5819
 7276SOL    HW133461   0.300   3.123   6.701  0.4488  0.5024 -3.1540
 7276SOL    HW233462   0.167   3.152   6.747 -0.2424  1.4318  0.8091
 7277SOL     OW33463   4.413   1.951   5.021  0.4204  0.3125 -1.1018
 7277SOL    HW133464   4.437   2.044   5.025  0.9951  0.0703  1.0887
 7277SOL    HW233465   4.494   1.906   5.045 -0.3005 -0.0243  0.7235
 7278SOL     OW33466   2.995   2.464  12.780  0.2325 -0.1298 -0.4783
 7278SOL    HW133467   2.949   2.388  12.815  0.5250 -0.1062 -0.0528
 7278SOL    HW233468   3.040   2.504  12.854  0.1946 -0.3326 -0.3473
 7279SOL     OW33469   4.357   3.901   8.966 -0.5923 -0.4447 -0.3512
 7279SOL    HW133470   4.265   3.881   8.948 -0.4932 -1.3110  0.0632
 7279SOL    HW233471   4.395   3.895   8.878  1.2401 -1.2235  0.4941
 7280SOL     OW33472   1.736   1.021   3.405  0.3546  0.7075  0.1196
 7280SOL    HW133473   1.742   1.029   3.500  4.6345 -1.0075 -0.0178
 7280SOL    HW233474   1.793   1.095   3.382  0.4785  0.4942 -0.2486
 7281SOL     OW33475   2.163   2.675   6.665  0.2838  0.4456 -0.1783
 7281SOL    HW133476   2.238   2.672   6.605  0.1661  0.5724 -0.3333
 7281SOL    HW233477   2.190   2.735   6.735 -0.4104  1.3237 -0.6635
 7282SOL     OW33478   2.466   0.693   7.153 -0.8624 -0.5054  0.1965
 7282SOL    HW133479   2.548   0.732   7.123 -0.0103 -0.7028  2.2567
 7282SOL    HW233480   2.498   0.623   7.209  3.9748  1.2073 -0.4650
 7283SOL     OW33481   2.315   1.835   4.151  0.2182 -0.1562  0.0117
 7283SOL    HW133482   2.230   1.794   4.170  0.9707 -1.1706  1.1803
 7283SOL    HW233483   2.378   1.771   4.183  0.6966 -0.1886 -1.0026
 7284SOL     OW33484   1.760   0.229   5.778  0.5551  0.1582 -0.1888
 7284SOL    HW133485   1.679   0.235   5.727 -0.3387  3.2606  1.5751
 7284SOL    HW233486   1.763   0.314   5.823  1.0263 -0.1606  0.3781
 7285SOL     OW33487   1.776   0.629   4.935 -0.6297  0.0586  0.4361
 7285SOL    HW133488   1.805   0.538   4.947 -0.4957  0.0670  0.1793
 7285SOL    HW233489   1.755   0.633   4.841 -0.7244  0.2659  0.4674
 7286SOL     OW33490   0.042   3.611  14.656 -0.1303  0.4558  0.2597
 7286SOL    HW133491   0.042   3.689  14.711 -0.4645  0.0951  0.7683
 7286SOL    HW233492   0.028   3.550  14.728 -1.1549 -1.0980 -1.2454
 7287SOL     OW33493   1.250   3.036   0.576 -0.2370  0.6018 -0.7844
 7287SOL    HW133494   1.185   2.975   0.541  0.3940 -0.6550  0.2366
 7287SOL    HW233495   1.202   3.117   0.588 -0.3697  0.3913  0.1199
 7288SOL     OW33496   0.464   0.732   6.617 -0.0291  0.0230  0.4648
 7288SOL    HW133497   0.415   0.733   6.699 -0.2682  0.3246  0.3188
 7288SOL    HW233498   0.553   0.732   6.654 -0.9822  0.2899  2.7482
 7289SOL     OW33499   0.776   3.538   4.891 -0.1831 -0.1123  0.0861
 7289SOL    HW133500   0.863   3.539   4.850 -0.2483  0.8866 -0.0283
 7289SOL    HW233501   0.802   3.574   4.976  1.0045 -0.7676 -0.0008
 7290SOL     OW33502   3.498   4.175   4.953 -0.2865  0.3089 -0.1523
 7290SOL    HW133503   3.579   4.141   4.916 -0.0259  1.8940 -1.0465
 7290SOL    HW233504   3.444   4.096   4.948 -1.6379  1.2491 -0.4737
 7291SOL     OW33505   0.968   2.835   6.624 -0.9919 -0.1913 -0.2187
 7291SOL    HW133506   0.874   2.830   6.639 -0.8004 -1.1462  0.6491
 7291SOL    HW233507   1.009   2.805   6.706  0.4051 -0.2063 -0.9137
 7292SOL     OW33508   2.866   3.420  10.384 -0.3437  0.3988  0.0332
 7292SOL    HW133509   2.883   3.398  10.293  0.3551 -1.2151  0.5411
 7292SOL    HW233510   2.802   3.358  10.420  0.4519 -0.8063 -0.6303
 7293SOL     OW33511   2.690   1.253   2.205 -0.2688  0.4021  0.5708
 7293SOL    HW133512   2.782   1.238   2.183 -0.4813  0.6959 -0.5206
 7293SOL    HW233513   2.676   1.344   2.179 -0.0781 -0.0336 -1.0783
 7294SOL     OW33514   1.108   0.800   5.151  0.3408 -0.7545  0.3141
 7294SOL    HW133515   1.160   0.720   5.161  1.4319 -0.0309  0.5202
 7294SOL    HW233516   1.115   0.846   5.235 -0.8658 -0.0414  0.0171
 7295SOL     OW33517   2.744   1.028   4.704 -0.0926 -0.0874  0.3648
 7295SOL    HW133518   2.664   1.026   4.757  0.7082  1.9624  1.6461
 7295SOL    HW233519   2.796   1.079   4.766  2.5691  0.1072 -2.0532
 7296SOL     OW33520   2.563   0.204   8.444 -0.2117  0.5313 -0.2340
 7296SOL    HW133521   2.501   0.249   8.501 -0.3686  1.9700 -1.5560
 7296SOL    HW233522   2.622   0.168   8.510  0.3300  1.4634 -0.2182
 7297SOL     OW33523   2.264   3.299   6.607 -0.5113 -0.5263 -0.1300
 7297SOL    HW133524   2.296   3.346   6.530  2.7022 -0.3447  1.3335
 7297SOL    HW233525   2.343   3.268   6.652 -1.6103 -1.9502  0.8111
 7298SOL     OW33526   1.539   3.100   6.628  0.0410 -0.4381 -0.5347
 7298SOL    HW133527   1.543   3.134   6.718  2.5554 -2.1548 -0.0155
 7298SOL    HW233528   1.608   3.152   6.588 -0.1428  1.7729  1.9852
 7299SOL     OW33529   0.978   1.401   8.796  0.0461 -0.0674  0.4649
 7299SOL    HW133530   1.012   1.312   8.806 -0.4145  0.0483  3.2683
 7299SOL    HW233531   0.955   1.412   8.888 -0.8429  0.0305  0.2223
 7300SOL     OW33532   0.708   0.335   8.124  0.1622  0.0439  0.0178
 7300SOL    HW133533   0.676   0.315   8.212  1.0808  0.7572  0.5110
 7300SOL    HW233534   0.732   0.253   8.080  0.4248 -0.6287  1.4146
 7301SOL     OW33535   1.006   2.641  16.685 -0.2998 -0.2228  0.0164
 7301SOL    HW133536   1.100   2.633  16.702 -0.8471 -1.4972  2.4495
 7301SOL    HW233537   0.982   2.549  16.679  0.8708 -0.3834 -2.2213
 7302SOL     OW33538   1.462   1.398   9.212  0.5121 -0.2811 -0.4707
 7302SOL    HW133539   1.553   1.384   9.187  0.3013 -0.6916 -1.0034
 7302SOL    HW233540   1.468   1.491   9.235 -1.7412 -0.0724 -0.7220
 7303SOL     OW33541   2.587   1.451   8.149 -0.0261 -0.6132  0.1194
 7303SOL    HW133542   2.541   1.488   8.224 -0.5832  0.1550 -0.6014
 7303SOL    HW233543   2.568   1.358   8.161 -1.6912 -0.0603  1.7365
 7304SOL     OW33544   0.301   3.214  12.147 -0.0571  0.4334  0.1740
 7304SOL    HW133545   0.290   3.125  12.116  0.0125  0.6868 -0.5839
 7304SOL    HW233546   0.384   3.207  12.195  0.0563 -0.5918 -0.1835
 7305SOL     OW33547   2.049   3.743   4.234 -0.4686  0.2958  0.8519
 7305SOL    HW133548   2.105   3.673   4.268 -2.0807 -1.5689 -0.3748
 7305SOL    HW233549   2.111   3.805   4.195 -0.1944 -0.7620 -0.4152
 7306SOL     OW33550   1.778   2.800   5.054 -0.4661  0.2424  0.1326
 7306SOL    HW133551   1.847   2.858   5.023  0.5219 -0.4445  1.0793
 7306SOL    HW233552   1.798   2.713   5.020 -2.0530  0.1195 -0.5375
 7307SOL     OW33553   2.603   3.233  12.837  0.0829 -0.0232  0.0100
 7307SOL    HW133554   2.533   3.223  12.900 -0.3422 -0.3661 -0.5132
 7307SOL    HW233555   2.667   3.176  12.880  0.6258 -1.0706 -2.1401
 7308SOL     OW33556   2.386   4.607   2.261 -0.2106 -0.4521  0.0047
 7308SOL    HW133557   2.430   4.688   2.234 -0.3002  0.4859  2.6283
 7308SOL    HW233558   2.362   4.575   2.174  0.6500  0.8952 -0.7272
 7309SOL     OW33559   0.587   2.960   2.097  0.0831  0.2394 -0.0395
 7309SOL    HW133560   0.529   3.036   2.092 -0.0876  0.0202 -1.5407
 7309SOL    HW233561   0.566   2.912   2.016  1.0760  0.2467 -0.2949
 7310SOL     OW33562   2.377   2.835   8.322  0.1271 -0.7442 -0.5324
 7310SOL    HW133563   2.315   2.868   8.387  0.4118 -1.1394 -0.0549
 7310SOL    HW233564   2.440   2.907   8.317 -1.7172  1.0936  2.6950
 7311SOL     OW33565   0.785   1.661  11.313 -0.0483  0.1312 -0.4391
 7311SOL    HW133566   0.858   1.620  11.269  1.2934 -1.1377  2.9448
 7311SOL    HW233567   0.831   1.714  11.379  1.7521 -2.5047  0.4339
 7312SOL     OW33568   0.908   1.749   8.576 -0.0156  0.1352  0.5404
 7312SOL    HW133569   0.862   1.806   8.515 -1.6156 -0.6466  0.9897
 7312SOL    HW233570   0.843   1.748   8.647 -0.2579  3.4495  0.3341
 7313SOL     OW33571   0.228   4.277  10.094  0.5921 -0.2812  0.2568
 7313SOL    HW133572   0.218   4.265  10.189  5.2605 -1.9541  0.5342
 7313SOL    HW233573   0.275   4.359  10.107  0.2212  0.0037 -0.2067
 7314SOL     OW33574   3.686   1.981  11.449 -0.0897  0.5194 -0.0354
 7314SOL    HW133575   3.671   1.925  11.525  1.6108  0.1909  0.0588
 7314SOL    HW233576   3.628   2.052  11.478  1.0775  0.9856  1.1853
 7315SOL     OW33577   4.019   1.269   4.968  0.8248  0.6827  0.3024
 7315SOL    HW133578   3.965   1.323   5.024  2.2598  0.6613  1.7099
 7315SOL    HW233579   3.967   1.269   4.887 -2.3381  1.7067  2.3374
 7316SOL     OW33580   4.327   3.901   5.475  0.4707 -0.1895  0.1081
 7316SOL    HW133581   4.280   3.963   5.420 -0.4437 -0.4230  0.6336
 7316SOL    HW233582   4.353   3.960   5.546  2.0624 -0.2778 -0.3955
 7317SOL     OW33583   0.748   1.568   5.734  0.1641 -0.3341  0.4508
 7317SOL    HW133584   0.728   1.519   5.654  1.0684 -0.4209  0.2738
 7317SOL    HW233585   0.765   1.653   5.692 -2.3142 -0.3206 -0.5295
 7318SOL     OW33586   1.377   0.791   7.887 -0.4264  0.6964  0.4062
 7318SOL    HW133587   1.303   0.731   7.877 -0.8605  1.3535 -0.2878
 7318SOL    HW233588   1.332   0.869   7.856  1.7935  1.4631 -0.9390
 7319SOL     OW33589   0.161   0.077   5.461  0.3665  0.3627  0.4801
 7319SOL    HW133590   0.142   0.074   5.555 -1.5147  0.0004  0.0841
 7319SOL    HW233591   0.255   0.095   5.474  0.5265 -0.5341  0.5840
 7320SOL     OW33592   2.503   2.100   4.483  0.3012  0.2972  0.1745
 7320SOL    HW133593   2.465   2.116   4.570  1.0333  0.0531  0.5379
 7320SOL    HW233594   2.460   2.163   4.425  0.4521 -0.4785 -0.7775
 7321SOL     OW33595   1.603   2.635   6.048 -0.4747  0.2556  0.1077
 7321SOL    HW133596   1.602   2.702   5.979  0.6347  0.3491  0.1944
 7321SOL    HW233597   1.664   2.572   6.011 -1.4691 -1.7396  1.8345
 7322SOL     OW33598   3.964   3.407   6.542 -0.0784 -0.3096 -0.7977
 7322SOL    HW133599   3.945   3.493   6.579 -1.7027 -1.8613  2.0238
 7322SOL    HW233600   3.938   3.417   6.450  1.9664 -0.1064 -1.3410
 7323SOL     OW33601   0.979   0.906   7.450  0.6492  0.4249 -0.2402
 7323SOL    HW133602   1.013   0.878   7.365  1.2803 -1.3224  0.5987
 7323SOL    HW233603   0.948   0.822   7.485  2.6594 -0.1079  0.2168
 7324SOL     OW33604   3.348   1.065   4.934  0.0940 -0.3504 -0.1790
 7324SOL    HW133605   3.364   0.996   4.998  1.3848 -1.5298 -1.7679
 7324SOL    HW233606   3.416   1.123   4.971  1.2756 -0.1993 -2.5924
 7325SOL     OW33607   0.780   4.707  13.350 -0.3380  0.0404  0.1660
 7325SOL    HW133608   0.689   4.683  13.332 -0.9984  2.2605  0.4645
 7325SOL    HW233609   0.810   4.706  13.260 -1.5675  0.1096 -0.2520
 7326SOL     OW33610   1.503   3.750   8.215  0.4025 -0.0037 -0.0711
 7326SOL    HW133611   1.417   3.739   8.176  0.3893 -0.9084  0.2098
 7326SOL    HW233612   1.558   3.686   8.169  1.4863  0.6045  0.3903
 7327SOL     OW33613   0.371   2.432  12.792 -0.3457  0.6712  0.1113
 7327SOL    HW133614   0.306   2.482  12.743  1.0712  1.0132 -1.4293
 7327SOL    HW233615   0.454   2.477  12.774  0.7560 -1.5694 -0.3512
 7328SOL     OW33616   4.075   4.723   2.519  0.1633  0.7113  0.6533
 7328SOL    HW133617   4.045   4.633   2.526  1.2909  0.2345 -0.7063
 7328SOL    HW233618   3.992   0.032   2.524  0.4701  1.0229  2.7085
 7329SOL     OW33619   4.321   3.814   3.245 -0.0953 -0.1096 -0.0429
 7329SOL    HW133620   4.248   3.755   3.262 -2.1111  2.2348 -0.4667
 7329SOL    HW233621   4.382   3.776   3.308 -1.6321 -0.5778  1.1430
 7330SOL     OW33622   2.539   1.784   3.394 -0.1349  0.4394 -0.6070
 7330SOL    HW133623   2.538   1.776   3.489 -2.3095 -2.3415 -0.8502
 7330SOL    HW233624   2.590   1.706   3.373  0.5973  1.4230 -2.5100
 7331SOL     OW33625   0.127   0.617   1.400  0.5302  0.4241  0.4003
 7331SOL    HW133626   0.218   0.647   1.409 -0.2427  2.5097  1.4076
 7331SOL    HW233627   0.132   0.526   1.372 -0.9243 -0.0457  1.6776
 7332SOL     OW33628   2.329   4.620   1.376  0.2896  0.1318  0.5118
 7332SOL    HW133629   2.257   4.571   1.415  0.6367  0.9607  2.1841
 7332SOL    HW233630   2.283   4.703   1.367 -0.9768 -0.6480 -0.0923
 7333SOL     OW33631   0.791   2.604   1.951 -0.3717 -0.2948  0.5726
 7333SOL    HW133632   0.771   2.697   1.941 -0.3334 -0.7624 -3.7727
 7333SOL    HW233633   0.797   2.576   1.860 -0.3445 -1.4215  0.9256
 7334SOL     OW33634   0.116   4.645   7.329  0.0312 -0.0321  0.1287
 7334SOL    HW133635   0.141   4.577   7.266 -0.1580  0.4509 -0.4734
 7334SOL    HW233636   0.025   4.668   7.311  0.0249 -1.2925 -1.5070
 7335SOL     OW33637   4.537   0.199   0.879 -0.3996 -0.1680 -0.2746
 7335SOL    HW133638   4.486   0.275   0.905 -0.9858 -0.0981 -1.6019
 7335SOL    HW233639   4.621   0.220   0.920 -0.7442  0.9230 -0.1212
 7336SOL     OW33640   1.962   0.861   8.622  0.4167 -0.7043  0.2049
 7336SOL    HW133641   2.023   0.929   8.593 -0.1871 -0.7559 -1.1844
 7336SOL    HW233642   2.017   0.784   8.605  1.4710 -0.1029  0.8657
 7337SOL     OW33643   1.600   3.792   7.086  0.8227 -0.3999  0.4515
 7337SOL    HW133644   1.522   3.842   7.109 -0.2513 -1.4638 -0.8796
 7337SOL    HW233645   1.642   3.838   7.014 -0.3892 -1.7852 -1.1256
 7338SOL     OW33646   3.420   3.683   2.277 -0.2098  0.0666  0.2395
 7338SOL    HW133647   3.325   3.697   2.271 -0.4115 -1.5288 -0.3096
 7338SOL    HW233648   3.439   3.707   2.186 -0.1459  0.5431  0.3827
 7339SOL     OW33649   3.377   4.422   4.864  0.0324 -0.1785  0.3174
 7339SOL    HW133650   3.418   4.346   4.905  0.6462  0.3766  0.7158
 7339SOL    HW233651   3.452   4.460   4.819 -0.0708  2.0979  2.0849
 7340SOL     OW33652   2.953   3.707   4.688 -0.3436 -0.4609  0.4429
 7340SOL    HW133653   2.891   3.637   4.671  0.9265 -2.3787  3.6154
 7340SOL    HW233654   2.900   3.786   4.699  0.9751  0.7863 -2.3388
 7341SOL     OW33655   0.725   0.936  16.736  0.3132  0.0845  0.8225
 7341SOL    HW133656   0.794   1.002  16.723 -2.3330  2.5350 -0.8663
 7341SOL    HW233657   0.664   0.972  16.672  0.2902 -0.2683  0.6467
 7342SOL     OW33658   2.304   2.544   5.371 -0.1423 -0.2401 -0.8980
 7342SOL    HW133659   2.320   2.609   5.302  2.4428 -0.1253 -0.1948
 7342SOL    HW233660   2.262   2.475   5.320 -0.7478  1.1101 -2.2573
 7343SOL     OW33661   0.052   1.026   8.725 -0.2843  0.5064 -0.7683
 7343SOL    HW133662   0.027   1.064   8.641 -1.5097  0.9484 -0.2101
 7343SOL    HW233663   0.093   1.099   8.771  0.5088  0.2881 -1.1274
 7344SOL     OW33664   3.795   1.893  16.717 -0.2758  0.0683  0.4433
 7344SOL    HW133665   3.740   1.860  16.789 -1.0165 -1.4499 -0.8212
 7344SOL    HW233666   3.803   1.984  16.746 -0.4464 -0.1217  1.0987
 7345SOL     OW33667   0.379   0.970  14.856 -0.4148  0.0848  0.2864
 7345SOL    HW133668   0.405   0.921  14.778 -0.3105  2.6641 -1.2945
 7345SOL    HW233669   0.293   0.930  14.859 -0.8190  0.9021 -0.3218
 7346SOL     OW33670   4.476   2.677  13.344 -0.6880  0.3983  0.0366
 7346SOL    HW133671   4.466   2.771  13.363 -0.0170  0.5766 -0.5098
 7346SOL    HW233672   4.386   2.656  13.319 -0.7942  0.9418 -0.0483
 7347SOL     OW33673   0.051   4.535   2.658 -0.0523 -0.2905  0.1214
 7347SOL    HW133674   0.006   4.614   2.688  1.8939  0.7628  0.3264
 7347SOL    HW233675   0.144   4.561   2.655 -0.7093  2.3496  1.8009
 7348SOL     OW33676   2.354   0.422   2.341 -0.0096 -0.1169 -0.9729
 7348SOL    HW133677   2.389   0.339   2.374  1.0836  0.1655 -1.4254
 7348SOL    HW233678   2.263   0.396   2.325 -0.6365  1.5372 -0.0630
 7349SOL     OW33679   1.770   2.975   2.678 -0.1391  0.3648  0.5419
 7349SOL    HW133680   1.756   3.016   2.593 -0.0636 -0.6795  0.0288
 7349SOL    HW233681   1.852   3.018   2.702  0.0772 -0.7249  1.7693
 7350SOL     OW33682   2.280   2.232   3.301  0.0708 -0.3308  0.0401
 7350SOL    HW133683   2.300   2.191   3.385 -0.9087 -3.1123 -1.0793
 7350SOL    HW233684   2.339   2.307   3.309  2.4860 -2.2431 -0.1559
 7351SOL     OW33685   1.698   2.752   5.780 -0.0274 -0.3559  0.2726
 7351SOL    HW133686   1.677   2.842   5.804  2.9069  1.0195 -2.4521
 7351SOL    HW233687   1.631   2.743   5.712 -1.6597  0.4176  1.7699
 7352SOL     OW33688   1.252   0.445  11.786  0.1697  0.0144 -0.5926
 7352SOL    HW133689   1.308   0.517  11.813  2.0109 -0.2335 -3.7663
 7352SOL    HW233690   1.240   0.391  11.864  1.8738  0.3315 -0.1076
 7353SOL     OW33691   2.269   3.971   5.149 -0.0670  0.0156  0.4007
 7353SOL    HW133692   2.287   4.064   5.134 -4.6127  0.6889 -0.7852
 7353SOL    HW233693   2.183   3.967   5.109 -0.3060 -1.9273  1.1278
 7354SOL     OW33694   3.359   0.580  12.270 -0.3715 -0.1389  0.6281
 7354SOL    HW133695   3.440   0.529  12.273  1.0052  1.9299 -1.8792
 7354SOL    HW233696   3.297   0.509  12.254 -0.7696  0.6296 -1.2087
 7355SOL     OW33697   1.686   3.917   7.523  0.3427 -0.0380 -0.0738
 7355SOL    HW133698   1.733   3.996   7.547 -2.0253  1.1305  0.7039
 7355SOL    HW233699   1.754   3.850   7.522 -1.1067 -1.5507  3.2253
 7356SOL     OW33700   0.898   1.738   2.164  0.1511 -0.0789  0.0441
 7356SOL    HW133701   0.930   1.669   2.221 -0.9291 -0.3123  0.3610
 7356SOL    HW233702   0.975   1.789   2.138 -1.3133  1.8146 -0.5617
 7357SOL     OW33703   2.402   1.968   2.125  0.4562  0.1868 -0.0721
 7357SOL    HW133704   2.318   2.015   2.127 -0.2441 -1.0700  0.2654
 7357SOL    HW233705   2.420   1.981   2.218 -2.5010  1.6107  0.3129
 7358SOL     OW33706   2.745   0.825   7.056 -0.3245  0.4310 -0.0469
 7358SOL    HW133707   2.804   0.783   6.994 -1.1510 -2.1716  0.9226
 7358SOL    HW233708   2.782   0.803   7.142 -0.2971  2.6234  0.4905
 7359SOL     OW33709   4.128   1.446   7.770 -0.1354  0.2699  0.0943
 7359SOL    HW133710   4.093   1.534   7.758  0.5276  0.7150  1.4191
 7359SOL    HW233711   4.104   1.414   7.683  0.4373  0.4207 -0.1154
 7360SOL     OW33712   4.219   1.957   0.965 -0.1917 -0.5380  0.1905
 7360SOL    HW133713   4.182   1.996   1.044  1.4761  1.3846  0.0182
 7360SOL    HW233714   4.141   1.955   0.910 -0.7428  0.4487  0.9557
 7361SOL     OW33715   0.109   2.332   6.535 -0.0817  0.2122 -0.0781
 7361SOL    HW133716   0.152   2.281   6.604 -1.7943 -0.2371  0.6427
 7361SOL    HW233717   0.173   2.317   6.464  0.4266  2.3837 -0.0767
 7362SOL     OW33718   2.799   2.625   8.822 -0.3047 -0.5079 -0.7082
 7362SOL    HW133719   2.838   2.702   8.783 -1.5092 -0.2713 -1.4557
 7362SOL    HW233720   2.789   2.646   8.915  1.1930 -0.8947 -0.4641
 7363SOL     OW33721   1.558   1.408  17.598  0.4888 -0.2922 -0.8073
 7363SOL    HW133722   1.640   1.411  17.548  0.0831 -0.3251 -1.4747
 7363SOL    HW233723   1.508   1.385  17.520  0.5025 -2.3092 -0.2280
 7364SOL     OW33724   1.428   4.091   2.241 -0.3572  0.6471  0.0115
 7364SOL    HW133725   1.434   4.095   2.146  3.2390 -0.3926  0.2205
 7364SOL    HW233726   1.354   4.150   2.257  1.1031  2.5822 -0.4142
 7365SOL     OW33727   4.635   4.685   2.225 -0.4158  0.0648 -0.2091
 7365SOL    HW133728   4.727   4.694   2.253 -0.5566 -0.5117  0.4348
 7365SOL    HW233729   4.599   4.738   2.296 -1.9151 -0.6363 -0.4499
 7366SOL     OW33730   2.000   2.386   8.583  0.4572  0.2085  0.1035
 7366SOL    HW133731   1.966   2.470   8.614 -1.6105 -0.0727 -1.4213
 7366SOL    HW233732   2.089   2.389   8.618  0.1059  1.3496  0.9300
 7367SOL     OW33733   3.808   4.680   2.772  0.5297 -0.4739 -0.2805
 7367SOL    HW133734   3.877   0.007   2.783  0.9115 -1.0088  0.5577
 7367SOL    HW233735   3.846   4.628   2.701  0.6617 -2.1247  1.0129
 7368SOL     OW33736   1.307   0.875  11.760 -0.5328  0.1627 -0.3476
 7368SOL    HW133737   1.337   0.801  11.814 -0.5991 -0.2386 -0.8603
 7368SOL    HW233738   1.295   0.947  11.822 -2.2816  0.0183 -0.5023
 7369SOL     OW33739   3.647   1.164   7.809 -0.2318  0.1506  0.2825
 7369SOL    HW133740   3.567   1.134   7.766 -1.6941  1.7142  1.8959
 7369SOL    HW233741   3.639   1.259   7.808 -2.6375 -0.0624  0.2775
 7370SOL     OW33742   1.654   1.479   5.888 -0.1449 -0.3037  0.0928
 7370SOL    HW133743   1.630   1.568   5.862  0.4096  0.3216  1.7437
 7370SOL    HW233744   1.636   1.425   5.811  0.0132  0.4430 -0.4737
 7371SOL     OW33745   2.920   3.480  17.242 -0.1361 -0.0530  0.2605
 7371SOL    HW133746   2.951   3.508  17.155  1.0385  0.1598  0.7518
 7371SOL    HW233747   2.868   3.401  17.228  0.2444 -0.4624  1.1308
 7372SOL     OW33748   3.944   1.978   5.958 -0.8011  0.4342  0.3229
 7372SOL    HW133749   3.867   1.980   5.901  0.1696 -1.2307 -1.0639
 7372SOL    HW233750   3.956   1.886   5.979  0.8933  0.1511 -1.8860
 7373SOL     OW33751   4.301   1.095  15.225  0.1039 -0.2714  0.4633
 7373SOL    HW133752   4.269   1.027  15.284  0.7856 -1.6140 -0.6922
 7373SOL    HW233753   4.396   1.096  15.233  0.1202 -3.8070  0.7986
 7374SOL     OW33754   3.659   3.213  15.832 -0.2578 -0.0379 -0.1284
 7374SOL    HW133755   3.631   3.272  15.762 -1.1287 -2.0947 -1.5035
 7374SOL    HW233756   3.654   3.133  15.779 -0.7519  0.4241 -0.7729
 7375SOL     OW33757   0.346   0.017  11.106  0.3196 -0.5303 -0.2521
 7375SOL    HW133758   0.334   0.110  11.087 -1.8092 -0.3660  1.9196
 7375SOL    HW233759   0.440   4.736  11.107  0.9705  2.2877 -2.3608
 7376SOL     OW33760   0.035   3.734   9.511 -0.1732  0.2814  0.3245
 7376SOL    HW133761   4.738   3.647   9.493  1.1870 -0.0425 -0.9088
 7376SOL    HW233762   0.126   3.728   9.480  0.1558 -0.2369  1.4002
 7377SOL     OW33763   2.509   1.553   9.054  0.7086  0.1385  0.5272
 7377SOL    HW133764   2.487   1.598   9.136 -0.3180 -0.7461  0.7317
 7377SOL    HW233765   2.488   1.613   8.983  2.2163  1.1345  0.9155
 7378SOL     OW33766   1.819   1.499   6.502  0.4393  0.0504  0.6629
 7378SOL    HW133767   1.805   1.442   6.577  1.2739  0.7288  1.3419
 7378SOL    HW233768   1.729   1.510   6.471  0.4786  0.5190  0.7091
 7379SOL     OW33769   3.055   0.224  10.174  0.2249 -0.3029  0.6029
 7379SOL    HW133770   3.136   0.249  10.129 -0.3798 -1.8521 -1.3706
 7379SOL    HW233771   3.098   0.194  10.254  0.6416  3.0139  1.6297
 7380SOL     OW33772   0.529   4.025  10.470 -0.3081  0.2587 -0.5128
 7380SOL    HW133773   0.578   4.044  10.390 -0.9921  0.7905 -0.8041
 7380SOL    HW233774   0.441   4.029  10.433 -0.4506  1.0087 -0.0985
 7381SOL     OW33775   2.179   3.874   8.454  0.6513 -0.4294  0.0405
 7381SOL    HW133776   2.203   3.931   8.527  0.4376 -0.3955  0.0829
 7381SOL    HW233777   2.267   3.847   8.426  1.8160  0.2246  3.0496
 7382SOL     OW33778   1.567   4.007  13.152  0.2614 -0.5060 -0.0819
 7382SOL    HW133779   1.628   4.080  13.167 -2.9790  2.1802  0.0701
 7382SOL    HW233780   1.611   3.936  13.199  1.0068 -0.1772 -0.2793
 7383SOL     OW33781   1.715   4.129   6.721  0.3955 -0.0715  0.6110
 7383SOL    HW133782   1.716   4.212   6.768  2.1400 -0.6311  1.5781
 7383SOL    HW233783   1.699   4.161   6.632  0.3118  0.4046  0.8001
 7384SOL     OW33784   2.946   4.686   5.592  0.4795  0.2078  0.0649
 7384SOL    HW133785   3.005   4.651   5.525  1.4858  0.1704  0.9660
 7384SOL    HW233786   2.864   4.644   5.567  1.3411 -2.4087  1.5818
 7385SOL     OW33787   2.283   3.231   8.587 -0.2459 -0.0413 -0.0275
 7385SOL    HW133788   2.310   3.320   8.566 -0.2976  0.1043  0.5198
 7385SOL    HW233789   2.203   3.247   8.638  0.1975  0.7539  0.4183
 7386SOL     OW33790   0.098   0.131   2.823 -0.0543  0.1902 -0.4840
 7386SOL    HW133791   0.152   0.169   2.754 -0.0766  0.1997 -0.4963
 7386SOL    HW233792   0.114   0.191   2.896  0.0573 -1.6939  1.0085
 7387SOL     OW33793   1.523   1.239   6.929  0.2279  0.7819 -0.2334
 7387SOL    HW133794   1.474   1.238   6.847  0.3496  0.3765 -0.2983
 7387SOL    HW233795   1.477   1.299   6.988  0.7780 -0.3326  1.3183
 7388SOL     OW33796   4.217   2.933   3.147  0.1321 -0.1096  0.7431
 7388SOL    HW133797   4.124   2.925   3.169 -0.2167 -1.8684 -1.3412
 7388SOL    HW233798   4.238   2.842   3.169 -1.6788 -0.6908  0.1444
 7389SOL     OW33799   2.679   1.767   8.699  0.2143 -0.3413 -0.3476
 7389SOL    HW133800   2.743   1.700   8.723  0.3111 -0.2280 -0.2855
 7389SOL    HW233801   2.593   1.733   8.721  0.3849 -0.1604  0.6044
 7390SOL     OW33802   1.502   3.934   3.126 -0.2896  0.1185  0.1546
 7390SOL    HW133803   1.477   3.899   3.041 -1.0660  2.5630 -0.6223
 7390SOL    HW233804   1.454   4.016   3.141 -1.0454 -0.5750  1.5242
 7391SOL     OW33805   0.975   2.333   5.134  0.3834 -0.0858 -0.2279
 7391SOL    HW133806   0.921   2.285   5.072 -0.3460  0.7801 -0.2590
 7391SOL    HW233807   0.902   2.372   5.182  0.5204 -0.7776  0.5463
 7392SOL     OW33808   2.598   3.546  16.210 -0.3175 -0.0564  0.5520
 7392SOL    HW133809   2.624   3.628  16.169  2.6650 -1.0938  0.3500
 7392SOL    HW233810   2.505   3.567  16.214  0.1572  1.7758  1.7167
 7393SOL     OW33811   1.539   2.803   4.934 -0.4214  0.1599  0.0907
 7393SOL    HW133812   1.603   2.737   4.905 -1.7200 -1.3197  0.6380
 7393SOL    HW233813   1.584   2.831   5.013  3.4250 -1.8800 -1.3372
 7394SOL     OW33814   1.164   1.569  14.106  0.1905 -0.1308  0.5273
 7394SOL    HW133815   1.068   1.576  14.111  0.1973  0.7664 -0.5937
 7394SOL    HW233816   1.184   1.569  14.200  0.9675 -0.4183  0.3560
 7395SOL     OW33817   2.070   3.429   8.379  0.5009 -0.3955 -0.0767
 7395SOL    HW133818   2.111   3.465   8.457 -0.8420  1.9032 -0.4256
 7395SOL    HW233819   2.020   3.353   8.409  1.7597 -0.6454  1.3220
 7396SOL     OW33820   3.286   2.169   5.239  0.4782 -0.8160  0.4215
 7396SOL    HW133821   3.275   2.262   5.220  2.3914 -0.5387  0.6525
 7396SOL    HW233822   3.195   2.141   5.238 -0.6097  2.7166  0.8531
 7397SOL     OW33823   2.954   4.021   3.966  0.1280 -0.1821  0.5793
 7397SOL    HW133824   2.970   3.930   3.989 -2.1476 -0.5598  0.7427
 7397SOL    HW233825   2.894   4.055   4.032 -2.3446 -1.2444 -1.1001
 7398SOL     OW33826   2.971   4.395   3.180 -0.3785  0.4800 -0.1315
 7398SOL    HW133827   2.931   4.406   3.267 -2.9262 -0.1938 -1.2032
 7398SOL    HW233828   3.018   4.313   3.199 -0.6907  0.7252  1.7454
 7399SOL     OW33829   1.458   1.900  17.218 -0.1902  0.3628 -0.2315
 7399SOL    HW133830   1.543   1.880  17.179 -1.5465  0.0822 -3.0111
 7399SOL    HW233831   1.455   1.829  17.282 -2.2805 -0.1042 -0.8505
 7400SOL     OW33832   2.460   2.562   2.965 -0.2190 -0.6722  0.5030
 7400SOL    HW133833   2.384   2.615   2.939  1.5975  0.8195 -1.7586
 7400SOL    HW233834   2.505   2.557   2.881  0.8489 -2.1071  1.1752
 7401SOL     OW33835   1.662   0.368   2.894  0.0436  0.2834  0.4362
 7401SOL    HW133836   1.628   0.436   2.836 -1.0590 -1.8666 -1.4389
 7401SOL    HW233837   1.586   0.342   2.946 -0.5535  1.3032  0.0671
 7402SOL     OW33838   1.962   1.076   2.523  0.1360 -0.6219 -0.1230
 7402SOL    HW133839   2.034   1.137   2.539 -1.1206  0.3622  1.6706
 7402SOL    HW233840   1.976   1.053   2.431 -0.0600 -0.4498 -0.1948
 7403SOL     OW33841   2.886   4.350   8.543  0.3550 -0.3837  0.4965
 7403SOL    HW133842   2.873   4.291   8.617  0.1927  1.9580  2.3385
 7403SOL    HW233843   2.809   4.335   8.488  1.0896  1.7441 -1.1108
 7404SOL     OW33844   2.470   3.448  12.169  0.2087  0.6708 -0.0962
 7404SOL    HW133845   2.544   3.467  12.227 -0.3042  0.8068  0.5018
 7404SOL    HW233846   2.467   3.353  12.178  3.7856  0.4786 -0.6362
 7405SOL     OW33847   1.177   2.851   2.047 -0.2580 -0.1992  0.0864
 7405SOL    HW133848   1.119   2.780   2.071 -0.6775  0.3421  0.6810
 7405SOL    HW233849   1.114   2.921   2.033 -1.3461 -1.2381 -0.1594
 7406SOL     OW33850   1.317   0.687  15.461  0.0426  0.2236 -0.5826
 7406SOL    HW133851   1.304   0.593  15.445  1.9002  0.2313 -2.1694
 7406SOL    HW233852   1.235   0.718  15.421 -1.5866 -1.3984  1.5177
 7407SOL     OW33853   2.106   4.705   3.942  0.1825  0.4394  0.2763
 7407SOL    HW133854   2.114   4.643   4.015 -2.7343 -0.4340 -0.1176
 7407SOL    HW233855   2.178   4.679   3.885  0.6639  0.4227  0.9009
 7408SOL     OW33856   2.232   2.095   7.394 -0.2036  0.2572  0.7311
 7408SOL    HW133857   2.326   2.086   7.383 -0.1258  0.1647  1.4842
 7408SOL    HW233858   2.221   2.179   7.438  2.9483  0.5889  0.8743
 7409SOL     OW33859   2.720   0.978  16.091 -0.2906 -0.3130 -0.3538
 7409SOL    HW133860   2.633   0.981  16.131  0.5763  0.3162  1.4779
 7409SOL    HW233861   2.718   0.882  16.084  1.1349 -0.2826 -1.1563
 7410SOL     OW33862   4.049   3.349  11.551 -0.0788  0.4171  0.0451
 7410SOL    HW133863   4.101   3.427  11.533 -0.4007  0.1625 -2.0351
 7410SOL    HW233864   4.117   3.282  11.543 -1.5463 -1.0028 -0.5939
 7411SOL     OW33865   1.343   1.702   8.585  0.3985 -0.2308 -0.1896
 7411SOL    HW133866   1.314   1.637   8.648  0.9296  0.3348  0.6310
 7411SOL    HW233867   1.295   1.781   8.609 -0.3477  0.0114 -2.4251
 7412SOL     OW33868   2.548   2.260  13.414 -0.1438 -0.0738 -0.1434
 7412SOL    HW133869   2.462   2.218  13.413 -0.6258  0.9001 -0.0907
 7412SOL    HW233870   2.577   2.241  13.503 -0.4499  0.9164  0.1724
 7413SOL     OW33871   0.685   4.413   7.407 -0.1420  0.0507  0.2679
 7413SOL    HW133872   0.762   4.370   7.446 -0.4725  1.6509  2.7121
 7413SOL    HW233873   0.643   4.340   7.362  1.9125  0.0384 -1.6435
 7414SOL     OW33874   2.452   2.492   6.970  0.0003 -0.5718  0.0744
 7414SOL    HW133875   2.360   2.496   6.993  0.1308  1.1137  0.3062
 7414SOL    HW233876   2.446   2.431   6.897 -1.8685 -0.9889  0.5862
 7415SOL     OW33877   2.230   3.769   8.089 -0.0359  0.0915 -0.7287
 7415SOL    HW133878   2.269   3.699   8.142 -0.4478  0.2728 -0.1860
 7415SOL    HW233879   2.214   3.720   8.008 -4.4796 -1.4325  1.0413
 7416SOL     OW33880   1.999   0.045   3.186 -0.4458 -0.2939 -0.2332
 7416SOL    HW133881   1.944   0.122   3.171  2.2591  1.2672 -2.1974
 7416SOL    HW233882   2.012   0.057   3.280 -0.7340  0.9791 -0.3613
 7417SOL     OW33883   4.353   4.053   5.699 -0.0916  0.1793  0.1133
 7417SOL    HW133884   4.329   4.014   5.783  1.7807 -1.4872 -0.1413
 7417SOL    HW233885   4.366   4.143   5.729 -1.0637  0.7020 -1.0498
 7418SOL     OW33886   2.133   0.389   4.400 -0.4820  0.0201 -0.4771
 7418SOL    HW133887   2.188   0.313   4.382  1.0899  0.7266  1.3556
 7418SOL    HW233888   2.058   0.386   4.340 -1.3827  0.5702  0.6160
 7419SOL     OW33889   1.720   3.763  11.944 -0.6452  0.0321  0.0831
 7419SOL    HW133890   1.706   3.669  11.944  0.2873 -0.1129 -0.7791
 7419SOL    HW233891   1.791   3.783  12.006  0.4409 -1.5468 -0.6654
 7420SOL     OW33892   0.758   2.982   6.867  0.1203 -0.1101  0.4832
 7420SOL    HW133893   0.790   2.894   6.845  2.0414  0.5562  0.6219
 7420SOL    HW233894   0.832   3.012   6.921  0.8271  0.6010 -0.8912
 7421SOL     OW33895   1.698   3.182   2.004 -0.0041 -0.0020 -0.1712
 7421SOL    HW133896   1.636   3.123   1.962 -0.1287  0.6806 -0.9440
 7421SOL    HW233897   1.703   3.151   2.094  1.8579  0.8261  0.0102
 7422SOL     OW33898   3.265   2.681  15.978  0.7182 -0.2035  0.5080
 7422SOL    HW133899   3.300   2.646  16.060 -1.1583 -2.2964  0.4059
 7422SOL    HW233900   3.333   2.744  15.952 -1.4395  1.7896 -0.3510
 7423SOL     OW33901   1.129   0.413   2.949  0.2331  0.1054 -0.6903
 7423SOL    HW133902   1.199   0.385   2.891  0.8656 -0.5473  0.4033
 7423SOL    HW233903   1.062   0.356   2.912 -1.2286 -1.0879  3.7856
 7424SOL     OW33904   0.753   3.606   2.101 -0.0886 -1.2279  0.9649
 7424SOL    HW133905   0.782   3.536   2.160 -0.1813 -2.5773 -0.5873
 7424SOL    HW233906   0.761   3.680   2.161  1.1637  0.8577 -1.7487
 7425SOL     OW33907   1.697   4.701  13.214 -0.3899 -0.1480  0.1762
 7425SOL    HW133908   1.791   4.719  13.208  0.0245 -1.2659  3.4361
 7425SOL    HW233909   1.674   4.712  13.122  3.2393  1.6328 -0.5211
 7426SOL     OW33910   3.748   2.868   4.943  0.1490 -0.1959 -0.7777
 7426SOL    HW133911   3.754   2.956   4.979 -0.7946 -0.5772  0.2855
 7426SOL    HW233912   3.718   2.824   5.022  1.8127  3.1172  1.7013
 7427SOL     OW33913   4.474   4.658   4.381  0.0561 -0.1747 -0.3726
 7427SOL    HW133914   4.497   4.694   4.296  0.5774 -1.0052 -0.5762
 7427SOL    HW233915   4.506   4.568   4.380 -0.9738 -0.5799  2.6412
 7428SOL     OW33916   1.572   2.416   7.352  0.0309 -0.4748 -0.6301
 7428SOL    HW133917   1.578   2.321   7.349  0.7236 -0.4388 -0.2442
 7428SOL    HW233918   1.627   2.441   7.426 -0.0545 -0.6679 -0.5041
 7429SOL     OW33919   0.027   0.500   2.528 -0.7908  0.1635  0.2105
 7429SOL    HW133920   4.686   0.466   2.487 -1.1064 -0.5854  1.4613
 7429SOL    HW233921   0.094   0.508   2.460 -0.4972 -1.5114  0.3134
 7430SOL     OW33922   2.984   2.015   9.814 -0.2250 -0.2495  0.1646
 7430SOL    HW133923   2.907   2.056   9.852  0.8321  2.1523 -0.2950
 7430SOL    HW233924   2.959   1.985   9.726  1.7363 -1.1648 -0.0891
 7431SOL     OW33925   2.333   1.486   8.218 -0.2088  0.0166 -0.1502
 7431SOL    HW133926   2.306   1.566   8.174  2.6618  0.6724 -0.6728
 7431SOL    HW233927   2.267   1.422   8.189 -1.9249  1.3072  0.8866
 7432SOL     OW33928   4.133   4.238   0.980 -0.2484 -0.1729 -0.0603
 7432SOL    HW133929   4.125   4.329   0.950  0.6367 -0.0955 -0.0802
 7432SOL    HW233930   4.195   4.216   0.910  0.1009  2.1518 -0.5014
 7433SOL     OW33931   4.531   0.975   1.229 -0.1761 -0.2010  0.4579
 7433SOL    HW133932   4.437   0.980   1.244 -0.4793 -0.6291 -1.3327
 7433SOL    HW233933   4.561   0.924   1.304 -0.6447 -2.2197 -0.7530
 7434SOL     OW33934   4.552   1.740   8.491 -0.0955  0.4602  0.3645
 7434SOL    HW133935   4.570   1.832   8.512  3.2793 -0.3853  1.2887
 7434SOL    HW233936   4.511   1.700   8.567  0.9737 -1.7800 -0.2472
 7435SOL     OW33937   2.391   0.145   2.986 -0.5473 -0.0277 -0.7435
 7435SOL    HW133938   2.300   0.177   2.979 -0.4461  0.4111 -0.1105
 7435SOL    HW233939   2.438   0.213   2.937  0.1108  0.0263 -0.0261
 7436SOL     OW33940   2.419   1.366   5.825 -0.3056  0.0597  0.3624
 7436SOL    HW133941   2.346   1.372   5.887 -0.0949 -0.5269  0.6634
 7436SOL    HW233942   2.490   1.342   5.885  0.0343 -2.6754 -1.1455
 7437SOL     OW33943   2.935   4.528   8.307 -0.0575 -0.0320  0.2773
 7437SOL    HW133944   3.015   4.572   8.334  0.3570 -1.3069  1.1607
 7437SOL    HW233945   2.916   4.492   8.394 -0.4168  0.6072  0.4594
 7438SOL     OW33946   3.288   4.407   3.962 -0.0194  0.1589 -0.0393
 7438SOL    HW133947   3.291   4.335   3.899  2.5599 -0.7796  1.1663
 7438SOL    HW233948   3.239   4.374   4.036  0.7742  0.7280  0.7416
 7439SOL     OW33949   2.881   1.485  13.665  0.0630  0.0281 -0.7935
 7439SOL    HW133950   2.833   1.498  13.583 -1.3558 -3.4909 -0.5092
 7439SOL    HW233951   2.904   1.573  13.696  0.0797 -0.6767  1.2129
 7440SOL     OW33952   1.154   3.028   3.650  0.4306  0.1667 -0.3707
 7440SOL    HW133953   1.208   3.055   3.725  0.9233  0.0982 -0.7043
 7440SOL    HW233954   1.197   2.948   3.621 -1.1115 -0.2097 -1.5738
 7441SOL     OW33955   4.411   0.780  16.246 -0.8326 -0.6746  0.3418
 7441SOL    HW133956   4.424   0.856  16.190 -1.9221 -2.6889 -2.6765
 7441SOL    HW233957   4.356   0.825  16.309  0.3043  1.5714 -0.2891
 7442SOL     OW33958   3.359   2.700   9.881 -0.5346  0.0726 -0.6312
 7442SOL    HW133959   3.306   2.632   9.922 -0.5928 -0.1342 -1.0497
 7442SOL    HW233960   3.299   2.755   9.831 -0.2182 -0.8161 -1.9863
 7443SOL     OW33961   3.281   2.212  14.011  0.5377  0.4679 -0.2982
 7443SOL    HW133962   3.338   2.160  13.953  0.0612 -0.0047 -0.3386
 7443SOL    HW233963   3.333   2.222  14.091  0.6549  2.3754 -0.5932
 7444SOL     OW33964   2.279   1.364  10.282 -0.5036  0.0283 -0.3802
 7444SOL    HW133965   2.211   1.428  10.261 -0.7613 -0.0597  0.1714
 7444SOL    HW233966   2.278   1.307  10.206 -0.3045  0.2036 -0.5149
 7445SOL     OW33967   1.762   3.190   4.027 -0.3163 -0.2864 -0.1510
 7445SOL    HW133968   1.669   3.211   4.035 -0.0269  0.0854  2.4242
 7445SOL    HW233969   1.787   3.279   4.004 -1.5889  0.3200  0.8340
 7446SOL     OW33970   0.933   1.830  11.462  0.2984  0.4876 -0.2944
 7446SOL    HW133971   0.875   1.885  11.514  0.2628 -1.7758  2.0534
 7446SOL    HW233972   1.010   1.822  11.520  1.2029 -0.0982 -1.5742
 7447SOL     OW33973   3.104   0.047  11.708  0.1147 -0.7397 -0.3394
 7447SOL    HW133974   3.101   0.035  11.613 -0.1303  2.9466 -0.8290
 7447SOL    HW233975   3.173   0.113  11.715 -0.4181 -0.2778  0.5067
 7448SOL     OW33976   3.687   2.219   5.585  0.1207  0.0517 -0.3139
 7448SOL    HW133977   3.628   2.169   5.641  1.0397  0.2839  0.8758
 7448SOL    HW233978   3.618   2.277   5.553 -0.6653 -1.6875 -1.7871
 7449SOL     OW33979   1.462   1.723  15.107 -0.0188  0.7836 -0.4079
 7449SOL    HW133980   1.547   1.703  15.147  1.1213  1.0725 -2.6758
 7449SOL    HW233981   1.409   1.724  15.187  0.4852  0.7529 -0.0722
 7450SOL     OW33982   4.332   1.738  12.524  0.3309 -0.5772  0.3921
 7450SOL    HW133983   4.371   1.658  12.488  1.4075  0.1387 -0.0403
 7450SOL    HW233984   4.404   1.800  12.516 -1.7913  2.1099  2.6610
 7451SOL     OW33985   1.891   3.989   5.824 -0.1499 -0.1357 -0.8860
 7451SOL    HW133986   1.871   3.936   5.747 -1.9053  0.0425 -0.5712
 7451SOL    HW233987   1.823   4.056   5.827 -0.8701 -0.8261 -1.8421
 7452SOL     OW33988   4.282   1.790   8.985 -0.7866  0.1207  0.3759
 7452SOL    HW133989   4.374   1.802   9.008 -0.7069 -0.2636  0.2524
 7452SOL    HW233990   4.280   1.696   9.004 -0.5018  0.4392  2.0379
 7453SOL     OW33991   3.175   1.342   3.779  0.2316 -0.1941 -0.3221
 7453SOL    HW133992   3.222   1.386   3.708 -0.1799  0.7417 -0.0139
 7453SOL    HW233993   3.252   1.300   3.818 -0.6106 -0.7751  0.7138
 7454SOL     OW33994   1.609   3.292   3.674  0.0780  0.4068  0.8008
 7454SOL    HW133995   1.603   3.360   3.607  0.0586 -0.0094  0.3801
 7454SOL    HW233996   1.580   3.341   3.751 -1.0400  0.5572  0.2914
 7455SOL     OW33997   0.123   3.401   9.262  0.0252  0.5093 -0.0028
 7455SOL    HW133998   0.067   3.453   9.205 -0.9848 -0.5613  0.0099
 7455SOL    HW233999   0.123   3.465   9.333  0.5704  0.4255  0.0764
 7456SOL     OW34000   2.531   1.470   2.405  0.0690 -0.0572 -0.6503
 7456SOL    HW134001   2.596   1.451   2.337  0.8343 -1.0025  0.3372
 7456SOL    HW234002   2.454   1.498   2.355  1.6491  1.2495 -2.3433
 7457SOL     OW34003   0.273   0.518   6.764  0.1523 -0.2168 -0.0200
 7457SOL    HW134004   0.204   0.470   6.810  0.1678 -1.1086 -0.9113
 7457SOL    HW234005   0.247   0.510   6.672 -0.3947 -2.3551  0.3197
 7458SOL     OW34006   3.326   3.354   9.010  0.7062  0.3079  0.1996
 7458SOL    HW134007   3.281   3.414   9.069 -2.6387 -0.5348 -1.4933
 7458SOL    HW234008   3.281   3.274   9.038  2.5741 -0.2771  1.5054
 7459SOL     OW34009   2.983   3.381   4.337  0.4043  0.2007 -0.7625
 7459SOL    HW134010   2.898   3.349   4.307 -0.8754  0.5730  2.5168
 7459SOL    HW234011   3.043   3.329   4.283 -0.1411  0.4043 -1.5490
 7460SOL     OW34012   4.608   4.336   3.470 -0.5364 -0.5599 -0.4831
 7460SOL    HW134013   4.524   4.346   3.424 -0.8324 -1.5576 -0.1574
 7460SOL    HW234014   4.681   4.355   3.411 -1.9209 -1.5971 -2.5146
 7461SOL     OW34015   0.243   2.725   4.349 -0.3297 -0.5361  0.8026
 7461SOL    HW134016   0.207   2.669   4.280  0.2836 -0.6536  0.5780
 7461SOL    HW234017   0.178   2.795   4.342 -0.2660 -0.3514  2.1541
 7462SOL     OW34018   4.490   4.321  14.104  0.2781 -0.2418  0.2967
 7462SOL    HW134019   4.450   4.358  14.025  1.8962 -1.9735 -1.3203
 7462SOL    HW234020   4.502   4.227  14.093  0.9362 -0.1929  0.6467
 7463SOL     OW34021   2.264   0.198  15.066 -0.0624  0.1395  0.0908
 7463SOL    HW134022   2.336   0.147  15.028 -1.1098 -2.3369  1.4726
 7463SOL    HW234023   2.307   0.275  15.104 -0.4861 -0.3685  1.5871
 7464SOL     OW34024   3.029   3.621   6.756 -0.6520  0.1735  0.1829
 7464SOL    HW134025   3.118   3.657   6.761 -0.4832  0.0999 -2.4488
 7464SOL    HW234026   3.039   3.532   6.722 -1.5697 -0.5832  1.8592
 7465SOL     OW34027   4.034   3.006   8.490 -0.3621  0.5546 -0.0058
 7465SOL    HW134028   4.069   2.963   8.568 -1.6328 -0.2110  0.1445
 7465SOL    HW234029   4.119   3.037   8.457 -1.6600  3.5305 -0.5514
 7466SOL     OW34030   1.016   1.793  11.203  0.4932 -0.0636  0.7954
 7466SOL    HW134031   0.971   1.821  11.282 -1.0156 -1.1296  0.3149
 7466SOL    HW234032   1.089   1.855  11.203  0.7332 -0.3778 -4.5427
 7467SOL     OW34033   0.882   3.010   9.650  0.0902 -0.0712 -0.0844
 7467SOL    HW134034   0.837   3.088   9.681  0.1074 -0.2774  0.4550
 7467SOL    HW234035   0.867   2.952   9.725  0.3054 -0.6672 -0.5024
 7468SOL     OW34036   1.271   2.420   6.397 -0.1956  0.3152 -0.3426
 7468SOL    HW134037   1.334   2.419   6.325  1.0017  1.2283  0.6947
 7468SOL    HW234038   1.228   2.504   6.381  3.4706  2.2382 -0.0805
 7469SOL     OW34039   3.443   3.201   8.074 -0.1772 -0.2355 -0.0546
 7469SOL    HW134040   3.533   3.187   8.102 -0.4815  1.4517  1.7881
 7469SOL    HW234041   3.447   3.294   8.051  1.1757  0.0843  1.5223
 7470SOL     OW34042   1.742   1.295   3.743  0.5390 -0.2332  0.2598
 7470SOL    HW134043   1.798   1.219   3.729 -0.4270 -0.5714 -1.6544
 7470SOL    HW234044   1.724   1.328   3.655 -1.0298  1.6743  1.2988
 7471SOL     OW34045   3.207   3.063   4.536  0.1274  0.1483 -0.2877
 7471SOL    HW134046   3.229   3.007   4.461  1.0083 -0.5011  0.4489
 7471SOL    HW234047   3.204   3.146   4.489 -0.7741 -0.3564 -1.1223
 7472SOL     OW34048   4.295   0.920   7.437 -0.4603  0.5769 -0.0944
 7472SOL    HW134049   4.300   0.837   7.389 -1.6577  0.9041 -0.8038
 7472SOL    HW234050   4.210   0.915   7.480 -0.4383 -0.2021 -0.1390
 7473SOL     OW34051   2.326   1.050  15.241  0.1420  0.0598  0.2165
 7473SOL    HW134052   2.248   1.036  15.294 -0.4949 -0.1175 -0.7733
 7473SOL    HW234053   2.389   1.073  15.310 -0.0176 -1.4121  0.8469
 7474SOL     OW34054   0.408   1.415  17.276  0.3379 -0.8346 -0.8138
 7474SOL    HW134055   0.452   1.332  17.296 -1.1913 -1.7319 -1.1360
 7474SOL    HW234056   0.359   1.388  17.198 -0.3456  1.6604 -1.2259
 7475SOL     OW34057   3.024   0.256   9.866  0.3971  0.3911  0.5334
 7475SOL    HW134058   3.069   0.278   9.948 -0.6892  0.5606  1.0741
 7475SOL    HW234059   2.983   0.176   9.896  3.1060 -0.3895  2.1264
 7476SOL     OW34060   0.591   4.652   5.015  0.0084 -0.1559 -0.3132
 7476SOL    HW134061   0.500   4.644   4.986  0.1989 -1.3072 -0.5835
 7476SOL    HW234062   0.635   4.571   4.989  1.3715  0.7689 -0.9112
 7477SOL     OW34063   1.073   0.459  16.441 -0.4108 -0.7105 -0.2878
 7477SOL    HW134064   1.027   0.439  16.523 -0.8068 -1.0453 -0.5891
 7477SOL    HW234065   1.166   0.467  16.464 -1.2837  3.6971  1.7291
 7478SOL     OW34066   3.859   0.486   3.952 -0.2304 -0.8135  0.0093
 7478SOL    HW134067   3.902   0.403   3.930  3.4711  0.5876  2.1437
 7478SOL    HW234068   3.781   0.446   3.991 -0.5295 -0.8482 -0.6189
 7479SOL     OW34069   1.268   0.254   5.000  0.0990 -0.2870 -0.3616
 7479SOL    HW134070   1.282   0.316   4.929 -1.4324  0.6283  0.1484
 7479SOL    HW234071   1.282   0.174   4.949  1.6775 -0.3992  0.2180
 7480SOL     OW34072   3.244   4.046  15.139 -0.1178  0.2068  0.1762
 7480SOL    HW134073   3.152   4.042  15.113  0.3765 -0.0348 -1.5239
 7480SOL    HW234074   3.242   3.970  15.197  0.7392 -1.1364 -1.5653
 7481SOL     OW34075   2.410   1.573   5.193  0.1089  0.7146 -0.0132
 7481SOL    HW134076   2.412   1.491   5.143 -0.7015  1.0931 -0.6588
 7481SOL    HW234077   2.452   1.548   5.276  2.0128  1.4559 -0.7539
 7482SOL     OW34078   4.282   2.813   6.695  0.3858  0.3409 -0.3317
 7482SOL    HW134079   4.196   2.771   6.696  0.1261  0.8876  0.2647
 7482SOL    HW234080   4.336   2.748   6.651  0.5239  1.7541 -2.2276
 7483SOL     OW34081   2.417   0.585   8.578  0.2211 -0.7350 -0.4159
 7483SOL    HW134082   2.492   0.553   8.627  1.2850  1.0053 -0.9287
 7483SOL    HW234083   2.449   0.670   8.549 -1.2836  0.0278  0.1591
 7484SOL     OW34084   3.115   1.925   4.438 -0.4173 -0.8808 -0.2500
 7484SOL    HW134085   3.044   1.989   4.437 -0.6289 -1.1107 -0.0950
 7484SOL    HW234086   3.166   1.946   4.517 -0.3514 -0.1413 -0.4946
 7485SOL     OW34087   3.582   2.369   8.467  0.3635  0.1441  0.7994
 7485SOL    HW134088   3.585   2.305   8.539  0.0290  0.0315  0.7130
 7485SOL    HW234089   3.575   2.319   8.386  0.5391 -0.7256  1.3198
 7486SOL     OW34090   0.044   1.741   5.753  0.1161  0.2637  0.1373
 7486SOL    HW134091   0.124   1.775   5.794  0.6695 -2.0884  1.0320
 7486SOL    HW234092   0.057   1.649   5.775 -2.1027 -0.3893 -1.2831
 7487SOL     OW34093   3.200   4.234  17.267 -0.4166 -0.2771  0.7459
 7487SOL    HW134094   3.172   4.208  17.355 -2.1968 -0.1289  0.2331
 7487SOL    HW234095   3.293   4.210  17.264  0.5771  3.8765 -1.5672
 7488SOL     OW34096   3.320   3.680   2.774 -0.1260  0.4649  0.0807
 7488SOL    HW134097   3.361   3.623   2.709 -1.0312 -1.0112  0.7902
 7488SOL    HW234098   3.367   3.761   2.757  0.0929  0.3503  0.1377
 7489SOL     OW34099   0.871   0.249  11.393 -0.3437 -0.2878 -0.2804
 7489SOL    HW134100   0.831   0.318  11.341  0.4543  1.6282  1.6180
 7489SOL    HW234101   0.942   0.297  11.436 -0.0974  1.5132 -2.6854
 7490SOL     OW34102   4.052   1.629   4.001  0.1525  0.2915  0.0406
 7490SOL    HW134103   4.009   1.686   4.065  0.8128  1.3234 -0.4348
 7490SOL    HW234104   4.143   1.629   4.030 -0.0686  1.6284  0.7748
 7491SOL     OW34105   3.998   2.811  10.147 -0.3283  0.0222 -0.0815
 7491SOL    HW134106   4.063   2.804  10.216  0.3559  1.6177 -0.5517
 7491SOL    HW234107   3.951   2.891  10.171 -1.6527 -0.0776 -2.3375
 7492SOL     OW34108   4.434   4.415   9.696  0.3163  0.1087  0.0958
 7492SOL    HW134109   4.479   4.415   9.780 -1.6097  0.4631  1.1193
 7492SOL    HW234110   4.346   4.431   9.729  0.2712 -0.9001  0.4470
 7493SOL     OW34111   1.136   2.775  15.165  0.0049  0.4863  0.5630
 7493SOL    HW134112   1.137   2.711  15.094  0.8436  1.7456 -0.5546
 7493SOL    HW234113   1.061   2.828  15.139 -3.1141 -3.6706  1.1318
 7494SOL     OW34114   1.112   4.545   8.354  0.2475  0.2111 -0.5248
 7494SOL    HW134115   1.129   4.597   8.432 -1.5777 -0.8532  0.5978
 7494SOL    HW234116   1.159   4.465   8.376  1.6468  0.9579 -0.8265
 7495SOL     OW34117   0.792   1.852   5.786  0.6648 -0.0742  0.7069
 7495SOL    HW134118   0.820   1.833   5.876 -0.4791 -3.1277  0.4091
 7495SOL    HW234119   0.834   1.936   5.767 -0.5384  0.4064  0.2000
 7496SOL     OW34120   1.216   2.833   8.917  0.1182  0.0508  0.3677
 7496SOL    HW134121   1.222   2.928   8.928  0.6307  0.2060 -1.2399
 7496SOL    HW234122   1.137   2.822   8.865  0.9293  0.7744 -1.0076
 7497SOL     OW34123   2.928   2.547  10.136 -0.0096 -0.5978 -0.1565
 7497SOL    HW134124   2.962   2.635  10.117 -1.2110 -0.1334 -0.1597
 7497SOL    HW234125   2.988   2.500  10.078  0.6596  1.3075 -1.0337
 7498SOL     OW34126   1.163   2.383  12.641 -0.2640 -0.4846  0.3197
 7498SOL    HW134127   1.175   2.453  12.578  2.4981 -1.0387  0.2134
 7498SOL    HW234128   1.225   2.314  12.617  0.0493 -1.0708  2.8052
 7499SOL     OW34129   2.829   1.504  17.109  0.4159 -0.1904 -0.4352
 7499SOL    HW134130   2.915   1.524  17.147 -0.1748 -1.4293  1.5143
 7499SOL    HW234131   2.822   1.411  17.126 -0.0585 -0.0541  0.1203
 7500SOL     OW34132   1.693   3.685   4.969 -0.0068 -0.4043  0.3257
 7500SOL    HW134133   1.761   3.620   4.989  0.8850 -0.4046 -2.6828
 7500SOL    HW234134   1.661   3.656   4.884 -1.7219 -0.7227  1.0877
 7501SOL     OW34135   2.381   0.466   5.644  0.2132 -0.4236 -0.4126
 7501SOL    HW134136   2.401   0.440   5.554 -0.5508  3.4723 -1.7288
 7501SOL    HW234137   2.445   0.408   5.686 -1.1145 -1.7698 -0.2762
 7502SOL     OW34138   0.677   2.502   8.514  0.8642  0.3625 -0.2965
 7502SOL    HW134139   0.737   2.462   8.452 -0.3272 -0.2599 -1.0385
 7502SOL    HW234140   0.597   2.461   8.482  0.2250  2.6211 -1.5940
 7503SOL     OW34141   2.235   1.981   6.207 -0.0413 -0.2803 -0.2205
 7503SOL    HW134142   2.330   1.991   6.220 -0.2394 -0.6866  1.4877
 7503SOL    HW234143   2.227   1.894   6.246  1.0016  0.8298  2.4697
 7504SOL     OW34144   2.256   3.297   1.524 -0.1133  0.0575  0.1898
 7504SOL    HW134145   2.257   3.227   1.589 -0.6790 -0.4592 -0.3524
 7504SOL    HW234146   2.344   3.331   1.541  0.2150  0.0583 -1.5420
 7505SOL     OW34147   0.174   3.337   8.634 -0.0048  0.0430  0.1414
 7505SOL    HW134148   0.198   3.370   8.720 -0.0346 -0.8992  0.5165
 7505SOL    HW234149   0.105   3.396   8.603 -0.6208 -0.5375  0.3921
 7506SOL     OW34150   2.964   0.938  11.845 -0.2427  0.6116  0.1345
 7506SOL    HW134151   2.939   0.907  11.757 -0.8081  0.5545  0.3138
 7506SOL    HW234152   2.876   0.944  11.883 -0.1183 -1.2006  0.7371
 7507SOL     OW34153   3.066   3.011   8.430  0.2487 -0.5306  0.2961
 7507SOL    HW134154   3.131   3.010   8.360 -1.1593 -0.7504 -0.9999
 7507SOL    HW234155   3.065   2.927   8.474 -1.5340 -1.3772 -1.3591
 7508SOL     OW34156   3.008   2.793  10.021  0.3343 -0.4703  0.7343
 7508SOL    HW134157   2.922   2.756  10.001 -0.3880  1.5459  0.0488
 7508SOL    HW234158   3.054   2.800   9.937 -0.3448 -1.6824  0.2644
 7509SOL     OW34159   3.104   0.792   8.471 -0.0416 -0.1505  0.1193
 7509SOL    HW134160   3.103   0.885   8.445 -0.5502 -0.0073  0.6677
 7509SOL    HW234161   3.199   0.778   8.481 -0.4154 -3.0496 -0.6077
 7510SOL     OW34162   1.841   3.987  12.395 -0.2670  0.3056  0.0448
 7510SOL    HW134163   1.756   4.001  12.436 -1.2610 -2.8848 -0.8524
 7510SOL    HW234164   1.890   3.980  12.476 -0.2946 -0.2022  0.0236
 7511SOL     OW34165   2.773   1.280  16.100 -0.3476  0.2809 -0.0957
 7511SOL    HW134166   2.760   1.188  16.125  0.4033 -0.2842 -1.7588
 7511SOL    HW234167   2.866   1.295  16.112 -0.0401 -0.6282 -1.2544
 7512SOL     OW34168   3.131   2.953   4.763  0.4254  0.0160  0.3873
 7512SOL    HW134169   3.037   2.950   4.750  0.3799  1.2386  0.4064
 7512SOL    HW234170   3.151   3.008   4.687 -0.7382 -1.9107 -1.3134
 7513SOL     OW34171   3.149   2.426   5.217 -0.1291  0.0966 -0.3952
 7513SOL    HW134172   3.090   2.468   5.280  0.9436 -0.2990  0.8764
 7513SOL    HW234173   3.173   2.502   5.164 -0.8677 -0.1093 -1.0134
 7514SOL     OW34174   2.408   2.455  14.863 -0.6697  0.2613 -0.2437
 7514SOL    HW134175   2.345   2.439  14.793  0.1398 -1.6511 -0.5435
 7514SOL    HW234176   2.397   2.379  14.920 -1.0568  0.8126  0.4245
 7515SOL     OW34177   0.979   2.142  11.760  0.1206  0.6271 -0.5759
 7515SOL    HW134178   0.886   2.155  11.743  0.3595  1.6912 -1.0771
 7515SOL    HW234179   1.014   2.118  11.674  1.2562  0.2391 -0.0158
 7516SOL     OW34180   3.664   2.238   6.291  0.0755  0.1333  0.4025
 7516SOL    HW134181   3.720   2.305   6.251 -0.1139 -0.7150 -1.2428
 7516SOL    HW234182   3.639   2.179   6.221 -0.3669 -0.2593  0.8904
 7517SOL     OW34183   1.781   0.918   7.284  0.6084  0.4339 -0.3074
 7517SOL    HW134184   1.704   0.975   7.292  0.5696  0.7139 -2.8331
 7517SOL    HW234185   1.847   0.982   7.258  0.2305  0.7325 -0.5311
 7518SOL     OW34186   2.868   0.245  17.675 -0.6219  0.6345  0.6304
 7518SOL    HW134187   2.932   0.306  17.711  0.2769 -1.1595  2.0172
 7518SOL    HW234188   2.815   0.229  17.753 -1.4545  1.0273  0.1510
 7519SOL     OW34189   1.893   1.434   7.243 -0.3170 -0.0598 -0.0899
 7519SOL    HW134190   1.926   1.512   7.287  1.7905 -0.0963 -1.6438
 7519SOL    HW234191   1.824   1.413   7.306  0.6474  0.5995  1.1886
 7520SOL     OW34192   2.649   0.207   4.941 -0.5807 -1.0527 -0.3186
 7520SOL    HW134193   2.641   0.183   5.033 -2.8038 -2.8345 -0.9944
 7520SOL    HW234194   2.573   0.154   4.917 -0.2858 -2.3414  1.5528
 7521SOL     OW34195   3.804   3.859   6.430 -0.0379  0.0071 -0.2550
 7521SOL    HW134196   3.766   3.791   6.485  0.0692  0.8419  0.8421
 7521SOL    HW234197   3.723   3.881   6.383  0.8743  1.6459 -1.0376
 7522SOL     OW34198   2.564   2.029   6.958  0.0069 -0.3505  0.2677
 7522SOL    HW134199   2.550   1.937   6.934 -1.8425 -0.0085  0.0589
 7522SOL    HW234200   2.479   2.045   7.001  0.8579  1.4772  1.2852
 7523SOL     OW34201   2.305   0.817   2.019  0.4140  0.2702  0.2706
 7523SOL    HW134202   2.298   0.765   2.100  0.1859 -1.6033 -0.9496
 7523SOL    HW234203   2.261   0.901   2.030  0.8942  0.6552 -0.8055
 7524SOL     OW34204   0.882   0.117   8.582 -0.3928 -0.3336  0.8082
 7524SOL    HW134205   0.858   0.081   8.667 -0.1084  0.1376  1.0901
 7524SOL    HW234206   0.953   0.056   8.560  0.8190  0.4997  2.4331
 7525SOL     OW34207   1.699   1.324   1.578  0.8093  0.2769  0.3679
 7525SOL    HW134208   1.767   1.265   1.547  0.4451 -0.4769  0.9951
 7525SOL    HW234209   1.712   1.318   1.673  2.0957  0.2266  0.1833
 7526SOL     OW34210   1.933   2.232   7.855  0.1515  0.7973  0.5257
 7526SOL    HW134211   1.947   2.308   7.912 -0.3343  2.8392 -2.1300
 7526SOL    HW234212   2.022   2.198   7.845 -0.1818 -0.0208  0.3577
 7527SOL     OW34213   4.302   2.774   5.274  0.0165  0.2638  0.5395
 7527SOL    HW134214   4.391   2.747   5.298 -0.5454 -1.6006  0.4901
 7527SOL    HW234215   4.284   2.826   5.353 -0.5315  0.3488  0.3590
 7528SOL     OW34216   3.948   3.572  13.084  0.9734  0.3032 -0.1752
 7528SOL    HW134217   3.987   3.485  13.092 -0.0170 -0.2133 -0.9320
 7528SOL    HW234218   3.870   3.554  13.136  2.3499  0.4222  1.9164
 7529SOL     OW34219   3.892   0.308   3.637 -0.1996  0.2454  0.1407
 7529SOL    HW134220   3.938   0.273   3.714  1.5653 -1.8603 -1.8781
 7529SOL    HW234221   3.805   0.322   3.673 -0.4562  1.4083 -0.9296
 7530SOL     OW34222   3.674   0.849   0.214  0.5245  0.1157  0.0407
 7530SOL    HW134223   3.704   0.940   0.206  0.0918  0.4969  2.7555
 7530SOL    HW234224   3.746   0.809   0.263 -0.5136 -0.4943  1.0406
 7531SOL     OW34225   1.476   4.162   7.808 -0.0403 -0.1325  0.6871
 7531SOL    HW134226   1.488   4.099   7.878  0.6899 -1.2475 -0.4354
 7531SOL    HW234227   1.540   4.229   7.834 -0.1143  0.1319  0.1930
 7532SOL     OW34228   1.281   3.554   7.214 -0.0450  0.4971 -0.0749
 7532SOL    HW134229   1.279   3.614   7.140 -1.0053  1.6553  0.8913
 7532SOL    HW234230   1.309   3.606   7.289 -1.3736  1.4226 -0.2327
 7533SOL     OW34231   1.455   1.087   4.067  0.2823  0.3842  0.1901
 7533SOL    HW134232   1.497   1.171   4.048  1.1606 -0.6795 -2.6158
 7533SOL    HW234233   1.457   1.077   4.162  0.9558 -2.0516 -0.0938
 7534SOL     OW34234   3.990   1.743   3.568 -0.2027 -0.6843  0.0075
 7534SOL    HW134235   3.928   1.734   3.496 -0.5831 -0.1207  0.2736
 7534SOL    HW234236   4.070   1.713   3.524 -0.7839  1.2878 -2.3843
 7535SOL     OW34237   3.225   2.172   8.012  0.3562  0.5547 -0.6968
 7535SOL    HW134238   3.147   2.218   7.980  0.4246  1.4574  0.4377
 7535SOL    HW234239   3.235   2.113   7.937 -0.3414  1.0565 -1.1842
 7536SOL     OW34240   0.551   3.361   8.218 -0.0980  0.5961  0.0439
 7536SOL    HW134241   0.487   3.332   8.153  0.4856 -1.3098  0.2958
 7536SOL    HW234242   0.521   3.451   8.225 -0.9360  0.3549 -0.3882
 7537SOL     OW34243   2.445   3.693   9.056 -0.5242 -0.1216 -0.1178
 7537SOL    HW134244   2.493   3.661   8.979  1.8971  0.9780  0.9225
 7537SOL    HW234245   2.381   3.749   9.012 -0.8971  0.3395  1.0242
 7538SOL     OW34246   1.414   2.937   7.171 -0.1575 -0.1228 -0.1672
 7538SOL    HW134247   1.321   2.919   7.157  0.1826 -1.9905  0.0000
 7538SOL    HW234248   1.427   2.956   7.264 -1.4762 -0.2993  0.0591
 7539SOL     OW34249   4.532   3.850   3.542  0.1693  0.1445 -0.1292
 7539SOL    HW134250   4.624   3.872   3.536  0.2268  0.1643  0.7683
 7539SOL    HW234251   4.493   3.934   3.519 -0.7107 -0.0985  0.4722
 7540SOL     OW34252   1.369   1.527   3.801 -0.1496 -0.1797 -0.4553
 7540SOL    HW134253   1.394   1.613   3.768  0.5194 -0.6558 -1.1995
 7540SOL    HW234254   1.346   1.478   3.722 -0.2511  1.4949 -1.4672
 7541SOL     OW34255   4.594   0.732   2.136 -0.2025 -0.2153  0.0631
 7541SOL    HW134256   4.544   0.652   2.150  0.0878 -0.2290  0.9953
 7541SOL    HW234257   4.669   0.696   2.090 -1.6129 -2.3642 -0.5630
 7542SOL     OW34258   1.354   3.610   7.491 -0.0473 -0.1029  0.6431
 7542SOL    HW134259   1.426   3.550   7.512 -0.1512 -0.5306 -0.2350
 7542SOL    HW234260   1.287   3.560   7.539  0.5991  0.1787  1.8510
 7543SOL     OW34261   4.518   3.234   3.762  0.0933  0.4732 -0.7225
 7543SOL    HW134262   4.461   3.296   3.718 -1.6280 -0.4571  0.1968
 7543SOL    HW234263   4.453   3.184   3.812  1.9345  0.0750  1.3224
 7544SOL     OW34264   3.506   0.376  12.735  0.3295 -0.0499  0.2840
 7544SOL    HW134265   3.596   0.404  12.719  1.5358 -2.2503  3.3179
 7544SOL    HW234266   3.503   0.297  12.789 -1.0949  0.8763  1.5483
 7545SOL     OW34267   3.083   0.871   4.306  0.7115  0.0138  0.4367
 7545SOL    HW134268   3.009   0.912   4.351 -0.6752  0.5573 -2.3325
 7545SOL    HW234269   3.152   0.934   4.328  0.5131  0.2436  0.4023
 7546SOL     OW34270   3.437   0.106   4.562  0.1912 -0.4915  0.1750
 7546SOL    HW134271   3.382   0.184   4.570  0.2483 -0.4173 -0.1534
 7546SOL    HW234272   3.521   0.140   4.595  0.7106 -2.3454  0.7412
 7547SOL     OW34273   1.966   0.856   1.496 -0.2471 -0.1753  0.7265
 7547SOL    HW134274   1.943   0.782   1.552  0.3300 -0.7225  0.2444
 7547SOL    HW234275   1.978   0.805   1.416 -0.9399  2.0911 -0.8295
 7548SOL     OW34276   0.002   0.667  10.016 -0.6327  0.0460 -0.6210
 7548SOL    HW134277   4.701   0.636  10.097  1.5978  2.8567  1.5633
 7548SOL    HW234278   0.038   0.584   9.984  0.0958  0.0670  0.1495
 7549SOL     OW34279   1.905   4.398   4.342 -0.0211  0.2112 -0.9704
 7549SOL    HW134280   1.919   4.335   4.271  1.7361  2.3846 -2.5266
 7549SOL    HW234281   1.963   4.358   4.407  0.0102  3.4646  0.9590
 7550SOL     OW34282   2.728   1.327   0.505  0.0691  0.1335 -0.0504
 7550SOL    HW134283   2.638   1.359   0.491  0.8746  2.8734  1.0717
 7550SOL    HW234284   2.743   1.380   0.583 -0.9041 -0.8849  0.8370
 7551SOL     OW34285   0.433   0.199   8.728  0.7062 -0.1358 -0.2088
 7551SOL    HW134286   0.438   0.104   8.722  0.5302 -0.0960 -0.9651
 7551SOL    HW234287   0.434   0.200   8.824 -0.1263  1.2793 -0.2103
 7552SOL     OW34288   3.118   0.297   7.689 -0.2021 -0.0255 -0.0360
 7552SOL    HW134289   3.210   0.275   7.702  0.1449  0.4913 -1.6633
 7552SOL    HW234290   3.121   0.392   7.685 -2.3457  0.0936  1.1175
 7553SOL     OW34291   4.459   0.486   2.150 -0.3733 -0.1683  0.8463
 7553SOL    HW134292   4.400   0.463   2.223  0.1023 -2.6203  0.4781
 7553SOL    HW234293   4.393   0.484   2.081  0.8955 -0.9803 -0.3372
 7554SOL     OW34294   4.043   0.027   9.789 -0.0038 -0.3857 -0.1004
 7554SOL    HW134295   4.098   0.103   9.809 -2.1125  1.0074  0.3723
 7554SOL    HW234296   4.069   4.712   9.864  1.4505  0.2582 -0.1426
 7555SOL     OW34297   3.509   1.608   6.405 -0.2114  0.2387 -0.4859
 7555SOL    HW134298   3.548   1.686   6.444  1.8020 -1.9488  1.8684
 7555SOL    HW234299   3.437   1.665   6.376  1.3297  2.5177  0.1684
 7556SOL     OW34300   0.520   3.086  15.864  0.3107  0.0609 -0.2158
 7556SOL    HW134301   0.468   3.163  15.839  0.4603  1.1558  2.8139
 7556SOL    HW234302   0.611   3.114  15.850  0.8027 -1.2099  0.4514
 7557SOL     OW34303   1.117   0.324   1.523  0.2388 -0.0274  1.1448
 7557SOL    HW134304   1.140   0.328   1.430 -0.7498 -1.0345  0.8505
 7557SOL    HW234305   1.194   0.368   1.558  0.8734  2.4997 -3.4580
 7558SOL     OW34306   1.274   4.725   2.708 -0.6476 -0.0877  0.0498
 7558SOL    HW134307   1.344   0.044   2.676  0.7194 -2.1168 -0.6667
 7558SOL    HW234308   1.272   0.018   2.798 -0.8699  1.2479 -0.4288
 7559SOL     OW34309   3.649   2.549  14.530 -0.2658  0.0201  0.0690
 7559SOL    HW134310   3.736   2.510  14.532 -0.4102 -0.3866 -1.7011
 7559SOL    HW234311   3.628   2.555  14.623  0.4635 -0.3028  0.2480
 7560SOL     OW34312   1.070   1.495   6.306 -0.0749  0.3619 -0.7298
 7560SOL    HW134313   1.137   1.553   6.341 -0.7471  1.2959 -1.0033
 7560SOL    HW234314   1.113   1.437   6.244  0.6048  0.0503  0.0279
 7561SOL     OW34315   2.330   4.711   8.497 -0.0943 -0.4801 -0.2688
 7561SOL    HW134316   2.299   4.680   8.412  1.9942 -0.7632 -0.9190
 7561SOL    HW234317   2.421   4.683   8.496 -0.2071 -0.8208 -1.1192
 7562SOL     OW34318   1.516   0.738   0.673 -0.4666  0.6751 -0.1426
 7562SOL    HW134319   1.452   0.808   0.690 -0.7034 -0.0973  2.2027
 7562SOL    HW234320   1.573   0.790   0.617 -0.9187  0.3543 -0.8998
 7563SOL     OW34321   1.244   0.083   3.973 -0.0069 -0.1956 -0.0093
 7563SOL    HW134322   1.158   0.122   3.958  0.9771  2.3417  1.0060
 7563SOL    HW234323   1.304   0.138   3.922  1.6764 -2.0667 -0.0703
 7564SOL     OW34324   0.667   4.307   5.236  0.8508  0.7989 -0.1724
 7564SOL    HW134325   0.618   4.249   5.295 -0.7844  1.1578 -1.2112
 7564SOL    HW234326   0.671   4.378   5.300 -1.1019 -0.9178  1.8385
 7565SOL     OW34327   2.603   1.391   4.893  0.3267 -0.4832  0.1791
 7565SOL    HW134328   2.623   1.484   4.887 -2.1183  0.2780  3.2165
 7565SOL    HW234329   2.622   1.362   4.804 -1.0028 -1.1104  0.0886
 7566SOL     OW34330   4.622   0.590   3.879 -0.5277  0.0061  0.6166
 7566SOL    HW134331   4.601   0.497   3.868 -0.8002  0.2711 -1.1619
 7566SOL    HW234332   4.613   0.631   3.793 -1.6518  1.5911  1.4989
 7567SOL     OW34333   4.180   0.261  16.962 -0.1550 -0.2726  0.5706
 7567SOL    HW134334   4.145   0.268  17.051 -0.9913  1.3645  0.1052
 7567SOL    HW234335   4.096   0.240  16.921 -0.5161 -0.1588  1.2517
 7568SOL     OW34336   1.666   4.478   5.212  0.0746  0.0528  0.2130
 7568SOL    HW134337   1.660   4.417   5.139  1.6543  1.4159 -1.0800
 7568SOL    HW234338   1.588   4.461   5.264 -1.6609  1.6508 -1.8244
 7569SOL     OW34339   4.301   3.442   2.595 -0.0677  0.4453  0.2317
 7569SOL    HW134340   4.244   3.369   2.619 -0.4173 -0.2823 -2.8261
 7569SOL    HW234341   4.307   3.488   2.679 -0.2500 -0.5910  0.8146
 7570SOL     OW34342   3.692   3.451   5.375 -0.2603  0.4456  0.0886
 7570SOL    HW134343   3.720   3.542   5.376  0.0245  0.3742 -1.8363
 7570SOL    HW234344   3.764   3.417   5.321 -0.0814  1.9948 -0.6383
 7571SOL     OW34345   2.519   4.441  11.949  0.0112  0.2602 -0.5496
 7571SOL    HW134346   2.527   4.373  12.015 -1.1732 -2.7055 -3.4622
 7571SOL    HW234347   2.585   4.503  11.979  1.3599 -1.1642 -0.5972
 7572SOL     OW34348   0.174   0.733   9.012 -0.2562 -0.2945 -0.3157
 7572SOL    HW134349   0.161   0.690   9.096  0.3736 -2.1917 -1.1822
 7572SOL    HW234350   0.145   0.821   9.037  1.3737 -0.3670  1.8294
 7573SOL     OW34351   2.767   2.502   8.164  0.6199  0.1656 -0.1456
 7573SOL    HW134352   2.794   2.572   8.104  0.4977  2.0495  2.0131
 7573SOL    HW234353   2.852   2.469   8.193  1.4453  1.8274 -0.6584
 7574SOL     OW34354   4.667   2.893   1.917 -0.2661 -0.7320  0.3220
 7574SOL    HW134355   4.698   2.971   1.870 -1.2480 -0.4531  0.1257
 7574SOL    HW234356   4.578   2.880   1.882  0.7360  1.0788 -2.9004
 7575SOL     OW34357   2.932   1.365   2.026  0.6843  0.1922 -0.7510
 7575SOL    HW134358   2.967   1.281   2.053  1.2952  0.2064 -1.4843
 7575SOL    HW234359   2.881   1.394   2.102  1.0597  0.1737 -0.4971
 7576SOL     OW34360   1.653   3.700   2.534 -0.2524 -0.3104  0.4641
 7576SOL    HW134361   1.625   3.744   2.615  2.2029  1.8722  0.1041
 7576SOL    HW234362   1.568   3.668   2.504 -0.5562  0.4934  0.4631
 7577SOL     OW34363   4.630   3.821   0.525 -0.0669  0.3129 -0.4654
 7577SOL    HW134364   4.561   3.822   0.458 -1.5804  0.0362  1.0740
 7577SOL    HW234365   4.684   3.749   0.492  1.4268  0.3734  1.8712
 7578SOL     OW34366   2.602   2.040   3.185 -0.0459  0.4385  0.3576
 7578SOL    HW134367   2.627   1.952   3.156  0.6622  1.0537 -0.9158
 7578SOL    HW234368   2.590   2.088   3.103 -1.8183 -0.3199  0.1735
 7579SOL     OW34369   4.638   0.445  12.817 -1.0310 -0.9807  0.0743
 7579SOL    HW134370   4.595   0.529  12.798  1.1262 -0.3323 -2.0319
 7579SOL    HW234371   4.621   0.404  12.732  1.8409  0.7537 -1.3414
 7580SOL     OW34372   2.124   0.349   2.268  0.1444 -0.1632 -0.4585
 7580SOL    HW134373   2.086   0.262   2.275 -1.5125  0.7167  1.2126
 7580SOL    HW234374   2.086   0.383   2.348 -0.2207 -0.5181 -0.4856
 7581SOL     OW34375   1.294   2.037   2.565  0.8739 -0.3692  0.1651
 7581SOL    HW134376   1.349   2.067   2.493  1.6404  2.2015  1.8237
 7581SOL    HW234377   1.338   2.068   2.644 -2.9281  2.1744  1.3169
 7582SOL     OW34378   2.331   0.870   0.845  0.3312  0.1062  0.2774
 7582SOL    HW134379   2.387   0.866   0.767  0.2641 -1.1084  0.2843
 7582SOL    HW234380   2.389   0.892   0.917 -1.5887  1.7322  1.3148
 7583SOL     OW34381   1.963   1.483   3.411  0.3512 -0.9050 -0.4184
 7583SOL    HW134382   1.894   1.510   3.472  1.6278 -1.4527  1.2701
 7583SOL    HW234383   2.043   1.499   3.463  0.1355 -0.8954 -0.0922
 7584SOL     OW34384   1.906   1.983  15.238  0.2528 -0.3111 -0.0197
 7584SOL    HW134385   1.951   1.997  15.322  0.8220  1.0139 -0.5423
 7584SOL    HW234386   1.881   2.075  15.230 -1.0646 -0.6106  0.5988
 7585SOL     OW34387   0.133   2.130   8.955  0.2086 -0.3814 -0.5653
 7585SOL    HW134388   0.175   2.213   8.932 -0.2079 -0.4066 -1.4277
 7585SOL    HW234389   0.084   2.141   9.036  0.8733  1.2173 -0.3906
 7586SOL     OW34390   2.420   1.852   9.681  0.0565  0.5450  0.3313
 7586SOL    HW134391   2.419   1.851   9.585  1.3576 -1.5556  0.3507
 7586SOL    HW234392   2.473   1.774   9.697  3.4031  2.5000 -1.0805
 7587SOL     OW34393   0.347   0.544  12.010  0.3537 -0.1116 -0.0197
 7587SOL    HW134394   0.315   0.459  11.981  1.4633 -0.0329 -1.4569
 7587SOL    HW234395   0.380   0.519  12.096 -0.2144 -2.0471 -0.3652
 7588SOL     OW34396   3.024   3.552   8.441 -0.0118  0.4771  0.0267
 7588SOL    HW134397   3.026   3.513   8.528  2.3824 -0.0775 -0.2576
 7588SOL    HW234398   3.047   3.476   8.387  1.9729  2.2434 -1.6232
 7589SOL     OW34399   4.156   2.721   8.306  0.1642  0.8505 -0.2719
 7589SOL    HW134400   4.239   2.673   8.311 -0.1636  0.7231  4.2371
 7589SOL    HW234401   4.138   2.733   8.399 -1.7021 -0.9618 -0.3974
 7590SOL     OW34402   0.781   3.318   6.165  0.0842  0.2321  0.1821
 7590SOL    HW134403   0.854   3.336   6.106  1.4164 -0.6353  1.5441
 7590SOL    HW234404   0.809   3.238   6.211  1.0535  1.0701  1.0403
 7591SOL     OW34405   4.560   1.162   9.980  0.6285  0.0685 -0.5268
 7591SOL    HW134406   4.516   1.088  10.023  1.4060 -0.2819 -0.3295
 7591SOL    HW234407   4.556   1.137   9.888  0.3516  0.8223 -0.7189
 7592SOL     OW34408   2.122   3.705   4.672 -0.9014 -0.1838 -0.4913
 7592SOL    HW134409   2.158   3.629   4.627 -0.5761  0.3664 -1.1517
 7592SOL    HW234410   2.032   3.674   4.689 -1.3132  1.6250  0.5799
 7593SOL     OW34411   0.115   2.935   5.658  0.5070 -0.1560  0.4018
 7593SOL    HW134412   0.072   3.020   5.663 -0.4265 -0.5035 -1.5700
 7593SOL    HW234413   0.122   2.919   5.752 -0.9598  1.1852  0.7374
 7594SOL     OW34414   3.338   2.834   6.518  0.1657  0.0265  0.4246
 7594SOL    HW134415   3.288   2.829   6.437  1.2125  2.3575 -0.3698
 7594SOL    HW234416   3.419   2.883   6.506  0.8370 -0.4166  3.0387
 7595SOL     OW34417   0.090   2.540   8.935  0.0045  0.2378  0.4775
 7595SOL    HW134418   0.032   2.562   9.007  2.9796  2.5623  2.1670
 7595SOL    HW234419   0.136   2.624   8.938 -0.7300  0.6158  1.0422
 7596SOL     OW34420   2.480   0.019   4.832  0.4094 -0.5257 -0.4212
 7596SOL    HW134421   2.391   0.048   4.851  1.0489  1.5510 -0.5602
 7596SOL    HW234422   2.477   4.707   4.751 -0.3720 -0.4412 -0.4434
 7597SOL     OW34423   2.531   1.346  15.190  0.1164  0.2343  0.0194
 7597SOL    HW134424   2.566   1.299  15.114 -0.2405  0.2445 -0.1475
 7597SOL    HW234425   2.542   1.280  15.258  1.0462 -0.4407 -0.7762
 7598SOL     OW34426   0.524   1.484   0.852  0.1540 -0.2464 -0.2190
 7598SOL    HW134427   0.466   1.507   0.924  0.1004 -0.3651 -0.2246
 7598SOL    HW234428   0.596   1.545   0.869 -0.4905  0.7113 -0.9012
 7599SOL     OW34429   1.416   4.563  10.684  0.5338  1.1459 -0.2068
 7599SOL    HW134430   1.395   4.485  10.631 -0.7738  1.2288  0.1816
 7599SOL    HW234431   1.509   4.544  10.694  0.4415  0.2063 -1.1435
 7600SOL     OW34432   0.430   2.440  12.430  0.3826  0.0164 -0.0679
 7600SOL    HW134433   0.501   2.453  12.492  1.4641 -1.6714 -0.9548
 7600SOL    HW234434   0.378   2.519  12.444 -1.6825 -1.1366 -1.2757
 7601SOL     OW34435   2.046   1.648   1.486  0.4763  1.0151  0.3509
 7601SOL    HW134436   2.098   1.689   1.555  0.5155  0.4174  0.6666
 7601SOL    HW234437   2.069   1.556   1.490 -3.3090  0.0151 -0.1280
 7602SOL     OW34438   1.238   3.816   6.451  0.1620  0.3120  0.2875
 7602SOL    HW134439   1.203   3.841   6.537  0.5160  1.3187  0.1393
 7602SOL    HW234440   1.189   3.871   6.390  0.3448 -1.0879 -1.1387
 7603SOL     OW34441   0.706   1.423  10.335  0.1282 -0.5972  0.1593
 7603SOL    HW134442   0.638   1.356  10.331  0.8690 -1.2937 -0.5860
 7603SOL    HW234443   0.774   1.373  10.380  0.0395 -0.5580  0.3377
 7604SOL     OW34444   4.406   1.579   6.574 -0.6121  0.6043  0.5222
 7604SOL    HW134445   4.336   1.645   6.577 -0.1480  1.0939  0.5504
 7604SOL    HW234446   4.467   1.623   6.516 -0.6308 -0.6147 -0.4117
 7605SOL     OW34447   3.837   4.122   7.232  0.1563 -0.0451 -0.2348
 7605SOL    HW134448   3.800   4.159   7.313  0.2719 -2.3814  0.9008
 7605SOL    HW234449   3.794   4.172   7.163  0.0361 -0.5332 -0.5137
 7606SOL     OW34450   3.074   0.303   8.328 -1.2887  0.1254  0.1080
 7606SOL    HW134451   3.041   0.316   8.417  0.6314  0.1254  0.8234
 7606SOL    HW234452   3.097   0.391   8.297  0.4737  0.4542  2.3328
 7607SOL     OW34453   3.364   4.340   6.000 -0.2121 -0.5006  0.1870
 7607SOL    HW134454   3.428   4.295   5.945 -0.2926 -0.1355 -0.2110
 7607SOL    HW234455   3.418   4.413   6.030 -0.6911  0.5570 -1.5227
 7608SOL     OW34456   2.881   1.029  13.750  0.1905  0.5611 -0.1103
 7608SOL    HW134457   2.920   1.116  13.740 -0.2522  0.7222 -0.4313
 7608SOL    HW234458   2.959   0.976  13.761 -0.9590 -1.1882 -0.3520
 7609SOL     OW34459   2.739   2.555   8.479 -0.2830  0.0920 -0.1218
 7609SOL    HW134460   2.820   2.553   8.427 -0.6481 -1.1152 -0.6553
 7609SOL    HW234461   2.718   2.648   8.488  0.6454  0.2535  0.3596
 7610SOL     OW34462   3.760   1.893  13.027 -0.2410 -0.1039 -0.6967
 7610SOL    HW134463   3.799   1.812  13.060  0.2183  1.4614  2.6626
 7610SOL    HW234464   3.788   1.958  13.091  1.1223  0.7471 -2.1746
 7611SOL     OW34465   1.318   0.864  17.375 -0.3890  0.3926  0.0107
 7611SOL    HW134466   1.402   0.818  17.374  0.3548  1.7766 -0.6284
 7611SOL    HW234467   1.307   0.894  17.465  0.7753  0.5006  0.1243
 7612SOL     OW34468   4.531   3.459   7.155 -0.1063  0.5576 -0.9208
 7612SOL    HW134469   4.489   3.458   7.069 -0.2205  0.8349 -0.8703
 7612SOL    HW234470   4.520   3.366   7.176  2.9512  0.4756  0.2923
 7613SOL     OW34471   3.320   1.746  12.948 -0.6107 -0.8375  0.2310
 7613SOL    HW134472   3.335   1.733  12.854  1.4117  0.4637  0.3712
 7613SOL    HW234473   3.411   1.752  12.975 -0.1510 -2.8787 -0.8339
 7614SOL     OW34474   0.432   1.751   7.283 -0.3164 -0.3287 -0.1232
 7614SOL    HW134475   0.412   1.813   7.212  1.4844  0.4383  0.0481
 7614SOL    HW234476   0.446   1.674   7.228  0.0077  0.8385 -1.6922
 7615SOL     OW34477   1.845   3.740  11.048  0.8779  0.5054  0.0719
 7615SOL    HW134478   1.917   3.677  11.042  0.9743  0.6924 -0.6209
 7615SOL    HW234479   1.766   3.691  11.071 -0.0819  0.6577 -2.9733
 7616SOL     OW34480   3.971   2.389   0.262 -0.3108  0.2010 -0.5175
 7616SOL    HW134481   3.994   2.299   0.239 -0.3604 -0.2949  1.4582
 7616SOL    HW234482   3.987   2.431   0.177  0.2312 -1.0842 -1.0436
 7617SOL     OW34483   3.855   3.188   6.667  0.2538 -0.5862  0.4492
 7617SOL    HW134484   3.815   3.219   6.748  0.2807 -1.0770  0.6494
 7617SOL    HW234485   3.890   3.267   6.627 -1.5419 -0.2373 -0.4358
 7618SOL     OW34486   0.043   2.315  10.755 -0.0130  0.0709 -0.3092
 7618SOL    HW134487   0.128   2.352  10.781 -1.0733  0.5083  2.5831
 7618SOL    HW234488   4.728   2.361  10.819  0.7712  2.9890 -1.7293
 7619SOL     OW34489   3.249   1.428  12.375  0.2224 -0.4590  0.1593
 7619SOL    HW134490   3.261   1.335  12.394 -0.4665 -0.7309 -0.7190
 7619SOL    HW234491   3.163   1.445  12.415  0.5347  2.2079 -0.3265
 7620SOL     OW34492   4.681   1.004  16.864  0.2543  0.4687 -0.6539
 7620SOL    HW134493   4.647   0.995  16.775  1.5514  0.6449 -1.1693
 7620SOL    HW234494   4.672   0.916  16.899 -0.3936  0.9715  0.4452
 7621SOL     OW34495   4.560   1.375   5.525 -0.1671 -0.1843 -0.0569
 7621SOL    HW134496   4.563   1.298   5.583 -2.9182 -0.7019 -0.6403
 7621SOL    HW234497   4.473   1.400   5.557 -1.0367 -1.6492 -1.3070
 7622SOL     OW34498   0.474   2.973  15.599  0.2518  0.5080  0.1221
 7622SOL    HW134499   0.492   2.969  15.693  2.6782 -3.7416 -0.5316
 7622SOL    HW234500   0.433   3.059  15.596 -1.8876 -0.4918  0.4775
 7623SOL     OW34501   3.518   2.242   1.848  0.1320  0.7990 -0.1389
 7623SOL    HW134502   3.465   2.226   1.926  0.4120 -0.4412 -0.1963
 7623SOL    HW234503   3.491   2.330   1.822  0.2442  0.0964 -2.6309
 7624SOL     OW34504   1.549   0.375   2.258  0.1616 -0.3479  0.6931
 7624SOL    HW134505   1.511   0.329   2.182 -1.4737  1.4391  0.4253
 7624SOL    HW234506   1.532   0.465   2.231  0.5713  0.0629  1.8310
 7625SOL     OW34507   1.987   0.642   6.387 -0.2472 -0.3157  0.0055
 7625SOL    HW134508   1.961   0.551   6.400  0.2052 -0.6667 -1.5338
 7625SOL    HW234509   2.027   0.670   6.469 -2.9642  1.0160  0.8851
 7626SOL     OW34510   2.936   1.239   6.894 -0.0340 -0.7752 -0.3186
 7626SOL    HW134511   3.018   1.281   6.919  0.8284 -1.8743 -1.3697
 7626SOL    HW234512   2.877   1.290   6.950  0.8167 -0.5777  0.3934
 7627SOL     OW34513   2.609   4.249   0.452  0.9250  0.4101  0.3110
 7627SOL    HW134514   2.584   4.207   0.534  1.9205 -0.7928  0.0016
 7627SOL    HW234515   2.530   4.302   0.446  0.0359 -0.9767 -0.2904
 7628SOL     OW34516   3.065   1.210   6.367 -0.2349  0.7107 -0.0265
 7628SOL    HW134517   3.148   1.219   6.414 -0.9969  1.3582  1.1986
 7628SOL    HW234518   3.078   1.284   6.308 -0.6185  1.7712  1.2306
 7629SOL     OW34519   0.987   2.613   4.322 -0.0340  0.4575 -0.0186
 7629SOL    HW134520   1.063   2.669   4.339 -2.3543  3.5340  0.1286
 7629SOL    HW234521   0.993   2.553   4.396 -1.5239 -1.1792 -1.2160
 7630SOL     OW34522   2.068   2.708   8.256 -0.1394  0.2402  0.0774
 7630SOL    HW134523   2.161   2.705   8.281  0.4706  0.2056 -2.1650
 7630SOL    HW234524   2.045   2.619   8.228 -2.1511  0.6860  0.3245
 7631SOL     OW34525   2.398   3.272   0.168 -0.3955  0.2444 -0.5652
 7631SOL    HW134526   2.460   3.333   0.207  2.2720 -2.2751 -0.7916
 7631SOL    HW234527   2.434   3.254   0.081  0.4743  1.7081 -0.5086
 7632SOL     OW34528   2.288   2.674  16.328 -0.1612  0.0482 -0.0498
 7632SOL    HW134529   2.351   2.718  16.386  0.8814  0.6060 -1.5992
 7632SOL    HW234530   2.348   2.620  16.277 -1.2065 -0.3218 -0.8754
 7633SOL     OW34531   2.110   1.947   1.212  0.5010 -0.0793 -0.0085
 7633SOL    HW134532   2.114   1.856   1.244 -1.1462 -0.1383  0.0572
 7633SOL    HW234533   2.173   1.942   1.140 -0.8159  1.7465 -1.2826
 7634SOL     OW34534   0.558   0.824  16.395 -0.1542  0.3041  0.1758
 7634SOL    HW134535   0.603   0.770  16.461  0.9028  1.6583  0.5629
 7634SOL    HW234536   0.466   0.799  16.401 -0.0011 -0.6034 -1.4152
 7635SOL     OW34537   0.804   3.385   9.271 -0.2130  0.2567 -0.2578
 7635SOL    HW134538   0.729   3.444   9.282 -2.6100 -2.1716 -3.6431
 7635SOL    HW234539   0.875   3.444   9.297 -0.2804  0.3525 -0.2926
 7636SOL     OW34540   0.764   3.783   2.324  0.7474  0.4119  0.0929
 7636SOL    HW134541   0.713   3.809   2.401 -1.2455  0.6704 -1.3276
 7636SOL    HW234542   0.787   3.701   2.368  0.3864 -0.3079 -1.0478
 7637SOL     OW34543   3.967   0.295   6.651 -0.1513  0.4845 -0.0172
 7637SOL    HW134544   4.048   0.309   6.702  0.4692 -0.5866 -0.7123
 7637SOL    HW234545   3.980   0.367   6.589 -1.8864  2.0512  1.4159
 7638SOL     OW34546   3.726   0.319   3.125  0.0605  0.0940 -0.1013
 7638SOL    HW134547   3.742   0.380   3.052 -1.9272  1.5155  0.6441
 7638SOL    HW234548   3.682   0.247   3.081 -1.5691  1.5982 -0.9445
 7639SOL     OW34549   1.342   1.387   1.022 -0.6808  0.4201  0.2085
 7639SOL    HW134550   1.396   1.437   0.961 -1.1505  1.8653  0.9778
 7639SOL    HW234551   1.268   1.447   1.029 -0.8057  0.3973 -1.0778
 7640SOL     OW34552   1.781   3.676   1.485 -0.1816 -0.0080  0.4631
 7640SOL    HW134553   1.731   3.754   1.460  0.7672  0.2143 -0.7234
 7640SOL    HW234554   1.777   3.618   1.408  2.2697  1.3993 -0.7297
 7641SOL     OW34555   2.633   3.323   2.107 -0.4191  0.0345 -0.0433
 7641SOL    HW134556   2.609   3.415   2.117 -1.5657 -0.3011  0.2773
 7641SOL    HW234557   2.549   3.281   2.124 -0.6807 -0.3479 -2.2716
 7642SOL     OW34558   1.448   2.966   3.303 -0.3156  0.0462 -0.2339
 7642SOL    HW134559   1.499   2.919   3.370  1.0616  0.0573 -1.2697
 7642SOL    HW234560   1.459   3.057   3.330 -0.7934  0.4293 -1.3422
 7643SOL     OW34561   0.340   4.406   3.483  0.2046 -0.6919  0.3459
 7643SOL    HW134562   0.348   4.422   3.577  2.2634  2.8150 -0.4476
 7643SOL    HW234563   0.419   4.445   3.447 -0.6574  2.0208  1.3723
 7644SOL     OW34564   0.896   3.867   2.699  0.4608 -0.1983  0.3982
 7644SOL    HW134565   0.844   3.822   2.764  0.7052 -0.0689  0.6818
 7644SOL    HW234566   0.837   3.939   2.679  1.2868 -0.2100 -2.1288
 7645SOL     OW34567   3.930   2.386   2.689  0.0913  0.3838 -0.2811
 7645SOL    HW134568   3.957   2.469   2.729  0.4967 -0.4951  1.2562
 7645SOL    HW234569   3.903   2.327   2.760 -0.5968  0.6846 -0.2969
 7646SOL     OW34570   0.368   0.018   0.523 -0.0517 -0.4418  0.2048
 7646SOL    HW134571   0.292   4.731   0.576 -0.1009 -2.4710 -0.8356
 7646SOL    HW234572   0.323   0.049   0.444 -2.1147 -0.2744  1.4353
 7647SOL     OW34573   0.782   3.777   2.989  0.4155  0.0022  0.0641
 7647SOL    HW134574   0.857   3.734   2.949  0.0650  1.5892 -2.2919
 7647SOL    HW234575   0.826   3.838   3.049  0.9635 -1.1721  0.8664
 7648SOL     OW34576   0.512   2.306   2.018  0.0798  0.3431  0.3840
 7648SOL    HW134577   0.493   2.229   2.072 -0.0071 -0.0408 -0.2011
 7648SOL    HW234578   0.605   2.311   2.040  0.7718  1.2192 -2.8459
 7649SOL     OW34579   0.778   3.670  16.591  0.2373  0.1994  0.3819
 7649SOL    HW134580   0.796   3.578  16.608 -0.1455  0.2691  1.1797
 7649SOL    HW234581   0.841   3.707  16.654  1.6612  0.1827 -1.0230
 7650SOL     OW34582   4.630   2.337   6.096 -0.0336 -0.0740 -0.8626
 7650SOL    HW134583   4.685   2.262   6.072  1.3746  1.2097 -1.6341
 7650SOL    HW234584   4.692   2.406   6.119  0.1363 -0.5221  0.0165
 7651SOL     OW34585   4.224   2.963   9.703  0.8643 -0.1909  0.2987
 7651SOL    HW134586   4.172   2.906   9.760 -2.8126  2.9444  0.0248
 7651SOL    HW234587   4.230   3.043   9.756 -1.4842 -0.2671  0.6882
 7652SOL     OW34588   2.057   4.321   2.749  0.0279  0.4235 -0.2828
 7652SOL    HW134589   1.971   4.359   2.728  0.5922  0.6013 -2.2867
 7652SOL    HW234590   2.081   4.376   2.823 -1.4030 -1.6222  1.6871
 7653SOL     OW34591   1.080   4.256   4.303  0.0964 -0.1400 -0.6170
 7653SOL    HW134592   1.085   4.201   4.226  0.7814  3.2401 -2.9992
 7653SOL    HW234593   1.171   4.249   4.333  0.6262 -1.7993 -2.6480
 7654SOL     OW34594   2.245   4.171   6.684  0.3017 -0.4744  0.2762
 7654SOL    HW134595   2.210   4.191   6.597  0.7094 -1.5964 -0.1529
 7654SOL    HW234596   2.167   4.127   6.719 -1.0851  0.7565 -1.2493
 7655SOL     OW34597   0.304   4.235   6.131  0.8961 -0.2406 -0.3525
 7655SOL    HW134598   0.324   4.250   6.038  0.9322 -2.6918 -0.7459
 7655SOL    HW234599   0.335   4.145   6.142 -0.4904 -0.5216  1.0792
 7656SOL     OW34600   3.374   0.395   9.777 -0.1196  0.2042 -0.5013
 7656SOL    HW134601   3.318   0.470   9.754 -2.3344 -1.6559 -1.1382
 7656SOL    HW234602   3.449   0.451   9.799 -0.6066 -0.6571  3.2945
 7657SOL     OW34603   3.376   0.398   8.343 -0.3024 -0.7135 -0.0017
 7657SOL    HW134604   3.310   0.466   8.328 -0.2046 -1.0192 -1.8481
 7657SOL    HW234605   3.466   0.428   8.328 -0.9647  1.0186 -0.5882
 7658SOL     OW34606   3.218   0.456  15.178  0.4208 -0.5681 -0.1876
 7658SOL    HW134607   3.260   0.453  15.093  1.2195 -0.6090  0.2128
 7658SOL    HW234608   3.251   0.371  15.206  0.7341 -0.6399 -0.7744
 7659SOL     OW34609   3.790   1.312   4.737 -0.1070 -0.4197  0.1512
 7659SOL    HW134610   3.751   1.227   4.715 -0.2901  0.2598 -2.1130
 7659SOL    HW234611   3.711   1.366   4.732  0.8793  1.1808  2.2220
 7660SOL     OW34612   1.372   2.255   8.902 -0.2767 -0.3847  0.7317
 7660SOL    HW134613   1.447   2.200   8.879 -0.8195 -0.1152 -1.6944
 7660SOL    HW234614   1.327   2.197   8.963 -1.5898 -1.2878 -1.0745
 7661SOL     OW34615   2.369   0.357  15.567  0.2263 -0.4679  0.0491
 7661SOL    HW134616   2.305   0.298  15.527  0.1758  0.7964 -1.7084
 7661SOL    HW234617   2.383   0.421  15.497 -0.0196 -0.4172  0.0474
 7662SOL     OW34618   1.222   2.210   6.798  0.0652  0.6331 -0.1731
 7662SOL    HW134619   1.238   2.300   6.768  0.2773  0.3071 -1.0281
 7662SOL    HW234620   1.266   2.209   6.883 -0.6145 -0.9247  0.1674
 7663SOL     OW34621   4.660   0.748   5.433  0.2908 -0.6158 -0.6099
 7663SOL    HW134622   4.732   0.774   5.376 -0.4916 -1.7883 -2.1675
 7663SOL    HW234623   4.594   0.746   5.363 -0.3145  1.1246 -0.1050
 7664SOL     OW34624   1.764   2.473   4.114  0.1222 -0.6907 -0.2222
 7664SOL    HW134625   1.813   2.394   4.092  0.5387 -0.0701 -1.5196
 7664SOL    HW234626   1.818   2.510   4.183  0.9053  1.0865 -1.8042
 7665SOL     OW34627   4.294   1.133   7.625 -0.0109  0.4903  0.1024
 7665SOL    HW134628   4.309   1.048   7.584 -0.5626 -0.2508  1.4558
 7665SOL    HW234629   4.265   1.180   7.547  1.0567 -1.3226 -1.4097
 7666SOL     OW34630   0.256   1.985   3.491 -0.7156  0.0458 -0.0884
 7666SOL    HW134631   0.298   1.919   3.436  0.1730 -0.6121  1.3771
 7666SOL    HW234632   0.304   2.065   3.469  0.6697 -0.4819  1.0679
 7667SOL     OW34633   3.213   4.219   6.781 -0.0504 -0.2526 -0.2883
 7667SOL    HW134634   3.145   4.183   6.838 -1.9048  0.3888 -2.0888
 7667SOL    HW234635   3.254   4.294   6.823  2.2402 -0.9100 -1.3149
 7668SOL     OW34636   3.464   2.772   2.549  0.0987  0.1903  0.2508
 7668SOL    HW134637   3.371   2.747   2.550  0.3852 -0.9060  0.3208
 7668SOL    HW234638   3.466   2.867   2.550 -0.8982  0.1659  3.2643
 7669SOL     OW34639   2.388   0.785   2.564  0.1544  0.2579 -0.3403
 7669SOL    HW134640   2.424   0.704   2.602 -0.4533 -0.2967 -0.9479
 7669SOL    HW234641   2.300   0.760   2.536  0.5703 -0.5667 -0.8995
 7670SOL     OW34642   3.898   3.537   6.306  0.6953  0.5018 -0.2598
 7670SOL    HW134643   3.963   3.606   6.321  0.0334  0.6649  1.7856
 7670SOL    HW234644   3.883   3.561   6.214  1.5958  0.1612 -0.4957
 7671SOL     OW34645   2.415   0.296   4.214 -0.3497  0.3367  0.4030
 7671SOL    HW134646   2.445   0.227   4.154  0.1382  0.5205  0.4365
 7671SOL    HW234647   2.355   0.242   4.266  1.1597  0.7285  2.5581
 7672SOL     OW34648   3.351   4.125   1.592 -0.0797  0.2720  0.1722
 7672SOL    HW134649   3.339   4.034   1.564  1.2013 -0.1395  0.9917
 7672SOL    HW234650   3.289   4.131   1.664 -1.4163  0.3941 -0.9873
 7673SOL     OW34651   4.081   3.955   2.349 -0.1691  0.2481 -0.0460
 7673SOL    HW134652   3.999   3.953   2.399  0.3814 -0.5098  0.8284
 7673SOL    HW234653   4.140   3.902   2.402 -0.1162 -1.7356 -2.0727
 7674SOL     OW34654   2.839   0.774   0.856  0.3367  0.4977 -0.1968
 7674SOL    HW134655   2.770   0.793   0.792  0.1734 -3.0520 -1.0407
 7674SOL    HW234656   2.816   0.826   0.933  0.9743  0.0561  0.2846
 7675SOL     OW34657   3.790   2.050   8.186 -0.1016 -0.3422  0.4232
 7675SOL    HW134658   3.842   2.125   8.215  1.7497 -2.7575  3.3022
 7675SOL    HW234659   3.704   2.076   8.220  0.2730  1.6348 -0.1039
 7676SOL     OW34660   0.384   3.564   4.180 -0.0033 -0.5961  0.5892
 7676SOL    HW134661   0.322   3.516   4.126 -1.1114 -0.0948  1.4309
 7676SOL    HW234662   0.332   3.567   4.260 -1.7497 -0.0132 -0.5916
 7677SOL     OW34663   0.297   3.930   4.334 -0.6053  0.0266 -0.0248
 7677SOL    HW134664   0.246   3.990   4.280 -1.8084  0.4828  1.6176
 7677SOL    HW234665   0.225   3.903   4.390 -1.2201 -1.1244 -1.3485
 7678SOL     OW34666   2.011   3.547  11.108  0.1252  0.0327 -0.1811
 7678SOL    HW134667   2.004   3.547  11.204  3.0290  0.2576  0.0396
 7678SOL    HW234668   2.082   3.485  11.094 -0.7423 -1.0543  0.2893
 7679SOL     OW34669   2.880   2.982   4.616 -0.0183 -0.1632 -0.1602
 7679SOL    HW134670   2.810   3.045   4.599 -0.5705 -0.7015  0.1302
 7679SOL    HW234671   2.845   2.893   4.613 -0.7708  0.2724 -4.4657
 7680SOL     OW34672   1.729   2.920   3.170 -0.2451 -0.5266  0.6552
 7680SOL    HW134673   1.714   2.969   3.090  0.0491 -0.9215  0.3529
 7680SOL    HW234674   1.655   2.859   3.169 -2.4705  2.1738  1.9322
 7681SOL     OW34675   1.444   3.501   4.584  0.4356 -0.2290 -0.9319
 7681SOL    HW134676   1.468   3.421   4.632  0.3471  1.0934  1.2776
 7681SOL    HW234677   1.500   3.566   4.626 -0.1377  0.1347 -0.7284
 7682SOL     OW34678   0.475   2.712   7.660 -0.3510  0.7945 -0.3806
 7682SOL    HW134679   0.418   2.783   7.631 -1.2565  0.6068  0.9080
 7682SOL    HW234680   0.433   2.691   7.744 -0.5122 -0.2020 -0.7112
 7683SOL     OW34681   3.423   3.401   5.326 -0.4194  0.1089 -0.2352
 7683SOL    HW134682   3.377   3.485   5.333  0.0989  0.8322 -5.0443
 7683SOL    HW234683   3.515   3.424   5.335  0.0034 -0.7614 -2.2580
 7684SOL     OW34684   2.709   0.994  11.930  0.1703 -0.6084 -0.0303
 7684SOL    HW134685   2.617   0.983  11.951  0.5024 -0.1116  1.7069
 7684SOL    HW234686   2.715   1.090  11.929 -0.6260 -0.5539  0.3721
 7685SOL     OW34687   3.195   3.134   8.158 -0.6789 -0.3557 -0.1574
 7685SOL    HW134688   3.157   3.162   8.074 -2.4617 -2.7495 -0.1576
 7685SOL    HW234689   3.288   3.150   8.144 -1.3302  2.3849 -1.5131
 7686SOL     OW34690   3.694   4.026   6.037 -0.3115 -0.7398 -0.3650
 7686SOL    HW134691   3.752   3.950   6.051 -0.9746 -1.3486 -0.9281
 7686SOL    HW234692   3.704   4.050   5.946  0.3991  2.2307  0.5158
 7687SOL     OW34693   2.882   4.419   4.586 -0.8129  0.2804  0.2617
 7687SOL    HW134694   2.956   4.359   4.586 -0.0121  1.2613  0.0764
 7687SOL    HW234695   2.878   4.415   4.682  0.5087 -0.7803  0.2730
 7688SOL     OW34696   2.312   1.443  12.500 -0.6727  0.1625 -0.0946
 7688SOL    HW134697   2.232   1.494  12.495  0.7718  2.6491  1.7714
 7688SOL    HW234698   2.339   1.432  12.409 -2.3654 -0.1365 -0.5405
 7689SOL     OW34699   1.876   1.059   3.684 -0.0080 -0.2503  0.1699
 7689SOL    HW134700   1.928   1.002   3.627  0.6002 -0.5458  1.0209
 7689SOL    HW234701   1.933   1.059   3.761 -0.2702 -0.7147  0.3685
 7690SOL     OW34702   2.536   1.605  14.844 -0.5538  0.5142  0.3012
 7690SOL    HW134703   2.566   1.670  14.907 -0.4919 -0.4496  1.2728
 7690SOL    HW234704   2.605   1.541  14.860 -0.0915  1.2852  1.4095
 7691SOL     OW34705   0.230   1.759   6.786 -0.1771  0.3555 -0.5955
 7691SOL    HW134706   0.281   1.776   6.865 -0.3031 -3.3771  0.3017
 7691SOL    HW234707   0.284   1.714   6.722 -0.1266  1.0094 -1.0091
 7692SOL     OW34708   0.869   1.244   5.401  0.3968 -0.5539 -0.3352
 7692SOL    HW134709   0.877   1.154   5.370  1.4606 -0.7977  0.6481
 7692SOL    HW234710   0.816   1.221   5.478  0.9707  0.5234  0.3796
 7693SOL     OW34711   2.550   1.077   3.806  0.3508 -0.0490  0.3819
 7693SOL    HW134712   2.479   1.069   3.742  0.5117 -0.7255  0.2881
 7693SOL    HW234713   2.531   1.017   3.879 -3.1921  0.8567  0.1867
 7694SOL     OW34714   4.517   4.355  10.944  0.1180  0.0333  0.3047
 7694SOL    HW134715   4.466   4.396  11.014 -0.1702  0.4345 -0.1413
 7694SOL    HW234716   4.464   4.276  10.932  0.9168 -0.5932  0.8822
 7695SOL     OW34717   3.343   2.358   9.557 -0.1510  0.6065 -0.5438
 7695SOL    HW134718   3.251   2.363   9.533 -0.1980  1.2749 -0.2242
 7695SOL    HW234719   3.379   2.410   9.485  2.4765 -0.2421  0.1643
 7696SOL     OW34720   0.359   0.901   8.897  0.3160  0.4719 -0.4180
 7696SOL    HW134721   0.295   0.848   8.945  0.2857 -0.3327 -1.3515
 7696SOL    HW234722   0.379   0.849   8.819  0.3507  1.0765 -0.8118
 7697SOL     OW34723   1.423   2.962  12.275 -0.5638  0.4565 -0.3316
 7697SOL    HW134724   1.515   2.943  12.257 -0.7247 -0.1727 -0.5235
 7697SOL    HW234725   1.393   2.924  12.192 -0.2335  1.7060 -1.0212
 7698SOL     OW34726   4.514   1.833   7.571  0.1835 -0.1825 -0.3995
 7698SOL    HW134727   4.481   1.784   7.496  0.5489 -0.8542 -0.1166
 7698SOL    HW234728   4.561   1.775   7.630 -0.5479 -0.3595  0.0039
 7699SOL     OW34729   3.442   0.108   8.313 -0.0287  0.4698  0.4875
 7699SOL    HW134730   3.374   0.150   8.261  0.1088 -0.8957 -0.7600
 7699SOL    HW234731   3.444   0.171   8.386  0.5537 -0.5121  1.3306
 7700SOL     OW34732   2.603   2.613  14.345  0.4554 -0.4142 -0.3027
 7700SOL    HW134733   2.689   2.640  14.311 -0.3108  1.3467 -0.8643
 7700SOL    HW234734   2.546   2.612  14.268  0.2536 -1.8558 -0.1267
 7701SOL     OW34735   3.621   0.497   5.065 -0.2673  0.1175  0.5099
 7701SOL    HW134736   3.617   0.460   4.976 -0.7364  0.1920  0.5029
 7701SOL    HW234737   3.657   0.432   5.126  2.4102  2.2207  1.1552
 7702SOL     OW34738   3.788   0.170   7.795 -0.2687 -0.0807  0.2416
 7702SOL    HW134739   3.810   0.091   7.745 -1.0057  0.4484 -0.9071
 7702SOL    HW234740   3.873   0.204   7.820 -1.7076  2.5785  1.4943
 7703SOL     OW34741   1.801   3.217   4.803 -0.1462  0.2508  0.1144
 7703SOL    HW134742   1.845   3.261   4.730  0.8036 -0.7850  0.0547
 7703SOL    HW234743   1.796   3.129   4.765 -0.1045  0.7261 -0.9808
 7704SOL     OW34744   1.035   1.724   1.613  0.1570 -0.5004  0.8772
 7704SOL    HW134745   1.111   1.687   1.568  0.8601  0.4368  1.2911
 7704SOL    HW234746   1.068   1.738   1.702 -0.1318  2.4898  0.5116
 7705SOL     OW34747   0.338   3.274   3.418  0.0476  0.4287 -0.2215
 7705SOL    HW134748   0.402   3.280   3.488  0.0445 -0.1822 -0.1659
 7705SOL    HW234749   0.345   3.353   3.364  0.5554 -0.4265 -1.4114
 7706SOL     OW34750   1.800   0.914   5.296  0.8054 -0.1437 -0.8484
 7706SOL    HW134751   1.726   0.963   5.332  1.9121  0.6649  0.3158
 7706SOL    HW234752   1.788   0.830   5.340 -2.4406 -0.0158 -1.4636
 7707SOL     OW34753   2.532   0.680  14.278 -0.5126 -0.4297  0.6178
 7707SOL    HW134754   2.511   0.628  14.356 -2.1903 -1.2709 -0.3947
 7707SOL    HW234755   2.452   0.663  14.227 -1.8018 -2.1545  3.2375
 7708SOL     OW34756   3.417   4.498   5.218  0.1936  0.5536  0.5000
 7708SOL    HW134757   3.326   4.510   5.194  0.2666  0.9832  0.4312
 7708SOL    HW234758   3.460   4.582   5.202  0.2026  0.7849  1.6779
 7709SOL     OW34759   2.482   4.298   2.943 -0.3875 -0.5069 -0.2371
 7709SOL    HW134760   2.495   4.214   2.987 -1.3112 -1.1293 -1.1669
 7709SOL    HW234761   2.390   4.308   2.971  0.0308  1.7340  0.3339
 7710SOL     OW34762   1.066   2.943   5.621 -0.0684 -0.0603  0.3379
 7710SOL    HW134763   1.096   2.853   5.616  1.4170  0.3294  2.1516
 7710SOL    HW234764   1.130   2.988   5.567  1.4046 -0.2809  1.8898
 7711SOL     OW34765   2.433   1.692   8.815 -0.1744 -0.8150  0.4382
 7711SOL    HW134766   2.382   1.640   8.753  1.5042 -0.3561 -1.3434
 7711SOL    HW234767   2.399   1.781   8.805 -0.2278 -1.0622 -1.6336
 7712SOL     OW34768   0.152   1.072   7.675 -0.4222  0.3851  0.2247
 7712SOL    HW134769   0.246   1.084   7.669 -0.1514 -0.9170  1.8037
 7712SOL    HW234770   0.114   1.159   7.663  0.2798  1.0851  3.0059
 7713SOL     OW34771   1.927   4.416   5.732  0.0013  0.2800 -0.2180
 7713SOL    HW134772   1.993   4.392   5.797  0.3452 -1.4215 -1.1697
 7713SOL    HW234773   1.981   4.430   5.654  1.1618 -3.3718 -0.0955
 7714SOL     OW34774   2.343   3.578  16.485 -0.3966  0.6453  0.2372
 7714SOL    HW134775   2.395   3.545  16.558 -0.2605  1.0221  0.3136
 7714SOL    HW234776   2.270   3.623  16.528  0.0272 -0.1774  1.7769
 7715SOL     OW34777   3.126   1.084   7.119 -0.1798  0.1373  0.0245
 7715SOL    HW134778   3.074   1.028   7.062 -1.3925  0.0463  1.1932
 7715SOL    HW234779   3.140   1.169   7.077  0.1192  0.3929  0.6425
 7716SOL     OW34780   2.470   1.308   4.020 -0.2668 -0.1226  0.0363
 7716SOL    HW134781   2.501   1.237   4.076 -0.6811 -0.6262 -0.3708
 7716SOL    HW234782   2.472   1.263   3.935 -1.5287 -2.3740  1.2095
 7717SOL     OW34783   0.776   3.295   5.348  0.0946 -0.3448 -0.0891
 7717SOL    HW134784   0.764   3.306   5.254 -1.3803  0.1625  0.1591
 7717SOL    HW234785   0.869   3.284   5.365 -0.2022 -1.6010  0.7298
 7718SOL     OW34786   3.728   4.362   8.763 -0.9912  0.2786 -0.1264
 7718SOL    HW134787   3.794   4.397   8.704 -0.6106 -1.3244 -0.6540
 7718SOL    HW234788   3.672   4.304   8.710 -1.6016 -0.3392  1.1906
 7719SOL     OW34789   3.628   0.178   0.484 -0.2770  0.3031 -0.0515
 7719SOL    HW134790   3.610   0.084   0.492  1.4626  0.3227  3.9492
 7719SOL    HW234791   3.656   0.201   0.395  0.2422  0.6454  0.2051
 7720SOL     OW34792   0.489   4.227  10.664 -0.4783 -0.3402 -0.1310
 7720SOL    HW134793   0.468   4.147  10.617 -0.2385 -1.2095  1.2338
 7720SOL    HW234794   0.517   4.193  10.749 -0.7246 -0.9293 -0.2858
 7721SOL     OW34795   4.567   4.171   5.366  0.5189 -0.4660 -0.0640
 7721SOL    HW134796   4.585   4.265   5.361  1.1152 -0.5727  0.0453
 7721SOL    HW234797   4.640   4.135   5.417 -1.5668 -2.3085  1.6161
 7722SOL     OW34798   3.304   1.483   6.027 -0.0913  0.3384  0.6329
 7722SOL    HW134799   3.290   1.487   5.932 -0.6388 -1.2720  0.6502
 7722SOL    HW234800   3.346   1.399   6.043  0.2459 -0.0714 -2.4132
 7723SOL     OW34801   1.788   0.921   6.631 -0.0763  0.0502  0.2145
 7723SOL    HW134802   1.730   0.971   6.689  1.3690  1.3869  0.5344
 7723SOL    HW234803   1.809   0.989   6.567  0.6394  0.1869  0.5913
 7724SOL     OW34804   4.619   2.448   6.959 -0.5720  0.5977  0.0983
 7724SOL    HW134805   4.641   2.444   6.866 -2.7629 -1.0826 -0.3472
 7724SOL    HW234806   4.700   2.463   7.008  0.4923 -2.3476 -0.7432
 7725SOL     OW34807   4.061   0.094   1.902  0.1947  0.2575 -0.8044
 7725SOL    HW134808   4.123   0.164   1.878  0.4665  1.2152  2.7261
 7725SOL    HW234809   3.992   0.109   1.838 -0.6478  0.3312  0.1306
 7726SOL     OW34810   0.150   0.237   6.258 -0.4044 -0.1936 -0.3164
 7726SOL    HW134811   0.078   0.221   6.197 -1.9488  2.7010  0.7504
 7726SOL    HW234812   0.110   0.206   6.339  2.1788 -1.6544  0.4034
 7727SOL     OW34813   4.730   0.767   8.030  0.4631 -0.3207  0.2711
 7727SOL    HW134814   0.083   0.737   8.028  0.3075 -0.8517  1.3106
 7727SOL    HW234815   4.731   0.840   7.968 -0.5176 -0.2949  0.2843
 7728SOL     OW34816   2.107   3.974   4.554 -0.0170  0.2439 -0.2440
 7728SOL    HW134817   2.146   3.956   4.469 -1.1055 -2.3754 -0.1854
 7728SOL    HW234818   2.144   3.903   4.605  0.5315  1.9518  1.7532
 7729SOL     OW34819   2.180   2.996   8.493 -0.1403  0.1165  0.2775
 7729SOL    HW134820   2.227   3.074   8.523 -0.3122 -1.2609  4.1403
 7729SOL    HW234821   2.157   3.025   8.405  2.2120  2.6747  0.5068
 7730SOL     OW34822   2.226   2.998   3.150  0.8513 -0.0844  0.4293
 7730SOL    HW134823   2.205   3.086   3.182  1.0579  0.4986 -1.0489
 7730SOL    HW234824   2.178   2.943   3.211 -0.7376  1.3967  0.5290
 7731SOL     OW34825   2.537   1.691   0.426  0.3907  0.1525 -0.0445
 7731SOL    HW134826   2.516   1.614   0.374 -2.7431  1.2738 -0.4089
 7731SOL    HW234827   2.544   1.660   0.517 -0.4773  2.8622  0.9395
 7732SOL     OW34828   1.446   4.713   8.482  0.0630 -0.1217 -0.0236
 7732SOL    HW134829   1.442   4.622   8.453  0.2678  0.3675 -1.5610
 7732SOL    HW234830   1.539   4.726   8.466 -0.1235 -0.4947 -1.4099
 7733SOL     OW34831   1.169   1.346   1.883 -0.9789 -0.0072 -0.2519
 7733SOL    HW134832   1.256   1.331   1.846 -1.0762  2.0786 -1.2862
 7733SOL    HW234833   1.114   1.342   1.805 -0.2702  0.3660 -0.7621
 7734SOL     OW34834   1.405   3.623   2.472  0.1695 -0.1745 -0.1782
 7734SOL    HW134835   1.356   3.704   2.457  0.5201 -0.0564 -0.6796
 7734SOL    HW234836   1.368   3.568   2.403  1.0173 -2.1393  0.9236
 7735SOL     OW34837   2.217   1.328   5.991  0.3858  0.4418 -0.1717
 7735SOL    HW134838   2.243   1.256   6.048 -1.6901 -0.3045 -0.1522
 7735SOL    HW234839   2.185   1.396   6.050  2.0427 -1.0790  2.4458
 7736SOL     OW34840   3.023   4.001   8.545  0.1601  0.0886  0.2773
 7736SOL    HW134841   3.051   4.067   8.608  0.0334  2.1252 -1.7605
 7736SOL    HW234842   2.974   3.940   8.600  0.3621  2.2968  2.8515
 7737SOL     OW34843   0.473   2.656  10.839 -0.0647  0.1530 -0.0185
 7737SOL    HW134844   0.508   2.658  10.750  1.1999 -0.1770  0.4603
 7737SOL    HW234845   0.554   2.654  10.890  0.5553 -0.1242 -1.0282
 7738SOL     OW34846   1.988   4.178  13.777  0.3723  0.2015  0.3740
 7738SOL    HW134847   2.006   4.219  13.693 -0.4368 -2.0395 -0.9083
 7738SOL    HW234848   1.906   4.132  13.759 -0.0053  1.0515 -0.0391
 7739SOL     OW34849   2.602   0.918   1.985  0.0019  0.0323  0.1085
 7739SOL    HW134850   2.569   1.007   2.003  0.1210  0.2596 -0.8081
 7739SOL    HW234851   2.521   0.867   1.991 -0.4333  0.4717 -2.0951
 7740SOL     OW34852   2.803   1.499   0.226  0.0674  0.2470 -0.0522
 7740SOL    HW134853   2.766   1.416   0.255 -0.2552  0.5463  0.3881
 7740SOL    HW234854   2.878   1.470   0.174  0.8284  0.9324  0.6610
 7741SOL     OW34855   4.167   0.067   6.572 -0.3626 -0.1477  0.1141
 7741SOL    HW134856   4.101   0.136   6.580 -1.3469 -1.1920  1.0601
 7741SOL    HW234857   4.228   0.098   6.506 -0.8004  3.4900  1.4446
 7742SOL     OW34858   0.185   2.379   2.694  0.8935 -0.5629 -0.4021
 7742SOL    HW134859   0.261   2.391   2.750 -0.3137  0.1346  1.0981
 7742SOL    HW234860   0.150   2.300   2.736 -1.8345  0.0108 -1.5797
 7743SOL     OW34861   1.445   4.441   8.441 -0.5163  0.0749  0.4908
 7743SOL    HW134862   1.461   4.406   8.528 -1.9279 -1.1376  0.2566
 7743SOL    HW234863   1.380   4.376   8.414 -0.5553  0.0731  0.5885
 7744SOL     OW34864   3.846   1.944   2.806  0.3322 -0.3747  0.2996
 7744SOL    HW134865   3.804   2.000   2.741 -1.6129  0.1888  2.0472
 7744SOL    HW234866   3.788   1.966   2.879 -1.4442  0.3577 -1.3363
 7745SOL     OW34867   0.638   0.865  16.996  0.1700 -0.2507 -0.0688
 7745SOL    HW134868   0.649   0.905  16.909 -0.9149  1.5787  0.6476
 7745SOL    HW234869   0.603   0.937  17.048  2.6340 -0.1930  1.4728
 7746SOL     OW34870   0.033   2.429   0.738 -0.4727  0.6159 -0.2062
 7746SOL    HW134871   0.017   2.336   0.726  0.4704  0.6219 -1.4782
 7746SOL    HW234872   0.122   2.434   0.773  0.0129 -0.5364 -1.2831
 7747SOL     OW34873   0.428   4.283   3.755  0.3807 -0.4049  0.0329
 7747SOL    HW134874   0.361   4.233   3.708  0.0827  0.9397 -0.9777
 7747SOL    HW234875   0.376   4.300   3.834 -0.0292  1.1568 -0.5568
 7748SOL     OW34876   1.548   0.212   5.127  0.1275  0.2941 -0.1237
 7748SOL    HW134877   1.470   0.267   5.140 -0.5790 -0.7550  0.0115
 7748SOL    HW234878   1.617   0.255   5.177 -0.5238 -0.2869  1.2835
 7749SOL     OW34879   4.272   1.240  14.898  0.3737  0.1062  0.7029
 7749SOL    HW134880   4.293   1.245  14.804 -0.1849  2.7828  0.7173
 7749SOL    HW234881   4.347   1.289  14.932  1.6722  0.6935 -3.0043
 7750SOL     OW34882   4.337   1.633   1.550  0.1382 -0.0665  0.4816
 7750SOL    HW134883   4.390   1.554   1.546  1.4809  0.8595 -0.2739
 7750SOL    HW234884   4.384   1.667   1.627  0.0346 -0.6244  0.7856
 7751SOL     OW34885   4.373   4.432  11.197  0.3682 -0.2035 -0.5041
 7751SOL    HW134886   4.383   4.521  11.231 -1.4961 -0.1806 -0.0186
 7751SOL    HW234887   4.448   4.383  11.233  0.1081 -0.5727 -0.4643
 7752SOL     OW34888   3.026   3.907   6.798  0.5400 -0.7880  0.1137
 7752SOL    HW134889   3.029   3.836   6.734  1.4699 -0.1792 -0.5095
 7752SOL    HW234890   3.086   3.878   6.868  1.6677  1.3219  0.0070
 7753SOL     OW34891   2.581   1.112   9.804 -0.0522  1.0267  0.3396
 7753SOL    HW134892   2.626   1.193   9.783  0.7024  0.0208 -1.8906
 7753SOL    HW234893   2.625   1.089   9.886  0.3083 -2.4275 -0.8287
 7754SOL     OW34894   1.527   1.859  16.669  0.1519 -0.4925 -0.0521
 7754SOL    HW134895   1.439   1.892  16.653  1.3365  1.2465 -2.9627
 7754SOL    HW234896   1.579   1.913  16.609 -1.1373  1.0816  0.2878
 7755SOL     OW34897   2.538   3.090  14.821 -0.3128  0.1954 -0.3028
 7755SOL    HW134898   2.597   3.140  14.765 -0.1826 -0.1692 -0.4874
 7755SOL    HW234899   2.490   3.154  14.874 -0.9931 -1.1495  0.7150
 7756SOL     OW34900   2.004   0.356  17.428  0.6080 -0.0864  0.0914
 7756SOL    HW134901   2.002   0.448  17.403 -0.4028 -0.1082  0.0718
 7756SOL    HW234902   2.054   0.319  17.355 -1.0306  1.3809 -1.7612
 7757SOL     OW34903   2.463   3.342  10.577 -0.0228 -0.8682 -0.2910
 7757SOL    HW134904   2.399   3.398  10.533 -0.5518 -3.3227 -2.6880
 7757SOL    HW234905   2.426   3.332  10.665  1.0319 -3.5099 -0.1297
 7758SOL     OW34906   2.940   2.209  14.355 -0.1447  0.4412  0.2405
 7758SOL    HW134907   2.975   2.155  14.284  1.1862  0.8591  0.5676
 7758SOL    HW234908   2.845   2.197  14.355 -0.1565  0.4667  1.6649
 7759SOL     OW34909   0.612   1.450   1.421  0.1342 -0.3109 -0.1101
 7759SOL    HW134910   0.700   1.466   1.456 -0.1317 -1.2531  0.9721
 7759SOL    HW234911   0.589   1.364   1.455  0.2249  0.1477  1.1241
 7760SOL     OW34912   2.287   4.622   7.596  0.1440 -0.1930  0.4689
 7760SOL    HW134913   2.317   4.673   7.520 -0.0618  0.6503  0.9550
 7760SOL    HW234914   2.197   4.653   7.606 -0.3355 -1.0629 -1.1255
 7761SOL     OW34915   0.910   1.336   1.049 -0.0052 -0.4457 -0.0871
 7761SOL    HW134916   0.909   1.431   1.065  2.3781 -1.0931  3.8139
 7761SOL    HW234917   0.949   1.307   1.131 -2.9804 -2.5235  0.5765
 7762SOL     OW34918   1.353   4.230   4.312 -0.0958  1.0954  0.7431
 7762SOL    HW134919   1.406   4.303   4.344  0.0065  0.2383  2.5183
 7762SOL    HW234920   1.403   4.213   4.232 -0.5740  0.3176  0.6070
 7763SOL     OW34921   4.661   3.358  10.344  0.2910  0.5455  0.2716
 7763SOL    HW134922   4.672   3.264  10.326 -1.8359  0.8074 -2.2482
 7763SOL    HW234923   4.569   3.366  10.369  0.4457 -0.1890  1.0990
 7764SOL     OW34924   2.528   4.253  12.157  0.3114 -0.1563  0.3374
 7764SOL    HW134925   2.580   4.173  12.148 -1.9647 -1.2935 -2.7000
 7764SOL    HW234926   2.540   4.285  12.246 -0.3477  1.9420 -0.3123
 7765SOL     OW34927   0.375   1.447   2.859 -0.1661 -0.1067 -0.0225
 7765SOL    HW134928   0.319   1.436   2.782  2.1845  1.1984 -1.9192
 7765SOL    HW234929   0.416   1.362   2.869 -0.2436 -0.5817 -3.8686
 7766SOL     OW34930   2.146   2.069   7.752 -0.6794 -1.0177  0.6609
 7766SOL    HW134931   2.158   1.987   7.704 -1.4549  1.2599 -3.4550
 7766SOL    HW234932   2.128   2.141   7.691  2.5717  0.4007  1.3851
 7767SOL     OW34933   4.276   1.502   5.124  0.0945 -0.3074 -0.1345
 7767SOL    HW134934   4.227   1.472   5.201  2.6330 -0.4449  1.4074
 7767SOL    HW234935   4.237   1.589   5.124  0.2262 -0.2498 -0.0812
 7768SOL     OW34936   1.940   0.733   9.653  0.0609  0.4350  0.6634
 7768SOL    HW134937   1.846   0.715   9.663  0.2852 -1.2768 -0.2971
 7768SOL    HW234938   1.943   0.815   9.701  0.8210  1.1513 -0.6244
 7769SOL     OW34939   3.143   2.168  16.588 -0.8312 -0.0223 -0.0790
 7769SOL    HW134940   3.166   2.081  16.621 -1.0860 -0.3177 -0.6779
 7769SOL    HW234941   3.062   2.187  16.635 -1.4290  1.3384 -1.6561
 7770SOL     OW34942   1.930   2.693   6.353  0.0765  0.2272 -0.0210
 7770SOL    HW134943   1.965   2.605   6.343 -2.3931 -0.9591  1.8592
 7770SOL    HW234944   1.888   2.697   6.439 -1.1056  3.2157 -0.7456
 7771SOL     OW34945   0.089   4.071   5.427  0.4462  0.2205  0.1635
 7771SOL    HW134946   0.114   4.030   5.510  1.0914  0.4152  0.0583
 7771SOL    HW234947   0.076   3.986   5.385 -0.4765 -0.2209  1.3101
 7772SOL     OW34948   0.750   1.203   0.873 -0.6186  0.5951 -0.3637
 7772SOL    HW134949   0.780   1.283   0.829  1.8017  0.4515  1.0485
 7772SOL    HW234950   0.769   1.232   0.962 -2.4255 -2.0220  0.8581
 7773SOL     OW34951   3.874   1.781   6.371  0.3733 -0.1750  0.3172
 7773SOL    HW134952   3.870   1.840   6.447 -0.3921  0.8656 -0.5309
 7773SOL    HW234953   3.786   1.789   6.335  0.7151  0.7937 -0.3041
 7774SOL     OW34954   0.947   3.538   6.602  0.0793  0.3538 -0.5956
 7774SOL    HW134955   1.013   3.494   6.548 -0.8326  0.2631 -1.6353
 7774SOL    HW234956   0.919   3.466   6.660  1.4780  2.0018  2.1066
 7775SOL     OW34957   4.154   0.966  15.409 -0.1962  0.3072  0.5409
 7775SOL    HW134958   4.097   0.936  15.338 -1.8383  3.0564  0.6761
 7775SOL    HW234959   4.088   0.969  15.479  0.6123 -0.6293  1.3373
 7776SOL     OW34960   0.311   3.092  13.243 -0.3058 -0.0680  0.2607
 7776SOL    HW134961   0.353   3.106  13.328 -1.0680  0.0502  0.6173
 7776SOL    HW234962   0.363   3.021  13.205 -0.6025 -0.8921  1.4103
 7777SOL     OW34963   2.819   0.053  13.424 -0.2274  0.3591  0.2870
 7777SOL    HW134964   2.915   0.050  13.430 -0.1395  1.0124 -0.7712
 7777SOL    HW234965   2.811   0.075  13.331  1.5026 -1.9072 -0.4241
 7778SOL     OW34966   2.108   2.846  11.612  0.2142  0.2758 -0.1815
 7778SOL    HW134967   2.083   2.814  11.526  0.1553  3.6670 -1.4517
 7778SOL    HW234968   2.062   2.779  11.661 -1.3543  1.2672 -0.3011
 7779SOL     OW34969   2.190   3.306  11.056 -0.7503  0.1431 -0.0162
 7779SOL    HW134970   2.235   3.351  11.127  0.6606  0.9403 -1.4144
 7779SOL    HW234971   2.196   3.215  11.086  0.5288 -0.1793 -1.2522
 7780SOL     OW34972   1.976   4.356   6.689 -0.2644  0.2021  0.1746
 7780SOL    HW134973   1.935   4.269   6.696  1.1603 -0.4416  0.6138
 7780SOL    HW234974   2.023   4.355   6.606  1.8434 -2.4272  1.3580
 7781SOL     OW34975   1.849   3.636   4.528 -0.2020 -0.0750 -0.2164
 7781SOL    HW134976   1.862   3.546   4.498  2.5815 -0.9835  3.7180
 7781SOL    HW234977   1.880   3.673   4.446 -3.1267  1.8431 -0.4740
 7782SOL     OW34978   2.479   0.197   5.697  0.2391  0.1381 -0.0891
 7782SOL    HW134979   2.454   0.105   5.689  0.5023 -0.1573  2.6203
 7782SOL    HW234980   2.509   0.204   5.788 -0.2690 -1.0889  0.1647
 7783SOL     OW34981   3.062   3.858   3.166 -0.0579 -0.0764  0.3382
 7783SOL    HW134982   3.104   3.919   3.227  0.7186  0.1624 -0.4385
 7783SOL    HW234983   3.141   3.838   3.115 -0.1417  0.1813  0.1101
 7784SOL     OW34984   0.908   2.534   5.942  0.4830 -0.3525 -0.5359
 7784SOL    HW134985   0.925   2.623   5.913  0.8199  0.2022  1.3822
 7784SOL    HW234986   0.816   2.543   5.968  0.4453 -1.6661 -0.2173
 7785SOL     OW34987   1.675   0.137  11.585 -0.4123 -0.1143 -0.2878
 7785SOL    HW134988   1.661   0.042  11.579 -3.8160  0.4629 -1.4757
 7785SOL    HW234989   1.646   0.157  11.673  0.8442 -1.6521  0.4781
 7786SOL     OW34990   0.438   1.639  11.852  0.4866  0.6377 -0.0945
 7786SOL    HW134991   0.348   1.623  11.823  1.0027  0.7997 -1.7631
 7786SOL    HW234992   0.493   1.613  11.778 -0.0093  3.0666 -1.3202
 7787SOL     OW34993   2.092   0.367   3.540 -0.2312 -0.3240  0.3290
 7787SOL    HW134994   2.029   0.423   3.586 -0.5644 -0.3740 -0.0636
 7787SOL    HW234995   2.170   0.391   3.590 -0.6698 -0.5949  1.1424
 7788SOL     OW34996   4.474   0.395   3.419  0.1620  0.3922  0.7692
 7788SOL    HW134997   4.482   0.338   3.343  0.7236  2.7865 -0.9277
 7788SOL    HW234998   4.418   0.340   3.475 -0.0623  0.4860  0.6337
 7789SOL     OW34999   1.951   0.800   3.273  0.2405  0.1077 -0.3163
 7789SOL    HW135000   1.969   0.883   3.227  2.1170 -0.0236  0.2119
 7789SOL    HW235001   1.999   0.811   3.355  0.5470 -2.6542 -0.1555
 7790SOL     OW35002   4.439   0.419   9.061 -0.0465 -0.2668  0.3091
 7790SOL    HW135003   4.476   0.507   9.058 -3.2132  1.0332 -0.6867
 7790SOL    HW235004   4.349   0.441   9.086  0.0247  0.7370 -0.2855
 7791SOL     OW35005   3.299   0.972   6.611 -0.0601  0.3414 -0.0613
 7791SOL    HW135006   3.297   1.043   6.676 -0.4590  0.3329 -0.0607
 7791SOL    HW235007   3.393   0.967   6.593  0.2883 -0.1342  1.9042
 7792SOL     OW35008   4.079   1.537   1.462  0.2738  0.2743 -0.4163
 7792SOL    HW135009   4.148   1.599   1.486  0.6308 -0.6760  1.0402
 7792SOL    HW235010   4.013   1.567   1.525 -0.5084  2.3217 -2.2043
 7793SOL     OW35011   2.277   4.599   4.347  0.9051  0.0226  0.2467
 7793SOL    HW135012   2.356   4.576   4.297  0.5405 -0.4178 -0.1253
 7793SOL    HW235013   2.214   4.579   4.278  0.7375  1.0936  0.0853
 7794SOL     OW35014   3.592   0.725   5.451 -0.1840 -0.1461 -0.5111
 7794SOL    HW135015   3.633   0.714   5.365 -2.5266  0.9567 -1.7528
 7794SOL    HW235016   3.669   0.736   5.507 -1.0016 -0.7585  0.7330
 7795SOL     OW35017   3.693   1.538  14.749  0.0141 -0.1670 -0.2609
 7795SOL    HW135018   3.662   1.525  14.839  0.3987  1.8349  0.1484
 7795SOL    HW235019   3.641   1.463  14.718 -0.5623  0.3853 -0.6310
 7796SOL     OW35020   2.676   4.675  12.032  0.5520 -0.6188 -0.0380
 7796SOL    HW135021   2.767   4.653  12.050  1.1240  2.6049  1.0261
 7796SOL    HW235022   2.677   0.032  12.030  1.1052 -0.6879 -3.8724
 7797SOL     OW35023   0.727   2.759   3.205  0.7413 -0.6673 -0.0522
 7797SOL    HW135024   0.808   2.711   3.188 -0.6672 -3.0323 -0.0801
 7797SOL    HW235025   0.661   2.690   3.197 -1.1883  1.3453 -1.4750
 7798SOL     OW35026   2.640   2.576  13.436  0.0960  0.4247  0.1090
 7798SOL    HW135027   2.693   2.623  13.500 -1.0250  1.6237  0.1650
 7798SOL    HW235028   2.631   2.649  13.375 -3.7378 -0.6172 -0.5625
 7799SOL     OW35029   1.217   3.883   3.562 -0.1859 -0.0103  0.0657
 7799SOL    HW135030   1.197   3.872   3.469 -0.0349 -1.2118  0.1723
 7799SOL    HW235031   1.286   3.948   3.554 -0.0694 -0.0332  0.8406
 7800SOL     OW35032   0.512   2.664  10.567 -0.6918  0.2050 -1.1267
 7800SOL    HW135033   0.537   2.572  10.557  2.1680  0.9224 -0.6418
 7800SOL    HW235034   0.511   2.703  10.480  0.7613  2.2511 -0.2173
 7801SOL     OW35035   2.720   3.568   8.677  0.7829  0.1575  0.1253
 7801SOL    HW135036   2.753   3.595   8.591 -0.1163 -0.2838 -0.3635
 7801SOL    HW235037   2.804   3.559   8.722  1.2929 -1.2325 -1.0987
 7802SOL     OW35038   4.141   1.251  16.239 -0.1955  0.2388 -0.4796
 7802SOL    HW135039   4.088   1.327  16.263  2.4645  1.3705  1.8415
 7802SOL    HW235040   4.077   1.183  16.259 -0.0139  0.7384  1.8781
 7803SOL     OW35041   0.090   2.003  10.389 -0.0886 -0.1219 -0.5521
 7803SOL    HW135042   0.084   1.948  10.310  2.6429  0.6225 -1.3067
 7803SOL    HW235043   0.091   2.088  10.344 -0.4522 -0.1423 -0.5969
 7804SOL     OW35044   4.441   1.460   7.186  0.0146 -0.4843 -0.3904
 7804SOL    HW135045   4.468   1.368   7.179  0.0150 -0.2543 -3.5937
 7804SOL    HW235046   4.417   1.482   7.096 -1.2702  1.3722  0.4160
 7805SOL     OW35047   1.490   2.588   1.865  0.3445 -0.4574  0.1320
 7805SOL    HW135048   1.484   2.663   1.923  1.8665  0.1991 -0.5499
 7805SOL    HW235049   1.402   2.596   1.829  1.8055  3.4166 -2.6457
 7806SOL     OW35050   3.925   4.598   3.389  0.1966  0.3902  0.6801
 7806SOL    HW135051   3.899   4.527   3.329  1.1717 -0.2352  1.0101
 7806SOL    HW235052   4.002   4.555   3.425  1.0712  2.6920  1.5282
 7807SOL     OW35053   1.931   2.270   3.937 -0.1300 -0.0748 -0.2256
 7807SOL    HW135054   1.941   2.250   3.844  1.0195  1.2154 -0.3606
 7807SOL    HW235055   1.866   2.202   3.958 -1.8598  1.3456 -0.9874
 7808SOL     OW35056   1.725   3.416  13.658 -0.3376 -0.6166 -0.4247
 7808SOL    HW135057   1.655   3.353  13.670  0.0748 -1.3304 -1.7315
 7808SOL    HW235058   1.741   3.447  13.747 -1.6197  1.9492 -1.0917
 7809SOL     OW35059   1.758   2.429   5.898 -0.4170 -0.1016  0.5720
 7809SOL    HW135060   1.837   2.481   5.883 -1.7255  1.1827 -1.8294
 7809SOL    HW235061   1.801   2.345   5.879  2.6745  1.2713  1.5362
 7810SOL     OW35062   3.102   1.040   9.462 -0.3826  0.3607  0.0285
 7810SOL    HW135063   3.192   1.058   9.486  0.4286 -2.0393 -1.2410
 7810SOL    HW235064   3.071   1.007   9.547 -1.4555  2.3942  0.4320
 7811SOL     OW35065   1.105   1.156  17.071  0.3315 -0.4896 -0.5299
 7811SOL    HW135066   1.031   1.140  17.013  0.3810  0.3371 -0.8295
 7811SOL    HW235067   1.129   1.067  17.095  0.4025 -0.3014  0.1092
 7812SOL     OW35068   1.373   2.870   5.669  0.1723  0.1326 -0.2176
 7812SOL    HW135069   1.304   2.810   5.640  0.2336 -0.3033  0.5473
 7812SOL    HW235070   1.423   2.875   5.587  0.8505 -1.2077  0.1159
 7813SOL     OW35071   3.082   1.825   1.104 -0.3191  0.2373  0.4563
 7813SOL    HW135072   3.090   1.900   1.163 -0.6248  0.5922  0.0491
 7813SOL    HW235073   3.002   1.782   1.132  1.8204 -1.0356  4.6188
 7814SOL     OW35074   1.253   1.387   8.324  0.1639  0.1324  0.2463
 7814SOL    HW135075   1.253   1.295   8.351 -2.4357  0.1793  0.3401
 7814SOL    HW235076   1.201   1.431   8.391  2.8036  3.8052 -0.0839
 7815SOL     OW35077   2.309   2.397   4.468 -0.4782 -0.6827 -0.3595
 7815SOL    HW135078   2.395   2.432   4.492 -0.9437 -2.6718  4.1669
 7815SOL    HW235079   2.258   2.460   4.418 -0.2600 -1.3015 -1.3561
 7816SOL     OW35080   3.631   4.383   3.901 -0.0614 -0.3379 -0.0338
 7816SOL    HW135081   3.633   4.412   3.810 -2.0054  1.4473  0.4973
 7816SOL    HW235082   3.561   4.318   3.899  0.5335 -0.9770 -0.1589
 7817SOL     OW35083   1.552   4.166  17.680  0.0517  0.0388 -0.0191
 7817SOL    HW135084   1.536   4.184  17.587  0.3491 -3.5524 -0.7650
 7817SOL    HW235085   1.615   4.095  17.667  0.5178  0.7234 -1.4664
 7818SOL     OW35086   2.043   2.400  16.900 -0.0820 -0.1345 -0.0913
 7818SOL    HW135087   1.956   2.430  16.875  0.3696  1.8086  0.6712
 7818SOL    HW235088   2.094   2.480  16.892  0.3580 -0.2163  1.9545
 7819SOL     OW35089   1.355   0.971   7.380 -0.3332  0.2347  0.1006
 7819SOL    HW135090   1.271   0.995   7.418 -0.1600  0.0881  0.5747
 7819SOL    HW235091   1.344   0.877   7.391  1.0014  0.2089  1.1270
 7820SOL     OW35092   2.706   2.779  14.877 -0.4430  0.8765 -0.2837
 7820SOL    HW135093   2.633   2.815  14.928  0.5565  1.5727  0.6784
 7820SOL    HW235094   2.714   2.833  14.799  0.5801 -0.5948 -1.1794
 7821SOL     OW35095   1.352   3.877  11.249  0.4825 -0.9771 -0.0887
 7821SOL    HW135096   1.439   3.838  11.254  0.8151 -0.2381 -0.1962
 7821SOL    HW235097   1.359   3.933  11.172  2.2750  0.5804  1.2065
 7822SOL     OW35098   2.715   3.250  10.540 -0.3527 -0.1103  0.2369
 7822SOL    HW135099   2.732   3.225  10.631  1.2361  0.6223  0.1249
 7822SOL    HW235100   2.624   3.282  10.540 -0.5178 -0.5752  2.2177
 7823SOL     OW35101   1.460   0.702   5.476  0.6937 -0.3182 -0.2702
 7823SOL    HW135102   1.414   0.676   5.556 -0.5497 -0.5266 -1.0405
 7823SOL    HW235103   1.495   0.787   5.501  2.5123 -0.3867 -2.6444
 7824SOL     OW35104   0.066   3.208   2.622  0.1339  0.3095  0.4430
 7824SOL    HW135105   0.100   3.233   2.536 -2.2869 -1.7342 -1.0998
 7824SOL    HW235106   0.082   3.114   2.624  2.1968  0.6961  1.5365
 7825SOL     OW35107   3.892   0.214  10.759  0.7026 -0.1745  0.3030
 7825SOL    HW135108   3.832   0.253  10.696  1.1134  0.6545  0.4178
 7825SOL    HW235109   3.910   0.135  10.708  0.5002  0.5311 -0.8680
 7826SOL     OW35110   0.689   2.341  11.320  0.5059  0.0968  0.1719
 7826SOL    HW135111   0.771   2.321  11.275  0.5477  2.4038 -0.7749
 7826SOL    HW235112   0.685   2.436  11.310 -1.5320 -0.1440 -1.3627
 7827SOL     OW35113   2.316   1.360   4.517 -0.4368  0.7970 -0.2185
 7827SOL    HW135114   2.397   1.314   4.493 -0.0134  1.3239  0.1954
 7827SOL    HW235115   2.328   1.370   4.611  0.1018 -1.6523 -0.0143
 7828SOL     OW35116   2.119   1.008  15.436  0.0862  0.1821  0.2272
 7828SOL    HW135117   2.095   0.986  15.526  0.7894 -1.9130 -0.0991
 7828SOL    HW235118   2.136   1.102  15.434 -0.1675  0.2076 -0.7911
 7829SOL     OW35119   1.451   4.392   2.175 -0.4320 -0.1271  0.3406
 7829SOL    HW135120   1.458   4.450   2.099  0.4200  0.1942  0.6614
 7829SOL    HW235121   1.541   4.401   2.207 -0.3891  2.0763 -0.3871
 7830SOL     OW35122   2.164   1.592   2.862  0.1009  0.0422 -0.3250
 7830SOL    HW135123   2.123   1.611   2.946 -0.4344 -0.3771 -0.4919
 7830SOL    HW235124   2.190   1.680   2.835  0.8526 -0.7303 -2.1660
 7831SOL     OW35125   3.226   3.826  16.738  0.4228 -0.2744  0.2282
 7831SOL    HW135126   3.163   3.828  16.810  0.7921  0.4579  0.5313
 7831SOL    HW235127   3.188   3.786  16.660  1.0381 -2.7898  1.2098
 7832SOL     OW35128   2.714   4.291   4.291  0.7448 -0.0801 -0.0845
 7832SOL    HW135129   2.677   4.372   4.327  1.6797  0.2622  0.0885
 7832SOL    HW235130   2.644   4.225   4.287  1.1015 -0.6266  2.2607
 7833SOL     OW35131   4.451   0.099  16.915  0.2558 -0.0567  0.6936
 7833SOL    HW135132   4.450   0.121  16.822  0.8409 -0.1387  0.6651
 7833SOL    HW235133   4.398   0.170  16.952 -1.8192 -2.4806  2.4065
 7834SOL     OW35134   1.353   0.043   4.820  0.5609  0.0575  0.1653
 7834SOL    HW135135   1.343   4.689   4.841  1.8758 -0.0931  0.0668
 7834SOL    HW235136   1.305   0.050   4.738  1.6224 -0.0153 -0.4562
 7835SOL     OW35137   2.373   3.490   8.565  0.0510 -0.3632  0.4129
 7835SOL    HW135138   2.294   3.545   8.569 -0.3397 -1.0180  1.7558
 7835SOL    HW235139   2.422   3.534   8.495  1.4558 -2.2731  0.2081
 7836SOL     OW35140   2.628   1.890   9.183 -0.3128 -0.7397 -0.1096
 7836SOL    HW135141   2.642   1.927   9.095  2.4709  1.8055  1.3958
 7836SOL    HW235142   2.694   1.821   9.179  1.8918  1.3525  0.3029
 7837SOL     OW35143   1.448   0.705   1.683  0.2805  0.1093 -0.2686
 7837SOL    HW135144   1.489   0.716   1.597 -0.3462 -0.2703 -0.6175
 7837SOL    HW235145   1.525   0.710   1.740 -0.5943 -2.3186  1.1226
 7838SOL     OW35146   0.183   2.593  11.603 -0.2344  0.0561 -0.3555
 7838SOL    HW135147   0.160   2.684  11.618  0.3802  0.5055 -2.1486
 7838SOL    HW235148   0.146   2.550  11.680  3.7789 -1.4751  0.7492
 7839SOL     OW35149   2.546   0.678   8.954 -0.5152  0.2795 -0.1551
 7839SOL    HW135150   2.564   0.593   8.914  0.1332 -0.2499  1.2703
 7839SOL    HW235151   2.450   0.684   8.951 -0.4138  1.2637 -1.3042
 7840SOL     OW35152   3.193   4.393   8.528 -0.2593 -0.3095 -0.1385
 7840SOL    HW135153   3.175   4.487   8.526 -0.7035 -0.4166 -1.2583
 7840SOL    HW235154   3.108   4.351   8.537 -0.2344 -0.2756  0.2642
 7841SOL     OW35155   0.385   3.713   6.803 -0.3097 -0.2376  0.1221
 7841SOL    HW135156   0.292   3.700   6.788 -0.1370  0.6554 -1.8016
 7841SOL    HW235157   0.414   3.737   6.715  0.3488  1.4881  0.8174
 7842SOL     OW35158   1.670   2.105  15.431 -0.0998 -0.1307  0.1563
 7842SOL    HW135159   1.676   2.009  15.423 -1.1334 -0.0600 -1.6242
 7842SOL    HW235160   1.700   2.120  15.341 -1.5246 -0.1100 -0.3107
 7843SOL     OW35161   2.531   4.382   3.329 -0.0671 -0.0447  0.3625
 7843SOL    HW135162   2.575   4.453   3.283 -0.0534 -0.8519 -0.8738
 7843SOL    HW235163   2.545   4.309   3.268  0.0253  0.4712 -0.2286
 7844SOL     OW35164   3.683   4.325   7.090  0.9000 -0.1759  0.6328
 7844SOL    HW135165   3.667   4.386   7.019 -1.1434  1.0480  2.1510
 7844SOL    HW235166   3.653   4.374   7.167 -1.2171  0.8441 -0.8584
 7845SOL     OW35167   4.034   2.874   5.744 -0.0766  0.5484  0.0924
 7845SOL    HW135168   4.030   2.968   5.726 -0.3402  0.4676 -0.2771
 7845SOL    HW235169   3.985   2.879   5.826 -1.2687  1.4987 -0.6795
 7846SOL     OW35170   1.805   0.441   0.617  0.2633  0.1408  0.0368
 7846SOL    HW135171   1.862   0.489   0.558 -0.2478 -0.8074 -1.2242
 7846SOL    HW235172   1.801   0.359   0.567 -1.2962  0.0675  0.2750
 7847SOL     OW35173   1.372   3.931   7.157 -0.4302 -0.2026 -0.0420
 7847SOL    HW135174   1.386   4.018   7.195  3.6285  0.1731 -2.4462
 7847SOL    HW235175   1.333   3.895   7.237  0.6375  1.4505  1.2160
 7848SOL     OW35176   3.446   1.521  12.561 -0.8196  0.5475 -0.6912
 7848SOL    HW135177   3.436   1.454  12.493 -1.2990  0.3197 -0.4011
 7848SOL    HW235178   3.376   1.585  12.550  0.4803  2.0961  0.1236
 7849SOL     OW35179   3.464   0.777   5.764  0.5942  0.0092 -0.2709
 7849SOL    HW135180   3.467   0.689   5.802 -1.3724 -1.4201 -3.5024
 7849SOL    HW235181   3.388   0.782   5.707  0.6331 -1.0838 -0.4217
 7850SOL     OW35182   0.376   4.636   2.507  0.2245  0.8760 -0.2091
 7850SOL    HW135183   0.353   4.630   2.600 -0.1881 -1.0689 -0.4238
 7850SOL    HW235184   0.446   4.571   2.509  0.8129  1.5350  0.6488
 7851SOL     OW35185   1.642   0.387  11.028 -0.1484  0.6928 -0.3879
 7851SOL    HW135186   1.718   0.443  11.016  0.3785  0.2666  0.8605
 7851SOL    HW235187   1.668   0.296  11.011  0.0756  0.9135 -1.1805
 7852SOL     OW35188   0.566   2.968  12.641 -0.3317 -0.4776  0.1660
 7852SOL    HW135189   0.483   3.016  12.643 -0.1582 -0.2425  1.4356
 7852SOL    HW235190   0.594   2.998  12.727 -0.3206 -0.6207  0.2125
 7853SOL     OW35191   4.441   2.941  11.215 -0.5651  0.6257  0.0238
 7853SOL    HW135192   4.365   2.889  11.240 -0.4268  0.3439 -0.1309
 7853SOL    HW235193   4.481   2.968  11.297  0.0424  1.2771 -0.4840
 7854SOL     OW35194   1.560   1.739   6.656  0.6338  0.3237  0.4510
 7854SOL    HW135195   1.482   1.793   6.643  1.9707  1.8057 -1.4844
 7854SOL    HW235196   1.516   1.662   6.692  1.4975  0.6634  2.2816
 7855SOL     OW35197   0.205   1.022  12.893 -0.4727  0.1426 -0.0995
 7855SOL    HW135198   0.155   1.061  12.821  0.2863 -1.8581 -1.7206
 7855SOL    HW235199   0.224   1.098  12.948  1.6071  0.9191 -1.8840
 7856SOL     OW35200   1.703   0.183   3.363  0.7136  0.2539 -0.4685
 7856SOL    HW135201   1.696   0.199   3.458  0.4549  2.0774 -0.7879
 7856SOL    HW235202   1.774   0.243   3.341  0.1117  1.0214 -0.3257
 7857SOL     OW35203   3.089   3.103   2.712  0.4397 -0.0036 -0.1292
 7857SOL    HW135204   3.108   3.057   2.793  0.7827  2.1091  1.0041
 7857SOL    HW235205   3.036   3.032   2.677  0.5559 -0.2575  0.2077
 7858SOL     OW35206   0.305   2.126   6.457  0.1206 -0.8457 -0.3762
 7858SOL    HW135207   0.363   2.051   6.468  1.4198  0.4247  1.4888
 7858SOL    HW235208   0.218   2.086   6.460  0.0960 -0.9459 -3.2550
 7859SOL     OW35209   1.063   1.560   9.882 -0.1191  0.0490  0.9920
 7859SOL    HW135210   1.088   1.651   9.863 -0.3608  0.1136  0.9898
 7859SOL    HW235211   0.998   1.544   9.815 -0.6099 -2.7910  2.1436
 7860SOL     OW35212   1.034   1.722   5.184 -0.6233 -0.1806 -0.3627
 7860SOL    HW135213   1.123   1.709   5.152 -0.3042 -1.3675  1.0164
 7860SOL    HW235214   1.038   1.680   5.270 -1.4828 -1.0078 -0.7167
 7861SOL     OW35215   2.669   2.669   9.925 -0.3369  0.8339  0.7306
 7861SOL    HW135216   2.706   2.753   9.898 -2.0765  1.1260 -0.6995
 7861SOL    HW235217   2.583   2.673   9.883  0.1971  3.4431 -0.0954
 7862SOL     OW35218   4.101   3.269   9.107  0.0464  0.4193  0.5243
 7862SOL    HW135219   4.069   3.181   9.087 -2.5961  1.5055  0.1087
 7862SOL    HW235220   4.062   3.321   9.037  0.6991 -1.2978 -1.1335
 7863SOL     OW35221   2.485   1.823   5.345  0.1434  0.1407 -0.4759
 7863SOL    HW135222   2.441   1.760   5.289 -1.5475  1.7652 -0.9803
 7863SOL    HW235223   2.418   1.843   5.410  1.5570  0.8467  0.7987
 7864SOL     OW35224   3.409   0.885   2.660  0.4477 -0.7493  0.0074
 7864SOL    HW135225   3.350   0.813   2.642 -1.9529  0.3091  3.6888
 7864SOL    HW235226   3.457   0.850   2.735  0.8407  0.1177  0.1668
 7865SOL     OW35227   0.981   4.446   6.262 -0.5878 -0.0291  0.3799
 7865SOL    HW135228   0.987   4.378   6.194 -0.0319 -1.3309  1.7434
 7865SOL    HW235229   1.045   4.424   6.329 -2.0027  0.8368  1.9904
 7866SOL     OW35230   0.254   0.912   2.568 -0.3910  0.3850  0.3421
 7866SOL    HW135231   0.185   0.847   2.558 -0.3768  0.7107 -1.8319
 7866SOL    HW235232   0.312   0.894   2.494  1.1657  2.5101  1.0398
 7867SOL     OW35233   4.009   4.257  16.469  0.1544  0.1469 -0.0894
 7867SOL    HW135234   4.014   4.334  16.413  2.3851 -0.6317 -0.9877
 7867SOL    HW235235   4.097   4.219  16.457  1.3916  2.8647  0.4962
 7868SOL     OW35236   1.718   3.278   6.366  0.7154  0.2359  0.0668
 7868SOL    HW135237   1.750   3.302   6.279  0.4044  0.3212 -0.0207
 7868SOL    HW235238   1.716   3.184   6.348 -1.5331  0.6696 -1.9287
 7869SOL     OW35239   3.176   0.216   8.631 -0.2728 -0.7620  0.4787
 7869SOL    HW135240   3.250   0.276   8.625 -1.1310  0.2544 -0.1069
 7869SOL    HW235241   3.103   0.273   8.607  0.2851  0.1082  0.8447
 7870SOL     OW35242   3.456   2.300  16.902  0.3778  0.3171  0.3325
 7870SOL    HW135243   3.422   2.281  16.989 -0.2333  2.6370  0.6050
 7870SOL    HW235244   3.378   2.301  16.847  0.2251 -1.0740  0.5296
 7871SOL     OW35245   1.103   4.666   8.632  0.3798 -0.6044  0.0037
 7871SOL    HW135246   1.021   4.644   8.676  0.6918  2.7937  2.2355
 7871SOL    HW235247   1.157   4.642   8.707 -0.4864  1.9743  1.4161
 7872SOL     OW35248   3.434   3.863  11.448  0.1441 -0.1117 -0.6429
 7872SOL    HW135249   3.373   3.809  11.397  0.0585 -1.0734  0.5065
 7872SOL    HW235250   3.382   3.875  11.527  1.2906  1.7155 -0.1757
 7873SOL     OW35251   3.158   2.219   3.275  0.0046  0.2001 -0.2634
 7873SOL    HW135252   3.083   2.268   3.310 -0.2434  0.2438 -0.8556
 7873SOL    HW235253   3.219   2.290   3.256  1.5857 -0.7893  1.0990
 7874SOL     OW35254   2.188   2.451  14.631 -0.0682 -0.3965  0.3247
 7874SOL    HW135255   2.197   2.545  14.647 -2.4818  0.0299 -0.8638
 7874SOL    HW235256   2.186   2.457  14.535 -0.1273 -1.3826  0.2648
 7875SOL     OW35257   0.229   1.126   4.045 -0.7803  1.0946  0.6611
 7875SOL    HW135258   0.315   1.152   4.079 -0.7124  1.3553  0.2916
 7875SOL    HW235259   0.171   1.188   4.089 -1.2443  0.3431  1.1179
 7876SOL     OW35260   1.938   2.789   2.191  0.1917  0.2285  0.2450
 7876SOL    HW135261   1.873   2.722   2.214 -1.3969  1.4416 -0.7487
 7876SOL    HW235262   1.999   2.738   2.138 -1.4607 -1.3561 -0.1122
 7877SOL     OW35263   2.323   0.185  16.875  0.0649 -0.3661  0.6491
 7877SOL    HW135264   2.386   0.256  16.890 -1.5778  1.5167 -1.4015
 7877SOL    HW235265   2.334   0.158  16.784  1.1864  2.4719 -0.0633
 7878SOL     OW35266   1.335   3.150   7.644  0.1977 -0.0295 -0.3181
 7878SOL    HW135267   1.270   3.182   7.582 -0.0146 -0.5805 -0.3832
 7878SOL    HW235268   1.282   3.128   7.721  1.4885  2.1018  1.2070
 7879SOL     OW35269   3.400   1.580   9.485  0.3885 -0.0648 -0.2497
 7879SOL    HW135270   3.330   1.595   9.548 -0.1757  0.0200 -0.9045
 7879SOL    HW235271   3.467   1.646   9.504 -1.6326  1.2098  2.4048
 7880SOL     OW35272   0.692   3.043   3.208 -0.1632 -0.0622  0.0959
 7880SOL    HW135273   0.735   2.959   3.223  1.2641  0.3489 -1.7960
 7880SOL    HW235274   0.601   3.030   3.236  0.3662  0.4844  2.1016
 7881SOL     OW35275   3.990   4.245   8.489  0.3309 -0.3238 -0.0486
 7881SOL    HW135276   4.011   4.281   8.403 -0.6981 -1.6080 -0.8433
 7881SOL    HW235277   4.065   4.282   8.536 -0.4079 -0.0276  0.8931
 7882SOL     OW35278   3.597   0.662   9.026 -0.1653  0.6858 -0.0234
 7882SOL    HW135279   3.639   0.579   9.049 -0.3423  0.3613 -0.8349
 7882SOL    HW235280   3.616   0.677   8.933  0.0666 -0.9899 -0.2586
 7883SOL     OW35281   0.246   3.048  10.292 -0.6802  0.1383  0.4776
 7883SOL    HW135282   0.234   3.001  10.374  2.0752  0.8729  1.2830
 7883SOL    HW235283   0.269   3.132  10.332  0.8219  0.6220 -1.4338
 7884SOL     OW35284   3.630   1.974  17.554  0.0664 -0.2760 -0.3203
 7884SOL    HW135285   3.588   2.050  17.512  0.2024  1.1602  2.1369
 7884SOL    HW235286   3.560   1.962  17.618 -0.2140  1.4429 -0.3073
 7885SOL     OW35287   3.695   2.997  16.902 -0.1717 -0.0797  0.0980
 7885SOL    HW135288   3.772   2.976  16.955  1.2197  0.5295 -1.6541
 7885SOL    HW235289   3.678   2.910  16.865  3.3141 -1.3192  1.4141
 7886SOL     OW35290   1.349   1.304  11.874  0.3923  0.4485  0.2895
 7886SOL    HW135291   1.400   1.224  11.890  0.2892  0.6190  1.5146
 7886SOL    HW235292   1.351   1.299  11.779  0.3259 -2.5199  0.4354
 7887SOL     OW35293   4.024   4.601   7.175  0.3395 -0.4166 -0.0661
 7887SOL    HW135294   4.030   4.680   7.122  1.1642 -0.7031 -0.3934
 7887SOL    HW235295   4.115   4.587   7.199 -0.0446  0.2978  1.8272
 7888SOL     OW35296   3.092   4.146  16.312  0.0452 -0.3522 -0.4686
 7888SOL    HW135297   3.014   4.113  16.357  0.0035  0.1163 -0.1972
 7888SOL    HW235298   3.052   4.148  16.225  0.9646  1.0997 -0.8422
 7889SOL     OW35299   0.751   3.625  14.724 -0.2850  0.0715 -0.1393
 7889SOL    HW135300   0.829   3.650  14.675 -1.2476  3.3411 -0.0300
 7889SOL    HW235301   0.681   3.606  14.660  1.5191  1.4564 -2.5309
 7890SOL     OW35302   1.521   1.688   8.371  1.0554 -0.2971 -0.1148
 7890SOL    HW135303   1.563   1.773   8.383  1.1832 -0.4749  0.6786
 7890SOL    HW235304   1.466   1.684   8.449  1.1667  0.3583 -0.0014
 7891SOL     OW35305   4.154   4.449   3.462 -0.3179  0.2307  0.7442
 7891SOL    HW135306   4.123   4.359   3.471 -0.0822  0.3548  2.8233
 7891SOL    HW235307   4.220   4.444   3.394 -1.5312 -0.8801 -0.3471
 7892SOL     OW35308   1.317   0.633   5.679  0.4276  0.5320  0.4286
 7892SOL    HW135309   1.242   0.581   5.652 -0.6048  1.5745  1.2828
 7892SOL    HW235310   1.276   0.687   5.747 -0.9787  2.7278 -2.1674
 7893SOL     OW35311   4.535   3.907   9.364  0.4110 -0.1081 -0.4873
 7893SOL    HW135312   4.440   3.893   9.356  0.9340 -4.0261  0.4742
 7893SOL    HW235313   4.538   3.893   9.459 -0.4192  2.6028 -0.0508
 7894SOL     OW35314   0.456   1.811   6.933  0.2431 -0.0967  0.2965
 7894SOL    HW135315   0.536   1.772   6.896  0.0365  2.1417 -2.4622
 7894SOL    HW235316   0.448   1.898   6.894  1.0290 -1.5668 -3.0842
 7895SOL     OW35317   2.503   3.597   8.065 -0.4459  0.1556 -0.0860
 7895SOL    HW135318   2.486   3.639   7.981  1.7005  1.5577  0.1628
 7895SOL    HW235319   2.454   3.515   8.060 -0.4876 -0.0131  2.7656
 7896SOL     OW35320   4.155   3.226   2.661  0.1087  0.6628  0.4274
 7896SOL    HW135321   4.128   3.145   2.618 -0.6241  0.5995  1.0113
 7896SOL    HW235322   4.119   3.196   2.744 -0.6173 -0.8959 -0.4548
 7897SOL     OW35323   3.486   2.009   7.539 -0.3756  0.2108  0.1553
 7897SOL    HW135324   3.538   2.070   7.486 -1.1451 -0.3133 -1.2266
 7897SOL    HW235325   3.406   2.061   7.550 -1.9643 -2.5382  1.6101
 7898SOL     OW35326   1.125   0.815   4.610  0.1956 -0.0877  0.1028
 7898SOL    HW135327   1.148   0.825   4.518 -0.2657 -1.2744 -0.1493
 7898SOL    HW235328   1.157   0.725   4.615 -2.7136 -1.2070 -1.1058
 7899SOL     OW35329   0.410   0.487   8.790  0.3709  0.2120  0.2598
 7899SOL    HW135330   0.438   0.402   8.756 -0.5880  0.9534 -2.3687
 7899SOL    HW235331   0.315   0.479   8.794  0.2849  1.1271 -0.0363
 7900SOL     OW35332   2.813   1.515   5.300  0.3675  0.3014  0.5899
 7900SOL    HW135333   2.747   1.527   5.369  0.3988 -2.2595  1.0780
 7900SOL    HW235334   2.793   1.434   5.253 -2.2664  2.0168 -1.2657
 7901SOL     OW35335   1.399   3.038   8.175  0.5161 -0.2445 -0.3622
 7901SOL    HW135336   1.480   3.023   8.222  0.3094 -0.9610 -0.2418
 7901SOL    HW235337   1.396   3.134   8.164  0.3501 -0.4083 -1.7865
 7902SOL     OW35338   0.832   4.514   4.946 -0.3747  0.0221  0.1064
 7902SOL    HW135339   0.839   4.568   5.025  3.0323 -1.4392  0.8086
 7902SOL    HW235340   0.885   4.564   4.884 -0.9340 -2.0539 -2.0621
 7903SOL     OW35341   3.316   4.686   2.251  0.1362 -0.0135 -0.1051
 7903SOL    HW135342   3.274   4.686   2.165  0.2176  1.3737 -0.1399
 7903SOL    HW235343   3.268   4.613   2.291  0.5587 -1.1249 -1.6354
 7904SOL     OW35344   0.506   2.881  10.317  0.3492  0.2345 -0.1114
 7904SOL    HW135345   0.418   2.892  10.353 -0.0399 -0.2573 -0.9002
 7904SOL    HW235346   0.562   2.922  10.382  0.0964 -1.0656  0.9292
 7905SOL     OW35347   2.069   1.336   4.857 -0.3773  0.5734  0.3091
 7905SOL    HW135348   2.139   1.387   4.816  0.3226 -0.8203 -0.2319
 7905SOL    HW235349   2.073   1.251   4.813  3.8391  0.9531 -0.0246
 7906SOL     OW35350   3.716   0.597   6.449 -0.2017  0.6553  0.5284
 7906SOL    HW135351   3.778   0.670   6.446 -1.1830  1.4545 -0.3224
 7906SOL    HW235352   3.776   0.524   6.440 -0.7394  0.1080  1.4491
 7907SOL     OW35353   2.344   0.151   6.740  0.1343 -0.1651 -0.0395
 7907SOL    HW135354   2.328   0.225   6.798 -0.4244  0.1816 -0.6453
 7907SOL    HW235355   2.288   0.087   6.785 -0.0253 -0.6496 -0.9384
 7908SOL     OW35356   3.166   3.314   3.130  0.2221 -0.8500  0.3295
 7908SOL    HW135357   3.173   3.341   3.039  0.2779  1.2161  0.9570
 7908SOL    HW235358   3.071   3.308   3.130  0.1994 -0.4683 -1.1834
 7909SOL     OW35359   2.155   0.297   8.093 -0.3024 -0.2618 -0.3549
 7909SOL    HW135360   2.171   0.352   8.170  1.9729 -1.0922 -0.2442
 7909SOL    HW235361   2.094   0.354   8.045 -0.8958  1.7487  2.7896
 7910SOL     OW35362   1.380   4.354  13.525  0.5907  0.0162 -0.5460
 7910SOL    HW135363   1.393   4.438  13.480  0.4642  0.8408  0.9506
 7910SOL    HW235364   1.455   4.362  13.585  1.2178 -4.3037 -0.7344
 7911SOL     OW35365   1.588   3.890   1.454  0.0755  0.7381  0.6061
 7911SOL    HW135366   1.497   3.876   1.427  0.4073  0.9346 -0.6060
 7911SOL    HW235367   1.582   3.921   1.545 -1.5686 -0.7933  1.0219
 7912SOL     OW35368   2.659   2.193  13.659  0.1568  0.0440 -0.0194
 7912SOL    HW135369   2.623   2.148  13.736  0.7211  1.1018  0.8548
 7912SOL    HW235370   2.749   2.173  13.681 -0.1676 -0.6575  0.6618
 7913SOL     OW35371   0.204   0.846   9.920  0.3142  0.1177  0.2387
 7913SOL    HW135372   0.137   0.790   9.958 -0.1331  1.1320  0.9344
 7913SOL    HW235373   0.156   0.883   9.845  1.5488  0.7093 -0.2611
 7914SOL     OW35374   0.122   1.535  12.299  0.0825 -0.1514 -0.3033
 7914SOL    HW135375   0.193   1.483  12.337 -0.2392 -1.1230 -1.0110
 7914SOL    HW235376   0.169   1.568  12.222 -0.0091 -0.2998 -0.4230
 7915SOL     OW35377   4.093   3.086  10.992 -0.6228  0.0346  0.3578
 7915SOL    HW135378   4.087   3.127  10.906 -3.9835  0.0970  0.6257
 7915SOL    HW235379   4.076   3.155  11.056  0.7397 -0.4164  1.2234
 7916SOL     OW35380   1.392   0.840   3.948 -0.2011  0.2974 -0.5192
 7916SOL    HW135381   1.351   0.830   3.862  0.2333 -0.1311 -0.6805
 7916SOL    HW235382   1.450   0.915   3.939 -0.3644  0.5986  0.9472
 7917SOL     OW35383   1.050   0.626   6.060 -0.4024 -0.0825  0.0959
 7917SOL    HW135384   1.029   0.533   6.065 -0.4196 -0.0973 -0.2673
 7917SOL    HW235385   0.962   0.665   6.053  0.5246  1.8236 -0.8350
 7918SOL     OW35386   1.219   1.330  17.558 -0.5577  0.2011  0.1451
 7918SOL    HW135387   1.178   1.306  17.475 -0.8297 -0.1880  0.3928
 7918SOL    HW235388   1.259   1.413  17.532 -0.7941  0.1615 -0.3385
 7919SOL     OW35389   1.120   0.070   0.707 -0.3185  0.2293  0.8648
 7919SOL    HW135390   1.033   0.093   0.739 -0.4163 -0.7558  1.3063
 7919SOL    HW235391   1.178   0.069   0.783 -2.5410  0.3842  2.5505
 7920SOL     OW35392   1.494   2.684   3.906  0.4327  0.3127  0.0486
 7920SOL    HW135393   1.452   2.643   3.830 -1.4091 -0.1420  1.3141
 7920SOL    HW235394   1.517   2.607   3.958 -2.1975 -0.6278 -0.1671
 7921SOL     OW35395   4.117   3.043  12.656  0.0422 -0.0956  0.2385
 7921SOL    HW135396   4.149   3.114  12.602 -1.1323  1.5240  1.6811
 7921SOL    HW235397   4.025   3.030  12.636  0.0773 -1.4402  0.9086
 7922SOL     OW35398   1.821   0.961   8.825 -0.6842  0.4954 -0.1450
 7922SOL    HW135399   1.857   0.928   8.743 -1.7642  0.9124 -0.7836
 7922SOL    HW235400   1.758   0.890   8.841  0.3038  0.1132  2.0924
 7923SOL     OW35401   2.324   3.273   7.158 -0.4009 -0.0319 -0.0671
 7923SOL    HW135402   2.267   3.275   7.235  1.1481 -2.9617  1.1456
 7923SOL    HW235403   2.378   3.195   7.162 -0.8018 -0.3554 -0.9526
 7924SOL     OW35404   0.507   1.133  10.691  0.0517 -0.0084  0.2015
 7924SOL    HW135405   0.447   1.193  10.647 -0.6694  0.0985  1.3224
 7924SOL    HW235406   0.517   1.186  10.770  0.7479  0.0282  0.0832
 7925SOL     OW35407   1.456   3.314   6.058  0.4330  0.0745  0.5532
 7925SOL    HW135408   1.486   3.400   6.029 -1.7641  0.7994  0.4021
 7925SOL    HW235409   1.518   3.264   6.005  0.0916 -1.0222  1.1916
 7926SOL     OW35410   4.014   0.816  16.211 -0.2925 -0.5823 -0.1098
 7926SOL    HW135411   3.930   0.860  16.210 -0.7151 -1.3930 -1.1170
 7926SOL    HW235412   4.067   0.881  16.258  0.0598 -0.9357 -0.0159
 7927SOL     OW35413   2.463   1.924  13.697 -0.3065  0.2974  0.2871
 7927SOL    HW135414   2.558   1.924  13.699 -0.3062  0.4603  0.2855
 7927SOL    HW235415   2.447   2.018  13.687 -0.5635  0.0847 -1.2645
 7928SOL     OW35416   3.667   4.239  12.357 -0.2349 -0.2916 -0.0612
 7928SOL    HW135417   3.598   4.277  12.410 -0.7946  0.5749 -1.4127
 7928SOL    HW235418   3.671   4.148  12.385  3.8788 -0.2861 -0.6154
 7929SOL     OW35419   1.616   2.632   2.306 -0.3578 -1.0100  0.1429
 7929SOL    HW135420   1.649   2.625   2.395  1.0120  0.5523 -0.2653
 7929SOL    HW235421   1.522   2.630   2.326 -0.3637  0.0359  0.1905
 7930SOL     OW35422   0.718   3.068  17.534  0.1878 -0.2206 -1.3178
 7930SOL    HW135423   0.758   3.073  17.447  1.8445 -2.1524 -0.6609
 7930SOL    HW235424   0.798   3.090  17.582 -1.6793  1.3121  1.1231
 7931SOL     OW35425   4.134   0.982  10.788  0.3180 -0.5133 -0.2594
 7931SOL    HW135426   4.204   1.048  10.783 -1.3571  1.0787 -2.8821
 7931SOL    HW235427   4.081   1.013  10.861 -0.7543  2.0303 -2.1229
 7932SOL     OW35428   4.167   4.328   7.028  0.0536  0.4280 -0.2559
 7932SOL    HW135429   4.134   4.244   7.060  5.1086 -1.8903 -1.1356
 7932SOL    HW235430   4.082   4.373   7.030 -0.6812 -0.9372 -0.5695
 7933SOL     OW35431   4.094   0.974   2.761  0.0660  0.1381 -0.0933
 7933SOL    HW135432   4.075   0.946   2.850  3.2567  1.0817  0.8789
 7933SOL    HW235433   4.175   0.926   2.742 -0.5827 -0.8453 -0.3799
 7934SOL     OW35434   3.186   4.259   7.468 -0.2216 -0.0491  0.1862
 7934SOL    HW135435   3.247   4.277   7.540 -1.0077  0.1279  0.8105
 7934SOL    HW235436   3.137   4.340   7.479 -2.1272 -1.3037  0.9503
 7935SOL     OW35437   4.144   1.279   6.815  0.5338 -0.1741  0.2590
 7935SOL    HW135438   4.222   1.224   6.821 -0.0783 -1.1627 -0.7813
 7935SOL    HW235439   4.157   1.309   6.725 -0.7814 -2.0393 -0.5653
 7936SOL     OW35440   1.624   1.459   0.623 -0.1197  0.1055 -0.1230
 7936SOL    HW135441   1.632   1.522   0.552 -1.4973  0.0319 -0.3320
 7936SOL    HW235442   1.530   1.444   0.617  0.3430 -2.4653 -0.7038
 7937SOL     OW35443   3.806   3.173   7.593 -0.4086 -0.4080 -0.4440
 7937SOL    HW135444   3.839   3.190   7.682 -0.9420  0.0816 -0.3356
 7937SOL    HW235445   3.893   3.185   7.555 -0.4918  1.5323 -0.0585
 7938SOL     OW35446   4.453   1.426   4.656  0.6865 -0.2969 -0.4489
 7938SOL    HW135447   4.370   1.466   4.682  0.5445 -0.6345 -0.3894
 7938SOL    HW235448   4.442   1.339   4.694  2.1226 -0.5334 -0.5589
 7939SOL     OW35449   2.721   1.867  13.654  1.1538 -1.1454 -0.4189
 7939SOL    HW135450   2.799   1.811  13.660  2.6159  1.3983  3.8845
 7939SOL    HW235451   2.752   1.923  13.583  2.5155 -0.3341  0.8052
 7940SOL     OW35452   2.472   4.597   2.912  0.0545 -0.1305  0.5383
 7940SOL    HW135453   2.474   4.688   2.943  0.6359  0.2903 -0.7177
 7940SOL    HW235454   2.544   4.554   2.957 -1.3709 -1.5752  1.4299
 7941SOL     OW35455   0.327   3.997  10.320 -0.2589 -0.3583 -0.3722
 7941SOL    HW135456   0.281   3.917  10.345 -0.3094 -0.8958 -2.2137
 7941SOL    HW235457   0.242   4.035  10.296 -0.4943 -1.1362 -0.7696
 7942SOL     OW35458   0.337   3.195   6.169  0.3482 -0.1307  0.5629
 7942SOL    HW135459   0.419   3.244   6.171  2.7733 -4.1676  1.1738
 7942SOL    HW235460   0.293   3.241   6.098  1.7322  2.4201  1.3475
 7943SOL     OW35461   2.048   2.730   3.632 -0.1672 -0.4350 -0.3242
 7943SOL    HW135462   2.031   2.738   3.725  0.3954  1.0771 -0.3432
 7943SOL    HW235463   2.112   2.801   3.623 -0.1396 -0.6555 -1.9608
 7944SOL     OW35464   2.312   0.266   3.785  0.3196  0.5401 -0.3752
 7944SOL    HW135465   2.348   0.181   3.810  1.4129  0.4811 -2.1428
 7944SOL    HW235466   2.233   0.271   3.839  1.4619 -1.1492  1.4571
 7945SOL     OW35467   1.742   1.502   3.556 -0.8642  0.1433  0.1080
 7945SOL    HW135468   1.780   1.551   3.629  1.8273  0.6582 -1.6474
 7945SOL    HW235469   1.667   1.557   3.533 -0.2665  0.3188 -1.4274
 7946SOL     OW35470   3.812   2.861   7.954 -0.6549  0.0854 -0.4102
 7946SOL    HW135471   3.770   2.940   7.989 -0.6589 -0.6137  1.1968
 7946SOL    HW235472   3.872   2.830   8.022  0.1141 -0.6888 -1.4505
 7947SOL     OW35473   1.498   0.585   9.547 -0.0905  0.4778  0.5037
 7947SOL    HW135474   1.448   0.668   9.547  0.9299  1.0753 -1.3149
 7947SOL    HW235475   1.573   0.605   9.603  0.8641  1.3257 -1.1016
 7948SOL     OW35476   0.672   2.444   9.307 -0.2767 -0.9064 -0.0753
 7948SOL    HW135477   0.636   2.533   9.302 -1.3374 -1.4182 -1.8438
 7948SOL    HW235478   0.721   2.453   9.388  0.3646  0.5161 -0.6068
 7949SOL     OW35479   3.107   4.730   7.412 -0.0859 -0.2464  0.3222
 7949SOL    HW135480   3.154   4.679   7.479  1.0199 -0.4996 -0.6454
 7949SOL    HW235481   3.167   0.008   7.340 -0.4438  0.4472  0.1923
 7950SOL     OW35482   1.018   2.037   6.705 -0.2277 -0.3323 -0.2788
 7950SOL    HW135483   0.952   2.086   6.754  1.1404  0.8212  0.4308
 7950SOL    HW235484   1.100   2.083   6.725 -0.8283  0.2773  0.8226
 7951SOL     OW35485   3.076   1.282   1.516 -0.3865  0.6103 -0.3682
 7951SOL    HW135486   2.997   1.244   1.554 -0.5119  1.6692  0.4345
 7951SOL    HW235487   3.149   1.222   1.534 -0.9222  0.6448  1.9594
 7952SOL     OW35488   2.370   0.964   6.610 -0.1735  0.0867 -0.2262
 7952SOL    HW135489   2.329   0.983   6.525 -2.2207 -0.0841  0.7428
 7952SOL    HW235490   2.327   1.028   6.666  0.7899  0.7023 -0.1697
 7953SOL     OW35491   3.748   4.728   9.159  0.4534 -0.9948 -0.0540
 7953SOL    HW135492   3.821   4.674   9.189  1.7026  0.4904 -0.4683
 7953SOL    HW235493   3.729   4.671   9.085  0.5037 -2.4879  1.0685
 7954SOL     OW35494   1.842   2.338   6.462 -0.2976 -0.0904 -0.3594
 7954SOL    HW135495   1.781   2.395   6.511 -0.8602 -0.2531 -0.8740
 7954SOL    HW235496   1.784   2.269   6.428 -0.4240 -0.3949  0.4691
 7955SOL     OW35497   2.366   3.234   2.130 -0.3849 -0.3078  0.0171
 7955SOL    HW135498   2.291   3.275   2.173 -0.1259  0.5821 -0.3646
 7955SOL    HW235499   2.343   3.143   2.148  1.0452 -0.8520 -0.9310
 7956SOL     OW35500   1.796   4.207   7.750 -0.2490 -0.4333 -0.7278
 7956SOL    HW135501   1.806   4.257   7.669  4.5476 -0.9562 -0.4536
 7956SOL    HW235502   1.738   4.267   7.797  1.8845 -2.3988  4.4172
 7957SOL     OW35503   0.977   0.289   7.539 -0.2688 -0.2251 -0.5473
 7957SOL    HW135504   1.036   0.235   7.487  2.1473  1.6474  0.2814
 7957SOL    HW235505   1.038   0.359   7.561 -1.7519  0.2091  2.2514
 7958SOL     OW35506   0.102   4.336   6.578 -0.1424 -0.6081 -0.8492
 7958SOL    HW135507   0.140   4.249   6.563  1.2485  0.0700 -1.2378
 7958SOL    HW235508   0.183   4.387   6.584 -1.4436  1.5095 -1.4027
 7959SOL     OW35509   4.222   1.162  16.626 -0.1307 -0.3745  0.1819
 7959SOL    HW135510   4.197   1.232  16.686  2.9911  1.2010 -0.3557
 7959SOL    HW235511   4.229   1.093  16.692 -2.3600  0.7299  1.5797
 7960SOL     OW35512   0.206   2.972  12.061  0.2352  0.3868  0.7679
 7960SOL    HW135513   0.245   2.989  11.975 -0.0247 -0.2823  0.5209
 7960SOL    HW235514   0.244   2.886  12.080  2.8718  0.9019 -2.1647
 7961SOL     OW35515   3.178   2.443   7.182  0.1449  0.0153  0.3639
 7961SOL    HW135516   3.271   2.457   7.162  0.0662 -0.3221 -0.2352
 7961SOL    HW235517   3.139   2.527   7.157  1.4355  0.4051 -0.3955
 7962SOL     OW35518   0.222   3.781   3.648  0.0181 -0.2612 -0.1688
 7962SOL    HW135519   0.281   3.713   3.614 -0.9258 -1.3904  0.4440
 7962SOL    HW235520   0.268   3.795   3.731  0.7710 -2.3688 -0.2330
 7963SOL     OW35521   0.887   3.812  15.875  0.0261 -0.4885  0.0891
 7963SOL    HW135522   0.847   3.792  15.960  1.4127 -0.1403  0.8133
 7963SOL    HW235523   0.922   3.898  15.897  0.3307 -0.6377  0.1769
 7964SOL     OW35524   1.896   4.152  14.485 -0.3853 -0.2525 -0.3551
 7964SOL    HW135525   1.895   4.131  14.392  3.0359  0.7615 -0.6555
 7964SOL    HW235526   1.916   4.246  14.489  1.9849 -0.8892  3.5835
 7965SOL     OW35527   4.512   1.837  16.279  0.2866 -0.0382 -0.0693
 7965SOL    HW135528   4.582   1.858  16.341  1.6544 -1.1768 -1.2350
 7965SOL    HW235529   4.542   1.755  16.239  0.5695  0.5612 -1.0911
 7966SOL     OW35530   3.716   2.553   1.531 -0.1183  0.4074 -0.4733
 7966SOL    HW135531   3.665   2.476   1.557  3.8396 -1.6129  1.4387
 7966SOL    HW235532   3.650   2.602   1.483 -0.8140 -0.2127 -0.1555
 7967SOL     OW35533   1.516   0.672   1.196  0.0171  0.5268 -0.4564
 7967SOL    HW135534   1.545   0.760   1.170  0.8496  0.1209 -0.8779
 7967SOL    HW235535   1.421   0.678   1.202 -0.1148 -0.1086 -1.9844
 7968SOL     OW35536   4.412   3.396   3.068  0.4028  0.1444 -0.6126
 7968SOL    HW135537   4.320   3.403   3.094  0.6206 -0.4902  0.2927
 7968SOL    HW235538   4.421   3.317   3.014 -0.2532 -0.7306  0.5703
 7969SOL     OW35539   1.436   3.502   3.307 -0.1501 -0.0344 -0.0327
 7969SOL    HW135540   1.501   3.541   3.366  0.5982  0.1883 -0.9981
 7969SOL    HW235541   1.372   3.497   3.377 -0.3485 -0.3452 -0.2388
 7970SOL     OW35542   3.143   3.176   7.482  0.5975 -0.0177 -0.1498
 7970SOL    HW135543   3.217   3.149   7.537  1.1723  0.1028 -0.8610
 7970SOL    HW235544   3.115   3.090   7.452 -1.8695  0.0745  1.9239
 7971SOL     OW35545   1.225   4.271   8.015 -0.4742  0.1522  0.2929
 7971SOL    HW135546   1.199   4.362   8.027 -0.7925  0.2331 -0.9984
 7971SOL    HW235547   1.319   4.282   8.031 -0.4351  0.8115 -0.3497
 7972SOL     OW35548   4.467   4.267   8.573  0.2679  0.3784  0.7744
 7972SOL    HW135549   4.371   4.262   8.571  0.3248 -1.0695  1.5755
 7972SOL    HW235550   4.473   4.360   8.596  1.3762  0.1821  1.2753
 7973SOL     OW35551   3.129   2.832   9.305  0.7778 -0.5624 -0.1273
 7973SOL    HW135552   3.211   2.804   9.264  1.8926  2.0254  0.3348
 7973SOL    HW235553   3.076   2.861   9.231 -2.0088 -1.1177  1.6706
 7974SOL     OW35554   2.578   2.742   4.666 -0.2467 -0.0678  1.0022
 7974SOL    HW135555   2.672   2.733   4.655 -0.6032 -0.7806 -1.5315
 7974SOL    HW235556   2.559   2.835   4.677 -1.9364 -0.1143 -1.5048
 7975SOL     OW35557   2.555   0.397   7.619 -1.0787  0.0738 -0.3401
 7975SOL    HW135558   2.599   0.469   7.574 -0.9057 -0.7307 -1.4658
 7975SOL    HW235559   2.610   0.377   7.695 -0.4577  1.9147 -0.3103
 7976SOL     OW35560   4.673   2.977   0.324 -0.0871  0.2947 -0.2059
 7976SOL    HW135561   4.692   3.068   0.347 -0.7259  0.8992 -2.0684
 7976SOL    HW235562   4.698   2.970   0.232  1.0012 -0.2381  0.1288
 7977SOL     OW35563   1.279   3.585   8.411 -0.8230 -0.0109  0.4401
 7977SOL    HW135564   1.285   3.490   8.414  3.2890  0.0887 -4.0251
 7977SOL    HW235565   1.359   3.611   8.458 -0.0800  1.7907 -1.8019
 7978SOL     OW35566   2.915   3.246   3.074  0.1839 -0.3009  0.1495
 7978SOL    HW135567   2.857   3.245   2.997  0.0368 -1.6091  0.2746
 7978SOL    HW235568   2.863   3.199   3.139 -1.0786  0.2983 -0.4275
 7979SOL     OW35569   0.291   4.484   9.308  0.0532  0.8043  0.8520
 7979SOL    HW135570   0.236   4.440   9.243  2.1177 -1.6880  0.8062
 7979SOL    HW235571   0.230   4.498   9.380  0.5665  0.0849  1.4134
 7980SOL     OW35572   3.326   1.625   5.048  0.1166  0.3914  0.2460
 7980SOL    HW135573   3.294   1.708   5.015 -1.3872 -1.3245 -2.6048
 7980SOL    HW235574   3.259   1.563   5.020 -1.2710  1.2628  1.6927
 7981SOL     OW35575   0.500   4.610   3.361  0.1928 -0.1732  0.0937
 7981SOL    HW135576   0.534   4.599   3.272  0.3576  1.1780 -0.0005
 7981SOL    HW235577   0.552   4.682   3.397 -1.4411  1.8117 -1.6135
 7982SOL     OW35578   4.414   1.492   8.226  0.4915  0.0519 -0.0400
 7982SOL    HW135579   4.403   1.578   8.186  0.2505  0.6297  1.2693
 7982SOL    HW235580   4.357   1.510   8.300  0.2841  0.3989 -0.2863
 7983SOL     OW35581   2.710   2.255   7.662  0.0409 -0.2721  0.0196
 7983SOL    HW135582   2.618   2.261   7.688 -0.7411 -3.4452 -2.0305
 7983SOL    HW235583   2.707   2.250   7.566 -0.7975  0.7128 -0.0032
 7984SOL     OW35584   2.942   1.973  11.750  0.0840  0.0419  0.0849
 7984SOL    HW135585   2.972   1.920  11.824 -0.2930  1.2176  1.0795
 7984SOL    HW235586   2.996   2.048  11.776  1.5211 -1.9013  2.6189
 7985SOL     OW35587   0.695   3.306  15.486 -0.2450 -0.1974  0.4971
 7985SOL    HW135588   0.640   3.368  15.533  0.6682  0.9310  0.0619
 7985SOL    HW235589   0.771   3.304  15.544 -0.2791 -0.4208  0.5360
 7986SOL     OW35590   1.279   3.307   1.872  0.2769 -0.2567  0.0253
 7986SOL    HW135591   1.229   3.238   1.828  1.7200 -2.3236  1.6319
 7986SOL    HW235592   1.367   3.270   1.884 -0.2599 -0.7107  2.5134
 7987SOL     OW35593   3.849   2.413   3.132  0.1397  0.1746  0.0658
 7987SOL    HW135594   3.871   2.486   3.191  0.8565 -1.4303  1.8045
 7987SOL    HW235595   3.923   2.354   3.148  0.4077  0.5966  0.4023
 7988SOL     OW35596   2.995   2.558   6.588 -0.1696 -0.2000 -0.0838
 7988SOL    HW135597   2.973   2.490   6.651  0.1940 -1.0656 -0.8810
 7988SOL    HW235598   3.035   2.618   6.650  0.9561  0.2846 -1.2688
 7989SOL     OW35599   4.424   0.899   2.372  0.9266  0.0558  0.5647
 7989SOL    HW135600   4.499   0.894   2.314  1.1213 -4.0035  1.1700
 7989SOL    HW235601   4.468   0.886   2.456  3.9661 -1.4104 -1.2719
 7990SOL     OW35602   4.517   3.568  15.192  0.3958 -0.2895  0.0733
 7990SOL    HW135603   4.541   3.659  15.175  0.5326  0.1137  2.5241
 7990SOL    HW235604   4.424   3.581  15.208  0.9535  1.9911  1.3871
 7991SOL     OW35605   1.226   2.530   1.767  0.4108 -0.3336  0.2491
 7991SOL    HW135606   1.212   2.490   1.681  1.8894  0.7837 -0.5011
 7991SOL    HW235607   1.186   2.616   1.757  2.1565  0.2778 -1.2889
 7992SOL     OW35608   4.682   2.330  11.616  0.7266  0.1848  0.3436
 7992SOL    HW135609   4.608   2.278  11.648  1.1812  0.3694  1.6897
 7992SOL    HW235610   4.733   2.343  11.695  0.6781 -1.5448  0.6685
 7993SOL     OW35611   1.737   3.697   1.854  0.1958 -0.1076 -0.3178
 7993SOL    HW135612   1.777   3.781   1.830  0.9318 -0.5666 -0.6890
 7993SOL    HW235613   1.675   3.710   1.926 -0.6299  1.0457 -1.2253
 7994SOL     OW35614   3.705   1.955   4.761  0.5481 -0.5052  0.2572
 7994SOL    HW135615   3.621   2.000   4.754  0.2640 -0.8284  1.7233
 7994SOL    HW235616   3.688   1.876   4.812  0.3931 -1.0432 -0.6309
 7995SOL     OW35617   2.227   4.110   8.639  0.1657  0.5814 -0.4593
 7995SOL    HW135618   2.170   4.140   8.710  0.0459  0.3315 -0.4472
 7995SOL    HW235619   2.309   4.121   8.687 -0.8451  1.9549  0.9269
 7996SOL     OW35620   0.370   0.998  12.612  0.3317 -0.4513 -0.0328
 7996SOL    HW135621   0.427   0.998  12.689 -1.2189 -1.5733  1.1053
 7996SOL    HW235622   0.362   1.091  12.589 -2.9046 -1.1863 -1.8811
 7997SOL     OW35623   3.709   0.023   7.450 -0.3120  0.3238  0.2625
 7997SOL    HW135624   3.692   0.056   7.362 -0.5678 -2.2056 -0.6224
 7997SOL    HW235625   3.629   0.054   7.492 -0.9563 -1.9283  0.6820
 7998SOL     OW35626   1.283   2.714   3.211 -0.3632  0.0503 -0.2572
 7998SOL    HW135627   1.194   2.746   3.223 -1.1345 -1.9569 -0.6278
 7998SOL    HW235628   1.332   2.796   3.219 -2.1825  1.0972  0.0272
 7999SOL     OW35629   4.217   0.350   7.056 -0.1911 -0.8317  0.8405
 7999SOL    HW135630   4.313   0.350   7.057 -0.1921 -2.3310 -0.0150
 7999SOL    HW235631   4.207   0.344   7.151  2.5804 -0.6817  1.1558
 8000SOL     OW35632   1.261   1.175  14.767  0.2713  0.4352 -0.0364
 8000SOL    HW135633   1.252   1.081  14.781 -1.5093  0.8278  1.4609
 8000SOL    HW235634   1.356   1.185  14.770  0.4156 -0.6601 -0.7775
 8001SOL     OW35635   3.043   1.678   5.324 -0.6870 -0.2265 -0.2345
 8001SOL    HW135636   3.017   1.753   5.270  0.0386  0.1658 -0.0425
 8001SOL    HW235637   2.986   1.610   5.288 -0.3064 -0.9147  0.4974
 8002SOL     OW35638   4.254   2.184   4.542  0.0046 -0.3699  0.6893
 8002SOL    HW135639   4.259   2.119   4.472  0.8873  0.2386  0.1938
 8002SOL    HW235640   4.289   2.128   4.612  1.0430 -1.0548 -0.3863
 8003SOL     OW35641   3.028   3.460   7.064  0.1661  0.6438 -0.1064
 8003SOL    HW135642   2.983   3.415   7.135  1.5715 -1.8443 -0.7869
 8003SOL    HW235643   2.954   3.499   7.017  0.2931  1.6671  0.5425
 8004SOL     OW35644   3.210   2.048  12.130 -0.2082  0.5350  0.3697
 8004SOL    HW135645   3.193   2.083  12.218  0.3787 -0.0115  0.7032
 8004SOL    HW235646   3.237   2.124  12.078  1.0665 -0.4640 -0.4391
 8005SOL     OW35647   1.110   0.412   0.096 -0.2363  0.5130  0.1074
 8005SOL    HW135648   1.038   0.475   0.099 -1.1654 -0.6180  1.3274
 8005SOL    HW235649   1.091   0.353   0.023 -1.3434  0.9696  0.0250
 8006SOL     OW35650   0.834   1.491  11.677 -0.0221 -0.2319 -0.2585
 8006SOL    HW135651   0.929   1.497  11.686  0.1719 -3.6537  0.0597
 8006SOL    HW235652   0.804   1.426  11.740 -0.7263 -1.2820 -1.6776
 8007SOL     OW35653   0.281   1.595   7.483  0.1682  0.2400 -0.1903
 8007SOL    HW135654   0.310   1.684   7.469  1.0207  0.0189  0.1905
 8007SOL    HW235655   0.230   1.572   7.405 -1.7913 -0.0735  1.1560
 8008SOL     OW35656   3.458   0.520   9.260  0.4855 -0.1577 -0.1173
 8008SOL    HW135657   3.436   0.487   9.347 -2.2535 -1.3748 -1.2673
 8008SOL    HW235658   3.504   0.604   9.268  0.1099  0.0417 -0.0402
 8009SOL     OW35659   4.216   0.939  16.770  0.4498 -0.2565 -0.0931
 8009SOL    HW135660   4.146   0.919  16.832  0.2346 -0.0749 -0.2776
 8009SOL    HW235661   4.254   0.855  16.742  0.0767 -0.0173 -1.3251
 8010SOL     OW35662   3.490   0.471   4.784  0.0990 -0.2307  0.0033
 8010SOL    HW135663   3.582   0.478   4.758  0.2137  1.7593  0.9160
 8010SOL    HW235664   3.460   0.562   4.779  0.1997 -0.3290 -2.2216
 8011SOL     OW35665   2.674   0.500   5.132  0.2300  0.2192 -0.2463
 8011SOL    HW135666   2.711   0.488   5.044 -0.1037  1.0020 -0.4897
 8011SOL    HW235667   2.584   0.482   5.104 -0.2716  1.3243  0.6786
 8012SOL     OW35668   3.218   1.037  17.163  0.3538  0.8291  0.0048
 8012SOL    HW135669   3.215   0.963  17.103  0.1017  0.7354  0.1331
 8012SOL    HW235670   3.135   1.082  17.149 -0.0284 -0.2042 -0.9498
 8013SOL     OW35671   3.215   0.125   2.894 -0.3715  0.6396 -0.0997
 8013SOL    HW135672   3.149   0.086   2.951 -0.7082 -0.3422 -1.1503
 8013SOL    HW235673   3.251   0.197   2.946  0.9643 -1.6181  2.1196
 8014SOL     OW35674   4.231   4.205   0.484  0.3816 -0.3644  0.1744
 8014SOL    HW135675   4.250   4.120   0.445 -0.5458 -0.4010 -0.1981
 8014SOL    HW235676   4.286   4.261   0.429 -2.9170 -0.6842 -3.4620
 8015SOL     OW35677   0.646   4.626  16.785  0.0393 -0.3681  0.6049
 8015SOL    HW135678   0.613   4.701  16.735  1.0574 -0.0079  0.4666
 8015SOL    HW235679   0.564   4.602  16.827 -0.2865  0.9495  0.7254
 8016SOL     OW35680   0.818   3.957   5.003  0.4305 -0.3157 -0.0117
 8016SOL    HW135681   0.747   3.944   5.065 -0.7835  1.1073 -1.0985
 8016SOL    HW235682   0.868   3.878   5.025  0.0371 -0.5279  0.1245
 8017SOL     OW35683   1.072   3.073   6.483 -0.0222  0.0974  0.3202
 8017SOL    HW135684   1.063   2.984   6.516 -0.5037  0.1948  0.4611
 8017SOL    HW235685   1.167   3.077   6.471  0.2481 -0.7209  2.2555
 8018SOL     OW35686   3.797   2.659   2.205  0.0421  0.0546 -0.0380
 8018SOL    HW135687   3.793   2.584   2.146 -1.0142  0.4094 -0.4175
 8018SOL    HW235688   3.890   2.676   2.217  0.4752 -2.3789  0.0634
 8019SOL     OW35689   2.837   2.382   4.692  0.0218 -0.6188 -0.2810
 8019SOL    HW135690   2.742   2.384   4.675 -0.0438  0.3199  0.2394
 8019SOL    HW235691   2.850   2.289   4.672 -3.0843 -1.2187  0.3888
 8020SOL     OW35692   4.387   2.863   7.261 -0.3968  0.5224  0.0389
 8020SOL    HW135693   4.329   2.938   7.276  1.6263  2.6361 -2.6558
 8020SOL    HW235694   4.362   2.806   7.334 -2.6862 -0.5059 -1.5202
 8021SOL     OW35695   1.588   1.947   2.951 -0.2961 -0.1439  0.1583
 8021SOL    HW135696   1.553   2.023   2.905 -1.3228 -1.1788 -0.7882
 8021SOL    HW235697   1.504   1.925   2.989  0.3064 -2.2151  0.3464
 8022SOL     OW35698   0.244   3.116   1.043  0.1388 -0.6770  0.2330
 8022SOL    HW135699   0.222   3.042   1.100  1.4636  0.0739  1.7456
 8022SOL    HW235700   0.166   3.171   1.043  0.6249  0.0117 -0.3842
 8023SOL     OW35701   4.682   3.394   5.642  0.4244 -0.0469 -0.0308
 8023SOL    HW135702   4.657   3.481   5.675  1.6865  0.8252 -1.4307
 8023SOL    HW235703   4.626   3.380   5.565 -0.8397  0.1065  0.8497
 8024SOL     OW35704   3.271   1.898   5.943 -0.1698  0.1847 -0.0181
 8024SOL    HW135705   3.241   1.867   5.857 -1.6838 -0.0358  0.5953
 8024SOL    HW235706   3.218   1.977   5.946 -0.2934  0.1990 -2.6532
 8025SOL     OW35707   0.284   3.855   8.156 -0.4635 -0.0699  0.5348
 8025SOL    HW135708   0.281   3.835   8.249 -1.8936 -3.0967 -0.1750
 8025SOL    HW235709   0.330   3.940   8.156 -1.2525  0.3768 -2.3932
 8026SOL     OW35710   0.430   0.346   5.785  0.0599 -0.6507  0.4845
 8026SOL    HW135711   0.424   0.378   5.695 -1.2782 -2.2637  0.0141
 8026SOL    HW235712   0.481   0.418   5.824  2.5553 -0.8592 -2.4082
 8027SOL     OW35713   1.923   1.435  10.416 -0.1064 -0.1224 -0.3753
 8027SOL    HW135714   1.870   1.473  10.486 -0.1161  2.1143 -1.5910
 8027SOL    HW235715   1.960   1.517  10.383 -0.4520  0.6431  1.1426
 8028SOL     OW35716   4.553   3.071   9.360  0.2073  0.4102 -0.4076
 8028SOL    HW135717   4.561   3.050   9.267  1.6871 -0.6872 -0.0394
 8028SOL    HW235718   4.636   3.036   9.393  0.1030 -0.1547 -0.7398
 8029SOL     OW35719   0.826   4.692   2.991  0.2306  0.0400  0.3676
 8029SOL    HW135720   0.808   4.616   3.046 -0.2568  0.6245  1.0268
 8029SOL    HW235721   0.852   0.020   3.055 -0.0271  1.0977 -0.6427
 8030SOL     OW35722   2.031   2.584   7.034  0.1197 -0.1747  0.0689
 8030SOL    HW135723   1.952   2.547   7.072  0.6891 -2.7953 -1.3201
 8030SOL    HW235724   2.014   2.677   7.049 -0.3340 -0.1954 -0.3265
 8031SOL     OW35725   3.132   1.023   1.282  0.2730  0.3899 -0.2912
 8031SOL    HW135726   3.042   1.028   1.315 -1.0688 -0.4556 -3.7514
 8031SOL    HW235727   3.182   1.037   1.362 -0.2579  2.4030 -0.3120
 8032SOL     OW35728   3.159   4.476   2.363  0.0615  0.4158 -0.2762
 8032SOL    HW135729   3.093   4.517   2.419 -0.5880 -1.0031  0.0035
 8032SOL    HW235730   3.116   4.391   2.359  0.6000  0.1932 -1.2634
 8033SOL     OW35731   4.366   2.404  12.017  0.2213  0.5576 -0.2041
 8033SOL    HW135732   4.396   2.495  12.012 -1.4535  1.0754 -0.8244
 8033SOL    HW235733   4.433   2.364  12.073 -2.0480  0.8097  2.6549
 8034SOL     OW35734   2.472   0.127   5.165  0.4494  0.1355  0.4693
 8034SOL    HW135735   2.383   0.154   5.188 -0.4171 -2.1399 -0.2341
 8034SOL    HW235736   2.522   0.141   5.245  0.0080  1.9470  0.4257
 8035SOL     OW35737   3.801   2.042   4.428 -0.1611  0.0527 -0.2978
 8035SOL    HW135738   3.870   2.055   4.363 -1.7630  0.1363 -1.9929
 8035SOL    HW235739   3.849   2.079   4.502 -2.1071  2.3451 -0.2077
 8036SOL     OW35740   0.001   3.387   3.840 -0.2736 -0.3738 -0.0085
 8036SOL    HW135741   4.669   3.323   3.832 -0.5760  0.3279 -3.2703
 8036SOL    HW235742   0.049   3.368   3.759  3.2568  1.6694  1.6203
 8037SOL     OW35743   2.372   1.217   1.913 -0.0097  0.1093  0.2055
 8037SOL    HW135744   2.306   1.286   1.911 -0.7541 -0.6118 -0.7501
 8037SOL    HW235745   2.403   1.238   2.001  0.6631 -2.0181  0.4753
 8038SOL     OW35746   0.643   3.234   3.795 -0.1506 -0.0500 -0.0745
 8038SOL    HW135747   0.656   3.243   3.889  1.7673 -0.3217 -0.3256
 8038SOL    HW235748   0.731   3.243   3.760 -0.5953  0.2144 -1.1392
 8039SOL     OW35749   2.427   3.945   7.675  0.2321  0.4840 -0.1058
 8039SOL    HW135750   2.423   4.022   7.731 -0.7662 -1.3619  2.3388
 8039SOL    HW235751   2.345   3.898   7.691  0.0288  0.2704 -1.7058
 8040SOL     OW35752   2.570   0.966  14.326  0.4337  0.0457  0.5690
 8040SOL    HW135753   2.560   0.878  14.292  1.7763  0.1530 -0.1058
 8040SOL    HW235754   2.534   1.020  14.255  0.9897 -0.3307  0.0011
 8041SOL     OW35755   0.053   4.366   7.871 -0.1140 -0.8143 -0.3151
 8041SOL    HW135756   4.726   4.346   7.805  0.1310 -2.4829 -0.0627
 8041SOL    HW235757   0.045   4.287   7.925  1.5649 -0.1114  0.9619
 8042SOL     OW35758   1.254   0.911  17.645  0.4590 -0.1460 -0.1393
 8042SOL    HW135759   1.226   0.840  17.703  0.5522  0.3108  0.4672
 8042SOL    HW235760   1.194   0.980  17.675  2.4937  1.3551  0.4912
 8043SOL     OW35761   2.495   2.241   5.498 -0.1894 -0.2893 -0.0685
 8043SOL    HW135762   2.451   2.326   5.500  1.4690  0.6055 -1.3999
 8043SOL    HW235763   2.456   2.191   5.426 -0.6319  0.1620 -0.1429
 8044SOL     OW35764   4.575   1.198   7.123 -0.4594  0.3184 -0.1933
 8044SOL    HW135765   4.634   1.265   7.090  0.7111 -0.4276  0.3907
 8044SOL    HW235766   4.557   1.157   7.039  0.6499 -0.7398  0.0815
 8045SOL     OW35767   1.588   4.611   9.916  0.1034 -0.2072 -0.0151
 8045SOL    HW135768   1.494   4.602   9.934 -0.3093  0.6120 -1.7491
 8045SOL    HW235769   1.585   4.642   9.825 -0.7331 -0.2376 -0.0024
 8046SOL     OW35770   4.157   2.197   2.362 -0.1491 -0.5937  0.3536
 8046SOL    HW135771   4.215   2.258   2.409  0.0242 -1.5016  1.3181
 8046SOL    HW235772   4.095   2.187   2.434 -0.8347  2.0921  0.1622
 8047SOL     OW35773   3.224   3.148   3.341 -0.8555  0.2312 -0.1502
 8047SOL    HW135774   3.247   3.072   3.288  1.5824 -0.5398  1.9886
 8047SOL    HW235775   3.212   3.212   3.271 -0.0101  1.9089  1.2282
 8048SOL     OW35776   3.754   1.942   8.546 -0.0058 -0.0726  0.6756
 8048SOL    HW135777   3.724   1.936   8.456  0.3811 -2.3047  0.6906
 8048SOL    HW235778   3.840   1.978   8.523  0.6262 -2.4449 -0.6279
 8049SOL     OW35779   3.824   2.281  12.807  0.4187 -0.2329 -0.1359
 8049SOL    HW135780   3.789   2.370  12.809  1.6938  0.2088  2.1018
 8049SOL    HW235781   3.806   2.253  12.897 -1.1157  3.5968  0.7765
 8050SOL     OW35782   0.834   0.614   7.464  0.2724 -0.1217  0.0800
 8050SOL    HW135783   0.792   0.528   7.466 -0.5059  0.2775  0.9358
 8050SOL    HW235784   0.770   0.662   7.411  1.0799 -0.9439 -1.6366
 8051SOL     OW35785   1.496   1.097  10.805  0.1591  0.7429 -0.2137
 8051SOL    HW135786   1.493   1.008  10.842  2.6215  1.4155  1.5861
 8051SOL    HW235787   1.586   1.120  10.828  0.6227 -1.7826  0.5386
 8052SOL     OW35788   3.458   1.518   2.974 -0.5269 -0.5236 -0.2761
 8052SOL    HW135789   3.511   1.511   2.894  1.3692  0.3910  0.8997
 8052SOL    HW235790   3.514   1.586   3.011 -1.4151 -1.3233  2.5006
 8053SOL     OW35791   3.644   0.820   6.897  0.0897 -0.1490 -0.0344
 8053SOL    HW135792   3.645   0.726   6.881 -0.0192 -0.1073 -0.2846
 8053SOL    HW235793   3.552   0.846   6.896 -0.3580 -1.8566 -1.7384
 8054SOL     OW35794   0.458   3.917   7.258  0.4267  0.1761 -0.2633
 8054SOL    HW135795   0.479   3.917   7.164 -1.4025 -1.7328 -0.6751
 8054SOL    HW235796   0.368   3.888   7.275  0.9551 -1.5395 -0.3728
 8055SOL     OW35797   1.356   4.606  15.711 -0.5446  0.1987  0.0339
 8055SOL    HW135798   1.307   4.593  15.793 -1.3133  2.2340 -0.1152
 8055SOL    HW235799   1.366   4.700  15.701 -0.3737  0.5969  3.8081
 8056SOL     OW35800   1.464   2.922   1.062 -0.3155 -0.3495  0.0701
 8056SOL    HW135801   1.384   2.973   1.053  1.1266  1.8495 -0.4019
 8056SOL    HW235802   1.442   2.854   0.998  0.9303 -0.8171  0.1390
 8057SOL     OW35803   1.485   1.332   3.949  0.1251  0.3795  0.2607
 8057SOL    HW135804   1.572   1.325   3.909 -0.9531 -2.8202 -1.5997
 8057SOL    HW235805   1.457   1.416   3.913 -0.5199  0.2070  0.3564
 8058SOL     OW35806   2.932   0.832  15.726 -0.2159  0.4106  0.5789
 8058SOL    HW135807   2.995   0.769  15.690 -0.1279 -0.5300  2.3879
 8058SOL    HW235808   2.906   0.857  15.637 -0.0356 -1.8694 -0.1075
 8059SOL     OW35809   1.523   2.424   4.018 -0.2204 -0.4086 -0.3602
 8059SOL    HW135810   1.606   2.433   4.065 -0.7288  0.0743  0.4384
 8059SOL    HW235811   1.538   2.345   3.966 -1.2822 -0.0891 -1.1446
 8060SOL     OW35812   4.043   0.697   5.802  0.1540 -0.1162  0.3691
 8060SOL    HW135813   4.083   0.775   5.841  0.5564  0.6252 -1.5387
 8060SOL    HW235814   3.982   0.675   5.872 -0.0976  1.7329  0.7214
 8061SOL     OW35815   3.568   0.032   8.899 -0.2617 -0.2195 -0.4583
 8061SOL    HW135816   3.538   4.719   8.974 -3.6872 -0.2424 -1.8311
 8061SOL    HW235817   3.578   4.713   8.823 -0.1382  1.4178 -1.6804
 8062SOL     OW35818   4.492   0.377  13.191  0.1825  0.2121 -0.1402
 8062SOL    HW135819   4.531   0.298  13.231 -0.7460 -0.2160 -0.0888
 8062SOL    HW235820   4.400   0.371  13.216  0.0894  1.5118 -0.1995
 8063SOL     OW35821   0.775   0.318  17.511  0.2729 -0.2454 -0.3946
 8063SOL    HW135822   0.726   0.276  17.440 -3.4437 -0.3542  2.2754
 8063SOL    HW235823   0.848   0.362  17.467  0.2134  1.9142  1.6816
 8064SOL     OW35824   3.119   2.697   5.406 -0.4151 -0.0721  0.4259
 8064SOL    HW135825   3.180   2.733   5.342 -1.1830 -1.7764 -1.2885
 8064SOL    HW235826   3.146   2.747   5.482  1.7224 -0.3886 -0.1206
 8065SOL     OW35827   1.068   0.242  17.605 -0.0538  0.1025  0.1590
 8065SOL    HW135828   1.152   0.200  17.586  1.6906  2.2745  3.1575
 8065SOL    HW235829   1.035   0.184  17.673  1.6838 -0.1913  0.7475
 8066SOL     OW35830   0.796   2.414  12.037  0.5067  0.4417  0.6397
 8066SOL    HW135831   0.786   2.417  12.133  0.6065 -1.9991  0.7344
 8066SOL    HW235832   0.855   2.338  12.033 -1.0566 -0.6802 -0.9140
 8067SOL     OW35833   2.685   4.030  10.054 -0.9210  0.7544 -0.0290
 8067SOL    HW135834   2.608   3.996  10.099 -0.7363  0.3928  0.0214
 8067SOL    HW235835   2.711   4.097  10.116 -0.4481  0.9221 -0.4092
 8068SOL     OW35836   3.111   2.458  15.035 -0.3790 -0.1173 -0.1139
 8068SOL    HW135837   3.041   2.462  15.100 -0.0973  1.8283  0.0547
 8068SOL    HW235838   3.111   2.549  15.006 -0.0459 -0.9487 -2.7210
 8069SOL     OW35839   1.110   3.896   5.538 -0.4930  0.4465  0.4066
 8069SOL    HW135840   1.179   3.848   5.492 -0.1859 -0.8053  2.1697
 8069SOL    HW235841   1.119   3.863   5.627 -2.7600  1.1979  0.9015
 8070SOL     OW35842   3.567   4.600  13.727  0.6727 -0.7502  0.3625
 8070SOL    HW135843   3.478   4.565  13.730  1.1025 -1.7486  1.4832
 8070SOL    HW235844   3.562   4.623  13.634 -3.1645  1.2939  1.1042
 8071SOL     OW35845   1.775   4.476   9.753 -0.5152  0.0373 -0.3139
 8071SOL    HW135846   1.857   4.494   9.800 -0.6777 -0.0372 -0.0017
 8071SOL    HW235847   1.706   4.491   9.817  1.8940  0.4530  2.1859
 8072SOL     OW35848   3.563   1.654   2.745  0.1811  0.4410  0.2343
 8072SOL    HW135849   3.502   1.622   2.679  0.4436 -1.4701  0.9362
 8072SOL    HW235850   3.526   1.739   2.770  0.4604  1.2079 -1.9372
 8073SOL     OW35851   0.680   2.274   3.087 -0.0611 -0.5530  0.2175
 8073SOL    HW135852   0.611   2.213   3.112  2.2554 -2.2327  2.4931
 8073SOL    HW235853   0.707   2.235   3.004  1.0949  1.6947 -0.4767
 8074SOL     OW35854   3.803   2.873   1.632  0.1509 -0.2604  0.1675
 8074SOL    HW135855   3.820   2.956   1.586  1.0394 -0.2102  0.5881
 8074SOL    HW235856   3.711   2.889   1.653 -0.3048 -0.8996 -1.3566
 8075SOL     OW35857   1.068   1.676  12.552 -0.1850 -0.0866 -0.1572
 8075SOL    HW135858   1.150   1.687  12.599 -1.4805 -0.9948  2.3173
 8075SOL    HW235859   1.081   1.720  12.468 -2.2168 -1.3944 -1.1678
 8076SOL     OW35860   2.317   2.180  13.656  0.1324  0.1136  0.5165
 8076SOL    HW135861   2.330   2.274  13.647  1.1331  0.0216  1.0628
 8076SOL    HW235862   2.304   2.161  13.563  1.3325  0.6167  0.2549
 8077SOL     OW35863   2.224   0.619   5.045 -0.1539  0.2292 -0.5332
 8077SOL    HW135864   2.142   0.589   5.004 -0.3177  0.4064 -0.3357
 8077SOL    HW235865   2.193   0.699   5.087  1.1393 -0.7200  2.1863
 8078SOL     OW35866   0.471   0.187   1.344  0.4255 -0.6002  0.1832
 8078SOL    HW135867   0.531   0.248   1.387 -1.4913  0.5698  1.1785
 8078SOL    HW235868   0.522   0.107   1.326  0.9053 -0.2049 -0.2288
 8079SOL     OW35869   2.431   0.447   5.022 -0.5020 -0.2318 -0.4791
 8079SOL    HW135870   2.380   0.370   5.049 -0.0236 -0.2221  0.4594
 8079SOL    HW235871   2.363   0.513   5.032 -1.0190 -0.8761  0.3680
 8080SOL     OW35872   2.576   3.579   6.643  0.5876 -0.4735  0.1728
 8080SOL    HW135873   2.660   3.616   6.672 -1.1096  3.4474  0.0610
 8080SOL    HW235874   2.601   3.487   6.644  0.1405 -0.5976 -0.5476
 8081SOL     OW35875   0.008   2.653   6.314 -0.3878  0.0060  0.6752
 8081SOL    HW135876   0.076   2.604   6.268 -1.2946  0.6537 -1.3603
 8081SOL    HW235877   4.689   2.580   6.337 -0.6218 -0.2681 -0.8155
 8082SOL     OW35878   1.658   4.701   5.750  0.4435  0.1898 -0.5927
 8082SOL    HW135879   1.618   0.043   5.780  1.3370  0.2187  0.5139
 8082SOL    HW235880   1.640   4.648   5.828 -3.3719 -0.5307 -1.9856
 8083SOL     OW35881   1.398   3.217  12.384 -0.1905 -0.0902 -0.1952
 8083SOL    HW135882   1.479   3.263  12.362 -0.7652  0.4656 -1.1645
 8083SOL    HW235883   1.419   3.131  12.349  0.4511 -0.1266  0.2799
 8084SOL     OW35884   0.086   0.985   9.158 -0.4459  0.1619 -0.0821
 8084SOL    HW135885   0.034   1.050   9.205  0.5179  0.8406  0.0318
 8084SOL    HW235886   0.165   1.017   9.201 -0.9006  1.7676 -0.4291
 8085SOL     OW35887   4.374   4.720   4.629 -0.1456  0.1006 -0.5098
 8085SOL    HW135888   4.376   4.708   4.534 -0.5742 -0.6274 -0.4318
 8085SOL    HW235889   4.465   4.737   4.651 -0.2161 -1.2817  0.9092
 8086SOL     OW35890   3.863   2.119   5.327 -0.0743 -0.2986  0.6438
 8086SOL    HW135891   3.854   2.167   5.409 -3.9823  0.1255 -0.0121
 8086SOL    HW235892   3.782   2.068   5.317  0.2332 -0.7874  0.6337
 8087SOL     OW35893   4.249   3.369   6.621 -0.3479 -1.0058  0.6911
 8087SOL    HW135894   4.275   3.461   6.619 -3.4762 -0.1376  0.6907
 8087SOL    HW235895   4.154   3.377   6.619 -0.3590 -0.6418  2.4011
 8088SOL     OW35896   3.322   4.120   2.822 -1.0673  0.3941  0.1233
 8088SOL    HW135897   3.263   4.046   2.809 -1.2059  0.7492 -1.2107
 8088SOL    HW235898   3.409   4.082   2.817 -0.8829  0.8230  0.0655
 8089SOL     OW35899   1.573   0.347  11.431 -0.7716 -0.2787  0.1280
 8089SOL    HW135900   1.568   0.253  11.445 -1.2518 -0.1646  0.7399
 8089SOL    HW235901   1.485   0.367  11.463 -1.1222 -1.3919 -0.1647
 8090SOL     OW35902   4.350   1.001   5.505 -0.2018  0.5073 -0.0194
 8090SOL    HW135903   4.292   1.074   5.484  1.5665  1.9716  0.1799
 8090SOL    HW235904   4.310   0.940   5.443 -0.7519  0.5268  0.3155
 8091SOL     OW35905   2.318   1.476  15.283  0.2055 -0.6081 -0.2593
 8091SOL    HW135906   2.399   1.441  15.245  0.1773  0.2725 -1.1242
 8091SOL    HW235907   2.322   1.564  15.247  1.9991 -0.4277  0.3625
 8092SOL     OW35908   3.391   0.807   1.767 -0.2061  0.3333  0.0379
 8092SOL    HW135909   3.317   0.746   1.767 -1.3757  1.7558 -1.2315
 8092SOL    HW235910   3.356   0.874   1.826 -0.4951 -1.0396  1.4455
 8093SOL     OW35911   1.778   2.118   4.366  0.0686  0.1289 -0.1924
 8093SOL    HW135912   1.693   2.142   4.404 -0.1053  0.1198 -0.5707
 8093SOL    HW235913   1.746   2.067   4.292  0.9846  0.9586 -1.1524
 8094SOL     OW35914   1.049   1.746   5.916 -0.2691  0.7918 -0.1512
 8094SOL    HW135915   1.072   1.821   5.970 -1.3380 -0.3564  1.9005
 8094SOL    HW235916   1.064   1.788   5.831  2.2672  0.8016  0.2838
 8095SOL     OW35917   0.659   3.408   7.307 -0.1132  0.0584  0.1750
 8095SOL    HW135918   0.638   3.491   7.264  1.3754  1.0695  1.3823
 8095SOL    HW235919   0.570   3.376   7.321 -0.5263  0.2572 -2.1203
 8096SOL     OW35920   3.062   0.067   6.381  0.5722  0.3127  0.2696
 8096SOL    HW135921   2.980   0.072   6.332  0.9965 -0.9502 -0.5690
 8096SOL    HW235922   3.034   0.120   6.456 -0.3344 -0.7846  0.6955
 8097SOL     OW35923   2.415   3.070   5.061  0.3797 -0.3485  0.2690
 8097SOL    HW135924   2.477   3.001   5.085  0.0538 -0.8410 -0.3180
 8097SOL    HW235925   2.418   3.134   5.133 -1.2113 -1.8331  1.6382
 8098SOL     OW35926   1.183   4.082   0.147 -0.1242  0.4075 -0.2276
 8098SOL    HW135927   1.202   4.163   0.195  1.0843  0.3647 -0.6320
 8098SOL    HW235928   1.264   4.073   0.096  0.3133 -2.1371  0.9136
 8099SOL     OW35929   3.817   1.284   5.352 -0.6411 -0.0270 -0.1780
 8099SOL    HW135930   3.825   1.223   5.425  1.5797  0.6616  0.1567
 8099SOL    HW235931   3.804   1.228   5.275  0.5036  0.8511 -1.0162
 8100SOL     OW35932   4.559   0.993  12.992 -0.3879  0.2833 -0.4123
 8100SOL    HW135933   4.627   1.036  13.044 -0.3455  0.0249 -0.2538
 8100SOL    HW235934   4.533   1.061  12.930  0.0079  1.4822  0.7520
 8101SOL     OW35935   3.763   0.397  16.252  0.5978  0.2442  0.3323
 8101SOL    HW135936   3.698   0.390  16.322  1.6318  0.7654  1.3411
 8101SOL    HW235937   3.795   0.484  16.273  2.0562 -0.1976 -0.0864
 8102SOL     OW35938   1.032   2.861  10.201 -0.7378 -0.5365  0.1776
 8102SOL    HW135939   1.080   2.849  10.283 -1.0675 -2.0601  0.1448
 8102SOL    HW235940   0.941   2.863  10.229 -0.5967 -0.7442  0.6706
 8103SOL     OW35941   2.340   0.462   0.957  0.3163  0.9194 -0.0081
 8103SOL    HW135942   2.412   0.482   0.897  2.8141 -0.6004  2.4811
 8103SOL    HW235943   2.279   0.408   0.906  0.8745  0.1365  0.1542
 8104SOL     OW35944   1.380   2.059   5.666 -0.0558  0.4344  0.1670
 8104SOL    HW135945   1.408   2.074   5.575  1.1900 -2.7370  0.0282
 8104SOL    HW235946   1.298   2.012   5.655 -0.6122  1.7542 -1.4911
 8105SOL     OW35947   3.276   1.945   6.369  0.2547  0.5586  0.4267
 8105SOL    HW135948   3.322   1.975   6.290  0.2421  1.8769  0.9167
 8105SOL    HW235949   3.319   2.009   6.426 -1.8655  2.7148 -0.3690
 8106SOL     OW35950   0.611   4.648  11.679  0.0310  0.2015 -0.0771
 8106SOL    HW135951   0.525   4.612  11.656  0.9590 -0.7483 -2.0852
 8106SOL    HW235952   0.631   4.585  11.748  0.0448 -1.5308 -1.6682
 8107SOL     OW35953   1.696   3.453   3.457  0.4400 -0.3628 -0.1194
 8107SOL    HW135954   1.713   3.546   3.440  0.9621 -0.7885 -1.9746
 8107SOL    HW235955   1.764   3.419   3.398  0.3947  1.2733 -1.1140
 8108SOL     OW35956   2.843   3.663   7.211  0.2112  0.0388  0.3832
 8108SOL    HW135957   2.775   3.699   7.267  0.5729 -0.4895  1.1662
 8108SOL    HW235958   2.810   3.574   7.198 -1.5581  0.7559 -0.0340
 8109SOL     OW35959   4.552   0.227   7.763 -0.9330  0.3122 -0.2588
 8109SOL    HW135960   4.518   0.244   7.851 -0.4365 -0.1025  0.0142
 8109SOL    HW235961   4.636   0.195   7.798 -2.0264 -2.5177 -0.1985
 8110SOL     OW35962   2.193   1.135  14.422  0.0402  0.0162 -0.6681
 8110SOL    HW135963   2.255   1.065  14.442 -1.8802 -1.5733 -0.3158
 8110SOL    HW235964   2.197   1.177  14.508  2.1597 -1.1014 -0.2150
 8111SOL     OW35965   2.683   3.444  17.506 -0.2369 -0.1789  0.3378
 8111SOL    HW135966   2.699   3.351  17.488 -1.3330 -0.1530 -0.7800
 8111SOL    HW235967   2.592   3.464  17.484  0.6152  0.0307 -2.9185
 8112SOL     OW35968   1.970   3.168   5.245  0.4717  0.2770  0.2272
 8112SOL    HW135969   1.921   3.222   5.183  1.2058 -0.2890 -0.8329
 8112SOL    HW235970   2.006   3.229   5.310  0.9106  0.4826 -0.2079
 8113SOL     OW35971   3.822   0.092  10.138  0.7078 -0.2812  1.1021
 8113SOL    HW135972   3.808   0.017  10.081 -1.2656  1.8340 -1.1952
 8113SOL    HW235973   3.744   0.091  10.194 -1.5354  0.7342 -1.9757
 8114SOL     OW35974   0.115   1.420   1.024  0.4650  0.3465  0.2274
 8114SOL    HW135975   0.072   1.504   1.042  0.7574  0.0165  2.5413
 8114SOL    HW235976   0.037   1.381   0.985  0.6987  1.0204 -0.9170
 8115SOL     OW35977   1.329   4.082   1.949 -0.1569 -0.6386 -0.2613
 8115SOL    HW135978   1.327   4.168   1.907 -2.5655 -0.8833 -0.6260
 8115SOL    HW235979   1.238   4.067   1.972  0.2266 -1.6087  0.6286
 8116SOL     OW35980   2.075   2.127   8.187  0.1946 -0.2437  0.0480
 8116SOL    HW135981   2.035   2.194   8.242  1.6497 -0.4940  1.3948
 8116SOL    HW235982   2.167   2.141   8.209  0.3195  1.2706 -1.4199
 8117SOL     OW35983   1.116   1.644   3.941  0.2588 -0.0840  0.2813
 8117SOL    HW135984   1.034   1.605   3.911  2.1069 -2.3934 -1.7992
 8117SOL    HW235985   1.163   1.675   3.863 -1.8218  0.7245 -0.6249
 8118SOL     OW35986   0.927   4.025  13.203 -0.3630 -0.3545  0.4875
 8118SOL    HW135987   0.966   4.112  13.213 -0.7304  0.0260 -1.3103
 8118SOL    HW235988   1.012   3.983  13.189 -0.1729  0.1328  0.1782
 8119SOL     OW35989   3.735   0.770  11.680 -0.0330  0.3127  0.0121
 8119SOL    HW135990   3.678   0.790  11.754  0.1732 -0.9590  0.5071
 8119SOL    HW235991   3.811   0.818  11.710  0.7818 -0.5981 -0.5891
 8120SOL     OW35992   1.836   3.399   6.118 -0.6385 -0.1341  0.6751
 8120SOL    HW135993   1.890   3.477   6.135  1.2769 -1.7831  2.2706
 8120SOL    HW235994   1.759   3.442   6.081 -1.4739 -3.8511 -1.9365
 8121SOL     OW35995   2.098   3.816   3.924 -0.4515  0.0153  0.4016
 8121SOL    HW135996   2.015   3.833   3.880  0.3164 -0.0666 -1.0807
 8121SOL    HW235997   2.134   3.772   3.847 -1.4909 -0.1948  0.0336
 8122SOL     OW35998   2.806   0.927   0.255  0.2804 -0.5465 -0.3985
 8122SOL    HW135999   2.819   0.900   0.346  1.2069 -1.1403 -0.7074
 8122SOL    HW236000   2.828   0.846   0.209  2.5572  0.0629 -0.3820
 8123SOL     OW36001   1.380   1.877  12.411 -0.6249  0.7802  0.1979
 8123SOL    HW136002   1.414   1.919  12.332 -1.2291  3.5839  1.4390
 8123SOL    HW236003   1.395   1.783  12.397  3.4679  1.5268 -0.3705
 8124SOL     OW36004   1.801   1.573   2.286 -0.5840  0.3888  0.0363
 8124SOL    HW136005   1.831   1.566   2.377  0.7839 -0.5375 -0.4992
 8124SOL    HW236006   1.845   1.501   2.242 -0.0813  1.7443 -1.6758
 8125SOL     OW36007   1.749   0.034   3.985  0.1263 -0.2305 -0.2452
 8125SOL    HW136008   1.681   4.706   3.985 -1.2097  1.1325 -1.4943
 8125SOL    HW236009   1.831   4.730   3.960 -0.0379 -0.2106 -0.8167
 8126SOL     OW36010   4.421   4.473   5.538  0.3262  0.1520 -0.0392
 8126SOL    HW136011   4.380   4.558   5.551 -0.6967 -0.2001 -0.9609
 8126SOL    HW236012   4.491   4.502   5.481  0.1173  0.1528 -0.2953
 8127SOL     OW36013   4.026   4.346   9.459 -0.0819 -0.0489  0.2260
 8127SOL    HW136014   3.933   4.359   9.443 -0.3968 -1.8310  0.6143
 8127SOL    HW236015   4.039   4.418   9.521  0.2398  0.3649 -0.3138
 8128SOL     OW36016   0.566   4.255  16.598 -0.4134 -0.0181 -0.2209
 8128SOL    HW136017   0.608   4.340  16.581 -1.3450  0.6030  0.5487
 8128SOL    HW236018   0.531   4.281  16.684 -1.1594 -1.1893 -0.1806
 8129SOL     OW36019   1.921   2.663   5.906 -0.0870  0.4449  0.2822
 8129SOL    HW136020   1.845   2.689   5.854 -0.2058  0.7082  0.5799
 8129SOL    HW236021   1.906   2.706   5.990  1.4145 -0.5062  1.0359
 8130SOL     OW36022   1.544   2.025   8.831  0.5248  0.2871 -0.3371
 8130SOL    HW136023   1.550   2.012   8.736  0.7320  1.4254 -0.4778
 8130SOL    HW236024   1.538   1.935   8.864  1.6109 -0.1894 -1.4070
 8131SOL     OW36025   2.435   3.170  13.035  0.4473  0.1900 -0.2099
 8131SOL    HW136026   2.369   3.237  13.052 -1.5063 -1.4192 -1.3589
 8131SOL    HW236027   2.479   3.157  13.119  1.6944 -0.3731 -0.9470
 8132SOL     OW36028   1.797   4.702   6.906  0.3155  0.2715  0.7664
 8132SOL    HW136029   1.765   0.053   6.899  0.8516  0.3279 -0.8468
 8132SOL    HW236030   1.840   4.711   6.991  1.3251 -0.1182  0.2962
 8133SOL     OW36031   2.273   2.231   1.738 -0.2623 -0.1320  0.0910
 8133SOL    HW136032   2.277   2.142   1.775  2.1261  0.1042  0.4071
 8133SOL    HW236033   2.290   2.215   1.645  1.2715  1.6042  0.0772
 8134SOL     OW36034   0.078   0.677   3.211 -0.1687  0.2681  1.0279
 8134SOL    HW136035   0.005   0.722   3.168 -0.4047 -2.0385 -1.0152
 8134SOL    HW236036   0.037   0.606   3.259  0.3686 -1.0328 -0.4346
 8135SOL     OW36037   0.341   4.445  16.380  0.1765  0.1018 -0.0459
 8135SOL    HW136038   0.404   4.410  16.443  0.1661  1.6384  0.8065
 8135SOL    HW236039   0.303   4.516  16.432  1.7969  1.5062 -0.7984
 8136SOL     OW36040   4.556   2.945   3.687  0.3716 -0.0482  0.6223
 8136SOL    HW136041   4.540   3.039   3.695 -0.0074 -0.1749  1.3969
 8136SOL    HW236042   4.600   2.948   3.602 -0.4759  0.3673  0.1932
 8137SOL     OW36043   2.707   3.353   6.369  0.0854  0.0837 -0.5722
 8137SOL    HW136044   2.664   3.410   6.305 -1.0960  0.8966  0.9336
 8137SOL    HW236045   2.640   3.349   6.437 -1.2835  1.1593 -1.8388
 8138SOL     OW36046   4.527   1.978   6.260 -0.3847 -0.4853 -0.0622
 8138SOL    HW136047   4.582   2.000   6.184  1.3357 -1.9322  0.7576
 8138SOL    HW236048   4.559   1.890   6.280  0.8940  0.6992  3.1274
 8139SOL     OW36049   1.428   0.130   9.355 -0.3130  0.2255 -0.1913
 8139SOL    HW136050   1.440   0.163   9.444 -0.1253 -3.0722  1.0097
 8139SOL    HW236051   1.394   0.204   9.304  0.4418 -0.0678 -1.1116
 8140SOL     OW36052   3.993   1.029  12.857 -0.5268 -0.3174  0.1104
 8140SOL    HW136053   3.935   1.049  12.784 -1.9895  0.8262  1.5997
 8140SOL    HW236054   4.077   1.027  12.811 -0.7604  1.6938 -0.3758
 8141SOL     OW36055   0.588   1.527   5.960 -0.8119 -0.1384  0.1055
 8141SOL    HW136056   0.615   1.537   5.869 -2.6895 -0.8260 -0.5293
 8141SOL    HW236057   0.591   1.621   5.975  0.4667 -0.4359  1.7221
 8142SOL     OW36058   0.816   1.311   8.559  0.5076 -0.1055 -0.0919
 8142SOL    HW136059   0.811   1.386   8.500 -0.6766  1.3372  1.8136
 8142SOL    HW236060   0.849   1.353   8.639  0.0569  0.6407 -0.2969
 8143SOL     OW36061   3.353   0.843  14.497 -0.3317 -0.0019  0.5331
 8143SOL    HW136062   3.260   0.824  14.484  0.3797 -2.0208 -1.5511
 8143SOL    HW236063   3.392   0.761  14.528  0.8006  1.3391  2.6471
 8144SOL     OW36064   3.811   2.374   4.288 -0.1016  0.3497  0.0902
 8144SOL    HW136065   3.878   2.333   4.343 -0.6551  0.3398  0.7539
 8144SOL    HW236066   3.867   2.423   4.227  0.0474  0.4099  0.2738
 8145SOL     OW36067   2.414   3.686  13.429  0.0416 -0.0869  0.3164
 8145SOL    HW136068   2.334   3.633  13.421 -0.2132 -0.1403  3.1168
 8145SOL    HW236069   2.443   3.688  13.338 -0.6136  1.4227  0.1462
 8146SOL     OW36070   0.437   3.328  15.798  0.2736 -0.0203  0.2153
 8146SOL    HW136071   0.344   3.349  15.788 -0.0879 -1.8511 -0.2458
 8146SOL    HW236072   0.476   3.398  15.745  1.1491 -1.5917 -1.2120
 8147SOL     OW36073   0.831   3.403   7.027  0.1670  0.1643 -0.0515
 8147SOL    HW136074   0.810   3.484   6.981  0.0919 -0.4850 -1.1500
 8147SOL    HW236075   0.847   3.429   7.118 -0.1466 -1.0459  0.3501
 8148SOL     OW36076   3.227   0.296  10.831 -0.4390  0.2564  0.0323
 8148SOL    HW136077   3.315   0.259  10.820 -0.7817  0.0412 -1.9874
 8148SOL    HW236078   3.235   0.388  10.809  0.5419  0.4779  1.3011
 8149SOL     OW36079   3.160   1.816   4.893 -0.1331 -0.0468 -0.4823
 8149SOL    HW136080   3.223   1.879   4.859  0.6470 -1.0195 -0.8266
 8149SOL    HW236081   3.138   1.777   4.808  0.5547  0.0103 -0.6890
 8150SOL     OW36082   0.292   2.105  13.441 -0.2677 -0.1402 -0.0833
 8150SOL    HW136083   0.303   2.077  13.351  2.1863 -0.2333  0.2551
 8150SOL    HW236084   0.374   2.154  13.450  0.5798 -1.2550 -1.8999
 8151SOL     OW36085   3.335   0.219   3.739 -0.4900 -0.8039  0.2347
 8151SOL    HW136086   3.394   0.145   3.732  1.8741  1.0512  0.6878
 8151SOL    HW236087   3.342   0.265   3.656 -1.1930 -1.1092  0.0004
 8152SOL     OW36088   0.757   2.729   7.684 -0.2423 -0.0320  0.2362
 8152SOL    HW136089   0.764   2.800   7.748 -1.1896 -1.1417  1.5682
 8152SOL    HW236090   0.662   2.721   7.672 -0.2967 -0.2968  0.8317
 8153SOL     OW36091   1.917   3.400  10.882  0.3318 -0.6390  0.1647
 8153SOL    HW136092   1.826   3.416  10.905  0.3835  0.6640 -0.5282
 8153SOL    HW236093   1.959   3.458  10.946  0.2915 -0.4693  0.0402
 8154SOL     OW36094   1.785   4.639   4.308  0.5044  0.3958  0.4990
 8154SOL    HW136095   1.825   4.556   4.337  1.5024 -0.2428 -2.7730
 8154SOL    HW236096   1.763   4.667   4.397 -2.7844 -0.2146 -0.1214
 8155SOL     OW36097   1.181   1.130   4.056  0.3154  0.0282  0.4067
 8155SOL    HW136098   1.164   1.203   4.116  1.6937 -0.0019  0.8424
 8155SOL    HW236099   1.273   1.117   4.080 -0.0964 -0.1814  1.8512
 8156SOL     OW36100   3.806   3.784   2.987 -0.0759 -0.3074 -0.0280
 8156SOL    HW136101   3.780   3.694   2.965  0.8800 -0.5236 -0.2761
 8156SOL    HW236102   3.717   3.805   3.017  0.7500  2.0353  0.7059
 8157SOL     OW36103   2.407   4.057  16.534 -0.0985  0.4957 -0.0531
 8157SOL    HW136104   2.342   4.043  16.602  0.9728 -1.4991  0.5492
 8157SOL    HW236105   2.477   4.084  16.594 -0.9517 -0.5594  1.3901
 8158SOL     OW36106   1.699   0.322   0.142 -0.0034  0.0128  0.2631
 8158SOL    HW136107   1.717   0.299   0.051 -0.0815  1.0992 -0.0267
 8158SOL    HW236108   1.659   0.238   0.165 -1.0818  0.6281  0.6630
 8159SOL     OW36109   3.725   2.396   7.034  0.5693 -0.1731  0.1366
 8159SOL    HW136110   3.774   2.402   6.952  1.0288 -0.9836  0.3556
 8159SOL    HW236111   3.798   2.415   7.093  0.8769 -0.2941 -0.2023
 8160SOL     OW36112   3.750   0.110   5.769 -0.0379  0.9376  0.3505
 8160SOL    HW136113   3.759   0.021   5.733 -1.5013  1.2495 -0.7886
 8160SOL    HW236114   3.788   0.100   5.856 -1.0216 -1.5671  0.4956
 8161SOL     OW36115   2.161   2.364   2.431  0.0167  0.1218 -0.8262
 8161SOL    HW136116   2.172   2.271   2.453 -0.2918  0.3369  0.2591
 8161SOL    HW236117   2.096   2.368   2.361  0.0022  0.1281 -0.8123
 8162SOL     OW36118   3.022   1.905  11.989  0.0738 -0.4583 -0.7671
 8162SOL    HW136119   2.977   1.880  12.069  1.3934 -3.1175 -0.8518
 8162SOL    HW236120   3.103   1.945  12.022  0.6676 -1.9778 -0.4170
 8163SOL     OW36121   1.128   4.521   5.854  0.0409 -0.0261 -0.3714
 8163SOL    HW136122   1.073   4.468   5.911  0.8361 -0.3895  0.0621
 8163SOL    HW236123   1.115   4.603   5.900  2.5639  1.5862 -2.4947
 8164SOL     OW36124   0.098   4.023   6.688 -0.5555  0.4358 -0.0773
 8164SOL    HW136125   0.054   3.975   6.758  2.4270 -1.7328  0.2894
 8164SOL    HW236126   0.116   3.949   6.630  0.2092  0.2692  0.3803
 8165SOL     OW36127   2.723   1.324   8.533 -0.6443 -0.8470 -0.2018
 8165SOL    HW136128   2.691   1.414   8.522  1.7727 -0.0027 -0.1888
 8165SOL    HW236129   2.740   1.326   8.627 -0.8989 -0.5520 -0.1592
 8166SOL     OW36130   2.669   0.241   2.348  0.3346 -0.4500  0.3311
 8166SOL    HW136131   2.638   0.327   2.378 -0.7320 -1.4424  2.0576
 8166SOL    HW236132   2.742   0.273   2.296  0.0620  1.9656  1.4352
 8167SOL     OW36133   1.590   0.167   6.912  0.5390  0.3156 -0.3406
 8167SOL    HW136134   1.580   0.199   6.822  0.5645  0.3764 -0.3214
 8167SOL    HW236135   1.575   0.239   6.972  2.4831 -0.8794  1.5628
 8168SOL     OW36136   2.827   2.308   5.930 -0.4049 -0.3518  0.3954
 8168SOL    HW136137   2.748   2.258   5.912 -1.8292  2.5436 -1.4380
 8168SOL    HW236138   2.848   2.269   6.014 -1.2952  0.2469  0.8977
 8169SOL     OW36139   2.933   1.755   3.714 -0.0356 -0.3953  0.5209
 8169SOL    HW136140   2.859   1.812   3.738  0.5443  0.5421  0.0933
 8169SOL    HW236141   3.006   1.771   3.773  0.4095 -0.5518  0.0135
 8170SOL     OW36142   1.182   2.507   3.754  0.0714 -0.2847 -0.1855
 8170SOL    HW136143   1.211   2.594   3.727 -0.0162 -0.1960  0.0100
 8170SOL    HW236144   1.222   2.510   3.841 -0.0916 -2.3197 -0.0431
 8171SOL     OW36145   4.113   3.221   7.517  0.1292  0.0522 -0.1063
 8171SOL    HW136146   4.135   3.140   7.470  0.3201  0.2457 -0.3502
 8171SOL    HW236147   4.188   3.280   7.518 -0.8050  1.3165 -3.8661
 8172SOL     OW36148   1.009   2.353  12.360 -0.3667  0.2383 -0.1241
 8172SOL    HW136149   1.046   2.297  12.291  0.1041 -0.8276  0.9791
 8172SOL    HW236150   1.047   2.434  12.326 -1.8817  1.8196  1.9797
 8173SOL     OW36151   2.341   1.157   7.972 -0.3550 -0.6124  0.6174
 8173SOL    HW136152   2.290   1.155   7.891 -1.3091 -1.4499  1.2456
 8173SOL    HW236153   2.398   1.083   7.948 -1.5368 -1.1005 -0.6719
 8174SOL     OW36154   2.895   2.345   3.114  0.2297  0.1879 -0.1694
 8174SOL    HW136155   2.943   2.375   3.191 -1.1516  1.7137  0.1121
 8174SOL    HW236156   2.807   2.335   3.150  0.3669  0.9263  0.3745
 8175SOL     OW36157   2.407   3.082  13.365 -0.4760 -0.6467  0.1287
 8175SOL    HW136158   2.423   3.152  13.428  1.7764 -1.0432 -0.0092
 8175SOL    HW236159   2.322   3.054  13.398 -1.3770  1.7770 -0.1034
 8176SOL     OW36160   4.191   2.174  14.170  0.1909  0.2561 -0.7306
 8176SOL    HW136161   4.243   2.163  14.091  1.0842 -1.6761  0.1453
 8176SOL    HW236162   4.225   2.254  14.212  0.8566  0.0172 -0.8069
 8177SOL     OW36163   4.032   1.024   5.243  0.6579  0.0955 -0.7054
 8177SOL    HW136164   4.061   1.028   5.334 -2.4949  2.8777  0.1544
 8177SOL    HW236165   4.102   1.077   5.205  0.4386 -0.1634 -1.4705
 8178SOL     OW36166   3.532   4.406   7.826 -0.0259 -0.0532  0.1090
 8178SOL    HW136167   3.563   4.466   7.895  0.4354 -0.5884  0.3706
 8178SOL    HW236168   3.617   4.405   7.782 -0.0653 -1.0167  0.0535
 8179SOL     OW36169   1.933   2.479   5.279  0.3001 -0.0352 -0.2816
 8179SOL    HW136170   1.905   2.421   5.350 -0.2846  1.3887  0.6712
 8179SOL    HW236171   1.849   2.517   5.251 -0.1682 -0.4357  0.5661
 8180SOL     OW36172   1.570   1.792  14.858  0.1835 -0.1400  0.3254
 8180SOL    HW136173   1.524   1.751  14.932 -1.8570 -0.5126 -1.1563
 8180SOL    HW236174   1.626   1.845  14.914  1.7952 -0.1177 -1.3346
 8181SOL     OW36175   2.526   1.987   7.365  0.4185  0.2364 -0.2596
 8181SOL    HW136176   2.554   1.935   7.289 -1.7546  0.4283 -1.2183
 8181SOL    HW236177   2.605   2.036   7.384 -0.3077  0.0706  3.1444
 8182SOL     OW36178   2.569   1.492  17.418  0.1077 -0.0013  0.4096
 8182SOL    HW136179   2.660   1.467  17.431 -0.7880 -2.3051  2.2800
 8182SOL    HW236180   2.559   1.538  17.502  3.0671  1.2025  0.0912
 8183SOL     OW36181   3.263   1.442   7.221 -0.0318 -0.4071  0.1057
 8183SOL    HW136182   3.240   1.497   7.296  3.0455  1.0138  0.0105
 8183SOL    HW236183   3.355   1.468   7.215 -0.2997  0.7684  0.9996
 8184SOL     OW36184   2.914   3.630   4.259 -0.5465 -0.2281  0.3647
 8184SOL    HW136185   2.962   3.667   4.333 -0.6388 -1.2905  0.9598
 8184SOL    HW236186   2.920   3.536   4.274 -0.4282 -0.4601 -1.1834
 8185SOL     OW36187   1.669   3.463   8.015  0.1661  0.5542  0.0450
 8185SOL    HW136188   1.593   3.449   8.073  1.3521 -0.2495  1.4061
 8185SOL    HW236189   1.725   3.387   8.030 -0.5470  0.0426  0.1434
 8186SOL     OW36190   1.039   0.237   3.389 -0.4060 -0.4894 -0.6710
 8186SOL    HW136191   1.073   0.172   3.451 -2.2874  0.1292  0.9832
 8186SOL    HW236192   1.111   0.296   3.366  1.0826 -0.9300  2.8720
 8187SOL     OW36193   3.529   0.330   4.290 -0.1990 -0.2711 -0.0126
 8187SOL    HW136194   3.434   0.337   4.282 -0.3860 -0.6369  1.7288
 8187SOL    HW236195   3.550   0.237   4.305 -1.3775 -0.0332  3.1855
 8188SOL     OW36196   4.554   4.597  15.405 -0.4844  0.8721  0.3518
 8188SOL    HW136197   4.525   4.675  15.451  0.2921  0.0902  2.1560
 8188SOL    HW236198   4.549   4.538  15.480  0.2686  0.3843  0.0225
 8189SOL     OW36199   3.685   2.385   7.479 -0.1335 -0.2742  0.0466
 8189SOL    HW136200   3.741   2.463   7.483  0.1958 -0.4468 -1.1710
 8189SOL    HW236201   3.679   2.368   7.573  1.2334 -0.0359  0.1776
 8190SOL     OW36202   2.030   3.431   0.580  0.2380  0.4907  0.0503
 8190SOL    HW136203   2.087   3.490   0.629  0.0892  0.2005  0.5770
 8190SOL    HW236204   2.033   3.365   0.649  1.4041 -1.3513 -1.7840
 8191SOL     OW36205   1.570   1.623   4.716  0.8275  0.4866 -0.0913
 8191SOL    HW136206   1.654   1.576   4.715  1.2627  1.2570  0.5834
 8191SOL    HW236207   1.598   1.714   4.711 -2.9418  1.7134  1.1312
 8192SOL     OW36208   1.702   3.082   4.280 -0.8551  0.6287 -0.3968
 8192SOL    HW136209   1.755   3.100   4.202 -1.3537  0.4541 -0.7704
 8192SOL    HW236210   1.650   3.007   4.253 -1.3582  0.0737  2.0777
 8193SOL     OW36211   2.874   2.811  11.940 -0.0182 -0.2667  0.0097
 8193SOL    HW136212   2.936   2.753  11.984 -0.6027  1.9296  3.7277
 8193SOL    HW236213   2.815   2.744  11.905  2.5683 -1.4399 -2.0288
 8194SOL     OW36214   2.769   0.096  13.148  0.2315 -0.0122  0.0039
 8194SOL    HW136215   2.768   0.014  13.097 -3.1558 -1.1378  1.8622
 8194SOL    HW236216   2.832   0.152  13.104  0.3786  0.6061  1.0254
 8195SOL     OW36217   4.735   2.914   3.465  0.1227  0.0216 -0.3675
 8195SOL    HW136218   4.721   3.007   3.451 -0.9273 -0.3554 -1.8663
 8195SOL    HW236219   0.078   2.922   3.514 -1.0218 -0.7131  1.6717
 8196SOL     OW36220   0.328   2.277   5.564  0.2739 -0.0771  0.0625
 8196SOL    HW136221   0.312   2.297   5.472  1.7557  2.4134  0.3152
 8196SOL    HW236222   0.288   2.350   5.612 -1.8645 -0.7935 -0.6615
 8197SOL     OW36223   1.062   1.769  12.866  0.2530  0.2985  0.5576
 8197SOL    HW136224   1.044   1.806  12.780 -0.2112  2.2847  1.5134
 8197SOL    HW236225   1.107   1.686  12.849  0.5082  0.6069 -0.2898
 8198SOL     OW36226   2.010   1.509   7.691 -0.2026 -0.4163 -0.7710
 8198SOL    HW136227   1.967   1.563   7.624  0.0216 -3.1798 -3.1158
 8198SOL    HW236228   2.073   1.466   7.634  3.1856  0.3845  2.4016
 8199SOL     OW36229   4.287   2.799  16.562 -0.1363 -0.0254  0.3398
 8199SOL    HW136230   4.239   2.863  16.509  0.1363 -0.7743 -0.8125
 8199SOL    HW236231   4.279   2.717  16.514  2.7846 -0.3351  0.3878
 8200SOL     OW36232   2.673   3.667   5.379  0.3952 -0.2510  0.1489
 8200SOL    HW136233   2.635   3.739   5.429  1.9719  0.9293 -0.3357
 8200SOL    HW236234   2.672   3.696   5.287 -1.3967 -2.4977 -0.5255
 8201SOL     OW36235   2.791   1.849   4.335  0.2363  0.7929 -0.1116
 8201SOL    HW136236   2.843   1.791   4.279 -1.7110 -1.4812  0.4460
 8201SOL    HW236237   2.788   1.801   4.417  2.7016  0.0924 -0.4257
 8202SOL     OW36238   2.917   0.965   5.270  0.2919 -0.1563 -0.0581
 8202SOL    HW136239   2.967   0.917   5.336  1.0549  1.3001  0.4118
 8202SOL    HW236240   2.957   0.931   5.190  1.5651  0.9750  0.0912
 8203SOL     OW36241   1.311   1.641  12.698  0.2878  0.3313 -0.4891
 8203SOL    HW136242   1.398   1.611  12.671 -0.6436 -1.5969 -1.3352
 8203SOL    HW236243   1.309   1.599  12.784 -2.3589 -0.4934 -0.9589
 8204SOL     OW36244   4.591   3.542  10.731 -0.2888  0.0525  0.0542
 8204SOL    HW136245   4.593   3.627  10.687  2.8888 -0.3728 -0.6669
 8204SOL    HW236246   4.510   3.498  10.706 -0.1948 -0.8435  1.3714
 8205SOL     OW36247   2.659   3.316   7.224  0.1443 -0.3946  0.0363
 8205SOL    HW136248   2.639   3.230   7.259  1.8654  0.2345  2.5919
 8205SOL    HW236249   2.741   3.334   7.270 -0.8104 -1.3042  2.0581
 8206SOL     OW36250   3.075   1.839   9.220  0.8174 -0.1949 -0.6060
 8206SOL    HW136251   2.999   1.782   9.206  0.5824  0.0990 -0.5314
 8206SOL    HW236252   3.142   1.772   9.232 -0.8764 -1.6351  0.8866
 8207SOL     OW36253   4.718   1.811   3.653 -0.1824 -0.1790  0.5467
 8207SOL    HW136254   4.696   1.895   3.614 -0.6153 -0.2058  0.7219
 8207SOL    HW236255   4.641   1.796   3.709  0.0619  0.9361  1.1754
 8208SOL     OW36256   4.359   3.827   5.958 -0.0926  0.2141  0.1887
 8208SOL    HW136257   4.439   3.774   5.958 -1.4771 -1.8649  0.4339
 8208SOL    HW236258   4.300   3.767   5.913  0.2952  0.2920 -0.4236
 8209SOL     OW36259   3.328   0.190   6.448 -0.7463 -0.7764 -0.2062
 8209SOL    HW136260   3.325   0.246   6.370  0.9610  1.1202  1.0727
 8209SOL    HW236261   3.246   0.141   6.437  0.0298 -1.7339 -1.6874
 8210SOL     OW36262   0.749   1.948   2.967  0.1318  0.0882  0.2953
 8210SOL    HW136263   0.664   1.955   3.010 -0.0028 -2.1305  0.4093
 8210SOL    HW236264   0.727   1.965   2.875 -0.7860 -0.5074  0.4086
 8211SOL     OW36265   2.694   2.227  10.911  0.2915 -0.0595 -0.1242
 8211SOL    HW136266   2.629   2.183  10.967 -0.2366  2.9420  1.6260
 8211SOL    HW236267   2.764   2.161  10.905  1.6440  1.3610 -0.0127
 8212SOL     OW36268   2.168   1.819   7.600 -0.3924  0.1813 -0.4101
 8212SOL    HW136269   2.165   1.753   7.530 -0.7902  1.1663 -1.3268
 8212SOL    HW236270   2.237   1.777   7.651 -3.0654 -2.3002  1.1526
 8213SOL     OW36271   0.287   0.689   8.464  0.1605  0.0992 -0.2852
 8213SOL    HW136272   0.237   0.713   8.541 -0.4193 -1.1751 -0.2688
 8213SOL    HW236273   0.340   0.769   8.459 -1.1505  0.9585 -0.3264
 8214SOL     OW36274   1.091   4.384   5.103  0.0115 -0.1805 -0.5063
 8214SOL    HW136275   1.021   4.322   5.123 -0.3729  1.1965  2.3830
 8214SOL    HW236276   1.081   4.372   5.008 -0.5167  0.3899 -0.5279
 8215SOL     OW36277   1.897   0.170   2.336  0.4763  0.6471  0.2830
 8215SOL    HW136278   1.860   0.252   2.370 -1.6856 -0.0504 -0.4182
 8215SOL    HW236279   1.820   0.115   2.325  1.1781 -0.2430 -0.1702
 8216SOL     OW36280   4.245   0.925  16.478  0.3597  0.3138 -0.3329
 8216SOL    HW136281   4.174   0.983  16.449  1.0087  1.5141  0.4730
 8216SOL    HW236282   4.250   0.964  16.565  0.8277 -1.1293  0.2702
 8217SOL     OW36283   4.573   2.830   6.496  0.0789 -0.0439  0.1665
 8217SOL    HW136284   4.578   2.810   6.589 -0.8207 -0.0420  0.2085
 8217SOL    HW236285   4.632   2.762   6.461  0.9987  0.9234 -0.1764
 8218SOL     OW36286   0.386   3.465   6.435 -0.3079 -0.6199 -0.1024
 8218SOL    HW136287   0.448   3.406   6.392  1.2489  1.1462 -0.2628
 8218SOL    HW236288   0.388   3.456   6.530 -0.0689  0.6728  0.0152
 8219SOL     OW36289   0.799   0.273   9.261  0.7417 -0.0795  0.2175
 8219SOL    HW136290   0.787   0.320   9.178 -0.3796  0.4971  0.7146
 8219SOL    HW236291   0.743   0.197   9.247  0.9868 -0.2013 -0.1170
 8220SOL     OW36292   2.240   4.146   4.858 -0.1437  0.3872 -0.5626
 8220SOL    HW136293   2.256   4.228   4.812 -2.3073 -0.4779 -2.8062
 8220SOL    HW236294   2.325   4.100   4.858 -0.2997  0.0992 -0.8929
 8221SOL     OW36295   3.248   0.640   6.866 -0.0552 -0.5684  0.1952
 8221SOL    HW136296   3.163   0.615   6.828  0.1235  0.0222 -0.5879
 8221SOL    HW236297   3.256   0.586   6.945  0.6197 -0.2348  0.3515
 8222SOL     OW36298   0.320   4.241   5.059  0.0493 -0.4012 -0.1561
 8222SOL    HW136299   0.410   4.269   5.079  0.7154 -1.9811 -0.9193
 8222SOL    HW236300   0.325   4.145   5.055  0.9577 -0.3173 -1.0550
 8223SOL     OW36301   0.163   1.897   3.112 -0.1770 -0.1590  0.3205
 8223SOL    HW136302   0.125   1.985   3.106 -0.6386 -0.4688 -1.3280
 8223SOL    HW236303   0.120   1.866   3.033 -1.4572 -2.7157  2.0369
 8224SOL     OW36304   2.745   3.334   1.862 -0.4975 -0.5009  0.0215
 8224SOL    HW136305   2.831   3.297   1.882 -0.4251 -0.6926 -0.6235
 8224SOL    HW236306   2.695   3.327   1.943  2.3608  2.1071  1.9691
 8225SOL     OW36307   3.633   4.047   5.198  0.4350 -0.4579 -0.3712
 8225SOL    HW136308   3.640   4.133   5.157  1.3455  0.5842  2.0213
 8225SOL    HW236309   3.706   4.055   5.259 -0.3565 -0.0254  0.5168
 8226SOL     OW36310   1.275   0.525  15.120  0.0180  0.1413 -0.4417
 8226SOL    HW136311   1.275   0.462  15.192  0.4599  0.6365 -0.0090
 8226SOL    HW236312   1.184   0.522  15.090 -0.0741 -2.0469  0.0460
 8227SOL     OW36313   2.612   2.365   3.952 -0.0338 -0.5377 -0.3233
 8227SOL    HW136314   2.702   2.368   3.920  0.0883  3.1832  0.3532
 8227SOL    HW236315   2.570   2.429   3.895  0.8710  1.9689  1.8031
 8228SOL     OW36316   1.529   4.460   6.620  0.5325  0.5241 -0.6888
 8228SOL    HW136317   1.504   4.541   6.577 -0.2285  0.9332  0.5366
 8228SOL    HW236318   1.454   4.403   6.602  0.4246  1.2113 -2.3963
 8229SOL     OW36319   0.946   1.645   1.263 -0.3751  0.2611 -0.0427
 8229SOL    HW136320   1.001   1.720   1.287  1.1749 -0.4845 -1.3288
 8229SOL    HW236321   0.909   1.670   1.179 -2.9237  0.6009  1.1764
 8230SOL     OW36322   3.368   0.788   0.113 -0.3721  0.2870  0.0019
 8230SOL    HW136323   3.275   0.773   0.128 -0.9650  1.5536 -2.3407
 8230SOL    HW236324   3.399   0.809   0.201  2.8151  0.7134 -1.2320
 8231SOL     OW36325   0.640   1.169   1.456 -0.9409  0.6188 -0.0092
 8231SOL    HW136326   0.727   1.145   1.424 -1.9820 -2.0756 -0.8088
 8231SOL    HW236327   0.575   1.121   1.406 -0.4093 -0.8373  0.6870
 8232SOL     OW36328   1.318   1.665   9.784  0.5240  0.6037 -0.5131
 8232SOL    HW136329   1.272   1.745   9.758  0.6848  1.1993  1.0733
 8232SOL    HW236330   1.333   1.682   9.877  0.4091 -3.3898  0.2514
 8233SOL     OW36331   0.811   0.299   2.211 -0.1813  0.2364 -0.1197
 8233SOL    HW136332   0.840   0.265   2.295  2.4227  2.9818  0.0918
 8233SOL    HW236333   0.836   0.227   2.153  0.6395  1.2403 -1.0135
 8234SOL     OW36334   0.525   2.477   1.114 -0.1083  0.4979  0.4626
 8234SOL    HW136335   0.451   2.482   1.175 -1.9674 -1.2656 -1.6083
 8234SOL    HW236336   0.562   2.398   1.152  1.3841  0.7848 -0.3861
 8235SOL     OW36337   4.693   3.522   8.702 -0.0901 -0.4922  0.2239
 8235SOL    HW136338   4.635   3.585   8.661 -0.3809 -0.8279  0.1171
 8235SOL    HW236339   4.636   3.444   8.703  1.7980 -1.9260 -3.7021
 8236SOL     OW36340   0.353   1.491  12.451  0.1033 -0.1596  0.5881
 8236SOL    HW136341   0.384   1.407  12.484 -0.4907 -0.3099  0.7591
 8236SOL    HW236342   0.411   1.498  12.376 -1.0487 -1.0827 -0.3919
 8237SOL     OW36343   0.173   4.537   3.057 -0.1196 -0.2724  0.1154
 8237SOL    HW136344   0.248   4.480   3.069  0.2757 -0.0403 -1.3037
 8237SOL    HW236345   0.185   4.591   3.136  1.8313 -0.5740  0.0122
 8238SOL     OW36346   3.660   2.007   2.989 -0.1917 -0.1446 -0.8048
 8238SOL    HW136347   3.622   2.046   3.067 -0.5277  0.8812 -1.4816
 8238SOL    HW236348   3.580   1.985   2.940 -1.5177  2.7140  0.1150
 8239SOL     OW36349   0.428   0.693  11.810 -0.5585  0.2897  0.4575
 8239SOL    HW136350   0.396   0.662  11.895  1.4643 -2.1507  0.3336
 8239SOL    HW236351   0.451   0.611  11.766  0.7174 -0.0615  1.7785
 8240SOL     OW36352   0.403   0.910  14.384  1.0017 -0.3397  0.5924
 8240SOL    HW136353   0.347   0.972  14.338  2.7506  0.4958 -0.4092
 8240SOL    HW236354   0.468   0.896  14.316  2.1346 -0.1543  1.6264
 8241SOL     OW36355   2.985   4.097  16.703  0.2667 -0.0445  0.2857
 8241SOL    HW136356   2.996   4.026  16.640  1.1380  1.1598 -0.8961
 8241SOL    HW236357   3.054   4.152  16.667  0.9994 -0.1925  1.4815
 8242SOL     OW36358   2.469   1.843   0.106  0.4454 -0.4273  0.6186
 8242SOL    HW136359   2.560   1.822   0.128  0.8033  1.2269  0.7229
 8242SOL    HW236360   2.465   1.785   0.031 -1.1397 -0.3815  0.6797
 8243SOL     OW36361   2.972   1.171   2.253 -0.0653  0.7314 -0.2323
 8243SOL    HW136362   2.976   1.076   2.243 -0.1284  0.7408 -0.3488
 8243SOL    HW236363   3.000   1.181   2.344 -0.7889 -1.0235  0.1690
 8244SOL     OW36364   1.469   1.575   0.349  0.0064  0.0962  0.3823
 8244SOL    HW136365   1.560   1.595   0.373 -0.4094 -1.6628  3.4338
 8244SOL    HW236366   1.476   1.485   0.317 -1.7096  0.3984 -0.8275
 8245SOL     OW36367   2.360   3.919   3.184 -0.3016 -0.3368 -0.0634
 8245SOL    HW136368   2.277   3.915   3.137 -0.1423 -1.0185 -0.2820
 8245SOL    HW236369   2.413   3.997   3.165  1.2838  0.0789  5.8876
 8246SOL     OW36370   3.235   4.329   8.254  0.4266  0.3066  0.5467
 8246SOL    HW136371   3.329   4.345   8.246  0.4112  0.0311 -0.2316
 8246SOL    HW236372   3.227   4.336   8.349 -1.7489  2.9454  0.1583
 8247SOL     OW36373   4.374   3.957   0.498  0.3375  0.6133 -0.2804
 8247SOL    HW136374   4.431   3.945   0.575 -2.4710 -0.1574  1.6945
 8247SOL    HW236375   4.333   3.871   0.488 -0.6239  1.3881 -3.0123
 8248SOL     OW36376   0.918   2.049  13.496  0.3094  1.0136 -0.5055
 8248SOL    HW136377   0.882   2.060  13.584  0.6722 -1.2437 -0.0713
 8248SOL    HW236378   1.003   2.089  13.510  1.0027 -0.3725 -0.7381
 8249SOL     OW36379   1.045   2.276   4.282  0.4309 -0.3618  0.0501
 8249SOL    HW136380   1.022   2.295   4.191  1.2455  0.0363 -0.0749
 8249SOL    HW236381   1.037   2.363   4.320 -2.4704 -0.7830  0.4164
 8250SOL     OW36382   1.507   3.403   7.582  0.6882 -0.1438 -0.1551
 8250SOL    HW136383   1.585   3.411   7.638  0.9330  2.8510 -0.9577
 8250SOL    HW236384   1.447   3.369   7.648 -0.7718  1.2583 -0.7865
 8251SOL     OW36385   2.711   0.498   2.691 -0.1504 -0.4007  0.3877
 8251SOL    HW136386   2.663   0.504   2.608  1.1644  0.1697 -0.3240
 8251SOL    HW236387   2.771   0.424   2.684 -0.2012 -0.5755  1.8197
 8252SOL     OW36388   3.473   0.283  17.738 -0.0794 -0.1364 -0.0644
 8252SOL    HW136389   3.469   0.262  17.644  0.3797 -1.1161  0.1438
 8252SOL    HW236390   3.428   0.367  17.725 -0.0452  0.2223  2.2570
 8253SOL     OW36391   1.704   0.816  10.964 -0.3959 -0.0265 -0.3530
 8253SOL    HW136392   1.628   0.833  10.908 -0.5400  1.2889  0.2383
 8253SOL    HW236393   1.693   0.725  10.991  1.8623  0.1179  1.0772
 8254SOL     OW36394   4.383   4.482   6.567 -0.2601  0.0951  0.0066
 8254SOL    HW136395   4.359   4.435   6.647 -1.3277  0.3021 -0.1948
 8254SOL    HW236396   4.476   4.498   6.588 -0.2214  0.7236 -0.6313
 8255SOL     OW36397   0.828   3.616   4.051  0.0857 -0.3061 -0.1461
 8255SOL    HW136398   0.760   3.577   4.105  0.1873 -1.0980 -0.5936
 8255SOL    HW236399   0.815   3.708   4.072  2.0169  0.6784 -3.2975
 8256SOL     OW36400   3.870   0.065   5.168  0.4201  0.2451 -0.1764
 8256SOL    HW136401   3.907   0.046   5.082 -0.3612 -0.7865 -0.2839
 8256SOL    HW236402   3.870   4.718   5.210  0.9531  0.0539 -0.5795
 8257SOL     OW36403   4.274   1.898   1.966 -0.1009  0.4266 -0.6224
 8257SOL    HW136404   4.342   1.965   1.977  0.6204 -0.2849 -0.7536
 8257SOL    HW236405   4.325   1.821   1.993  0.3938  0.2379 -2.1031
 8258SOL     OW36406   0.249   3.066   2.119  0.4784 -0.2433 -0.1285
 8258SOL    HW136407   0.162   3.080   2.157  0.5298 -0.6296  0.1393
 8258SOL    HW236408   0.259   2.973   2.141  2.7075 -0.0191 -0.1898
 8259SOL     OW36409   1.542   4.609   9.350 -0.0488  0.3043  0.0321
 8259SOL    HW136410   1.485   4.686   9.344  1.0520  1.1016 -0.4022
 8259SOL    HW236411   1.599   4.624   9.425  0.7478  0.1634 -0.5377
 8260SOL     OW36412   4.086   1.263   5.976  0.0824  0.2515  1.1277
 8260SOL    HW136413   4.006   1.219   6.007  0.4690 -1.9400 -1.0074
 8260SOL    HW236414   4.158   1.216   6.018  0.0257  0.2412  1.2129
 8261SOL     OW36415   1.418   2.800   0.808 -0.4528 -0.1428  0.2135
 8261SOL    HW136416   1.342   2.828   0.756  1.5620  2.0968 -1.4957
 8261SOL    HW236417   1.447   2.719   0.766 -1.9771 -0.8658  0.5318
 8262SOL     OW36418   1.018   1.965  14.531 -0.0719  0.1837  0.7910
 8262SOL    HW136419   0.994   2.058  14.535 -0.2453  0.2556 -1.8696
 8262SOL    HW236420   0.930   1.928  14.537  0.6048 -1.6655 -0.7490
 8263SOL     OW36421   1.165   1.780  11.592  0.2643 -0.4292 -0.4952
 8263SOL    HW136422   1.209   1.815  11.514  2.6244 -0.9985  0.5626
 8263SOL    HW236423   1.212   1.697  11.604 -0.4870 -0.5806  1.2654
 8264SOL     OW36424   4.670   0.479   5.227  0.1524 -0.6200  0.0076
 8264SOL    HW136425   4.726   0.530   5.168 -0.6467 -1.2677 -1.3024
 8264SOL    HW236426   4.596   0.538   5.240  0.7447  0.0616  0.3572
 8265SOL     OW36427   0.393   0.843   0.005  0.4303 -0.3720 -0.3510
 8265SOL    HW136428   0.396   0.750  17.736  1.5268 -0.4122 -0.0194
 8265SOL    HW236429   0.424   0.874  17.674  1.9415 -1.3273 -0.1284
 8266SOL     OW36430   2.201   0.958  13.827 -0.7288  0.3093  0.3571
 8266SOL    HW136431   2.287   0.920  13.810 -0.5289  2.2062 -2.7498
 8266SOL    HW236432   2.149   0.878  13.822 -1.9601  1.0428  1.3928
 8267SOL     OW36433   4.687   3.060   4.871  0.2603 -0.1038 -0.5738
 8267SOL    HW136434   4.667   3.007   4.948  2.6648 -0.7110 -0.3673
 8267SOL    HW236435   4.726   3.135   4.916  0.8347 -0.2450 -0.8357
 8268SOL     OW36436   3.247   0.697   1.282  0.4274  0.3480  0.3048
 8268SOL    HW136437   3.238   0.689   1.377  0.5022 -0.3770  0.2489
 8268SOL    HW236438   3.340   0.715   1.271  0.1878  0.1895 -2.0662
 8269SOL     OW36439   3.210   0.685   2.666 -0.0124 -0.5900 -0.0437
 8269SOL    HW136440   3.114   0.675   2.666 -0.4415  3.2003 -0.7667
 8269SOL    HW236441   3.229   0.641   2.583  1.0334 -0.4120  0.1047
 8270SOL     OW36442   2.117   0.458  12.661  1.1785  0.4333 -0.1787
 8270SOL    HW136443   2.161   0.526  12.713  1.3372  0.6649 -0.6216
 8270SOL    HW236444   2.026   0.486  12.657  0.6616 -1.0136  1.2319
 8271SOL     OW36445   1.981   2.284   3.648  0.0836  0.6675 -0.3378
 8271SOL    HW136446   2.004   2.335   3.571  1.6655  1.9129  0.9572
 8271SOL    HW236447   1.924   2.220   3.603  2.1508 -2.8678  2.0853
 8272SOL     OW36448   0.373   4.661   2.011  0.4252  0.3343  0.3717
 8272SOL    HW136449   0.363   4.567   2.024  0.5091  0.3801  0.7629
 8272SOL    HW236450   0.285   4.699   2.012  0.9128  1.3884  1.6647
 8273SOL     OW36451   1.870   3.024  15.870 -0.1245 -0.3285  0.2976
 8273SOL    HW136452   1.889   3.034  15.963  0.0766  1.1927  0.0883
 8273SOL    HW236453   1.789   2.973  15.879 -0.2760  0.1021  1.3062
 8274SOL     OW36454   1.964   4.257   4.845  0.0363 -0.0821  0.7015
 8274SOL    HW136455   1.972   4.295   4.933 -1.7797  0.8708  0.4580
 8274SOL    HW236456   2.029   4.187   4.846  1.2781  1.0725 -0.3409
 8275SOL     OW36457   0.073   1.168   8.090  0.0409 -0.1503 -0.0787
 8275SOL    HW136458   0.151   1.138   8.044 -0.7660 -1.8140 -0.3700
 8275SOL    HW236459   0.090   1.133   8.178 -3.8477  0.1105  0.7992
 8276SOL     OW36460   3.921   3.722   5.072 -0.1976 -0.1871 -0.1196
 8276SOL    HW136461   3.826   3.737   5.067 -0.1664  0.7143  1.9505
 8276SOL    HW236462   3.945   3.815   5.072  2.4385 -0.8599  0.8196
 8277SOL     OW36463   2.175   0.659   4.363 -0.0581  0.1274 -0.1878
 8277SOL    HW136464   2.163   0.571   4.401  0.1982 -0.2027 -0.8722
 8277SOL    HW236465   2.226   0.623   4.290  1.4833  1.5075  0.2063
 8278SOL     OW36466   0.640   0.214  13.317  0.7051 -0.1751 -0.0565
 8278SOL    HW136467   0.687   0.149  13.368  0.4295 -1.0085 -0.8538
 8278SOL    HW236468   0.689   0.208  13.235 -0.8213  0.8262 -1.0633
 8279SOL     OW36469   0.865   0.401   6.203  0.3324 -0.0453  0.0613
 8279SOL    HW136470   0.848   0.350   6.282 -2.4322 -0.2579 -0.6731
 8279SOL    HW236471   0.800   0.471   6.209 -0.4108 -0.5970 -1.5119
 8280SOL     OW36472   1.786   0.955  17.738  0.3539  0.4250 -0.4349
 8280SOL    HW136473   1.697   0.988  17.729  0.2133  0.3917  0.8477
 8280SOL    HW236474   1.778   0.862   0.006  1.2543 -0.1448 -2.5081
 8281SOL     OW36475   2.049   0.576   5.971 -0.1736 -0.3172  0.4195
 8281SOL    HW136476   2.002   0.494   5.951 -1.2480  0.0932  1.2775
 8281SOL    HW236477   2.139   0.545   5.969 -0.1124 -0.1887  1.4229
 8282SOL     OW36478   4.054   1.519   3.279 -0.2324  0.2251 -0.2792
 8282SOL    HW136479   4.146   1.513   3.305 -0.7904 -3.3738  0.7563
 8282SOL    HW236480   4.054   1.500   3.185  1.4923  0.3478 -0.3188
 8283SOL     OW36481   2.340   4.032  13.646 -0.0552  0.0755 -0.5723
 8283SOL    HW136482   2.428   4.063  13.663 -0.3760  0.1537  0.9339
 8283SOL    HW236483   2.301   4.106  13.598 -1.0146 -0.0424  0.0172
 8284SOL     OW36484   2.455   3.748   3.849 -0.8701 -0.2719  0.4560
 8284SOL    HW136485   2.507   3.692   3.791 -0.9388 -0.3393  0.4592
 8284SOL    HW236486   2.419   3.813   3.789  0.1027 -0.9171 -0.8506
 8285SOL     OW36487   3.609   1.771   5.000 -0.2888 -0.1299 -0.2872
 8285SOL    HW136488   3.550   1.696   5.000 -0.9127  0.3582 -1.1758
 8285SOL    HW236489   3.547   1.839   5.026  0.1828  0.4191 -0.5902
 8286SOL     OW36490   1.511   0.198   5.927 -0.4172  0.1827  0.0510
 8286SOL    HW136491   1.434   0.246   5.898 -0.5285  0.2892  0.5263
 8286SOL    HW236492   1.478   0.120   5.973  0.5378  0.4526  1.2165
 8287SOL     OW36493   0.284   1.942   7.436  0.2643  0.5500 -0.4648
 8287SOL    HW136494   0.328   1.877   7.380 -0.2080  0.4058 -0.6663
 8287SOL    HW236495   0.360   1.978   7.482  2.0602 -3.6772 -0.0563
 8288SOL     OW36496   4.151   1.189   5.450 -0.4600  0.2654 -0.3723
 8288SOL    HW136497   4.183   1.279   5.439 -1.6962  0.5269 -1.8622
 8288SOL    HW236498   4.095   1.201   5.527 -0.3876 -0.4058 -0.2160
 8289SOL     OW36499   2.674   3.977   8.378  0.4074 -0.3871  0.0951
 8289SOL    HW136500   2.598   3.968   8.321  0.8891 -0.0924 -0.5964
 8289SOL    HW236501   2.719   4.056   8.350 -0.3365  0.6843  1.8669
 8290SOL     OW36502   2.031   2.115   2.918  0.0405  0.2669  0.5316
 8290SOL    HW136503   2.111   2.101   2.969 -0.3514  1.4720  1.4574
 8290SOL    HW236504   1.962   2.070   2.967 -0.5717 -0.0906 -0.6439
 8291SOL     OW36505   0.091   0.992   2.123  0.5015  0.3220  0.5046
 8291SOL    HW136506   0.177   0.976   2.162 -0.2127 -1.5640  1.2910
 8291SOL    HW236507   0.114   0.959   2.036 -0.0491 -0.8743  0.8158
 8292SOL     OW36508   3.359   0.752  12.044 -0.2051 -0.9763  0.1737
 8292SOL    HW136509   3.336   0.667  12.006  1.1222 -0.5527 -1.5913
 8292SOL    HW236510   3.360   0.713  12.132  0.2044 -0.2201  0.5033
 8293SOL     OW36511   1.670   4.202  11.579  0.1282  0.2351  0.3337
 8293SOL    HW136512   1.678   4.194  11.484  0.0632 -0.1106  0.3547
 8293SOL    HW236513   1.574   4.203  11.578  0.0715 -1.6930  1.9813
 8294SOL     OW36514   0.395   1.267  14.073 -0.1200 -0.2250 -0.3222
 8294SOL    HW136515   0.388   1.363  14.075  4.8046  0.0950 -0.4254
 8294SOL    HW236516   0.455   1.262  13.999 -0.0376 -1.4208 -0.1621
 8295SOL     OW36517   1.578   2.274   5.266  0.8255 -0.2943  0.5364
 8295SOL    HW136518   1.578   2.337   5.337  1.9060  0.0228  0.2590
 8295SOL    HW236519   1.501   2.221   5.288  0.0484 -0.5087 -2.6980
 8296SOL     OW36520   1.676   3.438   8.522 -0.7677  0.1751  0.0655
 8296SOL    HW136521   1.691   3.488   8.441 -2.2903  0.3959 -0.0710
 8296SOL    HW236522   1.705   3.350   8.496 -1.0776  0.7575 -2.2986
 8297SOL     OW36523   4.252   3.702   0.515 -0.4282  0.1927  0.3827
 8297SOL    HW136524   4.178   3.751   0.552  0.1116  1.1137  0.2608
 8297SOL    HW236525   4.261   3.635   0.583  2.9701 -0.9650 -1.2348
 8298SOL     OW36526   4.161   1.644  16.775  0.1161  0.0608 -0.0736
 8298SOL    HW136527   4.068   1.622  16.769  0.1400 -0.0420 -0.0617
 8298SOL    HW236528   4.150   1.731  16.813  0.8251  0.1821 -0.1466
 8299SOL     OW36529   0.299   4.039  12.486  0.1422  0.2712 -0.2739
 8299SOL    HW136530   0.348   4.074  12.561 -2.6046 -0.1704  1.7317
 8299SOL    HW236531   0.326   4.109  12.426 -0.4006  0.3413 -0.4375
 8300SOL     OW36532   3.347   4.322   3.634  0.2839 -0.4052 -0.5160
 8300SOL    HW136533   3.270   4.378   3.619 -0.4220 -1.8032 -2.1392
 8300SOL    HW236534   3.428   4.367   3.613 -0.6010  0.9738 -1.0151
 8301SOL     OW36535   1.776   2.584  15.560  0.3821  0.3803  0.3661
 8301SOL    HW136536   1.854   2.579  15.615 -1.3942 -1.1574  2.7336
 8301SOL    HW236537   1.715   2.641  15.608 -1.5656 -2.0899  0.8220
 8302SOL     OW36538   3.666   3.598   6.457 -0.3177  0.6890  0.0780
 8302SOL    HW136539   3.650   3.510   6.490 -0.0782 -0.0101 -1.6672
 8302SOL    HW236540   3.728   3.571   6.389  2.6044  1.9294  2.2153
 8303SOL     OW36541   2.394   4.066  15.500 -0.0762  0.1587  0.1747
 8303SOL    HW136542   2.367   4.133  15.436  1.5290 -0.2183 -0.8809
 8303SOL    HW236543   2.311   4.030  15.531 -0.0122 -1.4701 -1.5706
 8304SOL     OW36544   2.203   2.633  16.899  0.2075  0.7688  0.5442
 8304SOL    HW136545   2.133   2.685  16.858 -0.0327 -0.0977 -0.1440
 8304SOL    HW236546   2.271   2.644  16.833  0.6343  2.0520  1.1986
 8305SOL     OW36547   2.339   2.977   4.642  0.2059 -0.0305  0.1041
 8305SOL    HW136548   2.410   2.948   4.699  0.5881 -0.9450 -0.8229
 8305SOL    HW236549   2.371   2.957   4.554 -1.7118 -0.4340 -0.5068
 8306SOL     OW36550   4.230   1.522   8.950  0.5070  0.6801  0.2167
 8306SOL    HW136551   4.240   1.437   8.907 -0.6781  0.2460  0.8227
 8306SOL    HW236552   4.156   1.550   8.897 -0.4857 -1.4291  0.4903
 8307SOL     OW36553   0.771   1.194   2.754 -0.2545  0.3742 -0.6509
 8307SOL    HW136554   0.841   1.258   2.752 -0.5652  0.6502 -2.2338
 8307SOL    HW236555   0.822   1.114   2.745  0.1641  0.7830 -1.7612
 8308SOL     OW36556   2.576   0.307   3.326 -0.1577  0.1570  0.5502
 8308SOL    HW136557   2.593   0.400   3.310  2.7874 -0.5999 -0.9067
 8308SOL    HW236558   2.588   0.307   3.421  0.3325 -1.4655  0.4884
 8309SOL     OW36559   2.857   3.991  11.110 -0.4493 -0.3977 -0.8892
 8309SOL    HW136560   2.825   3.990  11.200 -0.8010 -1.2994 -1.0260
 8309SOL    HW236561   2.854   4.086  11.094 -1.4229 -0.0885  1.1446
 8310SOL     OW36562   2.382   2.497   7.943 -0.0816 -0.1624 -0.0368
 8310SOL    HW136563   2.397   2.582   7.986 -0.4854 -0.6717  1.1082
 8310SOL    HW236564   2.472   2.464   7.943  0.5761  1.5843  2.8497
 8311SOL     OW36565   3.162   3.282  11.200  0.1357 -0.1456  0.1587
 8311SOL    HW136566   3.087   3.265  11.257  0.4376 -1.3984  0.1892
 8311SOL    HW236567   3.225   3.286  11.271 -0.0422 -0.0221  0.3076
 8312SOL     OW36568   4.737   0.174   3.745 -0.0056  0.7000 -0.2281
 8312SOL    HW136569   0.057   0.148   3.815 -1.8151 -0.1912  0.9778
 8312SOL    HW236570   0.004   0.097   3.688  0.6534  0.2611  0.4357
 8313SOL     OW36571   4.504   3.044   5.726  0.0223  0.0709 -0.3769
 8313SOL    HW136572   4.514   3.138   5.739  0.8366 -0.2602  1.5110
 8313SOL    HW236573   4.480   3.023   5.816  0.1641  0.8015 -0.1673
 8314SOL     OW36574   0.304   1.060  10.032  0.2142 -0.3437 -0.1485
 8314SOL    HW136575   0.266   0.973  10.026  1.4496 -0.9350  0.5035
 8314SOL    HW236576   0.241   1.112   9.982  0.1558 -1.2329 -0.9991
 8315SOL     OW36577   1.806   0.491   0.872 -0.1147  0.0251  0.5104
 8315SOL    HW136578   1.803   0.476   0.778  2.4108 -2.0466  0.7647
 8315SOL    HW236579   1.785   0.403   0.904 -0.8648  0.7058  1.9232
 8316SOL     OW36580   3.093   1.743   4.628 -0.2172  0.2732 -0.6670
 8316SOL    HW136581   3.063   1.662   4.586  1.4644 -1.1507  0.8950
 8316SOL    HW236582   3.086   1.793   4.546  0.0027 -0.7030 -1.2842
 8317SOL     OW36583   4.305   1.612   4.103 -0.5712  0.3940 -0.2160
 8317SOL    HW136584   4.385   1.587   4.058 -1.5120 -0.8178 -1.2075
 8317SOL    HW236585   4.331   1.605   4.195  2.2392 -2.1544 -1.1949
 8318SOL     OW36586   0.421   2.981   7.957 -0.0410  0.0713  0.3038
 8318SOL    HW136587   0.485   2.937   7.901  0.6889  0.1647  1.0486
 8318SOL    HW236588   0.335   2.947   7.934  0.9669 -1.6625 -0.9094
 8319SOL     OW36589   4.423   0.881   7.964 -0.0537  0.2175 -0.0026
 8319SOL    HW136590   4.411   0.963   8.011  0.4004 -0.0869  0.6456
 8319SOL    HW236591   4.505   0.905   7.921  0.0055  0.5210  0.2873
 8320SOL     OW36592   2.508   1.714   3.938 -0.4501 -0.0668  0.5782
 8320SOL    HW136593   2.501   1.794   3.990 -0.2673 -0.0869  0.6320
 8320SOL    HW236594   2.576   1.665   3.984 -1.5036 -0.8675  1.2721
 8321SOL     OW36595   4.164   2.897   1.165 -0.3357  1.0915  0.1205
 8321SOL    HW136596   4.139   2.921   1.076 -0.1839  1.5239  0.1959
 8321SOL    HW236597   4.116   2.962   1.217 -1.9367  0.1040 -0.1185
 8322SOL     OW36598   2.353   1.090   1.057  0.0304  0.1715 -0.4136
 8322SOL    HW136599   2.362   1.011   1.109  1.6676  0.3888 -0.3465
 8322SOL    HW236600   2.431   1.080   1.002  0.6224  0.8868  0.2976
 8323SOL     OW36601   1.646   1.789   5.485 -0.1507  0.1055  0.1763
 8323SOL    HW136602   1.727   1.838   5.470 -1.0591  1.2316 -1.0533
 8323SOL    HW236603   1.606   1.797   5.399 -1.6557  0.8007  0.9470
 8324SOL     OW36604   2.861   0.605   8.575 -0.2324 -0.0381 -0.1888
 8324SOL    HW136605   2.805   0.674   8.538 -1.7249 -0.9644  0.3334
 8324SOL    HW236606   2.946   0.625   8.537 -1.3182  1.1299 -2.0221
 8325SOL     OW36607   3.300   0.286   2.263  0.1373  0.1045  0.4076
 8325SOL    HW136608   3.310   0.233   2.184  0.3340 -0.3226  0.7183
 8325SOL    HW236609   3.257   0.224   2.323  3.6773 -2.9306 -0.1984
 8326SOL     OW36610   3.000   1.469   4.328 -0.1230 -0.5029  0.7193
 8326SOL    HW136611   3.040   1.408   4.266  1.6559  3.3738 -1.9412
 8326SOL    HW236612   3.060   1.458   4.403  2.4547  2.6489 -0.8952
 8327SOL     OW36613   2.496   3.632   5.839 -0.3048 -0.4343  0.1599
 8327SOL    HW136614   2.464   3.717   5.812 -0.5823 -0.1997  1.2189
 8327SOL    HW236615   2.582   3.621   5.799 -0.5964 -0.0485 -0.5704
 8328SOL     OW36616   1.828   4.421   6.412  0.0427 -0.1252  0.0659
 8328SOL    HW136617   1.922   4.412   6.431  0.2938  0.5841 -0.8665
 8328SOL    HW236618   1.809   4.477   6.487 -0.8042  2.6728 -2.2214
 8329SOL     OW36619   1.331   3.083   0.206 -0.2747 -0.2730  0.2313
 8329SOL    HW136620   1.280   3.155   0.170  1.1457  0.1016 -1.0163
 8329SOL    HW236621   1.399   3.134   0.251 -1.3381  1.8632 -0.5878
 8330SOL     OW36622   0.574   2.103   4.984 -0.6501  0.3702  0.0682
 8330SOL    HW136623   0.639   2.044   5.021 -0.9452 -0.5426 -0.8774
 8330SOL    HW236624   0.616   2.189   4.987  0.1759  0.0394 -2.3190
 8331SOL     OW36625   2.041   2.016   6.605 -0.0389  0.1723 -0.0261
 8331SOL    HW136626   1.952   1.980   6.616  0.9212 -1.8699  1.1121
 8331SOL    HW236627   2.097   1.981   6.673  1.1876  2.2053  0.0003
 8332SOL     OW36628   3.464   4.577   6.040 -0.0265 -0.2343 -0.3547
 8332SOL    HW136629   3.401   4.647   6.053  0.1814 -0.1521  0.1945
 8332SOL    HW236630   3.537   4.604   6.095 -0.5790  1.0074 -0.2408
 8333SOL     OW36631   3.986   0.076   7.005  0.3684  0.5023 -0.1587
 8333SOL    HW136632   3.915   0.069   6.942 -0.6099 -0.8664  1.0718
 8333SOL    HW236633   4.058   0.088   6.944  0.2259 -1.1534 -0.6480
 8334SOL     OW36634   1.175   4.106   5.384  0.1367 -0.3830  0.5044
 8334SOL    HW136635   1.180   4.189   5.432 -1.5545  0.0148 -0.0066
 8334SOL    HW236636   1.141   4.038   5.443  0.3095 -1.3192 -0.4866
 8335SOL     OW36637   4.656   2.309   8.493  0.4445 -0.0098 -0.8281
 8335SOL    HW136638   4.573   2.355   8.481  0.6586  0.5631 -0.1347
 8335SOL    HW236639   4.632   2.257   8.570  0.6196  0.0189 -0.7542
 8336SOL     OW36640   1.128   1.109   0.706  0.3405 -0.3690 -0.1682
 8336SOL    HW136641   1.055   1.080   0.761  1.7718 -1.2284  1.2549
 8336SOL    HW236642   1.123   1.203   0.725 -5.8725 -0.6632 -0.2281
 8337SOL     OW36643   2.813   2.808   7.486 -0.0278 -0.2931  0.3551
 8337SOL    HW136644   2.845   2.755   7.559  0.0181  0.9275  1.2201
 8337SOL    HW236645   2.761   2.738   7.445 -2.0819  0.8604  1.0089
 8338SOL     OW36646   3.996   4.024   5.181  0.2144 -0.2566  0.4760
 8338SOL    HW136647   3.939   4.023   5.257 -0.9468  1.3902 -0.3833
 8338SOL    HW236648   4.004   4.117   5.162 -1.7084 -0.1023  0.4866
 8339SOL     OW36649   3.798   0.999   0.597  0.1545  0.4847 -0.6282
 8339SOL    HW136650   3.755   0.936   0.654  1.8742 -1.2280 -1.2078
 8339SOL    HW236651   3.734   1.070   0.596  1.0003  1.2502 -0.2194
 8340SOL     OW36652   1.097   4.549   7.373  0.3989 -0.2358 -0.3295
 8340SOL    HW136653   1.025   4.611   7.373 -0.1769 -0.8851  1.1447
 8340SOL    HW236654   1.156   4.600   7.319  0.0785 -1.3073 -1.7108
 8341SOL     OW36655   1.672   2.516  12.977 -0.0337  0.1364 -0.3510
 8341SOL    HW136656   1.671   2.553  13.065 -1.0592 -3.7450  1.2296
 8341SOL    HW236657   1.615   2.440  12.990  0.2936  0.0501  0.5823
 8342SOL     OW36658   2.567   1.461   5.447  0.0484 -0.4137 -0.1945
 8342SOL    HW136659   2.570   1.377   5.493 -3.3813  0.4631  1.5897
 8342SOL    HW236660   2.541   1.519   5.519  0.9717 -0.1251 -0.0905
 8343SOL     OW36661   1.915   2.676  11.753 -0.3248  0.0615  0.1333
 8343SOL    HW136662   1.871   2.649  11.834  0.9970 -2.4995  0.0035
 8343SOL    HW236663   1.864   2.753  11.726  0.6168 -0.0198 -1.8750
 8344SOL     OW36664   2.023   1.022   3.134 -0.4398 -0.3083  0.3672
 8344SOL    HW136665   2.019   1.043   3.040  0.0577  1.0918  0.6572
 8344SOL    HW236666   1.995   1.107   3.168  0.0731 -0.2778  0.7066
 8345SOL     OW36667   1.297   2.559  13.073  0.1122  0.1277  0.0285
 8345SOL    HW136668   1.240   2.576  12.998  1.0810 -1.2688 -1.0203
 8345SOL    HW236669   1.299   2.464  13.084  0.9343  0.1246 -0.1643
 8346SOL     OW36670   0.207   0.639   1.731  0.1801 -0.3857  0.7549
 8346SOL    HW136671   0.251   0.662   1.650 -2.7219 -0.3554 -0.7952
 8346SOL    HW236672   0.236   0.550   1.749 -0.2473 -0.6230  0.2703
 8347SOL     OW36673   0.415   2.374   9.269  0.7860  0.3171  0.8989
 8347SOL    HW136674   0.423   2.460   9.226  1.1460 -0.2135 -0.0879
 8347SOL    HW236675   0.509   2.368   9.286  1.5595  2.4157 -2.4563
 8348SOL     OW36676   2.402   2.317   5.842 -0.4031 -0.5981 -0.4619
 8348SOL    HW136677   2.417   2.399   5.889  2.9235 -0.1289 -2.3943
 8348SOL    HW236678   2.383   2.341   5.751  0.7188  0.0295 -0.5250
 8349SOL     OW36679   1.119   1.562   7.626 -0.0078  0.1860  0.4058
 8349SOL    HW136680   1.211   1.537   7.634 -0.4393 -1.1589  1.2420
 8349SOL    HW236681   1.111   1.649   7.666  0.7563  0.6015 -0.3410
 8350SOL     OW36682   1.161   1.720  14.581  0.3137 -0.2777 -0.1859
 8350SOL    HW136683   1.117   1.800  14.554 -0.1544 -0.7272 -0.7430
 8350SOL    HW236684   1.210   1.735  14.662 -1.3085 -0.2629  0.7845
 8351SOL     OW36685   2.712   1.449   7.800  0.4874 -0.7702 -0.4500
 8351SOL    HW136686   2.631   1.447   7.851 -0.3255 -1.2739 -1.7725
 8351SOL    HW236687   2.750   1.363   7.816 -0.3922 -1.0156  0.3171
 8352SOL     OW36688   0.522   2.056   9.053  0.4609  0.3326  0.2578
 8352SOL    HW136689   0.466   1.978   9.048  0.4659  0.3246  0.3309
 8352SOL    HW236690   0.520   2.060   9.148  1.4923 -0.1979  0.2973
 8353SOL     OW36691   4.170   2.918  14.051 -0.3305  0.5067  0.1064
 8353SOL    HW136692   4.193   2.963  14.132 -0.5243  0.8117 -0.0078
 8353SOL    HW236693   4.082   2.900  14.083 -0.8655  2.7188 -0.1231
 8354SOL     OW36694   4.474   2.208   3.397  0.0868  0.3707 -0.1957
 8354SOL    HW136695   4.407   2.227   3.463  0.3165  0.1991  0.0869
 8354SOL    HW236696   4.546   2.161   3.440 -0.2664 -1.7416 -1.9242
 8355SOL     OW36697   1.966   1.913  16.665  0.3163 -0.3764  0.5966
 8355SOL    HW136698   2.048   1.955  16.692 -0.0247 -0.9454  2.5874
 8355SOL    HW236699   1.968   1.928  16.571 -1.1152 -0.8747  0.4925
 8356SOL     OW36700   4.628   2.710   4.497  0.0813 -0.6718  0.0411
 8356SOL    HW136701   4.650   2.752   4.414  2.1615 -0.9737  0.4578
 8356SOL    HW236702   4.608   2.777   4.562  1.6339 -0.4915  0.3201
 8357SOL     OW36703   1.802   2.170  14.470 -0.4398  0.2441  0.0781
 8357SOL    HW136704   1.892   2.178  14.503  0.0826  0.5571 -1.4462
 8357SOL    HW236705   1.760   2.113  14.534 -2.6647  0.6694 -0.9926
 8358SOL     OW36706   3.596   2.997   5.123  0.0430 -0.2687 -0.3352
 8358SOL    HW136707   3.532   3.003   5.194 -1.2647  1.8866 -1.6538
 8358SOL    HW236708   3.544   2.962   5.050  0.6074 -0.4091 -0.6662
 8359SOL     OW36709   2.783   2.918   5.779 -0.5768  0.5020  0.0154
 8359SOL    HW136710   2.818   2.948   5.695  2.3308  1.9468  1.7298
 8359SOL    HW236711   2.824   2.982   5.838 -0.9361  1.0585 -0.3439
 8360SOL     OW36712   0.855   0.351   1.552 -0.3532 -0.3914 -0.3018
 8360SOL    HW136713   0.844   0.372   1.459 -4.1957  0.3230  0.3300
 8360SOL    HW236714   0.946   0.326   1.565 -0.3089  0.4461  1.0240
 8361SOL     OW36715   3.179   2.306   2.888 -0.3234  0.7531  0.3097
 8361SOL    HW136716   3.188   2.212   2.905  0.2835  0.6312 -0.6870
 8361SOL    HW236717   3.172   2.336   2.979  0.6952  0.4904  0.4757
 8362SOL     OW36718   2.629   2.836   6.514  0.1634  0.3162 -0.2915
 8362SOL    HW136719   2.696   2.767   6.513  0.7691  0.9064 -0.2287
 8362SOL    HW236720   2.649   2.867   6.425  3.4288 -0.5707  0.1495
 8363SOL     OW36721   4.056   1.133   9.444  0.2493 -0.0639  0.0443
 8363SOL    HW136722   4.010   1.155   9.363 -3.2492  1.0012  2.3511
 8363SOL    HW236723   4.094   1.050   9.414 -0.1742 -0.0498 -0.5242
 8364SOL     OW36724   0.631   3.706  16.334 -0.7492  0.1293 -0.0524
 8364SOL    HW136725   0.682   3.675  16.408 -1.7743  0.4536  0.7900
 8364SOL    HW236726   0.592   3.783  16.376 -0.5543  0.4124 -0.3807
 8365SOL     OW36727   2.187   3.592   7.878 -0.1516  0.6276  0.2694
 8365SOL    HW136728   2.108   3.577   7.825  0.8692 -2.7782 -0.2888
 8365SOL    HW236729   2.175   3.534   7.953 -0.3076 -0.9631 -0.9763
 8366SOL     OW36730   0.563   1.403   8.882 -0.0241  0.2361  0.5583
 8366SOL    HW136731   0.549   1.371   8.971 -1.1454 -0.2830  0.2062
 8366SOL    HW236732   0.515   1.330   8.843  0.2818  0.7961 -0.8747
 8367SOL     OW36733   0.248   0.160   5.104 -0.4167 -0.1544  0.5941
 8367SOL    HW136734   0.291   0.231   5.056  0.1735  0.8534  2.6051
 8367SOL    HW236735   0.318   0.134   5.164  2.1553  1.4180 -1.6955
 8368SOL     OW36736   2.612   2.064   3.455  0.2568 -0.6270 -0.1303
 8368SOL    HW136737   2.539   2.012   3.489 -0.9432  1.8419  1.1204
 8368SOL    HW236738   2.603   2.054   3.360 -4.4014  0.6454  0.1393
 8369SOL     OW36739   1.644   3.083   7.085  0.0957 -0.1482 -0.2813
 8369SOL    HW136740   1.700   3.089   7.163 -1.4677 -0.5153  0.8681
 8369SOL    HW236741   1.567   3.040   7.123  0.0876 -0.3035 -0.4768
 8370SOL     OW36742   2.455   4.399   5.426 -0.2132 -0.2171  0.2422
 8370SOL    HW136743   2.429   4.491   5.424 -3.2092 -1.0563  0.2714
 8370SOL    HW236744   2.365   4.366   5.417  0.9520 -2.7683 -1.7464
 8371SOL     OW36745   0.959   0.223   2.861 -0.5790  0.3315  0.3735
 8371SOL    HW136746   0.889   0.285   2.844  1.3187  2.7425  1.4281
 8371SOL    HW236747   0.934   0.204   2.951  0.0291  0.0274  0.4773
 8372SOL     OW36748   1.441   1.304   1.996  0.0834  0.3372 -0.4294
 8372SOL    HW136749   1.423   1.272   1.907  1.3046 -1.4046 -0.0496
 8372SOL    HW236750   1.385   1.237   2.035 -0.0424 -2.3113 -5.0867
 8373SOL     OW36751   0.679   2.939   7.851 -0.2728 -0.3196 -0.3282
 8373SOL    HW136752   0.709   2.975   7.935  0.6169 -0.4202 -0.6041
 8373SOL    HW236753   0.703   3.006   7.786 -2.1793 -0.6910 -1.4115
 8374SOL     OW36754   1.193   4.184   7.746 -0.5047 -0.0635  0.1242
 8374SOL    HW136755   1.283   4.151   7.754 -0.4598  0.0906  0.2563
 8374SOL    HW236756   1.183   4.217   7.835  1.0067  1.7311 -0.3756
 8375SOL     OW36757   4.720   1.072   3.872 -0.4032 -0.1912  0.1782
 8375SOL    HW136758   0.026   1.133   3.930 -0.1078  0.0285 -0.2862
 8375SOL    HW236759   0.009   0.990   3.912  1.8500  0.0762 -0.8853
 8376SOL     OW36760   3.857   3.911   0.508  0.2768  0.4234 -0.8806
 8376SOL    HW136761   3.856   3.821   0.541  0.9063  0.2355 -1.3603
 8376SOL    HW236762   3.829   3.967   0.580  1.1387  0.5432 -0.6295
 8377SOL     OW36763   1.765   2.535   7.087  0.2729  0.3651 -0.0057
 8377SOL    HW136764   1.716   2.617   7.095 -0.7516 -0.3626  1.1455
 8377SOL    HW236765   1.734   2.514   7.175  0.6379  1.7350  0.4418
 8378SOL     OW36766   4.485   0.633   4.981 -0.1938  0.1886 -0.0438
 8378SOL    HW136767   4.565   0.685   4.988  1.4829 -2.1198 -1.8253
 8378SOL    HW236768   4.516   0.549   4.946 -4.1926 -1.1714 -0.3511
 8379SOL     OW36769   2.643   2.606   3.164 -0.1582  0.1032  0.4439
 8379SOL    HW136770   2.675   2.521   3.193  0.7095  0.3256  0.1439
 8379SOL    HW236771   2.581   2.586   3.094 -0.7214 -0.4743  1.1104
 8380SOL     OW36772   1.784   2.660   3.531  0.2327 -0.0829  0.4975
 8380SOL    HW136773   1.764   2.592   3.467  1.2200  0.5250 -0.4653
 8380SOL    HW236774   1.878   2.675   3.529 -0.0752  1.5255 -1.3176
 8381SOL     OW36775   0.074   3.450   6.717 -0.2197  0.2082 -0.4619
 8381SOL    HW136776   0.126   3.370   6.720 -1.4007 -0.5624 -0.5162
 8381SOL    HW236777   4.730   3.413   6.686  0.2393  0.0621 -1.5150
 8382SOL     OW36778   2.101   0.316   4.865 -0.3832  0.2539 -0.0014
 8382SOL    HW136779   2.025   0.315   4.924 -0.5094 -0.0854 -0.1738
 8382SOL    HW236780   2.087   0.407   4.840 -0.5704  0.1547 -0.2549
 8383SOL     OW36781   4.425   3.919   6.756  0.0063  0.1578 -0.0521
 8383SOL    HW136782   4.478   3.988   6.796 -0.3826 -0.8188  2.1600
 8383SOL    HW236783   4.375   3.965   6.688  0.5879  2.6012  1.1685
 8384SOL     OW36784   1.897   1.696   3.730  0.4822 -0.2917  0.2695
 8384SOL    HW136785   1.967   1.761   3.731 -1.1818  1.5570 -1.1103
 8384SOL    HW236786   1.823   1.752   3.754 -1.8839 -3.2594 -0.1355
 8385SOL     OW36787   0.486   2.996   6.845  0.0677 -0.5824 -0.5153
 8385SOL    HW136788   0.454   3.077   6.885 -0.6093 -0.1834 -1.8662
 8385SOL    HW236789   0.579   3.014   6.853 -0.0456 -0.9575  1.6938
 8386SOL     OW36790   1.195   0.545   4.015  0.0317  0.0309  0.7923
 8386SOL    HW136791   1.160   0.538   4.104  0.0482  0.5206  0.8411
 8386SOL    HW236792   1.178   0.639   4.002 -1.3879  0.1738  3.4870
 8387SOL     OW36793   1.184   2.670  11.373 -0.4469  0.0807  0.0136
 8387SOL    HW136794   1.124   2.706  11.438  0.7658  1.3442  0.4206
 8387SOL    HW236795   1.161   2.579  11.393 -1.0829  0.0112 -0.9874
 8388SOL     OW36796   3.154   3.820   9.619 -0.6250  0.1393 -0.1278
 8388SOL    HW136797   3.223   3.756   9.636  0.2923  1.3453  0.6850
 8388SOL    HW236798   3.212   3.896   9.609 -0.0613  0.1782  3.4133
 8389SOL     OW36799   1.977   0.402   6.928 -0.1653  0.1478  0.1624
 8389SOL    HW136800   1.933   0.460   6.866  2.6042  2.2229  0.1325
 8389SOL    HW236801   2.015   0.468   6.986  1.5898  0.7890 -1.7195
 8390SOL     OW36802   1.825   2.187   4.658 -0.2726  0.1926 -0.1327
 8390SOL    HW136803   1.856   2.240   4.584 -0.1820 -0.1388 -0.3349
 8390SOL    HW236804   1.899   2.127   4.671 -1.3005 -0.8539  0.7843
 8391SOL     OW36805   3.630   0.560   6.741 -0.6755 -0.1390 -0.0989
 8391SOL    HW136806   3.725   0.564   6.731 -0.7883  0.6897 -0.8323
 8391SOL    HW236807   3.598   0.569   6.651  1.5913  0.4383 -0.8504
 8392SOL     OW36808   0.760   2.222  16.833  0.0084 -0.2439 -0.3911
 8392SOL    HW136809   0.840   2.273  16.817 -1.2847  0.9351 -3.0779
 8392SOL    HW236810   0.699   2.294  16.851  0.3202  0.2212 -1.1769
 8393SOL     OW36811   3.016   4.382   7.047  0.7216  0.0633 -0.0542
 8393SOL    HW136812   2.932   4.405   7.088  0.7415 -0.8757  0.5177
 8393SOL    HW236813   3.007   4.288   7.035  0.0188 -0.1849  2.3440
 8394SOL     OW36814   2.922   0.159   4.559 -0.3008 -0.0398  0.0097
 8394SOL    HW136815   2.839   0.160   4.511 -1.0481 -1.0019  1.2670
 8394SOL    HW236816   2.911   0.087   4.621 -2.4567 -0.8648 -1.2918
 8395SOL     OW36817   2.951   2.888   3.412  0.0479  0.5271 -0.2511
 8395SOL    HW136818   2.868   2.857   3.448  0.6541 -2.4492 -1.4031
 8395SOL    HW236819   2.938   2.910   3.320 -3.0498  1.3782  0.3960
 8396SOL     OW36820   1.858   4.166   7.000  0.3306 -0.0401 -0.2501
 8396SOL    HW136821   1.784   4.220   6.973 -1.1309 -0.5722  2.5854
 8396SOL    HW236822   1.909   4.160   6.919  0.3571 -0.2665 -0.2186
 8397SOL     OW36823   1.211   2.128   5.108  0.1579 -0.8457  0.5582
 8397SOL    HW136824   1.130   2.094   5.145  0.6159 -2.4132  0.1192
 8397SOL    HW236825   1.200   2.221   5.127 -1.1002 -1.0362  0.7236
 8398SOL     OW36826   2.115   3.065   6.475  0.1192  0.0519 -0.2317
 8398SOL    HW136827   2.176   3.130   6.510  0.2439  0.0472 -0.4425
 8398SOL    HW236828   2.140   2.982   6.515 -1.2074  0.5116  1.5537
 8399SOL     OW36829   3.529   0.574   6.281 -0.1138 -0.7132  0.1856
 8399SOL    HW136830   3.587   0.584   6.357  0.1640 -0.5252 -0.0535
 8399SOL    HW236831   3.571   0.502   6.233 -1.9007  0.1363 -2.6286
 8400SOL     OW36832   2.876   1.980  10.623 -0.4694 -0.2696  0.1494
 8400SOL    HW136833   2.892   1.896  10.581  1.5025 -0.5668  1.4953
 8400SOL    HW236834   2.865   1.956  10.715  2.0692  1.4710  0.8893
 8401SOL     OW36835   0.056   2.251   3.691  0.2586  0.2611  0.1808
 8401SOL    HW136836   0.002   2.193   3.744 -0.0588  0.3805 -0.0138
 8401SOL    HW236837   0.142   2.209   3.698 -0.6277 -1.5531  0.3241
 8402SOL     OW36838   1.469   0.339   8.133  0.2512 -0.4076 -0.1903
 8402SOL    HW136839   1.399   0.355   8.069  0.9303  1.1443 -0.5515
 8402SOL    HW236840   1.432   0.261   8.173 -1.1673  1.7691  2.7827
 8403SOL     OW36841   4.408   0.981   5.785 -0.5529 -0.2654 -0.3326
 8403SOL    HW136842   4.313   0.971   5.774 -0.7230  1.0366 -0.0610
 8403SOL    HW236843   4.422   0.984   5.691 -0.6310 -0.8661 -0.3624
 8404SOL     OW36844   3.032   3.455  17.522 -0.1811  0.6189  0.1265
 8404SOL    HW136845   2.984   3.435  17.442 -1.1632  1.1346  0.5812
 8404SOL    HW236846   2.976   3.523  17.560  1.8386  1.5780  1.3920
 8405SOL     OW36847   1.323   3.926  15.373  0.4884 -0.0640 -0.8201
 8405SOL    HW136848   1.326   3.893  15.463 -1.4085 -1.7673 -1.3708
 8405SOL    HW236849   1.403   3.882  15.345  2.0204  2.0045  0.3132
 8406SOL     OW36850   2.109   2.476   6.089  0.0934 -0.0280 -0.3932
 8406SOL    HW136851   2.082   2.425   6.166  1.4274 -0.8862 -0.5024
 8406SOL    HW236852   2.036   2.475   6.026  1.1014 -0.6773 -1.5465
 8407SOL     OW36853   0.850   0.623   1.403 -0.4986  0.3593  0.1545
 8407SOL    HW136854   0.787   0.601   1.334  1.2345 -3.3975 -0.2725
 8407SOL    HW236855   0.790   0.650   1.472  0.3506  1.3095  0.5108
 8408SOL     OW36856   3.532   1.716   7.603  0.2039 -0.0783 -0.1097
 8408SOL    HW136857   3.537   1.742   7.511  0.0691 -2.8849 -0.9177
 8408SOL    HW236858   3.495   1.796   7.641 -2.0041 -1.1169 -0.0222
 8409SOL     OW36859   4.707   0.309   3.176 -0.0686 -0.4235  0.2442
 8409SOL    HW136860   0.059   0.312   3.146 -0.0499  0.9458  0.4423
 8409SOL    HW236861   4.721   0.332   3.268  3.2097  1.4645 -0.7325
 8410SOL     OW36862   3.571   2.799  17.443 -0.4814 -0.1056 -0.3062
 8410SOL    HW136863   3.667   2.801  17.441 -0.4513 -1.4485 -0.2155
 8410SOL    HW236864   3.549   2.892  17.431 -0.4859 -0.1879 -0.9333
 8411SOL     OW36865   1.142   2.369   9.566 -0.2272 -0.1790 -0.4495
 8411SOL    HW136866   1.164   2.442   9.509 -2.4331  2.1461  1.7004
 8411SOL    HW236867   1.129   2.412   9.650 -0.0567  1.5409 -1.2916
 8412SOL     OW36868   2.119   1.930   7.988  0.3950  0.3444 -0.9224
 8412SOL    HW136869   2.058   1.991   8.031  0.5512 -0.1762  0.0243
 8412SOL    HW236870   2.136   1.993   7.918  0.8791  1.2364  0.0013
 8413SOL     OW36871   1.987   2.030  11.667  0.1251 -0.1394 -0.0959
 8413SOL    HW136872   1.947   1.992  11.746  1.8509 -1.2602  0.2364
 8413SOL    HW236873   1.918   2.047  11.603  0.4280  0.1324 -0.3439
 8414SOL     OW36874   2.215   1.595  14.937  0.4309 -0.3842 -0.1433
 8414SOL    HW136875   2.197   1.519  14.992  0.2388  0.7443  1.3727
 8414SOL    HW236876   2.272   1.646  14.994 -0.1174 -2.0639  1.9045
 8415SOL     OW36877   3.440   0.109  10.578  0.1848 -0.2033 -0.1775
 8415SOL    HW136878   3.508   0.165  10.615  0.5254  0.9914 -2.5964
 8415SOL    HW236879   3.413   0.054  10.651 -1.2605  1.0463  0.2073
 8416SOL     OW36880   1.256   2.564   2.704 -0.0327  0.7598 -0.4263
 8416SOL    HW136881   1.250   2.574   2.799  1.1116  0.7237 -0.3438
 8416SOL    HW236882   1.217   2.643   2.668 -0.0768  2.2644  2.9220
 8417SOL     OW36883   3.490   2.404   5.535  0.5766  0.0996  0.2484
 8417SOL    HW136884   3.464   2.481   5.585  1.5706  0.6045 -0.0024
 8417SOL    HW236885   3.409   2.353   5.540  1.1389 -0.8265  0.0548
 8418SOL     OW36886   2.015   4.218   4.562  0.7957  0.1946  0.5487
 8418SOL    HW136887   2.024   4.219   4.657 -2.2598  0.3126  0.8141
 8418SOL    HW236888   2.054   4.131   4.552  2.8544  1.1854 -0.1453
 8419SOL     OW36889   3.737   2.613   5.954  0.0283 -0.3011  0.1061
 8419SOL    HW136890   3.798   2.592   5.884 -0.3534 -0.1818 -0.2631
 8419SOL    HW236891   3.673   2.666   5.905 -0.9009  0.5522  2.2401
 8420SOL     OW36892   4.664   1.449   9.172  0.2531  0.3693  0.5120
 8420SOL    HW136893   4.675   1.544   9.175  0.6127  0.3545 -0.2702
 8420SOL    HW236894   4.570   1.442   9.184  0.2353 -0.2383 -0.0192
 8421SOL     OW36895   2.464   2.794  15.379 -0.0408 -0.0741  0.3078
 8421SOL    HW136896   2.428   2.819  15.464 -1.8814  1.8626 -1.0299
 8421SOL    HW236897   2.507   2.711  15.398  0.8128 -0.0555 -1.5691
 8422SOL     OW36898   2.739   1.799   5.451  0.1116  0.0821 -0.6403
 8422SOL    HW136899   2.716   1.867   5.514 -3.0249 -0.6762 -0.9650
 8422SOL    HW236900   2.651   1.780   5.419 -0.4767  0.4254  0.7786
 8423SOL     OW36901   0.700   1.578   0.571 -0.3922  0.0073  0.2055
 8423SOL    HW136902   0.645   1.642   0.617  2.2780  3.0393 -0.8774
 8423SOL    HW236903   0.667   1.581   0.481  0.3919 -1.7496 -0.1391
 8424SOL     OW36904   3.213   0.282  13.917  0.5641 -0.4691  0.1497
 8424SOL    HW136905   3.204   0.337  13.840 -0.1576  0.6455  1.0196
 8424SOL    HW236906   3.283   0.221  13.891 -2.0877 -2.1761 -2.9594
 8425SOL     OW36907   0.939   4.685   7.014  0.1789  0.4572  0.7208
 8425SOL    HW136908   1.016   4.629   7.028  1.3600  1.6890 -0.7585
 8425SOL    HW236909   0.872   4.641   7.065  0.5848 -0.2855  0.6283
 8426SOL     OW36910   0.139   1.207   4.335  0.2197  0.1504  0.4366
 8426SOL    HW136911   0.138   1.241   4.424 -2.1689  1.3334 -0.0277
 8426SOL    HW236912   0.142   1.291   4.290 -2.9075 -1.7174 -3.2602
 8427SOL     OW36913   2.516   4.306   5.154  0.5159 -0.3615  0.6922
 8427SOL    HW136914   2.592   4.270   5.201 -0.0045  0.8718  2.4499
 8427SOL    HW236915   2.478   4.367   5.217 -0.1068  1.1827 -1.1991
 8428SOL     OW36916   2.849   4.325   3.518  0.4896  0.1121 -0.1283
 8428SOL    HW136917   2.782   4.343   3.584 -0.3077 -4.5888  0.3778
 8428SOL    HW236918   2.930   4.369   3.542 -0.5095  1.0722  1.4884
 8429SOL     OW36919   4.529   1.793   3.078 -0.1800 -0.1706 -0.7257
 8429SOL    HW136920   4.535   1.748   3.162 -1.8317 -0.5774 -0.8177
 8429SOL    HW236921   4.610   1.756   3.042  0.0920 -1.4824  1.2048
 8430SOL     OW36922   0.647   4.133  10.124 -0.1767  0.4399 -0.4158
 8430SOL    HW136923   0.622   4.214  10.168  1.7158  1.0502 -0.4401
 8430SOL    HW236924   0.675   4.085  10.201  2.5142  0.5769 -1.3042
 8431SOL     OW36925   4.077   0.612   7.544  0.3038  0.4143 -0.0221
 8431SOL    HW136926   4.169   0.635   7.535  0.3736  0.5493  1.0882
 8431SOL    HW236927   4.060   0.584   7.454  0.8419 -1.3128  0.4261
 8432SOL     OW36928   2.063   0.355  14.559  0.1689  0.5843  0.5056
 8432SOL    HW136929   2.114   0.309  14.626  1.0470 -1.0998 -1.3587
 8432SOL    HW236930   2.130   0.371  14.493 -0.1430  2.0356  0.5350
 8433SOL     OW36931   2.323   0.561   6.622 -0.0679  0.2726  0.0034
 8433SOL    HW136932   2.289   0.645   6.592  2.5227  1.4604  0.3219
 8433SOL    HW236933   2.349   0.581   6.712  0.7738 -0.5578 -0.0540
 8434SOL     OW36934   4.590   4.602   5.320  1.2156  0.6029  1.2115
 8434SOL    HW136935   4.651   4.673   5.299 -1.6172  2.3866 -0.9536
 8434SOL    HW236936   4.655   4.543   5.358 -0.5657 -1.5807  0.9032
 8435SOL     OW36937   1.488   0.786  12.653  0.0191 -0.6619 -0.0607
 8435SOL    HW136938   1.412   0.754  12.702  2.2667 -0.3655  3.5643
 8435SOL    HW236939   1.547   0.714  12.677  0.5446 -0.5591 -1.0420
 8436SOL     OW36940   3.005   0.423   2.298  1.0991 -0.1599  0.4108
 8436SOL    HW136941   3.069   0.466   2.241  2.4750 -1.0472  1.2954
 8436SOL    HW236942   2.940   0.398   2.233  0.9591  2.0624 -0.3143
 8437SOL     OW36943   0.584   2.772  10.076  0.2456 -0.7450  0.4133
 8437SOL    HW136944   0.654   2.714  10.107  1.2849  0.5284  0.4375
 8437SOL    HW236945   0.575   2.830  10.152 -1.4360 -0.9533  0.3630
 8438SOL     OW36946   4.376   2.923   8.622  0.2718  0.4253 -0.5936
 8438SOL    HW136947   4.308   2.857   8.628  0.6914  0.0468  0.0660
 8438SOL    HW236948   4.385   2.918   8.527 -1.1842  2.1916 -0.8216
 8439SOL     OW36949   4.087   1.136   3.095 -0.4299  0.2179  0.3898
 8439SOL    HW136950   4.095   1.115   3.188 -0.0075 -0.1027  0.2788
 8439SOL    HW236951   4.126   1.056   3.061 -0.0209  1.0396 -1.0665
 8440SOL     OW36952   4.007   3.637   8.064  0.1043 -0.5711 -0.4345
 8440SOL    HW136953   3.961   3.720   8.064  0.6712 -0.2515  1.1999
 8440SOL    HW236954   4.091   3.667   8.098 -0.6363 -0.9510  1.7396
 8441SOL     OW36955   2.115   3.352   3.854  0.7366 -0.1980 -0.1305
 8441SOL    HW136956   2.073   3.363   3.768 -1.2109 -0.7644  0.7487
 8441SOL    HW236957   2.051   3.387   3.916  0.9871  0.7910 -0.4297
 8442SOL     OW36958   4.676   4.537   9.558  0.6457 -0.2486  0.0482
 8442SOL    HW136959   4.685   4.484   9.479  1.1588  1.1616 -0.8495
 8442SOL    HW236960   4.588   4.522   9.590  1.0334 -1.3417  0.6193
 8443SOL     OW36961   2.706   3.113   2.508  0.8306 -0.0138  0.2900
 8443SOL    HW136962   2.795   3.136   2.480  0.8338 -0.7593 -0.2995
 8443SOL    HW236963   2.676   3.189   2.557  3.5067 -0.1022  2.0532
 8444SOL     OW36964   1.980   3.837   6.565  0.4973  0.4252 -0.6090
 8444SOL    HW136965   2.057   3.808   6.613 -1.1666  0.9991  2.3887
 8444SOL    HW236966   1.920   3.763   6.565  0.1834  0.6719  1.8035
 8445SOL     OW36967   4.032   4.572   4.655 -0.7566  0.0408  0.2932
 8445SOL    HW136968   4.088   4.569   4.578  0.4380  0.5834  1.1381
 8445SOL    HW236969   4.049   4.661   4.686 -0.0792 -0.1637  0.4907
 8446SOL     OW36970   1.442   3.821  16.364 -0.0436  0.5020 -0.2521
 8446SOL    HW136971   1.490   3.904  16.370  0.1974  0.3538 -0.1374
 8446SOL    HW236972   1.354   3.851  16.385 -0.0233  0.4412 -0.0808
 8447SOL     OW36973   3.605   0.447   3.354  0.4851 -0.1040 -0.3265
 8447SOL    HW136974   3.666   0.410   3.291 -0.2595 -2.1867  0.1745
 8447SOL    HW236975   3.580   0.524   3.302  2.5350  0.3930 -0.5671
 8448SOL     OW36976   1.229   0.859   4.350  0.3349  0.0443 -0.0103
 8448SOL    HW136977   1.296   0.924   4.331 -0.8222  1.9077  2.1741
 8448SOL    HW236978   1.200   0.823   4.266  1.1000 -2.3355  0.7444
 8449SOL     OW36979   1.205   3.729   2.043 -0.2812  0.4368 -0.1701
 8449SOL    HW136980   1.112   3.708   2.031 -0.0172 -1.0356  0.4269
 8449SOL    HW236981   1.217   3.784   1.966 -0.0782  0.4083 -0.1586
 8450SOL     OW36982   3.739   0.697  12.090  0.3655  0.5588 -0.3895
 8450SOL    HW136983   3.712   0.765  12.152  2.9147  0.3724  0.9298
 8450SOL    HW236984   3.717   0.735  12.004 -0.8509  0.3743 -0.1662
 8451SOL     OW36985   0.371   2.495  13.567 -0.1510 -0.1995  0.2639
 8451SOL    HW136986   0.317   2.573  13.581  1.3162  0.7267  0.8821
 8451SOL    HW236987   0.369   2.455  13.654  1.0167 -1.1331 -0.1413
 8452SOL     OW36988   4.159   1.656   2.294 -0.7986 -1.1416  0.2223
 8452SOL    HW136989   4.137   1.625   2.206 -1.7023  1.2469 -0.4063
 8452SOL    HW236990   4.103   1.601   2.348 -0.1927 -0.2190  1.7728
 8453SOL     OW36991   1.454   2.961   7.435 -0.1270 -0.2524  0.3825
 8453SOL    HW136992   1.395   2.963   7.510 -0.9083  0.8564 -0.2545
 8453SOL    HW236993   1.454   3.055   7.417 -0.3094 -0.6314 -1.5964
 8454SOL     OW36994   4.428   0.288   8.018 -0.4240 -0.1560  0.0834
 8454SOL    HW136995   4.344   0.332   8.017  0.0620  0.7640 -1.0604
 8454SOL    HW236996   4.486   0.363   8.006 -0.4794  0.4344  3.6342
 8455SOL     OW36997   3.793   3.339   4.912 -0.1881 -0.1596 -0.3570
 8455SOL    HW136998   3.725   3.277   4.887  1.2722 -0.8039 -2.7816
 8455SOL    HW236999   3.738   3.417   4.920 -1.7330 -0.8147 -4.2558
 8456SOL     OW37000   2.760   0.460   6.687  0.2336  0.0852 -0.4839
 8456SOL    HW137001   2.690   0.453   6.751  1.8740 -1.4474  1.1401
 8456SOL    HW237002   2.708   0.426   6.613  1.7654 -0.9781 -1.0849
 8457SOL     OW37003   1.493   0.959   8.674  0.0344  0.0052  0.4891
 8457SOL    HW137004   1.558   0.901   8.713 -0.7135 -0.5142  0.9824
 8457SOL    HW237005   1.528   1.047   8.669  1.3751 -0.6054 -0.7720
 8458SOL     OW37006   1.122   3.044  14.529 -0.8343 -0.8528 -0.1527
 8458SOL    HW137007   1.066   3.068  14.603 -0.2727  0.1003 -0.0310
 8458SOL    HW237008   1.185   3.115  14.542 -0.2854 -1.5496  1.0469
 8459SOL     OW37009   4.477   3.311   5.185  0.0064  0.2898 -0.1650
 8459SOL    HW137010   4.436   3.227   5.164 -0.1826  0.2966  0.1783
 8459SOL    HW237011   4.430   3.370   5.125 -0.1206 -1.6719 -1.9851
 8460SOL     OW37012   0.811   4.558   1.703  0.1681  0.0366  0.1241
 8460SOL    HW137013   0.786   4.598   1.786  2.5281  1.4606  0.1483
 8460SOL    HW237014   0.751   4.612   1.651  0.1811 -0.1208 -0.0580
 8461SOL     OW37015   4.338   4.193   4.048 -0.1766 -0.7405 -0.3729
 8461SOL    HW137016   4.340   4.121   3.985 -1.8181 -2.1391  1.1726
 8461SOL    HW237017   4.370   4.147   4.126  1.8139 -1.2125 -1.4717
 8462SOL     OW37018   2.263   3.611   7.325  0.7813  0.1760 -0.3963
 8462SOL    HW137019   2.217   3.613   7.241  0.3405  0.4754 -0.1460
 8462SOL    HW237020   2.245   3.699   7.358 -0.6030 -0.4716  0.5967
 8463SOL     OW37021   3.193   3.410  12.067 -0.2333  0.0170  0.6141
 8463SOL    HW137022   3.108   3.450  12.084 -0.3804  0.8561 -1.9834
 8463SOL    HW237023   3.249   3.482  12.038 -0.2653 -0.4124 -0.5295
 8464SOL     OW37024   2.366   0.003  16.567  0.0376  0.0209 -0.0780
 8464SOL    HW137025   2.422   4.680  16.520  0.1123  0.1608 -0.1731
 8464SOL    HW237026   2.364   4.704  16.655 -1.1306  0.3639  0.0475
 8465SOL     OW37027   1.231   4.495   4.598 -0.5825  0.0603  0.3187
 8465SOL    HW137028   1.324   4.508   4.581 -0.6460  1.3477  0.9598
 8465SOL    HW237029   1.198   4.577   4.561 -2.1251 -1.3926 -1.5555
 8466SOL     OW37030   1.443   2.543  11.525 -0.0374 -0.2676  0.0558
 8466SOL    HW137031   1.468   2.459  11.564 -1.0599 -0.9243 -0.6778
 8466SOL    HW237032   1.371   2.527  11.464 -0.7339  2.0819  0.2809
 8467SOL     OW37033   0.686   4.227  12.135  0.7379  0.5675  0.0645
 8467SOL    HW137034   0.767   4.247  12.182  0.3638 -1.0451  1.3689
 8467SOL    HW237035   0.721   4.214  12.046 -0.7728 -0.4477 -0.3864
 8468SOL     OW37036   2.477   4.352   1.280  0.3955  0.5421  0.0498
 8468SOL    HW137037   2.549   4.377   1.222  0.0681  0.2580 -0.4900
 8468SOL    HW237038   2.401   4.397   1.243 -0.4956 -1.1817 -0.2204
 8469SOL     OW37039   1.096   4.680   3.222 -0.3355  0.2273  0.2866
 8469SOL    HW137040   1.031   4.733   3.176 -1.3997 -2.2968 -1.0864
 8469SOL    HW237041   1.165   0.007   3.233  1.7625 -1.9583  0.3915
 8470SOL     OW37042   1.090   3.470   2.583  0.6128 -0.2009  0.2723
 8470SOL    HW137043   1.165   3.450   2.640  1.4105  1.8901 -0.0376
 8470SOL    HW237044   1.135   3.448   2.502  1.5012 -1.2432  1.0369
 8471SOL     OW37045   3.696   0.789   0.746 -0.2294  0.5500  0.0600
 8471SOL    HW137046   3.699   0.703   0.704  0.1086 -0.8335  2.9149
 8471SOL    HW237047   3.754   0.780   0.822 -0.3850  2.7065  0.4253
 8472SOL     OW37048   1.249   1.696   2.820  0.4598 -0.2883  0.2229
 8472SOL    HW137049   1.154   1.701   2.813  0.3522  0.2341  2.0109
 8472SOL    HW237050   1.256   1.602   2.836 -0.8873 -0.0322  2.3296
 8473SOL     OW37051   0.243   2.199  11.742 -0.0606 -0.3200 -0.8061
 8473SOL    HW137052   0.289   2.233  11.665  4.9074  0.5363  2.5118
 8473SOL    HW237053   0.181   2.268  11.764  3.1324  2.4187 -0.3662
 8474SOL     OW37054   1.370   2.168  16.376  0.2598 -0.2585 -0.0634
 8474SOL    HW137055   1.383   2.249  16.326  0.1714  0.0647  0.4389
 8474SOL    HW237056   1.301   2.196  16.435  2.0240 -0.3034  2.0037
 8475SOL     OW37057   4.141   2.275  13.152  0.0801  0.2002 -0.8483
 8475SOL    HW137058   4.200   2.230  13.213  1.9270 -0.2886 -2.9745
 8475SOL    HW237059   4.210   2.329  13.113  0.8288  0.5187  0.9181
 8476SOL     OW37060   2.001   3.949   3.450  0.2107 -0.1417  0.3939
 8476SOL    HW137061   2.029   4.037   3.423  1.1820 -1.4523 -2.8303
 8476SOL    HW237062   2.080   3.903   3.478  0.2218 -0.1441  0.3586
 8477SOL     OW37063   3.421   1.942   4.550 -0.2270 -0.0414  0.2830
 8477SOL    HW137064   3.453   2.024   4.513  1.3911 -0.7273  0.1808
 8477SOL    HW237065   3.497   1.885   4.545  1.1734  1.7684  1.0774
 8478SOL     OW37066   1.806   3.037   2.221 -0.1504 -0.2996  0.1537
 8478SOL    HW137067   1.856   2.957   2.236  2.0190  1.2946  1.4397
 8478SOL    HW237068   1.866   3.104   2.254  0.7671 -0.9787 -0.1143
 8479SOL     OW37069   2.496   3.138   1.923  0.1732 -0.2678 -0.0994
 8479SOL    HW137070   2.442   3.186   1.985  1.0680  2.0818 -1.1364
 8479SOL    HW237071   2.574   3.120   1.977  1.1847  0.0467 -1.4722
 8480SOL     OW37072   4.329   0.562   4.108  0.1492 -0.4218  0.0841
 8480SOL    HW137073   4.372   0.539   4.191 -1.9710  1.1439  1.6439
 8480SOL    HW237074   4.250   0.605   4.140  1.1431  2.4121 -1.2866
 8481SOL     OW37075   0.619   4.350  14.530  0.0029  0.2538  0.6014
 8481SOL    HW137076   0.644   4.264  14.495 -0.0487  0.8068 -0.8152
 8481SOL    HW237077   0.638   4.327  14.621 -2.0065 -3.6115  0.0756
 8482SOL     OW37078   3.329   2.344   8.177 -0.6980  0.3322 -0.3996
 8482SOL    HW137079   3.343   2.292   8.256  0.5435  1.6377  0.2297
 8482SOL    HW237080   3.297   2.276   8.118  1.3465 -2.3895  1.6308
 8483SOL     OW37081   1.701   3.050  13.567 -0.0861 -0.9140  0.4426
 8483SOL    HW137082   1.669   3.123  13.619  1.5741 -0.8120  1.3319
 8483SOL    HW237083   1.761   3.019  13.635  1.6711  2.2411  0.3231
 8484SOL     OW37084   0.404   2.682   8.452 -0.2797  0.0844 -0.2396
 8484SOL    HW137085   0.483   2.714   8.496 -1.3401  1.2433  0.8441
 8484SOL    HW237086   0.370   2.770   8.433  2.1598  0.7364 -1.6065
 8485SOL     OW37087   0.890   1.000   2.966  0.2265 -0.3833 -0.1657
 8485SOL    HW137088   0.855   0.952   3.042  0.4854 -1.5450 -0.7786
 8485SOL    HW237089   0.847   1.083   2.985  0.8407 -0.0857 -0.0782
 8486SOL     OW37090   2.126   4.533  14.929  0.0735  0.0336 -0.0546
 8486SOL    HW137091   2.078   4.616  14.928 -0.6558 -0.3974 -2.6458
 8486SOL    HW237092   2.091   4.482  14.855  1.3518  0.2800 -0.8350
 8487SOL     OW37093   4.356   3.160   1.911  0.4150  0.5294  0.1411
 8487SOL    HW137094   4.285   3.134   1.970  1.1847 -2.5074 -0.2620
 8487SOL    HW237095   4.394   3.079   1.877 -2.3681 -0.7457  0.0995
 8488SOL     OW37096   0.270   3.127  16.141  0.1573  0.4294 -0.2035
 8488SOL    HW137097   0.312   3.043  16.163 -1.5862 -0.3050  0.3327
 8488SOL    HW237098   0.218   3.140  16.220 -0.2746  1.4507 -0.6616
 8489SOL     OW37099   4.043   4.363  15.158  0.2083  0.2486  0.3144
 8489SOL    HW137100   4.088   4.412  15.089  1.0388 -2.2026 -0.8902
 8489SOL    HW237101   3.952   4.384  15.135  0.4718 -0.5182 -1.4117
 8490SOL     OW37102   1.051   0.697   3.663  0.2068  0.0410  0.5371
 8490SOL    HW137103   1.110   0.742   3.723  0.6479 -0.4054  0.4359
 8490SOL    HW237104   0.999   0.777   3.653 -0.2021 -0.3913 -0.7815
 8491SOL     OW37105   3.377   3.646  14.212  0.7240 -0.4695  0.1242
 8491SOL    HW137106   3.391   3.740  14.226  1.3017 -0.4564 -0.5543
 8491SOL    HW237107   3.297   3.641  14.265 -0.4484 -0.5700 -1.6570
 8492SOL     OW37108   2.758   4.180  11.949  0.0590  0.1735 -0.3233
 8492SOL    HW137109   2.807   4.261  11.964 -0.9730  0.8481 -0.6153
 8492SOL    HW237110   2.711   4.193  11.867  0.4658  0.0325 -0.5764
 8493SOL     OW37111   0.977   3.121   8.252 -0.7986  0.4803 -0.6316
 8493SOL    HW137112   0.933   3.200   8.221 -0.2641  0.6038 -1.0703
 8493SOL    HW237113   0.977   3.125   8.347 -0.4287  1.0511 -0.6517
 8494SOL     OW37114   4.519   4.122   4.575 -0.9215  0.4247 -0.5420
 8494SOL    HW137115   4.530   4.031   4.549 -1.9402  0.7323 -2.0391
 8494SOL    HW237116   4.516   4.108   4.670  1.0031  0.3087 -0.5007
 8495SOL     OW37117   1.836   2.516  11.542  0.0630  0.9082 -0.3461
 8495SOL    HW137118   1.904   2.542  11.481  1.3860 -0.5022  0.5372
 8495SOL    HW237119   1.852   2.569  11.621  0.4395 -1.4712  1.1809
 8496SOL     OW37120   1.045   3.632   7.925 -0.1462 -0.6691 -0.2036
 8496SOL    HW137121   1.126   3.681   7.908  0.7715 -2.9076 -2.4120
 8496SOL    HW237122   1.002   3.685   7.992  1.2639  1.1699 -0.7474
 8497SOL     OW37123   2.521   0.464   0.650 -0.0080 -0.0037 -0.2189
 8497SOL    HW137124   2.512   0.369   0.657 -1.1436  0.0339 -1.1206
 8497SOL    HW237125   2.580   0.481   0.723 -1.2199 -1.2824  1.0809
 8498SOL     OW37126   2.460   0.903   2.325  0.5832 -0.1542 -0.0445
 8498SOL    HW137127   2.391   0.837   2.324  1.5012 -1.1321  0.0257
 8498SOL    HW237128   2.509   0.868   2.399  1.9887  1.8125 -0.0423
 8499SOL     OW37129   3.885   0.769   4.979 -0.1428  0.5557 -0.2039
 8499SOL    HW137130   3.861   0.679   4.954  0.9565  0.3897 -0.6585
 8499SOL    HW237131   3.813   0.806   4.928  1.2428 -1.3221 -3.4798
 8500SOL     OW37132   1.603   0.902   7.940 -0.2540 -0.5374 -0.1214
 8500SOL    HW137133   1.523   0.884   7.891  1.6117  0.1519 -3.3535
 8500SOL    HW237134   1.577   0.855   8.020 -2.7664 -1.8171 -1.6741
 8501SOL     OW37135   3.239   0.490   5.981  0.5972  0.1380  0.2045
 8501SOL    HW137136   3.277   0.578   5.988 -2.4942  1.5665 -0.7669
 8501SOL    HW237137   3.237   0.484   5.885 -1.2748 -0.1625  0.2606
 8502SOL     OW37138   2.717   2.141   2.906 -0.0512  0.5844  0.4341
 8502SOL    HW137139   2.667   2.220   2.925 -2.8498 -1.5684  2.0581
 8502SOL    HW237140   2.643   2.084   2.886  1.2701 -0.2577 -2.0833
 8503SOL     OW37141   0.230   2.630   4.634  0.8228 -0.3343 -0.3596
 8503SOL    HW137142   0.194   2.642   4.546  2.8128  0.3467 -1.0762
 8503SOL    HW237143   0.305   2.576   4.608  1.7325  0.0375  1.5601
 8504SOL     OW37144   0.604   4.704   5.785  0.0048 -0.3175 -0.0489
 8504SOL    HW137145   0.609   0.014   5.867 -1.4522  0.0952 -0.2132
 8504SOL    HW237146   0.609   4.613   5.814 -4.7341 -0.8407 -0.8493
 8505SOL     OW37147   4.462   0.796   6.768  0.1867 -0.1808 -0.4896
 8505SOL    HW137148   4.484   0.808   6.861  0.7452 -2.1623 -0.3701
 8505SOL    HW237149   4.405   0.720   6.765 -0.5838  0.2674  2.4790
 8506SOL     OW37150   2.151   0.773   2.441 -0.3077  0.1849 -0.7936
 8506SOL    HW137151   2.130   0.861   2.473  2.4745  0.6556 -0.2457
 8506SOL    HW237152   2.067   0.730   2.425  0.0901 -0.2266 -1.7466
 8507SOL     OW37153   3.664   3.863   5.001  0.1900  0.2001 -0.1642
 8507SOL    HW137154   3.578   3.821   4.993 -0.3951  1.4602 -0.6401
 8507SOL    HW237155   3.638   3.920   5.073 -0.1728 -0.5612  0.3048
 8508SOL     OW37156   4.344   3.554   4.435  0.0431 -0.4245  0.1395
 8508SOL    HW137157   4.433   3.531   4.405  0.4750  0.6766  0.5829
 8508SOL    HW237158   4.362   3.646   4.456 -0.1037 -0.2920 -0.2980
 8509SOL     OW37159   0.341   0.108   6.906 -0.0080  0.0444 -0.5330
 8509SOL    HW137160   0.356   0.066   6.991 -0.9753 -1.3921 -1.0604
 8509SOL    HW237161   0.332   0.200   6.930  2.5214  0.0105  0.5647
 8510SOL     OW37162   0.472   0.443   7.606  0.5069 -0.2758  1.1634
 8510SOL    HW137163   0.555   0.400   7.626  1.1766 -0.6812 -2.4718
 8510SOL    HW237164   0.411   0.371   7.588 -2.6922  2.7018  0.0473
 8511SOL     OW37165   1.651   2.066   1.753 -0.3239 -0.3401 -0.3302
 8511SOL    HW137166   1.584   2.132   1.738  0.5713  0.4762 -0.7327
 8511SOL    HW237167   1.609   1.994   1.801 -0.9724  0.0187 -0.3669
 8512SOL     OW37168   3.225   3.714   4.788 -0.2381 -0.0681 -0.6383
 8512SOL    HW137169   3.267   3.634   4.759 -0.2265 -1.3065  2.8174
 8512SOL    HW237170   3.140   3.720   4.743 -0.7089 -1.1647  0.1285
 8513SOL     OW37171   3.831   2.198   3.817 -0.5182  0.6520  0.2165
 8513SOL    HW137172   3.898   2.167   3.756  0.4509 -2.8921  3.0643
 8513SOL    HW237173   3.755   2.168   3.767 -2.9535  2.8347  2.5332
 8514SOL     OW37174   1.326   2.167   3.111 -0.2534 -0.1462  0.0821
 8514SOL    HW137175   1.264   2.096   3.096  1.2525 -1.5958  0.7384
 8514SOL    HW237176   1.340   2.203   3.023  0.7764 -2.4117 -0.6762
 8515SOL     OW37177   3.865   2.628   1.741  0.3676  0.1858 -0.4064
 8515SOL    HW137178   3.837   2.720   1.740  0.3108  0.1759  0.5533
 8515SOL    HW237179   3.822   2.615   1.656 -2.6712 -1.1604  1.3391
 8516SOL     OW37180   0.877   2.396  14.997 -0.0440 -0.5483 -0.3526
 8516SOL    HW137181   0.960   2.401  15.046  0.3127  0.6322 -1.0801
 8516SOL    HW237182   0.817   2.433  15.060  1.7638 -1.1377  1.7209
 8517SOL     OW37183   2.285   1.561   1.790  0.1026 -0.3069 -0.2069
 8517SOL    HW137184   2.208   1.617   1.799  0.4664  0.4343 -1.5856
 8517SOL    HW237185   2.274   1.513   1.708  0.3024 -1.1006  0.2239
 8518SOL     OW37186   4.627   4.612  16.960  1.0474  0.6668  0.6179
 8518SOL    HW137187   4.585   4.693  16.989 -1.1167 -0.5511  0.9099
 8518SOL    HW237188   4.581   4.597  16.877 -0.3687  1.8824  1.1703
 8519SOL     OW37189   4.503   3.040   8.160  0.2191 -0.3273 -0.2040
 8519SOL    HW137190   4.438   3.110   8.153 -0.8482 -1.2784  0.1561
 8519SOL    HW237191   4.511   3.004   8.071 -2.2086  0.1208 -0.6037
 8520SOL     OW37192   0.741   1.902   7.071 -0.1313 -0.4355  0.0037
 8520SOL    HW137193   0.781   1.970   7.125 -0.9364  2.2188 -2.7698
 8520SOL    HW237194   0.718   1.830   7.129  0.5529  0.4152  1.3192
 8521SOL     OW37195   1.716   2.825  12.123  0.2080  0.0444  0.1188
 8521SOL    HW137196   1.686   2.896  12.067  0.4106  0.2600  0.2849
 8521SOL    HW237197   1.808   2.844  12.139  0.1087 -0.2594  1.1111
 8522SOL     OW37198   4.606   4.625  13.769  0.0238  0.2080 -0.1434
 8522SOL    HW137199   4.643   4.543  13.802  1.2627  1.1270  0.7363
 8522SOL    HW237200   4.667   4.690  13.804  1.9897 -2.1495  0.8310
 8523SOL     OW37201   0.196   1.673   2.265  0.2570  0.0011  0.6268
 8523SOL    HW137202   0.105   1.690   2.288 -0.0338 -1.2473  0.4066
 8523SOL    HW237203   0.192   1.673   2.170 -2.2566 -1.3991  0.7336
 8524SOL     OW37204   2.941   2.406   6.806 -0.5003 -0.3216  0.1601
 8524SOL    HW137205   2.946   2.382   6.898  0.5770  2.3767  0.7938
 8524SOL    HW237206   2.962   2.321   6.766 -2.4283 -0.8991  0.3721
 8525SOL     OW37207   1.188   1.026   5.938 -0.2517  0.3931 -0.2084
 8525SOL    HW137208   1.138   1.106   5.921  1.6986  1.7026  0.1675
 8525SOL    HW237209   1.253   1.060   6.000  0.3064 -1.3257  0.1319
 8526SOL     OW37210   2.692   0.354   7.243 -0.1445 -0.3764 -0.7657
 8526SOL    HW137211   2.679   0.278   7.300 -1.3163  0.3396 -0.0935
 8526SOL    HW237212   2.618   0.409   7.267  2.5280  2.0075  1.9167
 8527SOL     OW37213   3.650   4.489  15.011  0.2273  0.8304 -0.7884
 8527SOL    HW137214   3.662   4.584  15.020  1.3478  0.5536  0.7404
 8527SOL    HW237215   3.612   4.478  15.099 -0.2309 -1.1585 -1.2386
 8528SOL     OW37216   4.673   0.788   8.313  0.3777  0.8393 -0.1268
 8528SOL    HW137217   0.026   0.811   8.330 -0.2552  1.8734  1.9883
 8528SOL    HW237218   4.683   0.777   8.219  2.5270  0.0092  0.1897
 8529SOL     OW37219   0.533   3.761   6.536  1.4672 -0.0399 -0.2560
 8529SOL    HW137220   0.618   3.769   6.579  0.5755  0.8015  1.3463
 8529SOL    HW237221   0.535   3.674   6.497  1.4094  0.6208 -1.7513
 8530SOL     OW37222   4.263   2.312  12.773 -0.8364  0.2219  0.2949
 8530SOL    HW137223   4.206   2.236  12.757 -2.5923  1.7433 -0.7267
 8530SOL    HW237224   4.322   2.280  12.841 -0.2356 -1.2260 -0.9039
 8531SOL     OW37225   3.221   2.091   7.454 -0.1022 -0.2899  0.2263
 8531SOL    HW137226   3.217   2.186   7.443  0.2853 -0.1253  1.4805
 8531SOL    HW237227   3.157   2.083   7.524  0.5953  0.9924  1.0145
 8532SOL     OW37228   4.563   1.021   7.388  0.1912  0.4012 -0.5921
 8532SOL    HW137229   4.578   1.082   7.316  2.1679  0.3126 -0.2704
 8532SOL    HW237230   4.468   1.009   7.390  0.3378 -0.8742 -1.2383
 8533SOL     OW37231   3.533   2.897   9.179 -0.3107 -0.5558  0.1211
 8533SOL    HW137232   3.598   2.918   9.247 -0.3103  1.6653 -0.5839
 8533SOL    HW237233   3.463   2.957   9.203 -0.5028 -0.8129  0.2056
 8534SOL     OW37234   0.823   1.439   0.762  0.7585 -0.2142  0.2614
 8534SOL    HW137235   0.806   1.494   0.839 -0.1659 -1.3374  0.8641
 8534SOL    HW237236   0.781   1.498   0.700 -1.8813 -1.2690  1.0275
 8535SOL     OW37237   2.837   3.263   7.873 -0.0292  0.2608 -0.2636
 8535SOL    HW137238   2.764   3.302   7.826 -1.1532  0.0613  1.3214
 8535SOL    HW237239   2.803   3.235   7.958  0.6329  1.0999  0.2790
 8536SOL     OW37240   0.211   2.800   8.956  0.5872  0.1496 -0.0887
 8536SOL    HW137241   0.253   2.879   8.992  0.0271  1.4330 -2.2538
 8536SOL    HW237242   0.128   2.805   9.003  1.4511 -2.7923  1.7547
 8537SOL     OW37243   1.478   3.067   9.005 -0.0163 -0.1353  0.2614
 8537SOL    HW137244   1.398   3.014   9.001 -0.5925  0.7199  0.1941
 8537SOL    HW237245   1.505   3.068   9.097 -0.8331  2.8456  0.4813
 8538SOL     OW37246   3.188   2.269  11.430  0.0503  0.6955 -0.2254
 8538SOL    HW137247   3.221   2.224  11.353 -0.4914 -0.2138  0.0733
 8538SOL    HW237248   3.097   2.287  11.405 -0.1094 -2.2501 -1.7295
 8539SOL     OW37249   3.027   0.303   5.031 -0.0240  0.4518  0.1676
 8539SOL    HW137250   2.952   0.324   4.974  0.4486 -0.1435 -0.6781
 8539SOL    HW237251   3.086   0.264   4.966 -0.5098  0.2941 -0.1805
 8540SOL     OW37252   0.165   4.009  11.089 -0.6150 -0.0522 -0.1015
 8540SOL    HW137253   0.155   4.034  11.181 -3.1262  1.5408 -0.8295
 8540SOL    HW237254   0.134   4.091  11.052 -0.6197 -0.1153 -0.2379
 8541SOL     OW37255   2.963   3.798   6.534 -0.3353  0.1619  0.3431
 8541SOL    HW137256   2.958   3.712   6.576 -1.3878 -0.2936 -0.6924
 8541SOL    HW237257   3.053   3.794   6.502 -1.1062 -1.2031 -1.7178
 8542SOL     OW37258   2.394   1.727   7.748  0.3484 -0.2248  0.3556
 8542SOL    HW137259   2.347   1.665   7.804  0.0983  2.3290  2.9798
 8542SOL    HW237260   2.478   1.730   7.794  0.0297 -0.4771  0.9561
 8543SOL     OW37261   1.085   2.242  10.842  0.3409  0.0661  0.6298
 8543SOL    HW137262   1.171   2.245  10.799  1.1214 -1.1635  2.1074
 8543SOL    HW237263   1.070   2.148  10.836  2.2412 -0.1983  0.0162
 8544SOL     OW37264   4.237   1.973   6.349  0.5789  0.0801 -0.1156
 8544SOL    HW137265   4.307   1.940   6.293  2.5467  0.2715  2.2491
 8544SOL    HW237266   4.177   1.997   6.279  2.5651 -1.5266 -2.3558
 8545SOL     OW37267   2.934   1.425   4.775  0.1682  0.5194  0.0979
 8545SOL    HW137268   2.868   1.368   4.734 -0.7168  2.1236 -0.7150
 8545SOL    HW237269   3.008   1.404   4.718  1.8173  0.6379  2.1902
 8546SOL     OW37270   4.211   1.399   6.581 -0.4585 -0.2447 -0.0945
 8546SOL    HW137271   4.290   1.450   6.562 -1.3475  0.9901 -0.4196
 8546SOL    HW237272   4.152   1.410   6.507 -0.9795 -1.0693  0.1909
 8547SOL     OW37273   2.288   3.431   2.683  0.4861 -0.5068  0.4631
 8547SOL    HW137274   2.241   3.493   2.627  1.3509 -2.8908 -2.8963
 8547SOL    HW237275   2.335   3.501   2.729  1.9949  0.3387 -2.3709
 8548SOL     OW37276   3.638   0.696   8.763 -0.2478 -0.1099  0.4122
 8548SOL    HW137277   3.569   0.638   8.728  1.2532 -1.3983 -0.4326
 8548SOL    HW237278   3.605   0.778   8.727 -0.5307 -0.1058  0.6827
 8549SOL     OW37279   4.106   0.990   5.816  0.0144 -0.1211 -0.1289
 8549SOL    HW137280   4.068   1.061   5.765  2.6041 -0.4044 -2.4596
 8549SOL    HW237281   4.132   1.038   5.895 -1.3688  0.5005 -0.0414
 8550SOL     OW37282   4.338   4.166  10.876  0.5559  0.0221 -0.1210
 8550SOL    HW137283   4.296   4.153  10.791 -0.9893  1.6759  0.3870
 8550SOL    HW237284   4.327   4.073  10.899  1.7336  0.3674  1.8431
 8551SOL     OW37285   0.710   3.201   7.696  0.4553  0.3172 -0.3279
 8551SOL    HW137286   0.623   3.212   7.657 -0.6619  0.2197  2.1783
 8551SOL    HW237287   0.707   3.268   7.764 -1.5262  1.4301 -1.4964
 8552SOL     OW37288   4.672   1.171   9.296  0.5666 -0.1144 -0.8635
 8552SOL    HW137289   4.587   1.129   9.288  0.0771  0.6802  0.2962
 8552SOL    HW237290   4.656   1.253   9.249  1.6139 -0.2285 -1.4248
 8553SOL     OW37291   2.592   3.987   7.475 -0.9645  0.9428  0.4486
 8553SOL    HW137292   2.539   3.964   7.551 -0.2865 -0.1676  0.5798
 8553SOL    HW237293   2.535   4.058   7.444 -1.7761 -0.5877 -1.6027
 8554SOL     OW37294   1.505   1.797   7.583  0.1106 -0.1770  0.4527
 8554SOL    HW137295   1.599   1.799   7.604  0.2954  0.9519 -0.5019
 8554SOL    HW237296   1.495   1.865   7.516  1.5369 -0.1801  0.2294
 8555SOL     OW37297   0.001   3.755   2.263 -0.5591 -0.2925  0.1039
 8555SOL    HW137298   0.045   3.712   2.337 -0.2357  1.0966  0.7253
 8555SOL    HW237299   4.682   3.813   2.313 -2.6172 -1.6443 -0.7411
 8556SOL     OW37300   0.905   1.054   4.379  0.1214  0.3622 -0.0274
 8556SOL    HW137301   0.883   1.061   4.472  0.0128 -0.3184 -0.0015
 8556SOL    HW237302   0.967   1.124   4.356  0.8685 -1.3089 -2.9938
 8557SOL     OW37303   0.500   1.830   1.869  0.1320 -0.4302  0.1900
 8557SOL    HW137304   0.573   1.888   1.848  1.1129 -2.0697 -0.8787
 8557SOL    HW237305   0.451   1.880   1.935  0.5915  1.8579 -1.2045
 8558SOL     OW37306   1.078   0.548   4.282  0.6482 -0.1763 -0.6483
 8558SOL    HW137307   1.036   0.632   4.302  1.0901  0.0922 -0.8284
 8558SOL    HW237308   1.113   0.524   4.368 -0.3630  2.1885  0.4080
 8559SOL     OW37309   4.486   3.304   4.775  0.4155  0.3630 -0.5116
 8559SOL    HW137310   4.391   3.306   4.762  0.3382  0.0946  0.0309
 8559SOL    HW237311   4.492   3.208   4.780 -0.3703  0.2773 -1.1526
 8560SOL     OW37312   2.880   3.934   9.300 -0.2192  0.5465  0.1867
 8560SOL    HW137313   2.891   3.990   9.377  0.3861  0.8716 -0.1383
 8560SOL    HW237314   2.786   3.913   9.300  0.3720 -2.0105 -2.0818
 8561SOL     OW37315   3.521   4.089   8.138  0.0642 -0.1418  0.5023
 8561SOL    HW137316   3.588   4.131   8.193 -0.3447  0.8188  0.2743
 8561SOL    HW237317   3.537   3.997   8.157 -0.7634 -0.7339 -1.6005
 8562SOL     OW37318   4.090   3.687   5.511 -0.6870 -0.2067  0.1683
 8562SOL    HW137319   4.121   3.667   5.423 -0.4778 -0.5592  0.3247
 8562SOL    HW237320   4.141   3.757   5.552 -1.8938  0.0203  1.2907
 8563SOL     OW37321   0.312   1.673  10.125  0.2285 -0.2302  0.4331
 8563SOL    HW137322   0.398   1.672  10.168  2.0023  1.2108 -3.1000
 8563SOL    HW237323   0.346   1.670  10.036  0.7580 -0.1293  0.6312
 8564SOL     OW37324   3.231   2.683  11.217 -0.9311 -0.0940 -0.6796
 8564SOL    HW137325   3.305   2.641  11.173 -1.9601  1.0030 -3.4379
 8564SOL    HW237326   3.273   2.674  11.303  0.9928 -3.4413 -1.9409
 8565SOL     OW37327   4.458   1.143   0.959  0.0508  0.3706  0.0943
 8565SOL    HW137328   4.393   1.090   0.913  1.0056 -2.3945  1.9351
 8565SOL    HW237329   4.415   1.152   1.044 -1.0159 -1.7922 -0.2079
 8566SOL     OW37330   1.149   4.617   3.726 -0.1725 -0.0630 -0.1132
 8566SOL    HW137331   1.134   4.681   3.657 -0.5828  0.7951  0.7632
 8566SOL    HW237332   1.111   4.659   3.804  0.1490  1.3159 -0.6966
 8567SOL     OW37333   0.193   2.920   3.636 -0.0519  0.1352  0.2900
 8567SOL    HW137334   0.274   2.950   3.677  0.6892  1.2796 -2.0180
 8567SOL    HW237335   0.144   2.878   3.707  0.5835 -0.9970  0.0561
 8568SOL     OW37336   3.252   2.037   9.544  0.8468 -0.0826 -0.2522
 8568SOL    HW137337   3.341   2.042   9.579  0.2822 -0.2594  1.2033
 8568SOL    HW237338   3.273   2.084   9.464  0.4840  2.3040  1.0395
 8569SOL     OW37339   0.909   2.294   3.578  0.6165  0.4088 -0.3158
 8569SOL    HW137340   0.830   2.255   3.541  0.0020  1.7606 -0.4482
 8569SOL    HW237341   0.959   2.317   3.500  0.3712 -0.2325 -0.6611
 8570SOL     OW37342   3.444   0.012  13.440 -1.0589  0.1069 -0.3138
 8570SOL    HW137343   3.527   4.736  13.395  1.1629  0.5010  3.6287
 8570SOL    HW237344   3.404   0.062  13.369  1.3811  1.8346 -0.4767
 8571SOL     OW37345   4.549   3.493   6.672  0.2731  0.4327  0.2102
 8571SOL    HW137346   4.486   3.544   6.723  0.1334  0.5141 -0.0450
 8571SOL    HW237347   4.550   3.515   6.579 -1.6180  0.9923  0.3296
 8572SOL     OW37348   1.549   2.170   3.273 -0.1525 -1.0478 -0.3088
 8572SOL    HW137349   1.468   2.201   3.232 -0.4328  0.2096  1.2303
 8572SOL    HW237350   1.623   2.192   3.217 -0.9349  2.6804  0.1480
 8573SOL     OW37351   3.177   0.018   9.241  0.1724 -0.2421 -0.9878
 8573SOL    HW137352   3.220   4.673   9.223 -1.3915 -1.3587  0.5343
 8573SOL    HW237353   3.098   0.016   9.187 -1.0671  0.8992  0.7693
 8574SOL     OW37354   0.188   0.936   5.369  0.0582 -0.4178  0.5194
 8574SOL    HW137355   0.278   0.939   5.337  1.5509  1.8337  4.9589
 8574SOL    HW237356   0.171   1.030   5.376  0.6130 -0.1551 -1.4738
 8575SOL     OW37357   0.231   4.606   1.736  0.5060  0.0292  0.5369
 8575SOL    HW137358   0.289   4.645   1.802  0.1922  4.8669 -2.0375
 8575SOL    HW237359   0.156   4.578   1.789 -0.3766 -0.2402 -0.8603
 8576SOL     OW37360   0.216   0.901   0.974  0.0310  0.0549  0.1687
 8576SOL    HW137361   0.252   0.857   1.051 -1.1557  0.6967  1.1127
 8576SOL    HW237362   0.251   0.990   0.982 -0.0831  0.2893 -1.9257
 8577SOL     OW37363   4.088   3.978   1.069  0.5773  0.0796 -0.0365
 8577SOL    HW137364   4.086   4.071   1.046 -1.4095  0.4426  1.5930
 8577SOL    HW237365   4.033   3.949   0.996  0.3053 -1.4497  0.7747
 8578SOL     OW37366   0.181   0.355   1.290 -0.4313  0.2894 -0.5097
 8578SOL    HW137367   0.223   0.312   1.216  0.2460  0.4943 -0.2462
 8578SOL    HW237368   0.168   0.286   1.356 -2.3180  2.6855  1.6495
 8579SOL     OW37369   4.016   1.375   7.537  0.2552  0.1272  0.1108
 8579SOL    HW137370   4.015   1.284   7.506 -1.4159  0.0543  0.3470
 8579SOL    HW237371   3.991   1.425   7.459 -1.7250 -2.3001 -0.8275
 8580SOL     OW37372   3.814   1.374   4.335 -0.0230  0.2560  0.3480
 8580SOL    HW137373   3.792   1.324   4.257  0.8456  3.7284 -2.0786
 8580SOL    HW237374   3.735   1.354   4.387  0.9056 -1.0123  1.2793
 8581SOL     OW37375   3.736   3.331   6.847  0.1574 -0.1779  0.4454
 8581SOL    HW137376   3.802   3.401   6.849  0.0452 -0.1380  2.0511
 8581SOL    HW237377   3.707   3.330   6.938 -0.0305  1.4867  0.3954
 8582SOL     OW37378   2.724   1.283   2.803 -0.2586 -0.1511  0.5185
 8582SOL    HW137379   2.661   1.229   2.851  0.9946 -0.8177  1.3921
 8582SOL    HW237380   2.763   1.215   2.749 -0.8210  0.2783 -0.4341
 8583SOL     OW37381   1.085   3.322   1.474  0.0742 -0.3042 -0.4502
 8583SOL    HW137382   1.006   3.329   1.527  0.1386 -2.6807 -0.0425
 8583SOL    HW237383   1.096   3.416   1.456 -1.0033  0.0232  0.6090
 8584SOL     OW37384   1.899   1.953   2.413  0.0434  0.0350 -0.3021
 8584SOL    HW137385   1.943   1.965   2.329  0.5698  0.9578  0.0977
 8584SOL    HW237386   1.812   1.977   2.382 -0.2936  0.5342  0.9888
 8585SOL     OW37387   0.801   2.448   7.373 -1.4272  0.0949  0.4158
 8585SOL    HW137388   0.867   2.392   7.414 -1.4069 -1.2452 -1.4600
 8585SOL    HW237389   0.745   2.468   7.448 -1.8817 -0.3762  0.2034
 8586SOL     OW37390   0.072   0.320   4.489 -0.7674  0.5864  0.6697
 8586SOL    HW137391   0.045   0.229   4.483  1.0034  0.2695 -2.4567
 8586SOL    HW237392   0.079   0.337   4.583 -0.8568  4.1304  0.0424
 8587SOL     OW37393   2.569   3.480   7.429  0.3757 -0.0714 -0.3575
 8587SOL    HW137394   2.582   3.424   7.353 -1.9314 -0.4965 -0.4502
 8587SOL    HW237395   2.476   3.500   7.419 -0.4249 -2.7748  1.5677
 8588SOL     OW37396   0.020   2.871   2.729 -0.5907 -0.1266 -0.2660
 8588SOL    HW137397   0.003   2.902   2.818  0.3221 -1.3576  0.3395
 8588SOL    HW237398   0.021   2.775   2.736  1.2409 -0.0682  0.4115
 8589SOL     OW37399   1.159   0.085   6.931  0.1796  0.3001  0.4585
 8589SOL    HW137400   1.223   0.014   6.923 -1.3022 -1.1889  2.1214
 8589SOL    HW237401   1.085   0.028   6.952  0.5307  0.3470  1.7716
 8590SOL     OW37402   1.956   0.430   7.976 -0.0169  0.2129 -0.0112
 8590SOL    HW137403   1.927   0.517   8.003  0.0672  0.3359 -0.3245
 8590SOL    HW237404   1.910   0.427   7.893 -0.2110 -0.4256  0.1159
 8591SOL     OW37405   1.417   4.098   5.612 -0.4021  0.0138 -0.0624
 8591SOL    HW137406   1.330   4.096   5.651 -1.1380  1.2040 -1.6123
 8591SOL    HW237407   1.397   4.181   5.569  1.1087  0.3473 -0.1341
 8592SOL     OW37408   4.087   3.783   7.779  0.0831  0.6137  0.2102
 8592SOL    HW137409   4.176   3.816   7.765 -0.7198  2.2358 -1.1596
 8592SOL    HW237410   4.102   3.693   7.748  3.0626  1.4454 -0.7350
 8593SOL     OW37411   2.425   1.584  15.850 -0.0672 -0.1329 -0.3243
 8593SOL    HW137412   2.479   1.647  15.802 -0.8015  0.6027 -0.1901
 8593SOL    HW237413   2.490   1.528  15.893  0.8333  2.0216  1.0990
 8594SOL     OW37414   0.133   4.517   4.344 -0.2290 -0.0095 -0.2407
 8594SOL    HW137415   0.114   4.547   4.432 -0.4937 -1.4970  0.2185
 8594SOL    HW237416   0.176   4.433   4.364 -0.1586 -0.4339 -2.1389
 8595SOL     OW37417   0.411   3.986   5.607  0.1269 -0.0309 -0.5233
 8595SOL    HW137418   0.488   3.989   5.663  1.4682 -0.4913 -2.3603
 8595SOL    HW237419   0.428   3.903   5.562 -2.8129 -0.4604 -0.8462
 8596SOL     OW37420   0.852   3.928   1.090 -0.4121 -0.5051  0.1331
 8596SOL    HW137421   0.936   3.961   1.058 -1.5730  0.2151 -2.2284
 8596SOL    HW237422   0.822   4.008   1.134 -0.6369 -0.0357 -0.8792
 8597SOL     OW37423   0.202   1.247  13.104 -0.1756  0.1286 -0.0633
 8597SOL    HW137424   0.176   1.249  13.197 -2.4464  0.7214 -0.7160
 8597SOL    HW237425   0.215   1.340  13.084 -3.7097  1.4341  3.6503
 8598SOL     OW37426   1.393   1.977   4.274  0.0353  0.5490  0.0940
 8598SOL    HW137427   1.331   1.963   4.346 -2.5495 -0.6799 -2.3663
 8598SOL    HW237428   1.353   1.929   4.201  3.7824 -1.9405 -0.3158
 8599SOL     OW37429   2.944   2.598  16.495 -0.2117 -0.2224  0.1957
 8599SOL    HW137430   2.859   2.569  16.464 -0.6093  0.3831  0.7093
 8599SOL    HW237431   2.920   2.661  16.563 -0.7579 -1.3285  1.0269
 8600SOL     OW37432   1.365   4.057   6.914 -0.0133 -0.3149 -0.0454
 8600SOL    HW137433   1.326   4.014   6.990 -1.6115 -0.0331 -0.6870
 8600SOL    HW237434   1.440   4.000   6.899 -1.2417 -1.8781 -0.2520
 8601SOL     OW37435   4.450   2.724   4.815  0.3212 -0.3957 -0.3920
 8601SOL    HW137436   4.517   2.657   4.832  0.0624 -0.8164 -1.0263
 8601SOL    HW237437   4.381   2.708   4.879  1.3539  0.2206  0.8811
 8602SOL     OW37438   1.814   0.433   6.359 -0.2863 -0.6495 -0.2345
 8602SOL    HW137439   1.723   0.444   6.331 -0.5001 -1.0495  0.3100
 8602SOL    HW237440   1.800   0.441   6.453  0.0680  2.2356 -0.4298
 8603SOL     OW37441   2.344   1.364  12.202  0.0988  0.5851 -0.1597
 8603SOL    HW137442   2.431   1.324  12.201  0.0070  0.4316 -2.5764
 8603SOL    HW237443   2.301   1.300  12.146  1.7902  0.7019 -1.5971
 8604SOL     OW37444   2.481   1.398   0.473  0.3524  0.1886 -0.4129
 8604SOL    HW137445   2.422   1.325   0.493  0.7377  0.6481  2.3393
 8604SOL    HW237446   2.431   1.474   0.503  1.0762  0.0326  1.1470
 8605SOL     OW37447   0.141   2.105   2.449 -0.2847  0.9981  0.4788
 8605SOL    HW137448   0.184   2.129   2.367 -0.7478  0.4617  0.0785
 8605SOL    HW237449   0.052   2.135   2.434 -0.1618  1.0060 -0.2478
 8606SOL     OW37450   1.829   2.784   4.134 -0.1266 -0.0464  0.0585
 8606SOL    HW137451   1.780   2.708   4.102 -0.7840  0.9384 -1.2622
 8606SOL    HW237452   1.878   2.813   4.057 -1.2643  0.4137 -0.4843
 8607SOL     OW37453   1.891   2.456   1.994  0.3764  0.5217 -0.0978
 8607SOL    HW137454   1.807   2.471   2.037  0.4961 -0.3427  0.4252
 8607SOL    HW237455   1.876   2.489   1.906  0.7464 -2.9455 -1.4528
 8608SOL     OW37456   4.053   1.492   3.009 -0.6601  0.4629 -0.4540
 8608SOL    HW137457   4.099   1.408   3.000  1.3608  1.3875  1.3239
 8608SOL    HW237458   4.116   1.541   2.957 -0.1381  0.9533  0.6480
 8609SOL     OW37459   0.956   1.160   2.425  0.6610  0.2763  0.4511
 8609SOL    HW137460   0.966   1.121   2.511  1.6184 -2.4006 -0.8777
 8609SOL    HW237461   1.040   1.201   2.404 -0.0471  0.4771 -2.0635
 8610SOL     OW37462   0.294   1.387   1.610 -0.3069  0.1103 -0.0612
 8610SOL    HW137463   0.238   1.413   1.683  0.9011 -1.7952  1.5759
 8610SOL    HW237464   0.354   1.330   1.658 -2.4821 -0.6066  1.8019
 8611SOL     OW37465   3.238   0.666   7.230 -0.5246 -0.1539  0.1131
 8611SOL    HW137466   3.187   0.661   7.148 -3.3069 -0.3131  1.8574
 8611SOL    HW237467   3.309   0.607   7.205  0.5473  0.9257  0.6396
 8612SOL     OW37468   0.856   1.025   9.534  0.0651 -0.0052  0.0218
 8612SOL    HW137469   0.931   1.073   9.569  1.7264 -3.2808  0.9785
 8612SOL    HW237470   0.848   0.966   9.609  2.4373  1.6884  1.5772
 8613SOL     OW37471   4.738   3.961   5.039  0.2078 -0.7392 -0.4857
 8613SOL    HW137472   4.671   3.896   5.063 -0.1458  0.0663  0.7257
 8613SOL    HW237473   4.699   4.043   5.069 -1.0841 -0.7516 -2.1054
 8614SOL     OW37474   2.366   1.878   0.349 -0.1382  1.0531 -0.2153
 8614SOL    HW137475   2.433   1.817   0.380 -0.2122  2.2412  2.3044
 8614SOL    HW237476   2.401   1.894   0.262  2.3588  0.4197  0.6661
 8615SOL     OW37477   3.572   1.672  12.977  0.0138 -0.7398  0.0499
 8615SOL    HW137478   3.593   1.591  13.023  0.3259 -1.3460 -1.1417
 8615SOL    HW237479   3.633   1.735  13.015  0.0295 -0.4604 -0.4280
 8616SOL     OW37480   0.857   0.976   1.432  0.0646 -0.0519 -0.2741
 8616SOL    HW137481   0.925   0.943   1.373 -0.8506 -0.5697 -1.0585
 8616SOL    HW237482   0.912   1.000   1.506 -0.2085  0.7072 -0.3185
 8617SOL     OW37483   3.692   2.843   2.933 -0.0915 -0.1195  0.5636
 8617SOL    HW137484   3.672   2.753   2.906 -0.3310  0.0504  0.1660
 8617SOL    HW237485   3.787   2.838   2.939  0.0431  2.7192  0.7608
 8618SOL     OW37486   2.669   3.281  13.324 -0.0607 -0.5634 -0.5540
 8618SOL    HW137487   2.731   3.208  13.331  0.3217 -0.2622 -0.7667
 8618SOL    HW237488   2.693   3.337  13.399 -2.8707  0.3044 -0.3054
 8619SOL     OW37489   3.238   2.799   6.177  0.3657 -0.2339 -0.1186
 8619SOL    HW137490   3.143   2.797   6.188  0.3282  1.2387 -0.1560
 8619SOL    HW237491   3.239   2.763   6.088 -1.7262  1.0547 -0.6776
 8620SOL     OW37492   1.370   1.181   3.010 -0.3398  0.5256  0.6162
 8620SOL    HW137493   1.314   1.111   3.043 -1.1590  0.2494 -1.3528
 8620SOL    HW237494   1.454   1.134   3.003 -0.3889  0.3583  1.1515
 8621SOL     OW37495   0.830   3.140   6.370  0.6931  0.3696  0.1648
 8621SOL    HW137496   0.784   3.176   6.446  1.5409 -1.7312  1.6703
 8621SOL    HW237497   0.921   3.129   6.398  1.0445  2.4229 -0.1432
 8622SOL     OW37498   1.612   0.997  17.435  0.3974 -0.2008  0.3363
 8622SOL    HW137499   1.611   1.075  17.379 -0.5448 -0.9179 -0.6462
 8622SOL    HW237500   1.667   0.935  17.388  0.1457 -0.0302 -0.1951
 8623SOL     OW37501   2.250   2.066   3.055 -0.2126 -0.1566  0.7186
 8623SOL    HW137502   2.272   2.142   3.108  2.2307 -0.4779  0.1549
 8623SOL    HW237503   2.336   2.048   3.018  0.0853 -0.7473  1.6996
 8624SOL     OW37504   3.378   0.747   7.736  0.0391 -0.2012 -0.0316
 8624SOL    HW137505   3.399   0.736   7.643  1.4151 -2.7593  0.5623
 8624SOL    HW237506   3.465   0.725   7.769  0.5713 -0.6951 -1.7355
 8625SOL     OW37507   0.479   4.211   8.403  0.0091 -0.0274  0.5920
 8625SOL    HW137508   0.393   4.247   8.425 -0.8403 -1.5635 -0.1943
 8625SOL    HW237509   0.476   4.139   8.466  0.5315 -0.3734  0.2215
 8626SOL     OW37510   1.350   2.683   4.738 -0.1791  0.6328  0.4703
 8626SOL    HW137511   1.313   2.604   4.777  0.0943  0.6173  0.6907
 8626SOL    HW237512   1.417   2.702   4.803  0.8574  1.1811 -0.7678
 8627SOL     OW37513   2.655   0.093   8.049 -0.1041  0.6071  0.1206
 8627SOL    HW137514   2.585   0.128   8.105 -0.3024 -1.4418  1.1250
 8627SOL    HW237515   2.735   0.119   8.095  0.2757 -2.4132  1.1651
 8628SOL     OW37516   0.928   2.077   5.732  0.1905  0.6241 -0.1750
 8628SOL    HW137517   0.954   2.169   5.735  1.0813  0.4774 -2.7043
 8628SOL    HW237518   0.945   2.057   5.640  2.0504 -1.6012  0.6366
 8629SOL     OW37519   2.743   4.231   6.981 -0.2062 -0.1356  0.2447
 8629SOL    HW137520   2.657   4.274   6.981  0.5348  1.3218 -0.1566
 8629SOL    HW237521   2.780   4.260   7.064  0.6726 -1.8816  0.4800
 8630SOL     OW37522   2.739   3.552   4.567  0.2287 -0.1270 -0.2415
 8630SOL    HW137523   2.718   3.542   4.474  1.7434  0.2287 -0.6258
 8630SOL    HW237524   2.652   3.538   4.603  1.6557 -1.4070  2.7488
 8631SOL     OW37525   2.834   0.915   1.097  0.0305  0.0850  0.6110
 8631SOL    HW137526   2.814   1.005   1.123 -1.7397 -0.4798  1.1657
 8631SOL    HW237527   2.924   0.916   1.131  0.9141 -2.8060 -1.6683
 8632SOL     OW37528   0.422   2.719  13.821  0.4442 -0.1177 -0.1009
 8632SOL    HW137529   0.477   2.712  13.899  0.4530  0.5056 -0.0527
 8632SOL    HW237530   0.357   2.781  13.854  2.3251  1.3041  0.9950
 8633SOL     OW37531   4.193   0.064   4.295  0.5552  0.4273  0.1548
 8633SOL    HW137532   4.214   0.016   4.215  0.2619  0.7711 -0.1278
 8633SOL    HW237533   4.148   4.731   4.340  0.5104  1.9761  2.6261
 8634SOL     OW37534   2.751   3.494   5.056 -0.0171 -0.4884 -0.2886
 8634SOL    HW137535   2.789   3.575   5.090 -0.5172  0.2537 -1.5067
 8634SOL    HW237536   2.793   3.484   4.971 -0.9342 -0.2856 -0.7660
 8635SOL     OW37537   0.290   1.078  16.166 -0.0633  0.1384  0.1969
 8635SOL    HW137538   0.201   1.077  16.131 -0.3182 -0.8004  0.8406
 8635SOL    HW237539   0.282   1.085  16.261 -0.1160 -0.8113  0.2650
 8636SOL     OW37540   0.109   3.103  13.857  0.6370  0.0750  0.6963
 8636SOL    HW137541   0.138   3.193  13.873  0.4509 -0.1579  2.3690
 8636SOL    HW237542   0.024   3.100  13.900  0.0158  1.5741 -0.4300
 8637SOL     OW37543   4.377   3.211  12.677  0.1933 -0.2160  0.0231
 8637SOL    HW137544   4.436   3.204  12.602  0.3623  0.0147  0.1338
 8637SOL    HW237545   4.436   3.245  12.744  0.6184 -1.6920  0.3962
 8638SOL     OW37546   0.426   2.639   5.783 -0.3074  0.1474 -0.0460
 8638SOL    HW137547   0.348   2.673   5.739 -0.5492 -1.0060 -0.4969
 8638SOL    HW237548   0.470   2.616   5.701  1.2711  0.6556  0.6512
 8639SOL     OW37549   0.662   3.877   5.213 -0.1827  0.0091 -0.7978
 8639SOL    HW137550   0.717   3.882   5.290 -1.1270  0.6423 -0.1616
 8639SOL    HW237551   0.572   3.869   5.246  0.4411 -0.0286  0.8423
 8640SOL     OW37552   2.872   1.150  10.272  0.0884  0.0834 -0.2549
 8640SOL    HW137553   2.890   1.067  10.316  1.9919  0.0888 -1.0314
 8640SOL    HW237554   2.827   1.201  10.339 -0.0232  1.1772 -1.1500
 8641SOL     OW37555   0.110   3.703   6.639 -0.1012 -0.1083 -0.0565
 8641SOL    HW137556   0.070   3.629   6.683  0.6305 -1.1928 -1.2215
 8641SOL    HW237557   0.088   3.691   6.547 -0.2256 -2.2316  0.2643
 8642SOL     OW37558   1.211   0.648   8.422 -0.0980  0.6400 -0.1342
 8642SOL    HW137559   1.288   0.612   8.381 -1.1944 -0.6764 -1.0145
 8642SOL    HW237560   1.242   0.739   8.430  0.5438  0.5001 -1.0711
 8643SOL     OW37561   1.117   2.652  12.565 -0.1428 -0.6742 -0.8697
 8643SOL    HW137562   1.045   2.655  12.502 -0.7036  0.2371 -0.1809
 8643SOL    HW237563   1.161   2.736  12.556 -0.9199 -0.4869 -3.1272
 8644SOL     OW37564   1.368   4.411   6.320  1.2578 -0.6503 -0.3766
 8644SOL    HW137565   1.319   4.403   6.238  0.0420  0.6052  0.2438
 8644SOL    HW237566   1.415   4.328   6.327  1.2580 -0.6436 -0.3056
 8645SOL     OW37567   2.734   1.207   0.018 -0.3262  0.0290  0.2856
 8645SOL    HW137568   2.818   1.247   0.039 -0.6827  0.8242  0.1902
 8645SOL    HW237569   2.718   1.182   0.109 -0.2623 -1.0625 -0.0096
 8646SOL     OW37570   2.989   3.083   3.621 -0.1245  0.0335  0.3401
 8646SOL    HW137571   2.994   3.006   3.678 -0.9439  0.3136  0.8092
 8646SOL    HW237572   3.006   3.036   3.540  2.1215  0.9688  0.2843
 8647SOL     OW37573   2.346   0.931  14.524  0.0106  0.3943  0.1625
 8647SOL    HW137574   2.420   0.952  14.467  0.0388 -1.2518 -0.4145
 8647SOL    HW237575   2.387   0.876  14.590 -0.4450  2.0160  1.7798
 8648SOL     OW37576   4.597   0.871   9.761 -0.1099 -0.7782 -0.2110
 8648SOL    HW137577   4.512   0.835   9.736 -0.2659 -0.9440  0.5562
 8648SOL    HW237578   4.594   0.962   9.730  0.1794 -0.8970 -0.5847
 8649SOL     OW37579   1.547   0.596   7.822 -0.3491  0.3282  0.2555
 8649SOL    HW137580   1.529   0.679   7.866 -0.2998  0.8072 -0.6296
 8649SOL    HW237581   1.478   0.593   7.756 -1.1388 -0.2488  1.1034
 8650SOL     OW37582   4.023   4.708   8.895 -0.8014  0.1589  0.6545
 8650SOL    HW137583   3.947   0.018   8.865  0.1908  2.2711  1.5484
 8650SOL    HW237584   4.094   0.028   8.868 -0.8144  0.4347  1.2119
 8651SOL     OW37585   0.722   4.079   2.951 -0.4467 -0.5632  0.6378
 8651SOL    HW137586   0.800   4.033   2.982  0.7568  0.7368 -0.5391
 8651SOL    HW237587   0.666   4.070   3.029  0.3786  1.0546  1.4093
 8652SOL     OW37588   2.212   2.764  15.179  0.5692 -0.2890 -0.8439
 8652SOL    HW137589   2.216   2.822  15.103 -0.5865 -0.2851 -0.9042
 8652SOL    HW237590   2.299   2.779  15.214 -0.2655  2.1741  0.1952
 8653SOL     OW37591   3.847   0.778   1.023  0.1339 -0.4426 -0.3146
 8653SOL    HW137592   3.934   0.816   1.013  0.0818 -0.3288 -0.3292
 8653SOL    HW237593   3.872   0.717   1.092 -0.0198  1.2758  1.2766
 8654SOL     OW37594   4.702   3.843   8.442  0.0421  0.1733  0.2649
 8654SOL    HW137595   4.699   3.934   8.471 -0.2461 -0.8982  3.6295
 8654SOL    HW237596   0.054   3.852   8.412 -0.8327  0.1131 -2.3785
 8655SOL     OW37597   0.886   0.791   1.772 -0.4634  0.3373  0.4584
 8655SOL    HW137598   0.850   0.709   1.740 -0.9703  1.6103 -2.2003
 8655SOL    HW237599   0.852   0.805   1.861 -0.6996 -0.9500  0.5676
 8656SOL     OW37600   0.913   2.276  12.598 -0.2782  0.6848  0.4450
 8656SOL    HW137601   0.925   2.329  12.520  0.5537 -1.7815 -1.0975
 8656SOL    HW237602   1.005   2.280  12.623  0.0490  2.5674 -1.1279
 8657SOL     OW37603   4.570   0.169   1.292  0.0289  0.1755  0.1375
 8657SOL    HW137604   4.647   0.112   1.303 -0.9213 -1.0383  0.5221
 8657SOL    HW237605   4.594   0.251   1.248  0.6760  0.4412  0.9863
 8658SOL     OW37606   0.504   2.319   8.124  0.4191  0.6336  0.5442
 8658SOL    HW137607   0.471   2.279   8.205  0.5225  0.7066  0.6217
 8658SOL    HW237608   0.577   2.263   8.097 -0.2877  0.8757 -1.7914
 8659SOL     OW37609   4.344   3.933   3.905  0.2205  0.5166 -0.1611
 8659SOL    HW137610   4.267   3.973   3.865  1.2310  1.1177 -1.4935
 8659SOL    HW237611   4.318   3.845   3.932  1.4272 -0.5005 -2.3129
 8660SOL     OW37612   2.049   1.723   1.756 -0.0077 -0.1094 -0.3870
 8660SOL    HW137613   2.011   1.665   1.822  0.0702  1.5180  1.0755
 8660SOL    HW237614   1.973   1.778   1.735  0.2644  0.5012  0.2267
 8661SOL     OW37615   1.144   0.760   5.845  0.0033  0.3073  0.2419
 8661SOL    HW137616   1.119   0.685   5.900 -2.1070  0.4408 -0.5649
 8661SOL    HW237617   1.167   0.822   5.914  0.5888  0.2651  0.0907
 8662SOL     OW37618   3.628   0.159   6.219  0.3008  0.1431  0.2539
 8662SOL    HW137619   3.638   0.072   6.257  0.6822  0.3930  0.7333
 8662SOL    HW237620   3.540   0.154   6.182 -0.4174 -0.9926  2.1258
 8663SOL     OW37621   2.608   1.833   1.039  0.0336 -0.3792  0.3102
 8663SOL    HW137622   2.535   1.778   1.067  1.1857 -0.8919  2.3160
 8663SOL    HW237623   2.665   1.825   1.116 -0.8690  0.5003  1.0651
 8664SOL     OW37624   0.987   1.510   5.858  0.3158  0.2209  0.2148
 8664SOL    HW137625   0.901   1.514   5.816  0.1822  0.2444  0.4889
 8664SOL    HW237626   1.010   1.602   5.868 -0.3172  0.4339 -0.2620
 8665SOL     OW37627   1.317   1.173   6.702  0.0376 -0.5187 -0.3028
 8665SOL    HW137628   1.259   1.246   6.681  1.3785  0.4174 -0.7650
 8665SOL    HW237629   1.288   1.102   6.644 -1.7890  0.1037 -0.1358
 8666SOL     OW37630   2.022   1.673   7.340 -0.0517 -0.4307  0.6294
 8666SOL    HW137631   2.015   1.769   7.341  0.3993 -0.3543 -2.0620
 8666SOL    HW237632   2.117   1.662   7.333  0.0171  0.5796 -0.1193
 8667SOL     OW37633   2.043   1.673  13.176 -0.5755 -0.0712 -0.5981
 8667SOL    HW137634   1.948   1.661  13.178 -0.5011 -0.2410  2.2417
 8667SOL    HW237635   2.068   1.584  13.152  1.2585  0.2328  0.2044
 8668SOL     OW37636   3.080   0.406   5.275  0.2362  0.0809  0.6616
 8668SOL    HW137637   3.045   0.355   5.202  1.3074 -1.2809  1.1068
 8668SOL    HW237638   3.131   0.470   5.226  1.9236 -1.1391  0.8209
 8669SOL     OW37639   0.217   0.588   3.950  0.5775 -0.2193  0.1667
 8669SOL    HW137640   0.253   0.554   3.868 -0.4164 -0.3392 -0.2250
 8669SOL    HW237641   0.174   0.507   3.977 -0.7936  0.6308  0.5605
 8670SOL     OW37642   3.252   0.443   4.287  0.3211  0.1104 -0.4903
 8670SOL    HW137643   3.282   0.449   4.196  0.9455  3.4145 -0.0829
 8670SOL    HW237644   3.197   0.365   4.288  1.6857 -0.8596 -1.0215
 8671SOL     OW37645   1.011   1.596   5.459 -0.3622 -0.0103  0.7815
 8671SOL    HW137646   0.924   1.558   5.460 -0.1590 -0.4696  1.4400
 8671SOL    HW237647   1.070   1.521   5.455 -0.2163  0.1943 -1.0607
 8672SOL     OW37648   2.857   0.182   8.196  0.4105 -0.2558  0.0526
 8672SOL    HW137649   2.862   0.127   8.274  0.1047 -0.4255 -0.0488
 8672SOL    HW237650   2.921   0.251   8.214  1.0624 -0.0120 -3.1769
 8673SOL     OW37651   4.016   1.210   0.210  0.1485  0.1160  0.1863
 8673SOL    HW137652   3.958   1.284   0.229 -0.6934  0.5000 -4.0727
 8673SOL    HW237653   4.099   1.256   0.218 -0.1961  0.4077  2.1328
 8674SOL     OW37654   0.196   0.895   5.078 -0.0668 -0.7545  0.7539
 8674SOL    HW137655   0.257   0.966   5.053 -0.3742 -1.0374 -0.8088
 8674SOL    HW237656   0.220   0.880   5.169 -3.1353 -1.4599  1.4473
 8675SOL     OW37657   1.592   3.488   6.903  0.5203 -0.2828 -0.3507
 8675SOL    HW137658   1.545   3.406   6.890 -0.1260 -0.5084  3.6895
 8675SOL    HW237659   1.685   3.464   6.904  0.7111  0.3927 -1.4375
 8676SOL     OW37660   0.462   1.011   6.787  0.0288  0.3870  0.2525
 8676SOL    HW137661   0.462   0.919   6.814 -1.2803  0.2177 -0.3320
 8676SOL    HW237662   0.394   1.047   6.844 -2.0385 -0.0024 -1.9676
 8677SOL     OW37663   1.743   0.257   3.629  0.0652  0.8515 -0.3592
 8677SOL    HW137664   1.772   0.273   3.719 -3.1835  1.8789  0.5191
 8677SOL    HW237665   1.689   0.331   3.602 -1.5419  0.0781  0.7643
 8678SOL     OW37666   0.933   3.579  15.491  0.0705 -0.0632 -0.0026
 8678SOL    HW137667   1.015   3.586  15.441  0.0490  1.0304  0.1149
 8678SOL    HW237668   0.871   3.548  15.425  0.8927  0.1809 -0.9044
 8679SOL     OW37669   1.073   4.065   0.409 -0.1680 -0.4652 -0.2475
 8679SOL    HW137670   1.132   4.058   0.334  0.3408  1.0356  0.0230
 8679SOL    HW237671   1.081   4.157   0.432  2.0185 -1.0403  1.2879
 8680SOL     OW37672   3.950   4.682   3.985 -0.0033  0.5448  0.4425
 8680SOL    HW137673   4.042   4.673   4.010  0.2448  1.3111 -0.1559
 8680SOL    HW237674   3.927   4.589   3.982  0.6181  0.4355 -1.2615
 8681SOL     OW37675   0.611   3.275   5.871 -0.0338 -0.3907  1.0261
 8681SOL    HW137676   0.690   3.253   5.920 -0.7258 -1.3775  1.7018
 8681SOL    HW237677   0.634   3.245   5.782  1.0249  1.1027  0.7938
 8682SOL     OW37678   3.452   3.688   9.177  0.7025 -0.4042  0.0345
 8682SOL    HW137679   3.366   3.646   9.184  1.3873 -2.0753 -1.3565
 8682SOL    HW237680   3.427   3.735   9.097  0.4507 -0.2745  0.1909
 8683SOL     OW37681   3.297   1.241  11.899  0.1191  0.3533  0.1040
 8683SOL    HW137682   3.282   1.165  11.955 -2.3445  0.0475 -1.0034
 8683SOL    HW237683   3.371   1.285  11.942 -0.5732  1.0138  0.6065
 8684SOL     OW37684   1.963   0.060  13.227  0.2637  0.0281 -0.2942
 8684SOL    HW137685   1.936   0.114  13.153  2.4233 -2.2550 -2.7109
 8684SOL    HW237686   2.013   0.121  13.281  1.0019  0.2015 -1.1795
 8685SOL     OW37687   0.246   1.695   1.984 -0.0386 -0.8243  0.3576
 8685SOL    HW137688   0.327   1.647   1.967  1.6518  1.7208  1.3234
 8685SOL    HW237689   0.278   1.781   2.009 -0.8925 -0.1366 -0.9307
 8686SOL     OW37690   0.714   1.535  13.214  0.8617  1.1109  0.0389
 8686SOL    HW137691   0.769   1.478  13.267  0.6005 -1.9243 -2.9185
 8686SOL    HW237692   0.772   1.610  13.202  1.7772  0.8123  2.6332
 8687SOL     OW37693   2.867   1.339   5.979  0.5200  0.1781  0.7813
 8687SOL    HW137694   2.865   1.249   5.947  0.9863  1.2211 -2.2077
 8687SOL    HW237695   2.931   1.374   5.916 -0.9532  0.2772 -0.6639
 8688SOL     OW37696   1.578   3.711   3.792 -0.2946 -0.3542  0.3112
 8688SOL    HW137697   1.526   3.713   3.712 -0.1977  0.5732  0.2715
 8688SOL    HW237698   1.591   3.618   3.809  1.7282 -0.0982  0.1686
 8689SOL     OW37699   0.404   1.155   7.679 -0.8293 -0.5565 -0.4583
 8689SOL    HW137700   0.498   1.135   7.682 -0.8925 -0.9165 -1.0763
 8689SOL    HW237701   0.391   1.137   7.586 -0.7255  1.2099 -0.8242
 8690SOL     OW37702   4.244   0.152   3.105  0.6005 -0.1224  0.0237
 8690SOL    HW137703   4.332   0.173   3.073  0.8007 -0.7191  0.1884
 8690SOL    HW237704   4.262   0.096   3.180 -2.8453  0.7032  1.4532
 8691SOL     OW37705   0.721   3.602   6.866  0.4110 -0.5423 -0.3945
 8691SOL    HW137706   0.730   3.603   6.771 -0.8080 -1.1767 -0.5155
 8691SOL    HW237707   0.626   3.589   6.874  0.3657  0.4527  0.8295
 8692SOL     OW37708   1.963   1.989  13.914  0.1722  0.1326 -0.2475
 8692SOL    HW137709   1.990   1.909  13.960 -1.7757 -0.3863  0.0204
 8692SOL    HW237710   1.983   1.946  13.831 -1.8189  0.5580 -0.9437
 8693SOL     OW37711   3.173   0.791   5.636  0.2782  0.1636  0.0995
 8693SOL    HW137712   3.176   0.798   5.540  2.6085  1.2704  0.2441
 8693SOL    HW237713   3.083   0.810   5.660  0.5701  0.7390  0.7477
 8694SOL     OW37714   2.019   4.247   1.460  0.4039  0.2599  0.2044
 8694SOL    HW137715   1.984   4.161   1.481 -0.3525  0.9520  1.7728
 8694SOL    HW237716   2.099   4.226   1.412 -0.2465  0.7080 -1.0719
 8695SOL     OW37717   3.347   0.999  14.968  0.4883 -1.1182  0.2724
 8695SOL    HW137718   3.314   1.069  15.024 -1.2223 -1.0872 -0.7577
 8695SOL    HW237719   3.272   0.950  14.933 -1.7845  0.1894  3.4180
 8696SOL     OW37720   0.319   2.791   2.169 -0.3902  0.0003 -0.1912
 8696SOL    HW137721   0.402   2.793   2.215 -1.1347 -2.0690  1.1917
 8696SOL    HW237722   0.345   2.787   2.077 -0.1483 -2.6336  0.0043
 8697SOL     OW37723   0.984   0.637   7.069  0.0742 -0.2481  0.4973
 8697SOL    HW137724   0.992   0.565   7.006  3.1493  0.6690 -0.1606
 8697SOL    HW237725   1.024   0.704   7.014 -0.7013 -0.2083 -0.0255
 8698SOL     OW37726   3.561   2.308   6.683  0.4798 -0.2552 -0.0708
 8698SOL    HW137727   3.622   2.375   6.652 -0.9029  0.0547 -2.0922
 8698SOL    HW237728   3.486   2.352   6.644  1.7755  1.5306 -0.5642
 8699SOL     OW37729   0.761   2.727  13.845  0.1555 -0.3814 -0.3381
 8699SOL    HW137730   0.741   2.703  13.935 -1.7994  0.8992 -0.4041
 8699SOL    HW237731   0.837   2.672  13.829  1.1230  0.8852 -0.0762
 8700SOL     OW37732   0.478   3.258   5.296 -0.2422  0.4583 -0.3937
 8700SOL    HW137733   0.546   3.289   5.237  1.1283 -0.6765  0.5756
 8700SOL    HW237734   0.450   3.192   5.233 -1.1628  0.1016  0.3714
 8701SOL     OW37735   2.481   0.882  16.307  0.2097  0.1538  0.0574
 8701SOL    HW137736   2.467   0.958  16.250 -1.4106 -0.6672 -0.6364
 8701SOL    HW237737   2.422   0.817  16.269  0.8237 -0.5772  0.3401
 8702SOL     OW37738   2.527   3.961   0.239  0.7473 -0.0169 -0.0224
 8702SOL    HW137739   2.595   3.949   0.304  0.9072 -0.8623 -0.3571
 8702SOL    HW237740   2.524   3.877   0.194 -1.2809  0.0158  0.0588
 8703SOL     OW37741   1.361   3.384   4.891 -0.6866 -0.1462  0.0806
 8703SOL    HW137742   1.386   3.352   4.978 -0.7043  2.9161  1.1891
 8703SOL    HW237743   1.441   3.381   4.838 -0.5283  3.0427  0.1779
 8704SOL     OW37744   2.557   1.400   6.539  0.1649 -0.1156 -0.0394
 8704SOL    HW137745   2.552   1.335   6.469 -3.6976 -0.3011  0.4011
 8704SOL    HW237746   2.611   1.350   6.601  0.7832 -0.1293 -0.5852
 8705SOL     OW37747   2.740   4.682  15.551  0.3954  0.3664 -0.3055
 8705SOL    HW137748   2.717   0.018  15.496  1.1823  0.7217 -0.1505
 8705SOL    HW237749   2.820   4.646  15.511  0.1282  1.1524 -1.5457
 8706SOL     OW37750   1.799   1.249   0.714  0.6408  0.0945  0.0574
 8706SOL    HW137751   1.765   1.338   0.704 -0.6690 -0.4555 -0.4191
 8706SOL    HW237752   1.718   1.198   0.710  0.7357  0.0285 -1.2576
 8707SOL     OW37753   2.253   2.851  13.794 -0.7257  0.1736  0.5492
 8707SOL    HW137754   2.170   2.841  13.746  0.9958  0.4019 -2.4306
 8707SOL    HW237755   2.298   2.768  13.782  2.2603  1.8568  0.0590
 8708SOL     OW37756   2.161   1.549  10.121 -0.0610  0.0311  0.2841
 8708SOL    HW137757   2.200   1.570  10.036 -1.3103 -2.5675 -0.8975
 8708SOL    HW237758   2.182   1.633  10.163 -1.5795  0.4991  0.1072
 8709SOL     OW37759   3.595   1.089  11.818 -0.5615  0.1531 -0.0318
 8709SOL    HW137760   3.601   1.115  11.726 -0.1143  0.6751  0.1436
 8709SOL    HW237761   3.670   1.138  11.852  0.2928 -2.1280  1.3266
 8710SOL     OW37762   0.620   0.086   9.699 -0.1882  0.3987  0.1620
 8710SOL    HW137763   0.648   0.152   9.763 -0.4804  0.7841 -0.1046
 8710SOL    HW237764   0.556   0.142   9.655  0.4428  0.7629 -0.2915
 8711SOL     OW37765   3.274   4.683   7.186 -0.2791 -0.3783  0.2479
 8711SOL    HW137766   3.303   4.643   7.268  1.5025  0.1634 -0.1127
 8711SOL    HW237767   3.203   4.626   7.157 -0.4465  0.9611 -1.9477
 8712SOL     OW37768   0.899   1.409  13.876 -0.2137  0.2927 -0.1869
 8712SOL    HW137769   0.900   1.489  13.823  2.1176  2.1528  2.6552
 8712SOL    HW237770   0.919   1.343  13.810 -1.9396 -0.7636  0.3414
 8713SOL     OW37771   2.884   3.243   6.778  0.4071 -0.2595  0.2468
 8713SOL    HW137772   2.862   3.270   6.867 -1.2480  1.9984 -0.8347
 8713SOL    HW237773   2.978   3.229   6.788  0.8942  0.2063 -3.5988
 8714SOL     OW37774   2.255   1.772   5.105 -0.7723  0.2178 -0.0200
 8714SOL    HW137775   2.296   1.687   5.121 -0.6549  0.1532 -0.6524
 8714SOL    HW237776   2.164   1.740   5.100 -0.2451 -1.3461  0.5505
 8715SOL     OW37777   2.044   0.166   5.294 -0.3068  0.0072 -0.5234
 8715SOL    HW137778   1.999   0.094   5.250 -0.1362 -0.8770  0.7264
 8715SOL    HW237779   1.975   0.166   5.360  0.6306  0.5441  0.4613
 8716SOL     OW37780   1.379   4.518   4.918  0.3926  0.2628  0.2025
 8716SOL    HW137781   1.461   4.483   4.953  0.8853  0.6104 -0.5922
 8716SOL    HW237782   1.308   4.463   4.951  1.1346 -0.7015  0.1935
 8717SOL     OW37783   1.526   0.392  12.017 -0.5234  0.0079  0.6718
 8717SOL    HW137784   1.526   0.430  12.105 -3.1759 -0.1668  0.7424
 8717SOL    HW237785   1.474   0.459  11.973  0.4401  0.3300  0.0135
 8718SOL     OW37786   3.409   1.694   6.670  0.1518  0.4020  0.0634
 8718SOL    HW137787   3.418   1.782   6.705  0.8145 -0.0656  1.0840
 8718SOL    HW237788   3.313   1.692   6.664  0.0942  3.3923  0.0157
 8719SOL     OW37789   4.595   4.154   6.830 -0.3064  0.4292  0.5224
 8719SOL    HW137790   4.678   4.116   6.861  0.4869  2.0443  0.3739
 8719SOL    HW237791   4.609   4.170   6.737 -0.1342 -0.3184  0.4157
 8720SOL     OW37792   4.517   0.252   5.524  0.2042  0.4198  0.0258
 8720SOL    HW137793   4.468   0.328   5.492 -2.1939 -1.1304 -0.0407
 8720SOL    HW237794   4.605   0.289   5.531 -0.4565  1.1888  4.6288
 8721SOL     OW37795   1.269   2.831   5.083  0.4309 -0.5878  0.0137
 8721SOL    HW137796   1.360   2.821   5.056 -0.0189  0.8587 -2.0118
 8721SOL    HW237797   1.241   2.749   5.124 -0.5729  0.6072  1.7325
 8722SOL     OW37798   0.182   4.271   7.206 -0.2440 -0.0538 -0.5321
 8722SOL    HW137799   0.095   4.297   7.236  0.0274  0.2602 -0.0242
 8722SOL    HW237800   0.181   4.175   7.204 -1.0456 -0.0030 -2.4013
 8723SOL     OW37801   4.016   4.068  14.826 -0.2704  0.0563  0.1005
 8723SOL    HW137802   4.056   4.049  14.910 -0.2038  0.0837  0.0754
 8723SOL    HW237803   4.064   4.008  14.768  0.8832  2.0802 -1.0257
 8724SOL     OW37804   1.131   0.269   4.711  0.5907 -0.0850 -0.1982
 8724SOL    HW137805   1.069   0.332   4.674  0.1113 -0.9388 -0.8671
 8724SOL    HW237806   1.073   0.213   4.762 -0.3460  0.6196 -0.4997
 8725SOL     OW37807   2.001   0.827   1.819 -0.5695  0.2286  0.2856
 8725SOL    HW137808   2.020   0.906   1.769 -0.0284 -0.6673 -0.9173
 8725SOL    HW237809   2.081   0.777   1.803 -0.3250  0.0561  2.1050
 8726SOL     OW37810   4.338   1.751   4.614 -0.1123 -0.3769 -0.0266
 8726SOL    HW137811   4.430   1.774   4.598  0.0174  0.0037  1.2818
 8726SOL    HW237812   4.305   1.828   4.661 -1.2620 -0.5850 -0.5064
 8727SOL     OW37813   3.622   4.126   7.447 -0.4627 -0.1510  0.3840
 8727SOL    HW137814   3.603   4.035   7.427 -0.5643 -0.0371 -0.0374
 8727SOL    HW237815   3.699   4.116   7.503 -0.3741 -2.7498 -0.2236
 8728SOL     OW37816   2.997   2.134   8.350 -0.6045 -0.0972 -0.1045
 8728SOL    HW137817   3.006   2.156   8.443 -1.4346  1.3518 -0.3650
 8728SOL    HW237818   2.949   2.051   8.358 -2.3489  0.9276  0.0259
 8729SOL     OW37819   3.896   3.867  17.186 -0.1863 -0.1033 -0.0319
 8729SOL    HW137820   3.882   3.961  17.183 -0.4369 -0.2241 -2.4498
 8729SOL    HW237821   3.882   3.852  17.280  0.5129  0.8763  0.2221
 8730SOL     OW37822   2.004   3.137   0.055  0.3239  0.2243 -0.3523
 8730SOL    HW137823   1.978   3.051   0.088  0.6432  0.7548  1.3043
 8730SOL    HW237824   2.095   3.124   0.028  0.9496  1.5499  1.0915
 8731SOL     OW37825   2.760   3.709   6.793 -0.1932 -0.4241  0.4689
 8731SOL    HW137826   2.747   3.800   6.817  1.7768 -0.6502  2.3618
 8731SOL    HW237827   2.854   3.700   6.810 -0.5514 -3.8726  0.7820
 8732SOL     OW37828   4.334   2.976  10.064 -0.7986  0.3218 -0.3192
 8732SOL    HW137829   4.302   3.046  10.007  3.1216  0.1052 -2.7742
 8732SOL    HW237830   4.265   2.965  10.129 -1.5777  1.7884 -0.8893
 8733SOL     OW37831   1.893   1.916   8.503 -0.1373 -0.1611 -0.2300
 8733SOL    HW137832   1.885   2.009   8.484  3.0435  0.3571  0.9296
 8733SOL    HW237833   1.891   1.911   8.599 -0.6000 -0.4939 -0.2550
 8734SOL     OW37834   2.010   2.296   5.552  0.0225  0.4331 -0.0245
 8734SOL    HW137835   2.096   2.316   5.516 -0.9794  0.9186 -2.1086
 8734SOL    HW237836   2.029   2.241   5.628 -2.4650 -0.3259  0.0525
 8735SOL     OW37837   4.486   3.260   4.118 -0.1825 -0.0186 -0.0427
 8735SOL    HW137838   4.453   3.187   4.064  0.3966  1.0937 -1.8784
 8735SOL    HW237839   4.425   3.330   4.095  1.3820  0.6587 -2.1326
 8736SOL     OW37840   1.898   4.042   1.567 -0.0395  0.6832  0.1663
 8736SOL    HW137841   1.890   3.995   1.650 -1.1751 -0.2385 -0.4737
 8736SOL    HW237842   1.845   3.988   1.508  1.1044 -0.8579  0.5347
 8737SOL     OW37843   2.822   3.364  15.703 -0.2720  0.5236 -0.5634
 8737SOL    HW137844   2.772   3.396  15.778  0.9805 -4.1285  2.2705
 8737SOL    HW237845   2.769   3.375  15.624 -1.4613  0.2415  0.1901
 8738SOL     OW37846   1.639   1.710   1.158 -0.1577  0.5100  0.2657
 8738SOL    HW137847   1.706   1.644   1.171 -1.0698 -0.1184  1.7673
 8738SOL    HW237848   1.663   1.764   1.233  0.4669  0.2354  0.2640
 8739SOL     OW37849   4.440   2.008   4.418 -0.2259  0.3007  0.0139
 8739SOL    HW137850   4.501   1.951   4.464 -0.1280  2.2552  2.2979
 8739SOL    HW237851   4.402   1.953   4.349  0.7737 -0.3170 -0.0391
 8740SOL     OW37852   0.683   3.856  16.821 -0.4234 -0.3553  0.2678
 8740SOL    HW137853   0.608   3.915  16.829 -0.5124 -0.4574  0.1748
 8740SOL    HW237854   0.648   3.773  16.789 -0.9560  0.4418 -1.1890
 8741SOL     OW37855   3.915   3.046   9.156 -0.0015 -0.2611  0.1806
 8741SOL    HW137856   3.888   2.956   9.140  0.2704 -0.5647  1.4710
 8741SOL    HW237857   3.841   3.101   9.131  0.8677  0.4785 -0.7822
 8742SOL     OW37858   1.103   0.001   1.627 -0.4743 -0.0669 -0.1498
 8742SOL    HW137859   1.139   4.653   1.610  2.1246  1.0149 -0.1692
 8742SOL    HW237860   1.061   0.017   1.543 -0.9759  0.2586  0.1572
 8743SOL     OW37861   1.036   0.469   1.121 -0.2082 -0.3410  0.0373
 8743SOL    HW137862   0.964   0.521   1.158 -0.6991 -0.9720 -0.0306
 8743SOL    HW237863   0.978   0.439   1.051  1.4372 -2.2619 -0.4840
 8744SOL     OW37864   4.488   0.341   7.067 -0.1498 -0.0775 -0.7974
 8744SOL    HW137865   4.561   0.402   7.078  0.0484 -0.2849 -0.9740
 8744SOL    HW237866   4.514   0.280   6.998 -1.0587 -1.7124  0.3119
 8745SOL     OW37867   2.965   3.150   2.412  0.4014  0.3615 -0.3069
 8745SOL    HW137868   2.963   3.058   2.435  1.9528  1.1306  2.8415
 8745SOL    HW237869   2.982   3.152   2.317  0.1982 -0.0855 -0.3520
 8746SOL     OW37870   4.285   2.734   2.014  0.0749 -0.2464  0.6321
 8746SOL    HW137871   4.221   2.670   1.983  0.4096 -0.4184  0.3006
 8746SOL    HW237872   4.313   2.689   2.094  0.7590 -1.2630 -0.1918
 8747SOL     OW37873   2.480   0.147   3.563 -0.4349  0.0254  0.0278
 8747SOL    HW137874   2.421   0.081   3.528 -0.5717 -0.2974  0.8665
 8747SOL    HW237875   2.415   0.201   3.610 -0.3061  0.3167 -0.1313
 8748SOL     OW37876   0.276   2.526   9.490  0.3214  0.4371 -0.0160
 8748SOL    HW137877   0.206   2.514   9.426  0.1859 -1.4518  0.4943
 8748SOL    HW237878   0.309   2.437   9.496 -0.5273  0.0792 -0.7090
 8749SOL     OW37879   1.252   2.778   3.563 -0.4639  0.2665  0.3835
 8749SOL    HW137880   1.340   2.741   3.568  1.0065  3.4267 -2.2061
 8749SOL    HW237881   1.241   2.755   3.470 -1.8180  1.0483  0.3529
 8750SOL     OW37882   3.109   2.926   7.658 -0.2110 -0.0901  0.3195
 8750SOL    HW137883   3.098   2.865   7.731  0.1471  0.2956  0.6968
 8750SOL    HW237884   3.138   2.862   7.593 -1.8075 -1.1957  0.6963
 8751SOL     OW37885   2.210   0.071   2.029 -0.0988  0.0108 -0.1635
 8751SOL    HW137886   2.230   0.098   1.939  0.4545 -0.5354 -0.2106
 8751SOL    HW237887   2.296   0.074   2.070 -0.9705  0.2564  1.6429
 8752SOL     OW37888   0.648   1.090  15.496  0.3913  0.0553 -0.1956
 8752SOL    HW137889   0.695   1.154  15.549 -1.5104  1.1090  0.2375
 8752SOL    HW237890   0.598   1.146  15.437 -0.8707 -0.6294  0.2302
 8753SOL     OW37891   0.444   3.515   3.853  0.0805  0.4869  0.1682
 8753SOL    HW137892   0.471   3.480   3.938  1.6971 -2.4520 -1.5519
 8753SOL    HW237893   0.447   3.609   3.872  1.5311  1.1567 -3.4501
 8754SOL     OW37894   4.178   0.761   5.019 -0.2177 -0.1434 -0.0516
 8754SOL    HW137895   4.244   0.720   4.963 -0.3100  1.1855 -1.1483
 8754SOL    HW237896   4.093   0.743   4.979  0.5074 -2.1681 -0.6652
 8755SOL     OW37897   2.393   3.306  15.339  0.2109  0.4430  0.0045
 8755SOL    HW137898   2.432   3.258  15.413 -1.1674  1.4018  1.3564
 8755SOL    HW237899   2.315   3.251  15.332 -1.0594  1.9040  2.7629
 8756SOL     OW37900   1.831   0.270  13.088  0.3651 -0.2668 -0.3164
 8756SOL    HW137901   1.833   0.365  13.074  0.9045  0.0310  1.7044
 8756SOL    HW237902   1.819   0.249  12.996 -0.8853 -2.0755  0.2585
 8757SOL     OW37903   3.905   3.860   7.978  0.5771 -0.0753 -0.1170
 8757SOL    HW137904   3.929   3.946   8.012  1.6345 -0.2309 -0.4739
 8757SOL    HW237905   3.969   3.854   7.906  1.2708 -0.7569  0.5470
 8758SOL     OW37906   4.445   3.887  10.717 -0.3214  0.0776 -0.0700
 8758SOL    HW137907   4.391   3.903  10.795  0.7274  1.7595  0.3289
 8758SOL    HW237908   4.533   3.896  10.755 -0.2440 -0.8429 -0.0178
 8759SOL     OW37909   0.239   1.710  15.551 -0.7727 -0.4888 -0.7337
 8759SOL    HW137910   0.284   1.760  15.619 -0.3454 -3.7088  1.3011
 8759SOL    HW237911   0.157   1.760  15.548  0.0088  0.9520  1.8603
 8760SOL     OW37912   3.950   1.521  17.424 -0.1551 -0.5569 -0.3004
 8760SOL    HW137913   3.895   1.562  17.490  0.5943 -3.1931  1.9677
 8760SOL    HW237914   3.999   1.456  17.475 -0.7736  0.0163  1.0225
 8761SOL     OW37915   2.572   0.731   2.856  0.6663 -0.4010 -0.3988
 8761SOL    HW137916   2.613   0.698   2.936 -0.1244  0.2878  0.2813
 8761SOL    HW237917   2.612   0.677   2.788  0.6629  3.1677 -3.2513
 8762SOL     OW37918   2.163   3.253  12.707  0.1254  0.4625  0.2428
 8762SOL    HW137919   2.121   3.183  12.657  5.5484 -2.7838  0.2856
 8762SOL    HW237920   2.087   3.258  12.766  1.9294  1.1126  2.4879
 8763SOL     OW37921   1.153   4.489   7.033  0.4609 -0.2169  0.3168
 8763SOL    HW137922   1.205   4.442   6.967  3.9170  1.6915  1.7064
 8763SOL    HW237923   1.093   4.427   7.075 -2.5134  1.8820 -0.8578
 8764SOL     OW37924   1.049   3.276   2.927 -0.2796 -0.1989  0.5964
 8764SOL    HW137925   1.090   3.193   2.950  1.8921  0.7082  0.0048
 8764SOL    HW237926   1.128   3.318   2.892  0.5180 -1.3778  0.9838
 8765SOL     OW37927   3.575   3.876   6.239 -0.5188 -0.2853  0.0736
 8765SOL    HW137928   3.611   3.941   6.178 -0.9347  0.5258  0.6799
 8765SOL    HW237929   3.509   3.934   6.279 -1.0697 -0.4472 -0.6061
 8766SOL     OW37930   0.802   3.410   9.569  0.0742 -0.4376 -0.0764
 8766SOL    HW137931   0.829   3.373   9.485  1.1932 -0.6602  0.3893
 8766SOL    HW237932   0.710   3.382   9.574  0.7114 -2.4970  0.0883
 8767SOL     OW37933   3.587   1.661   5.728 -0.4537 -0.0126  0.1361
 8767SOL    HW137934   3.633   1.645   5.811  0.3191  1.7074  0.0293
 8767SOL    HW237935   3.659   1.677   5.667 -2.0712  1.4054 -1.3884
 8768SOL     OW37936   1.671   4.158   9.079 -0.2471  0.3288  0.3121
 8768SOL    HW137937   1.609   4.085   9.072 -0.2645  0.2982  0.7839
 8768SOL    HW237938   1.626   4.213   9.143  0.1591  0.9791  0.0412
 8769SOL     OW37939   4.021   1.261   6.263 -0.9624  0.2764 -0.4564
 8769SOL    HW137940   3.943   1.295   6.306 -1.9056 -0.8832 -1.2417
 8769SOL    HW237941   3.977   1.189   6.219  0.2564 -0.6787 -0.1073
 8770SOL     OW37942   0.464   2.174  11.894  0.3606  0.0877 -0.5439
 8770SOL    HW137943   0.454   2.082  11.920  1.3400  0.7362  2.1531
 8770SOL    HW237944   0.391   2.178  11.833 -0.4357  1.5162  0.4972
 8771SOL     OW37945   1.528   1.494   5.101 -0.2631 -0.6414  0.7332
 8771SOL    HW137946   1.587   1.419   5.101  0.6212  0.0503  1.4200
 8771SOL    HW237947   1.549   1.531   5.015  0.6921  0.6619  1.5269
 8772SOL     OW37948   1.840   2.698   7.338  0.1170  0.1378  0.0709
 8772SOL    HW137949   1.909   2.735   7.283  0.8800 -2.4904 -0.7744
 8772SOL    HW237950   1.875   2.720   7.424  1.1571 -0.2421 -0.2547
 8773SOL     OW37951   3.628   3.541  15.305  0.1667  0.6834  0.3516
 8773SOL    HW137952   3.635   3.574  15.395  3.6763  1.1560 -0.1050
 8773SOL    HW237953   3.704   3.581  15.263  0.3349 -2.0178 -1.9072
 8774SOL     OW37954   3.768   1.417  12.987 -0.2041  0.3742  0.4748
 8774SOL    HW137955   3.682   1.429  12.947 -0.7743 -1.7766  1.0749
 8774SOL    HW237956   3.793   1.329  12.960 -1.3268 -0.3073  1.6669
 8775SOL     OW37957   3.140   4.693   6.747  0.3524  0.0415  0.6232
 8775SOL    HW137958   3.158   0.044   6.777  0.3349 -0.0746  0.9762
 8775SOL    HW237959   3.208   4.684   6.680  0.2374  0.0234  0.5098
 8776SOL     OW37960   2.064   2.850  14.719 -0.5414  0.3674  0.3343
 8776SOL    HW137961   2.021   2.772  14.685  0.0213  0.5296 -0.7524
 8776SOL    HW237962   2.154   2.837  14.688 -0.4905  0.2498  0.5338
 8777SOL     OW37963   0.302   3.697   9.453  0.6810  0.4789  1.1058
 8777SOL    HW137964   0.350   3.684   9.535  0.5737 -1.7002  0.8167
 8777SOL    HW237965   0.368   3.735   9.396  0.9478  0.6812  1.5522
 8778SOL     OW37966   0.291   3.822   3.347 -0.6997 -0.3794  0.0450
 8778SOL    HW137967   0.349   3.748   3.336 -1.2947 -0.8209 -0.1358
 8778SOL    HW237968   0.353   3.885   3.384 -0.8737  0.9573 -1.9365
 8779SOL     OW37969   0.245   1.108   6.914  0.3113  0.4836 -0.3896
 8779SOL    HW137970   0.259   1.169   6.986 -1.3858 -0.3861  0.6957
 8779SOL    HW237971   0.216   1.162   6.841 -0.5394  1.0123  0.3393
 8780SOL     OW37972   2.074   1.345  13.186 -0.2286  0.0071  0.0006
 8780SOL    HW137973   2.099   1.295  13.263  2.2067  0.9223 -0.1827
 8780SOL    HW237974   1.979   1.344  13.193 -0.2578 -1.6532 -0.8029
 8781SOL     OW37975   4.001   3.264   5.027 -0.1283  0.2085  0.1606
 8781SOL    HW137976   3.928   3.290   4.971  0.4226 -0.8514 -1.0667
 8781SOL    HW237977   4.061   3.211   4.974 -0.5588  1.0939 -1.2072
 8782SOL     OW37978   0.453   0.654  16.844  0.3872  0.0466  0.2698
 8782SOL    HW137979   0.438   0.682  16.754  3.8572 -0.1592 -0.3958
 8782SOL    HW237980   0.549   0.653  16.845  0.4220  1.9700 -0.8675
 8783SOL     OW37981   1.078   1.705   8.320 -0.6470 -0.6530 -0.5871
 8783SOL    HW137982   1.009   1.708   8.386 -2.2769 -0.1924 -2.2985
 8783SOL    HW237983   1.111   1.615   8.316 -1.4273 -0.8183 -3.0792
 8784SOL     OW37984   3.746   2.242   4.766 -0.1306 -0.0959 -0.0676
 8784SOL    HW137985   3.771   2.192   4.844 -0.1946 -0.9475 -0.5873
 8784SOL    HW237986   3.789   2.200   4.692  0.9109  1.2500 -0.2066
 8785SOL     OW37987   0.980   0.534   8.354  0.2761 -0.1275 -0.1936
 8785SOL    HW137988   0.935   0.531   8.438 -0.7085  0.2854 -0.7057
 8785SOL    HW237989   1.046   0.596   8.384  0.3139 -0.5017  0.5092
 8786SOL     OW37990   2.692   3.616   2.028  0.7304  0.1823 -0.3027
 8786SOL    HW137991   2.600   3.642   2.018  0.9131  0.4840 -1.1570
 8786SOL    HW237992   2.720   3.633   1.938 -1.5303 -0.2577 -1.0805
 8787SOL     OW37993   0.659   1.588   4.143  0.0285  0.6245  0.0288
 8787SOL    HW137994   0.576   1.598   4.096  0.6467 -0.6683 -1.3573
 8787SOL    HW237995   0.690   1.679   4.139 -0.2753  0.7172 -0.2287
 8788SOL     OW37996   3.645   1.982   4.141 -0.0471 -0.0989  0.7100
 8788SOL    HW137997   3.615   2.072   4.146  0.2639  0.1691 -1.8009
 8788SOL    HW237998   3.607   1.956   4.057 -0.1699  0.6462  0.5429
 8789SOL     OW37999   3.398   1.042   0.488 -0.7653 -0.1373 -0.1141
 8789SOL    HW138000   3.459   1.076   0.422 -1.6896 -0.3791 -1.0913
 8789SOL    HW238001   3.415   0.950   0.466  0.4897  0.0668 -0.0115
 8790SOL     OW38002   2.763   1.571   4.448 -0.7956 -0.0382  0.1625
 8790SOL    HW138003   2.712   1.498   4.414 -0.1168 -0.0935 -0.7613
 8790SOL    HW238004   2.853   1.556   4.419 -1.0095 -0.7539 -0.1389
 8791SOL     OW38005   0.830   4.143   1.259 -0.1841 -0.0970 -0.1450
 8791SOL    HW138006   0.757   4.180   1.308 -0.8073 -0.5752 -0.7102
 8791SOL    HW238007   0.864   4.089   1.330  0.3313  2.5959  1.6485
 8792SOL     OW38008   0.032   4.282   5.698  0.2288  0.2794 -0.0659
 8792SOL    HW138009   0.029   4.302   5.792 -1.2128 -2.0647  0.3803
 8792SOL    HW238010   0.011   4.189   5.697  1.7011 -0.0759  0.8456
 8793SOL     OW38011   3.987   1.209   2.028 -0.6841  0.2908 -0.3353
 8793SOL    HW138012   4.069   1.232   2.071 -0.3050 -0.3531 -0.7176
 8793SOL    HW238013   3.981   1.262   1.948  1.7826  0.7104 -0.2354
 8794SOL     OW38014   1.315   0.659  13.773  0.1612 -0.3215  0.5241
 8794SOL    HW138015   1.271   0.607  13.705  0.6826  0.7324 -0.6144
 8794SOL    HW238016   1.409   0.655  13.754 -0.1770  0.2018 -1.2524
 8795SOL     OW38017   2.327   0.608   5.934 -0.6105 -0.3464  0.3696
 8795SOL    HW138018   2.310   0.603   5.840  1.1678  3.2366 -0.1630
 8795SOL    HW238019   2.391   0.537   5.938  0.0106  0.1948  0.0572
 8796SOL     OW38020   2.932   0.827   6.021  0.0509  0.1876 -0.2920
 8796SOL    HW138021   2.940   0.742   5.976 -0.4271 -1.0052  1.8616
 8796SOL    HW238022   2.976   0.803   6.102 -1.3011  1.3729  0.7856
 8797SOL     OW38023   0.920   0.781  14.725  0.5420 -0.3823  0.0231
 8797SOL    HW138024   0.929   0.870  14.758 -2.6557  0.2892 -0.8709
 8797SOL    HW238025   0.956   0.777  14.637 -0.8168 -1.4251 -0.5034
 8798SOL     OW38026   1.247   3.880   4.458  0.0694  0.1856  0.4322
 8798SOL    HW138027   1.157   3.914   4.453 -0.7274 -2.1318 -0.5794
 8798SOL    HW238028   1.286   3.888   4.371 -1.2253  0.5812 -0.1145
 8799SOL     OW38029   0.750   3.957   8.547 -0.7305  0.2891  0.3457
 8799SOL    HW138030   0.812   3.957   8.620  0.4937  1.6170 -0.6834
 8799SOL    HW238031   0.734   4.052   8.543 -1.4441  0.0869 -1.3834
 8800SOL     OW38032   2.241   1.515   8.678 -0.4076  0.4848 -0.1679
 8800SOL    HW138033   2.201   1.596   8.646  0.3662  1.4026  1.2232
 8800SOL    HW238034   2.160   1.471   8.704  0.8889 -0.6929  1.8802
 8801SOL     OW38035   4.262   4.681   4.897  0.0890  0.1217 -0.9039
 8801SOL    HW138036   4.300   4.717   4.817 -0.9124 -1.1432 -1.9385
 8801SOL    HW238037   4.282   4.737   4.972 -1.8948 -2.6596  1.7001
 8802SOL     OW38038   4.326   0.788   9.756  0.7079  0.3688 -0.0192
 8802SOL    HW138039   4.306   0.852   9.824  0.5703 -0.4022  0.6562
 8802SOL    HW238040   4.237   0.765   9.730  0.5790 -0.4337  1.1324
 8803SOL     OW38041   0.987   2.515   1.503  0.2341  0.1435  0.1825
 8803SOL    HW138042   1.072   2.501   1.462 -1.0751  0.8078 -2.7375
 8803SOL    HW238043   0.932   2.550   1.433 -1.5624 -1.1684  0.9352
 8804SOL     OW38044   4.079   0.366   5.279  0.0459 -0.1147  0.2094
 8804SOL    HW138045   4.088   0.372   5.184 -0.1702  0.9767  0.2596
 8804SOL    HW238046   4.120   0.449   5.304 -0.8041  0.2355  0.4625
 8805SOL     OW38047   4.324   4.255   6.384  0.4673  0.2324  0.0413
 8805SOL    HW138048   4.385   4.320   6.418  1.3831  0.3149 -1.7245
 8805SOL    HW238049   4.358   4.171   6.413 -1.8841  0.0616  2.2609
 8806SOL     OW38050   3.311   0.523   3.283  0.2259 -0.0314  0.2630
 8806SOL    HW138051   3.350   0.451   3.232  0.6464 -1.1899  2.2244
 8806SOL    HW238052   3.254   0.475   3.343 -0.2278 -1.0262 -0.9584
 8807SOL     OW38053   4.383   0.708   5.884  0.4346 -0.5763 -0.5820
 8807SOL    HW138054   4.404   0.627   5.837  1.1157 -0.5148 -0.3762
 8807SOL    HW238055   4.435   0.776   5.841 -0.6454  0.6338  0.0370
 8808SOL     OW38056   2.777   0.620   1.631  0.0204 -0.2016  0.3520
 8808SOL    HW138057   2.751   0.693   1.574 -0.6247  1.9747  3.3956
 8808SOL    HW238058   2.824   0.572   1.563 -1.1754  0.4817 -0.9790
 8809SOL     OW38059   0.621   4.734   6.388  0.4914  0.2915  0.7666
 8809SOL    HW138060   0.552   0.006   6.322  1.9260 -0.5145 -0.8702
 8809SOL    HW238061   0.569   4.708   6.464  1.6120 -0.7469  1.1703
 8810SOL     OW38062   3.852   3.309   2.755 -0.2858  1.0047  0.0908
 8810SOL    HW138063   3.825   3.218   2.745  2.5553 -0.0877  2.2223
 8810SOL    HW238064   3.942   3.297   2.786 -1.0344 -0.6498  1.6369
 8811SOL     OW38065   0.610   2.085   6.348  0.5401  0.0657  0.1582
 8811SOL    HW138066   0.672   2.151   6.317  0.9116 -0.8639 -1.0724
 8811SOL    HW238067   0.575   2.128   6.426  2.2837 -0.7674  1.4085
 8812SOL     OW38068   3.765   3.643   4.759  0.2549  0.1019  0.1917
 8812SOL    HW138069   3.774   3.728   4.801  1.5056 -0.3692  0.8751
 8812SOL    HW238070   3.702   3.607   4.822  0.2800  1.2336  0.8585
 8813SOL     OW38071   1.252   3.219   3.463  0.1657  0.7751 -0.4086
 8813SOL    HW138072   1.244   3.135   3.510  0.0073  0.0743 -1.6916
 8813SOL    HW238073   1.229   3.188   3.375 -0.9466 -1.8932  0.7992
 8814SOL     OW38074   3.549   3.928   2.449  0.2592  0.1011 -0.4537
 8814SOL    HW138075   3.615   3.870   2.410 -0.9660 -2.3374  1.1099
 8814SOL    HW238076   3.475   3.913   2.391 -0.3656  2.0579 -0.1665
 8815SOL     OW38077   3.441   0.629  12.643 -0.1954 -0.4164 -0.7206
 8815SOL    HW138078   3.425   0.538  12.669  1.6493 -1.0419 -1.7582
 8815SOL    HW238079   3.525   0.613  12.601  0.0440  1.8774 -1.1195
 8816SOL     OW38080   3.401   2.002  17.714  0.1690 -0.0381  0.5018
 8816SOL    HW138081   3.396   2.083   0.011 -0.3178 -0.4446  1.1174
 8816SOL    HW238082   3.333   2.021  17.649  0.3205  1.0746  0.6727
 8817SOL     OW38083   4.625   0.836   4.431  0.2593  0.0013 -0.3122
 8817SOL    HW138084   4.696   0.840   4.367 -0.2424 -0.0934 -0.8681
 8817SOL    HW238085   4.545   0.865   4.389  0.6227  0.3184 -0.7824
 8818SOL     OW38086   3.309   1.199   6.743  0.1533  0.3005 -0.4958
 8818SOL    HW138087   3.334   1.246   6.663  0.8163 -0.4296 -0.7169
 8818SOL    HW238088   3.371   1.222   6.812 -0.1317  0.5034 -0.3090
 8819SOL     OW38089   0.921   3.977   6.716  0.1466 -0.0846 -0.0176
 8819SOL    HW138090   1.012   3.948   6.707  0.9395  1.8206  1.7795
 8819SOL    HW238091   0.930   4.058   6.665  0.9185  0.8936  1.6528
 8820SOL     OW38092   1.263   0.584   0.949  0.4023 -0.8457  0.6587
 8820SOL    HW138093   1.176   0.563   0.982  0.8815  0.9691  3.0744
 8820SOL    HW238094   1.294   0.650   1.011 -3.1555 -0.1594  1.6862
 8821SOL     OW38095   1.440   0.648  10.160  0.3668  0.4801  0.2240
 8821SOL    HW138096   1.430   0.688  10.074 -0.5858 -0.2298  0.0040
 8821SOL    HW238097   1.469   0.718  10.220  1.8602  0.4185 -0.4509
 8822SOL     OW38098   0.697   0.263   5.371  0.5735  0.1849 -0.7343
 8822SOL    HW138099   0.786   0.291   5.392  0.8088 -0.8065 -0.4462
 8822SOL    HW238100   0.673   0.212   5.448 -1.8402  0.1534 -1.5061
 8823SOL     OW38101   3.386   1.386   1.953  0.2370  0.8193 -0.1745
 8823SOL    HW138102   3.371   1.477   1.931  0.1432  0.5956 -1.0459
 8823SOL    HW238103   3.328   1.384   2.029  0.3550 -0.8769 -0.1087
 8824SOL     OW38104   1.555   3.848   6.045  0.0213 -0.3214 -0.2165
 8824SOL    HW138105   1.552   3.925   5.989  1.8552  0.5065  0.8505
 8824SOL    HW238106   1.610   3.890   6.111  0.7451 -1.5098 -0.0536
 8825SOL     OW38107   2.708   3.070   7.405  0.0273 -0.2551  0.7594
 8825SOL    HW138108   2.780   3.078   7.468  0.6540 -1.4949  0.2011
 8825SOL    HW238109   2.748   3.008   7.344 -0.1759  0.8458 -0.5035
 8826SOL     OW38110   1.518   4.429   7.020 -0.0399  0.0817 -0.1982
 8826SOL    HW138111   1.441   4.421   6.964  0.5939  1.0913 -1.2204
 8826SOL    HW238112   1.489   4.381   7.098 -2.6695 -0.0908 -1.2874
 8827SOL     OW38113   2.400   3.377   6.371 -0.2718 -0.1796  0.1948
 8827SOL    HW138114   2.429   3.345   6.286 -0.6100  0.8894 -0.3280
 8827SOL    HW238115   2.382   3.464   6.336 -0.8709  0.0202  1.0019
 8828SOL     OW38116   1.189   1.093   4.585 -0.2231 -0.2409 -0.4059
 8828SOL    HW138117   1.135   1.020   4.617  1.1026 -1.1374 -0.2129
 8828SOL    HW238118   1.278   1.060   4.597  0.2568  0.9784 -0.7266
 8829SOL     OW38119   0.954   0.479   5.085  0.4753 -0.4089  0.8238
 8829SOL    HW138120   0.905   0.550   5.045  0.7969 -0.3092  0.6022
 8829SOL    HW238121   0.914   0.399   5.052 -0.3345 -0.8269  2.8276
 8830SOL     OW38122   3.378   2.818  15.732 -0.1786  0.2039  0.1590
 8830SOL    HW138123   3.324   2.897  15.738  0.1177  0.3951  0.3082
 8830SOL    HW238124   3.375   2.791  15.641  0.6028  0.0900  0.1730
 8831SOL     OW38125   0.837   0.004   6.765 -0.0406  0.8341  0.0009
 8831SOL    HW138126   0.865   0.005   6.856 -0.0850  0.5140  0.0197
 8831SOL    HW238127   0.762   0.063   6.773  0.4550  1.5499 -0.6289
 8832SOL     OW38128   0.390   0.779   6.883 -0.1208 -1.1162 -0.1793
 8832SOL    HW138129   0.332   0.703   6.883 -3.3044  1.2938 -0.8332
 8832SOL    HW238130   0.406   0.795   6.976 -0.4565  1.4081 -0.5514
 8833SOL     OW38131   4.456   4.043   2.116 -0.0530  0.1632  0.3150
 8833SOL    HW138132   4.478   4.004   2.032  1.9982 -0.1766  1.0052
 8833SOL    HW238133   4.466   4.132   2.083 -0.7386  0.1333  0.0292
 8834SOL     OW38134   2.132   2.406   2.712  0.1212  0.3292 -0.3331
 8834SOL    HW138135   2.191   2.481   2.711 -0.1021  0.5192  0.5893
 8834SOL    HW238136   2.117   2.408   2.618  1.5987  0.0757 -0.5707
 8835SOL     OW38137   4.659   4.714   9.222 -0.5097 -0.3147 -0.2638
 8835SOL    HW138138   0.003   0.006   9.185 -0.1682  1.6347  2.1099
 8835SOL    HW238139   4.586   0.021   9.181  0.0923  3.1629  2.5400
 8836SOL     OW38140   2.196   3.287   3.158 -0.4058 -0.4343 -0.4366
 8836SOL    HW138141   2.175   3.288   3.252 -2.0000 -2.4910 -0.7894
 8836SOL    HW238142   2.115   3.323   3.123  1.3814  0.1403 -3.9793
 8837SOL     OW38143   0.936   3.495   8.652 -0.2477  0.3013  0.1507
 8837SOL    HW138144   0.919   3.590   8.652  0.3572  0.4125  1.1671
 8837SOL    HW238145   0.853   3.462   8.685 -0.4300  1.1146  0.5145
 8838SOL     OW38146   0.882   1.485   1.462  0.1612 -1.1405  0.2218
 8838SOL    HW138147   0.888   1.577   1.489 -0.1092 -0.7984 -0.8544
 8838SOL    HW238148   0.922   1.499   1.376 -1.8067  0.0974 -0.5088
 8839SOL     OW38149   2.320   2.212   8.888 -0.1957 -0.0794  0.3648
 8839SOL    HW138150   2.291   2.172   8.970 -0.4088 -0.6625 -0.0015
 8839SOL    HW238151   2.392   2.269   8.914  0.8443 -1.5003  0.5969
 8840SOL     OW38152   1.278   0.466   2.371 -0.5337 -0.1162  0.5240
 8840SOL    HW138153   1.325   0.548   2.362 -1.0680 -0.2007 -2.7463
 8840SOL    HW238154   1.287   0.438   2.280 -4.1881 -1.2900  0.5136
 8841SOL     OW38155   2.103   1.564   6.539 -0.0754  0.4319 -0.1247
 8841SOL    HW138156   2.089   1.655   6.565  1.9120  0.7681 -0.1755
 8841SOL    HW238157   2.015   1.529   6.551 -0.4618  0.5272 -2.6227
 8842SOL     OW38158   4.236   2.481   3.312 -0.3301 -0.2525 -0.2163
 8842SOL    HW138159   4.294   2.523   3.376 -2.2024 -0.3318  1.4943
 8842SOL    HW238160   4.242   2.550   3.245 -0.2632 -1.0290 -1.0064
 8843SOL     OW38161   0.544   3.499  15.618 -0.5975  0.5354 -0.1144
 8843SOL    HW138162   0.584   3.580  15.588  0.0237  0.7360  1.2145
 8843SOL    HW238163   0.463   3.511  15.568  0.5507  1.3169 -1.7618
 8844SOL     OW38164   3.596   0.925   6.599 -0.1071  0.2102 -0.0067
 8844SOL    HW138165   3.623   0.835   6.613 -0.4673  0.3981  1.9538
 8844SOL    HW238166   3.681   0.966   6.580  0.4923 -0.7991  0.4897
 8845SOL     OW38167   4.724   4.358   2.948  0.1559  0.0732  0.2821
 8845SOL    HW138168   4.724   4.366   2.852  0.5087 -0.6200  0.2263
 8845SOL    HW238169   0.054   4.421   2.969 -2.2314  3.3504 -1.6959
 8846SOL     OW38170   1.870   0.832   2.510 -0.2220 -1.0702  0.1738
 8846SOL    HW138171   1.777   0.807   2.512 -0.8876  1.1930 -3.1755
 8846SOL    HW238172   1.868   0.927   2.501 -1.3296 -1.0299  0.7913
 8847SOL     OW38173   2.225   4.290   9.801 -0.1394 -0.3568  0.2581
 8847SOL    HW138174   2.270   4.206   9.796 -1.9924 -1.3553  0.3382
 8847SOL    HW238175   2.179   4.279   9.884 -0.7134 -2.2624 -0.2983
 8848SOL     OW38176   0.355   0.863  16.015  0.2694  0.3947  0.2420
 8848SOL    HW138177   0.346   0.912  15.933 -1.9021  0.4990  0.5421
 8848SOL    HW238178   0.350   0.930  16.084  1.8706  1.8835 -1.0731
 8849SOL     OW38179   1.192   3.995   6.677  0.2853  0.0459  0.6306
 8849SOL    HW138180   1.254   4.027   6.611 -0.0334 -3.9061 -1.6231
 8849SOL    HW238181   1.248   4.006   6.753  1.7848  1.7299 -0.7260
 8850SOL     OW38182   0.398   0.828  12.918  0.0919  0.1733  0.0266
 8850SOL    HW138183   0.458   0.887  12.873 -0.5253 -0.8395 -2.0917
 8850SOL    HW238184   0.332   0.893  12.896 -0.8105 -0.2722  1.4185
 8851SOL     OW38185   2.346   4.190   0.287  0.0705 -0.2728  0.3499
 8851SOL    HW138186   2.336   4.162   0.378 -0.1435  1.0317  0.7252
 8851SOL    HW238187   2.400   4.120   0.250 -0.9944 -1.3149  0.7681
 8852SOL     OW38188   0.354   1.502   3.909  0.6565  0.4915  0.3416
 8852SOL    HW138189   0.419   1.438   3.939  0.4758  0.2291  0.1669
 8852SOL    HW238190   0.353   1.567   3.980  0.1900 -1.5902  2.2534
 8853SOL     OW38191   4.731   3.985   7.220 -0.5763  0.5205 -0.3300
 8853SOL    HW138192   4.684   4.036   7.287  0.2290  2.6488 -1.3703
 8853SOL    HW238193   0.017   3.908   7.271  0.0776 -0.6913 -2.5092
 8854SOL     OW38194   3.530   4.211   4.527  0.1944  0.2544  0.1728
 8854SOL    HW138195   3.607   4.163   4.495  0.2380 -0.2083  0.9617
 8854SOL    HW238196   3.572   4.296   4.539  1.2083 -0.1789 -0.2454
 8855SOL     OW38197   0.013   1.408   7.808  0.8931 -0.6374  0.7710
 8855SOL    HW138198   0.087   1.461   7.839  0.3624  0.5922 -0.0808
 8855SOL    HW238199   0.053   1.384   7.724  0.1523  0.8306  0.0138
 8856SOL     OW38200   0.134   0.014   8.263 -0.4451  0.2228 -0.7878
 8856SOL    HW138201   0.090   0.096   8.288 -2.2505 -0.2142 -2.6175
 8856SOL    HW238202   0.186   0.051   8.191 -0.0156 -1.5065 -1.3559
 8857SOL     OW38203   4.438   2.251   7.033 -0.0555  0.6646 -0.0959
 8857SOL    HW138204   4.500   2.178   7.025 -0.9260  0.2762 -3.2703
 8857SOL    HW238205   4.501   2.317   7.003  2.3454 -1.7233 -0.3093
 8858SOL     OW38206   4.032   2.664   5.170  0.4675  0.2358 -0.2099
 8858SOL    HW138207   4.023   2.575   5.204  1.8772 -1.0618 -3.2228
 8858SOL    HW238208   4.054   2.706   5.254 -0.3073 -0.4502  0.3378
 8859SOL     OW38209   0.271   4.720  11.959  0.2407 -0.1683 -0.2084
 8859SOL    HW138210   0.318   4.637  11.966  0.7868  0.2211  0.6640
 8859SOL    HW238211   0.185   4.704  11.918  0.4109  3.2668 -1.9482
 8860SOL     OW38212   4.205   0.058   3.660  0.6360 -0.0104 -0.7774
 8860SOL    HW138213   4.169   0.100   3.582  1.5493  0.1903 -1.0832
 8860SOL    HW238214   4.206   0.130   3.723  1.3151 -0.3048 -0.4553
 8861SOL     OW38215   2.703   0.295   7.850  0.5692 -0.0147  0.6169
 8861SOL    HW138216   2.779   0.351   7.865  1.3245 -1.0294  0.5432
 8861SOL    HW238217   2.687   0.248   7.931 -1.6035  2.1093  1.4344
 8862SOL     OW38218   3.695   4.312   9.601 -0.7262 -0.0462  0.2653
 8862SOL    HW138219   3.646   4.230   9.596  0.6273 -0.8435 -0.1170
 8862SOL    HW238220   3.762   4.288   9.664 -0.7452 -2.2553 -0.5508
 8863SOL     OW38221   1.921   0.760   3.723 -0.0620  0.5702  0.0449
 8863SOL    HW138222   1.830   0.774   3.750 -0.3779  1.6259 -1.5203
 8863SOL    HW238223   1.936   0.666   3.730  1.2438  0.8241  0.5017
 8864SOL     OW38224   0.858   3.683   4.611 -0.3142  0.1850 -0.2796
 8864SOL    HW138225   0.853   3.589   4.628 -1.1373  0.9328  3.5926
 8864SOL    HW238226   0.939   3.692   4.661  0.0671 -0.7344 -0.7286
 8865SOL     OW38227   1.449   4.189  14.831  0.0619 -0.8514 -0.1774
 8865SOL    HW138228   1.453   4.238  14.749 -3.0975  0.3301  0.3933
 8865SOL    HW238229   1.543   4.185  14.848 -0.2317 -2.6998  0.9324
 8866SOL     OW38230   1.862   2.809   6.130 -0.3517  0.3977  0.0123
 8866SOL    HW138231   1.847   2.903   6.141  1.3093  0.6960 -0.3282
 8866SOL    HW238232   1.884   2.779   6.218 -2.8891 -2.5794 -0.3805
 8867SOL     OW38233   3.023   3.481   5.810 -0.5177  0.4051 -0.5996
 8867SOL    HW138234   3.090   3.475   5.878 -0.2981  0.7232 -0.7851
 8867SOL    HW238235   3.026   3.576   5.799  1.6788  0.7243  2.7729
 8868SOL     OW38236   3.678   0.182   8.046  0.7262  0.4977 -0.6594
 8868SOL    HW138237   3.596   0.213   8.007  0.4123  1.9433  1.1430
 8868SOL    HW238238   3.728   0.176   7.965  1.9478  0.3860  0.1104
 8869SOL     OW38239   3.161   3.255   6.761 -0.3409  0.0638  1.0147
 8869SOL    HW138240   3.217   3.311   6.815 -1.0025  0.6174  1.1339
 8869SOL    HW238241   3.208   3.172   6.772 -0.4398 -0.4829 -2.9616
 8870SOL     OW38242   2.875   1.105   2.643  0.0402  0.3085  0.2778
 8870SOL    HW138243   2.912   1.045   2.707  1.2843  0.7830  0.0115
 8870SOL    HW238244   2.954   1.144   2.605  0.6440 -1.1097  0.0872
 8871SOL     OW38245   4.687   0.712   3.614  0.0090 -0.0023 -0.3554
 8871SOL    HW138246   4.738   0.641   3.655 -1.0093 -0.5290 -0.0063
 8871SOL    HW238247   0.010   0.754   3.554 -1.0623  0.0129 -1.4441
 8872SOL     OW38248   4.148   2.925  16.362  0.1837  0.3930  0.0634
 8872SOL    HW138249   4.112   3.000  16.314 -1.7499 -1.0614 -0.7118
 8872SOL    HW238250   4.109   2.855  16.310 -0.2938 -0.7356  1.9496
 8873SOL     OW38251   4.583   1.632   7.772 -0.4903 -0.3158  0.0143
 8873SOL    HW138252   4.503   1.597   7.812 -0.0237 -0.2623  0.9918
 8873SOL    HW238253   4.644   1.573   7.817 -0.5601  0.1577  0.7424
 8874SOL     OW38254   2.527   2.473   8.288 -0.1525 -0.2982  0.6135
 8874SOL    HW138255   2.575   2.468   8.206 -0.6260  2.5883  0.1698
 8874SOL    HW238256   2.582   2.520   8.349  0.8255  0.2300 -0.6839
 8875SOL     OW38257   3.054   0.758   8.859  0.3544 -0.3999  0.0835
 8875SOL    HW138258   2.994   0.829   8.838 -0.4399 -0.8491  0.8292
 8875SOL    HW238259   2.994   0.691   8.893 -1.8599  0.2689 -2.4935
 8876SOL     OW38260   1.978   1.725   5.228  0.3284  0.3485  0.1259
 8876SOL    HW138261   1.971   1.773   5.310  2.5257 -1.0711  1.1691
 8876SOL    HW238262   1.956   1.636   5.256  1.7877  0.2953  1.1119
 8877SOL     OW38263   0.111   2.199   2.014  0.0002  0.4346  0.0247
 8877SOL    HW138264   0.050   2.272   2.026 -1.8981 -1.1234 -0.2039
 8877SOL    HW238265   0.194   2.239   2.041  0.4774 -1.0568  0.7469
 8878SOL     OW38266   0.585   4.688   4.344 -0.4512  0.5646 -0.5056
 8878SOL    HW138267   0.584   4.660   4.436  0.7697 -0.2980 -0.7432
 8878SOL    HW238268   0.560   4.609   4.296 -0.3090 -1.6576  3.0335
 8879SOL     OW38269   3.681   2.459   4.939  0.2482  0.9359 -0.0977
 8879SOL    HW138270   3.688   2.431   4.848 -1.9657 -1.1695  0.3714
 8879SOL    HW238271   3.714   2.380   4.981  0.0800  0.2960 -1.1902
 8880SOL     OW38272   3.604   2.138  11.214 -0.2860 -0.1211 -0.0235
 8880SOL    HW138273   3.522   2.168  11.254  0.8378  1.2522  1.2491
 8880SOL    HW238274   3.630   2.081  11.287  1.5311 -0.1172 -0.6752
 8881SOL     OW38275   0.026   3.927   2.555 -0.4596 -0.0586  0.6983
 8881SOL    HW138276   4.696   3.922   2.489  0.2036 -1.5209  0.1172
 8881SOL    HW238277   0.017   4.018   2.584 -0.4680  0.0216  0.4382
 8882SOL     OW38278   2.419   2.184   1.171 -0.0954  0.3504 -0.3568
 8882SOL    HW138279   2.496   2.136   1.202  0.2136  0.9390 -0.2193
 8882SOL    HW238280   2.373   2.108   1.134 -3.4699  2.3923 -0.3100
 8883SOL     OW38281   3.406   0.019   2.523  0.3038 -0.4789  0.0113
 8883SOL    HW138282   3.492   0.060   2.513 -0.0133 -0.1234 -1.3638
 8883SOL    HW238283   3.380   0.011   2.431 -1.9749  1.0798  0.5395
 8884SOL     OW38284   4.091   2.798  10.841  0.0057  0.4466 -0.6080
 8884SOL    HW138285   4.099   2.794  10.746 -0.4926  1.0734 -0.6763
 8884SOL    HW238286   4.037   2.875  10.860  1.3510  1.7212 -1.9173
 8885SOL     OW38287   0.975   0.571  11.382 -0.2793  0.4858  0.2666
 8885SOL    HW138288   1.032   0.562  11.306 -2.4172 -1.9066 -1.0487
 8885SOL    HW238289   0.890   0.543  11.349 -0.7533  1.0663  0.9908
 8886SOL     OW38290   3.690   2.670   3.488 -0.1951  0.3659  0.3095
 8886SOL    HW138291   3.641   2.616   3.550  0.8226  0.0613  0.8521
 8886SOL    HW238292   3.737   2.724   3.552 -0.4946  1.7121 -0.6244
 8887SOL     OW38293   3.204   0.505   7.842 -0.6850 -0.3251  0.2197
 8887SOL    HW138294   3.240   0.573   7.785 -1.2988 -1.9086 -2.0198
 8887SOL    HW238295   3.281   0.498   7.899 -0.3796  1.1046 -0.0074
 8888SOL     OW38296   2.907   3.326   2.163 -0.6813  0.3132 -0.3841
 8888SOL    HW138297   2.920   3.421   2.166  2.1821 -0.0517 -1.7360
 8888SOL    HW238298   2.812   3.336   2.156 -0.7876 -0.3190  0.1374
 8889SOL     OW38299   3.264   1.323   5.611  0.3703  0.1052  0.1277
 8889SOL    HW138300   3.268   1.358   5.522 -1.8230 -0.8783 -0.3466
 8889SOL    HW238301   3.269   1.404   5.662  2.2011 -0.4800  0.8749
 8890SOL     OW38302   0.024   4.455  17.123  0.0515  0.6616 -0.4509
 8890SOL    HW138303   4.706   4.516  17.077  1.1306  0.1437 -2.4418
 8890SOL    HW238304   0.018   4.482  17.215 -0.1289 -0.5853 -0.0886
 8891SOL     OW38305   2.356   3.487   4.540  0.0693 -0.2929 -0.1099
 8891SOL    HW138306   2.361   3.393   4.553  1.6647  0.2280  3.0463
 8891SOL    HW238307   2.387   3.522   4.624 -1.8205 -1.1284  0.9379
 8892SOL     OW38308   3.965   0.721  11.865 -0.0627 -0.2558 -0.0692
 8892SOL    HW138309   3.960   0.816  11.854  0.2272 -0.2020  0.2351
 8892SOL    HW238310   4.023   0.696  11.793 -3.7430 -1.1784 -2.7220
 8893SOL     OW38311   2.496   2.892  14.981 -0.5138 -0.4925 -0.0054
 8893SOL    HW138312   2.510   2.973  14.932 -1.0277  0.2895  1.1321
 8893SOL    HW238313   2.504   2.938  15.065 -1.3535 -0.1093 -0.1369
 8894SOL     OW38314   0.128   4.686   3.552  0.0675 -0.3023 -0.5122
 8894SOL    HW138315   0.073   4.632   3.609  1.5641 -0.5813  0.6813
 8894SOL    HW238316   0.198   4.711   3.613 -0.9783 -2.1512  1.4336
 8895SOL     OW38317   2.896   3.269   9.476  0.2310 -0.1370 -0.3425
 8895SOL    HW138318   2.928   3.263   9.385  0.6621 -1.2652 -0.1186
 8895SOL    HW238319   2.940   3.348   9.505 -0.7915 -1.3551  4.4229
 8896SOL     OW38320   1.730   2.853   9.333 -0.1091 -0.5881 -0.3386
 8896SOL    HW138321   1.650   2.859   9.281 -1.0922 -0.1140  1.2627
 8896SOL    HW238322   1.764   2.764   9.319 -1.0038 -0.9725 -0.0569
 8897SOL     OW38323   1.700   1.896  11.166  0.0244  0.1623  0.5097
 8897SOL    HW138324   1.765   1.840  11.123 -0.6495 -0.4641  0.3051
 8897SOL    HW238325   1.613   1.858  11.165 -0.6305  1.6342  2.7963
 8898SOL     OW38326   0.358   1.239   8.693  0.1492 -0.2057  0.4453
 8898SOL    HW138327   0.401   1.156   8.671 -0.4946 -0.6666  0.9203
 8898SOL    HW238328   0.370   1.296   8.617  0.0580  0.1220  0.6746
 8899SOL     OW38329   1.690   2.917   4.622 -0.1449 -0.0414  0.2356
 8899SOL    HW138330   1.781   2.946   4.627 -1.0303  3.5527 -3.3687
 8899SOL    HW238331   1.703   2.827   4.650  1.2635 -0.5211 -1.9251
 8900SOL     OW38332   4.289   1.610   4.365  0.3102 -0.1865 -0.3903
 8900SOL    HW138333   4.203   1.569   4.374  0.0143  0.9256  1.8719
 8900SOL    HW238334   4.307   1.646   4.452 -0.5570  0.7910 -0.6250
 8901SOL     OW38335   3.740   1.932   5.761  0.1137  0.0238 -0.0745
 8901SOL    HW138336   3.723   1.894   5.675  0.2113  2.1443 -1.0367
 8901SOL    HW238337   3.657   1.972   5.786 -0.0888 -0.2990 -0.2251
 8902SOL     OW38338   2.643   2.378   7.913 -0.3832 -0.0559 -0.0531
 8902SOL    HW138339   2.689   2.411   7.836 -0.5046  1.1268  0.3685
 8902SOL    HW238340   2.651   2.285   7.893 -0.5968  0.4383 -2.4476
 8903SOL     OW38341   3.219   2.785   7.458  0.1715  0.2006 -0.2461
 8903SOL    HW138342   3.280   2.714   7.479  0.5374  1.1208  1.7647
 8903SOL    HW238343   3.268   2.833   7.391  0.3885 -1.0874 -1.0154
 8904SOL     OW38344   0.526   3.258   8.889  0.4602  0.3641 -0.0646
 8904SOL    HW138345   0.447   3.310   8.896  1.0535  1.3312 -0.6189
 8904SOL    HW238346   0.499   3.170   8.918  2.1219  0.2533  1.1357
 8905SOL     OW38347   3.391   2.690   2.102 -0.0573 -0.5046 -0.1396
 8905SOL    HW138348   3.436   2.739   2.171 -2.1153  0.2616  0.6388
 8905SOL    HW238349   3.353   2.617   2.151 -0.7210 -0.3759 -0.4648
 8906SOL     OW38350   1.474   4.695  14.019  0.0119  0.5007  0.2311
 8906SOL    HW138351   1.541   0.023  14.014 -0.9632  1.5695  1.7509
 8906SOL    HW238352   1.472   4.664  13.928  0.4364  0.2502  0.3093
 8907SOL     OW38353   0.727   1.997  10.446  0.0714 -0.8143  0.2054
 8907SOL    HW138354   0.641   1.956  10.457  0.3105 -1.6385 -0.9523
 8907SOL    HW238355   0.777   1.968  10.522 -0.1637 -1.0551  0.2708
 8908SOL     OW38356   0.230   3.585   4.397 -0.2110  0.1813 -0.5030
 8908SOL    HW138357   0.268   3.548   4.477 -0.8442 -1.5841 -1.0291
 8908SOL    HW238358   0.205   3.675   4.420 -0.1417  0.1048 -0.1316
 8909SOL     OW38359   0.259   1.919   9.405 -0.2189  0.2515 -0.2176
 8909SOL    HW138360   0.260   1.827   9.430 -0.0979 -0.1386 -1.6692
 8909SOL    HW238361   0.350   1.939   9.381 -0.4820  3.1732  1.1637
 8910SOL     OW38362   3.033   1.023   4.848  0.3071 -0.3853  0.2327
 8910SOL    HW138363   3.032   1.043   4.941 -0.2483 -0.1585  0.1794
 8910SOL    HW238364   3.098   0.953   4.848  0.1535 -0.5428 -1.2362
 8911SOL     OW38365   2.912   0.529   7.287  0.0953 -0.2237 -0.5859
 8911SOL    HW138366   2.826   0.498   7.315  0.4038  0.0113  0.5977
 8911SOL    HW238367   2.907   0.624   7.300  0.0308 -0.4037  0.7410
 8912SOL     OW38368   2.995   2.492   8.387  0.2766 -0.0961 -0.0330
 8912SOL    HW138369   3.006   2.421   8.451  0.5193 -0.9253 -0.9856
 8912SOL    HW238370   3.034   2.465   8.304 -3.3495 -1.6218 -1.2180
 8913SOL     OW38371   0.605   1.234   3.890 -0.1137  0.5850 -0.1597
 8913SOL    HW138372   0.571   1.232   3.979  2.1188  0.5303  0.7000
 8913SOL    HW238373   0.692   1.260   3.921  0.5125  0.0779 -1.5007
 8914SOL     OW38374   3.737   3.703   8.886  0.6727 -0.1532 -0.4033
 8914SOL    HW138375   3.682   3.629   8.863  1.0976 -0.1413 -1.4170
 8914SOL    HW238376   3.779   3.687   8.971 -0.3589  0.2170  0.1802
 8915SOL     OW38377   0.902   3.636   5.426 -0.1932 -0.0290  0.0347
 8915SOL    HW138378   0.850   3.608   5.502  0.6778 -0.5720  0.4363
 8915SOL    HW238379   0.866   3.723   5.406  0.3242 -0.2546 -1.8441
 8916SOL     OW38380   2.797   0.249  10.212  0.6269 -0.6625  0.0865
 8916SOL    HW138381   2.890   0.237  10.197  0.4005 -1.2756 -0.8242
 8916SOL    HW238382   2.764   0.171  10.168 -2.9315  2.3407 -2.6011
 8917SOL     OW38383   0.901   3.317   6.778  0.6771 -0.2471  0.5574
 8917SOL    HW138384   0.904   3.338   6.871 -1.6164  2.0737  0.1144
 8917SOL    HW238385   0.830   3.253   6.782 -0.2228  0.7840  1.0347
 8918SOL     OW38386   2.477   3.389   9.383 -0.1852 -0.4791  0.0054
 8918SOL    HW138387   2.496   3.303   9.346  1.5671 -0.9823  2.0790
 8918SOL    HW238388   2.390   3.395   9.343 -0.0782  0.2681 -0.1124
 8919SOL     OW38389   4.004   4.076   9.459 -0.3440 -0.0781 -0.1584
 8919SOL    HW138390   4.019   4.171   9.460  3.0798 -0.6176 -1.8085
 8919SOL    HW238391   4.094   4.045   9.454 -1.0434 -2.0199 -0.7602
 8920SOL     OW38392   3.371   4.174   2.431  0.0365  0.1982 -0.2206
 8920SOL    HW138393   3.339   4.120   2.358  0.8419  0.8234 -1.0321
 8920SOL    HW238394   3.332   4.259   2.412 -1.3495 -0.6008 -0.9567
 8921SOL     OW38395   3.270   4.135   7.187  0.3700 -0.1817 -0.0078
 8921SOL    HW138396   3.218   4.148   7.108  0.0841 -0.6261  0.1053
 8921SOL    HW238397   3.238   4.212   7.234  1.6714 -0.0471  0.6442
 8922SOL     OW38398   0.742   1.013   6.507 -0.0965 -0.2653  0.0100
 8922SOL    HW138399   0.766   1.096   6.467  2.3021 -1.3463 -0.8362
 8922SOL    HW238400   0.742   1.046   6.597 -0.2612  2.5069 -1.0091
 8923SOL     OW38401   2.819   1.999   5.819  0.2368 -0.3272  0.2044
 8923SOL    HW138402   2.750   2.039   5.873  1.2999 -0.9985  2.0850
 8923SOL    HW238403   2.760   1.953   5.759 -0.5856  2.2038 -0.9436
 8924SOL     OW38404   2.816   1.201   1.143  0.1139  0.0250 -0.3001
 8924SOL    HW138405   2.883   1.245   1.091 -0.6279 -0.7600 -1.9320
 8924SOL    HW238406   2.754   1.275   1.144  0.3411  0.2352 -1.4247
 8925SOL     OW38407   4.032   1.541   4.342 -0.6078  0.0057 -0.3563
 8925SOL    HW138408   3.956   1.486   4.321 -0.4968 -0.1806 -0.2712
 8925SOL    HW238409   3.987   1.625   4.333  0.2265  0.6418  1.4037
 8926SOL     OW38410   4.486   1.291   5.802 -0.1659  0.0175  0.5154
 8926SOL    HW138411   4.531   1.310   5.884  0.4855  0.2937  0.0980
 8926SOL    HW238412   4.471   1.196   5.800 -1.1205  0.1276  3.5181
 8927SOL     OW38413   0.922   1.477   2.283 -0.1619  0.0792 -0.3943
 8927SOL    HW138414   0.929   1.414   2.211 -1.3849  1.1955 -1.4859
 8927SOL    HW238415   0.892   1.420   2.354  1.4542 -0.5613 -0.2238
 8928SOL     OW38416   3.625   4.094  14.459 -0.1321 -0.1869  0.3081
 8928SOL    HW138417   3.568   4.036  14.509  1.1853 -2.1155 -0.4015
 8928SOL    HW238418   3.693   4.037  14.422 -0.7095  0.1694 -1.3149
 8929SOL     OW38419   0.037   0.784  17.611 -0.0179  0.0218 -0.1607
 8929SOL    HW138420   0.069   0.871  17.588 -0.4503  0.6382  1.5580
 8929SOL    HW238421   4.733   0.804  17.695 -0.3482 -2.1205  0.1955
 8930SOL     OW38422   2.311   0.080  10.545  0.6460  0.2599 -0.7192
 8930SOL    HW138423   2.297   0.067  10.452 -0.6574  0.3933 -0.5346
 8930SOL    HW238424   2.285   4.736  10.584 -0.3563  0.1879 -1.5787
 8931SOL     OW38425   3.302   2.025   4.269 -0.0519  0.2065 -0.0388
 8931SOL    HW138426   3.249   1.960   4.315  0.9734 -1.8407 -1.7644
 8931SOL    HW238427   3.364   2.045   4.338  1.1463 -1.8724 -0.5108
 8932SOL     OW38428   0.847   4.085  16.008 -0.3852  0.1578  0.3669
 8932SOL    HW138429   0.872   4.177  15.997  0.4809 -0.1377 -0.1970
 8932SOL    HW238430   0.837   4.071  16.102  3.4165 -1.1324  0.5892
 8933SOL     OW38431   0.139   2.968   7.875 -1.0331 -0.7356  0.2437
 8933SOL    HW138432   0.106   2.880   7.890  0.5459 -1.3435  0.1969
 8933SOL    HW238433   0.147   2.996   7.966  0.1502 -0.8621  0.1780
 8934SOL     OW38434   4.460   2.139   7.313 -0.1281 -0.1071 -0.7249
 8934SOL    HW138435   4.480   2.079   7.241 -0.6165 -0.6374 -0.4240
 8934SOL    HW238436   4.547   2.162   7.344 -0.3976  0.3683 -0.3215
 8935SOL     OW38437   1.287   0.334   5.867 -0.1897  0.1151 -0.2209
 8935SOL    HW138438   1.209   0.305   5.914 -1.2052 -0.1537 -2.0876
 8935SOL    HW238439   1.240   0.353   5.786  3.3823  0.4641 -2.2424
 8936SOL     OW38440   1.626   0.266   1.328 -0.0280 -0.9164 -0.3849
 8936SOL    HW138441   1.683   0.193   1.304  0.9596 -0.7649  1.5356
 8936SOL    HW238442   1.634   0.323   1.252 -2.4663  2.2193  1.7088
 8937SOL     OW38443   3.274   0.871   9.233  0.1350 -0.5138  0.2742
 8937SOL    HW138444   3.202   0.931   9.251 -1.5264 -2.6651  0.7549
 8937SOL    HW238445   3.274   0.807   9.304 -0.4733 -2.0561 -1.1388
 8938SOL     OW38446   4.638   2.397  17.367  0.6229 -1.4619  0.1678
 8938SOL    HW138447   4.588   2.479  17.366  2.0408 -0.6234 -1.5728
 8938SOL    HW238448   4.636   2.391  17.462  0.3032  0.6525  0.2818
 8939SOL     OW38449   0.366   0.712   1.493  0.3637  0.1166  0.2637
 8939SOL    HW138450   0.456   0.705   1.462  0.3049 -0.5344  0.2336
 8939SOL    HW238451   0.348   0.804   1.475 -0.2325 -0.5328 -2.3598
 8940SOL     OW38452   1.130   2.568  12.260 -0.3854 -0.3548  0.2497
 8940SOL    HW138453   1.089   2.601  12.180  1.9906  0.0806 -0.8061
 8940SOL    HW238454   1.178   2.645  12.290 -0.8030 -0.4796  1.2096
 8941SOL     OW38455   0.197   1.600   2.612 -0.4544  0.6136 -0.0948
 8941SOL    HW138456   0.157   1.685   2.596  0.7910  1.5873  2.0175
 8941SOL    HW238457   0.289   1.617   2.594 -0.2001 -0.0364  0.5934
 8942SOL     OW38458   3.828   1.058   6.566 -0.0607  0.0266  0.2110
 8942SOL    HW138459   3.826   1.150   6.538 -1.5228  0.3236  1.2978
 8942SOL    HW238460   3.919   1.032   6.549  0.8575  2.1322  1.7370
 8943SOL     OW38461   1.592   1.675  15.971 -0.4486  0.2106 -0.4502
 8943SOL    HW138462   1.613   1.582  15.965  4.0566  1.3195 -1.9702
 8943SOL    HW238463   1.567   1.703  15.882 -1.3443 -2.2905 -0.9879
 8944SOL     OW38464   2.247   0.660   9.980  0.0487 -0.0118  0.4816
 8944SOL    HW138465   2.253   0.666  10.076  2.4427  2.0454  0.2100
 8944SOL    HW238466   2.162   0.703   9.975  0.3493  0.4384 -0.6042
 8945SOL     OW38467   1.727   0.714   1.813  0.1804 -0.4612  0.1740
 8945SOL    HW138468   1.798   0.778   1.823  2.1162 -2.8435  1.6559
 8945SOL    HW238469   1.678   0.752   1.887 -0.1505 -0.2300 -0.1623
 8946SOL     OW38470   4.573   0.683   7.285  0.4638  0.1267  0.2059
 8946SOL    HW138471   4.610   0.761   7.328 -2.3687  0.2572  2.4805
 8946SOL    HW238472   4.542   0.631   7.360 -2.6903  2.8821  0.8472
 8947SOL     OW38473   2.388   3.272  13.561  0.1643 -0.1840  0.4892
 8947SOL    HW138474   2.339   3.354  13.558 -0.0627 -0.4090 -1.8997
 8947SOL    HW238475   2.440   3.285  13.640 -0.8078 -2.0795  1.4330
 8948SOL     OW38476   1.836   1.106   1.843  0.1632 -0.1048  0.1932
 8948SOL    HW138477   1.842   1.102   1.748 -2.3038 -0.3810  0.0571
 8948SOL    HW238478   1.823   1.201   1.849 -1.6728 -0.3638  0.2676
 8949SOL     OW38479   4.391   4.119   3.586  0.0847 -0.0026  0.0430
 8949SOL    HW138480   4.337   4.160   3.519  1.5998 -1.0096 -1.7906
 8949SOL    HW238481   4.332   4.114   3.661 -0.0225  2.9355  0.1667
 8950SOL     OW38482   0.112   1.217   9.936  0.0193 -0.1507  0.7111
 8950SOL    HW138483   0.022   1.207   9.969  0.8508 -2.4331  2.2709
 8950SOL    HW238484   0.138   1.303   9.969  3.3052  0.2422 -2.8958
 8951SOL     OW38485   3.260   1.495   5.385 -0.5685 -0.1769 -0.5122
 8951SOL    HW138486   3.254   1.448   5.302 -1.6405  2.2123 -1.7961
 8951SOL    HW238487   3.196   1.565   5.374 -1.2655 -0.5768  0.9461
 8952SOL     OW38488   3.960   3.954   9.149  0.3306  0.0189 -0.4890
 8952SOL    HW138489   3.889   4.017   9.140  1.2884  1.4819  2.0292
 8952SOL    HW238490   4.028   4.018   9.170 -0.5654  0.8303 -0.0705
 8953SOL     OW38491   2.539   1.090   4.881 -0.1895  0.2880 -0.6305
 8953SOL    HW138492   2.479   1.022   4.913  0.3161  0.3253  0.4134
 8953SOL    HW238493   2.532   1.167   4.937 -0.5325 -1.8153  2.2908
 8954SOL     OW38494   2.379   0.977  14.982 -0.2866 -0.1578 -0.1928
 8954SOL    HW138495   2.410   1.057  14.940 -0.4913 -0.3082 -0.6377
 8954SOL    HW238496   2.348   1.003  15.068  4.5473  0.6431  1.2907
 8955SOL     OW38497   4.390   2.317   5.473 -0.8919 -0.2327 -0.4251
 8955SOL    HW138498   4.317   2.369   5.440  0.7463 -0.4926 -4.4795
 8955SOL    HW238499   4.339   2.276   5.543 -0.0661  1.3124  1.0673
 8956SOL     OW38500   3.241   2.546   4.874 -0.2547  0.2010 -0.5119
 8956SOL    HW138501   3.196   2.587   4.948 -0.1381 -1.0489  0.2486
 8956SOL    HW238502   3.329   2.579   4.894  0.0725 -1.7460  1.2051
 8957SOL     OW38503   3.404   3.592   5.624  0.3566  0.3205 -0.9431
 8957SOL    HW138504   3.360   3.651   5.685 -0.5308 -0.3542 -0.9330
 8957SOL    HW238505   3.345   3.609   5.551  0.3090 -0.3941 -1.0742
 8958SOL     OW38506   4.357   2.122   7.942 -0.5328  0.2665  0.0535
 8958SOL    HW138507   4.364   2.038   7.897 -0.3754 -0.2899  1.0955
 8958SOL    HW238508   4.449   2.148   7.955  0.1241 -0.8747 -2.3052
 8959SOL     OW38509   0.621   4.505  16.515 -0.1162 -0.3573  0.4287
 8959SOL    HW138510   0.703   4.552  16.525  0.0760 -0.7799  0.8479
 8959SOL    HW238511   0.567   4.561  16.570  1.4873  0.7212  0.8788
 8960SOL     OW38512   4.502   1.839   5.281 -0.0825  0.1674 -0.6566
 8960SOL    HW138513   4.540   1.853   5.368 -2.2910  0.5739  0.2185
 8960SOL    HW238514   4.438   1.909   5.274 -0.8480 -0.6658 -2.1877
 8961SOL     OW38515   4.100   2.046   3.417 -0.4890  0.1876 -0.2219
 8961SOL    HW138516   4.143   2.107   3.476 -1.4230 -1.8518  2.5380
 8961SOL    HW238517   4.023   2.024   3.469  0.2834  0.0348  0.8604
 8962SOL     OW38518   2.997   1.707   3.217 -0.4353 -0.3062 -0.4924
 8962SOL    HW138519   3.002   1.680   3.308  2.1752  1.7088 -0.0608
 8962SOL    HW238520   3.051   1.645   3.168 -2.6400 -0.5393 -2.6868
 8963SOL     OW38521   0.556   3.247  12.241  0.5569  0.1238 -0.1594
 8963SOL    HW138522   0.626   3.246  12.176 -0.7246  2.5671 -1.5983
 8963SOL    HW238523   0.565   3.163  12.286  0.5283  0.1050 -0.1894
 8964SOL     OW38524   2.123   1.217   2.923 -0.0231  0.7295 -0.0303
 8964SOL    HW138525   2.203   1.214   2.871 -1.2588  0.0104 -1.8614
 8964SOL    HW238526   2.140   1.293   2.979 -1.7528  0.5654  0.7010
 8965SOL     OW38527   1.781   1.797   1.990 -0.2494  0.1903 -0.3222
 8965SOL    HW138528   1.702   1.834   2.029  0.0613  0.7657 -0.2489
 8965SOL    HW238529   1.739   1.739   1.926 -0.4195 -2.0856  1.8321
 8966SOL     OW38530   1.485   1.651   3.476 -0.2343  0.9109 -0.2370
 8966SOL    HW138531   1.489   1.716   3.406  0.5221  0.1263 -0.9250
 8966SOL    HW238532   1.407   1.610   3.438  0.1070  1.4358 -1.5145
 8967SOL     OW38533   0.524   1.998   3.107 -0.3906 -0.0925  0.0950
 8967SOL    HW138534   0.501   1.939   3.179 -0.6367  1.5547  1.3689
 8967SOL    HW238535   0.438   2.029   3.080 -0.4205 -0.4125 -0.1755
 8968SOL     OW38536   3.706   3.197   4.598 -0.5647 -0.5803 -0.0384
 8968SOL    HW138537   3.647   3.190   4.674 -0.3588  0.0908  0.1886
 8968SOL    HW238538   3.660   3.276   4.567  0.5466 -0.3878 -1.1717
 8969SOL     OW38539   3.591   0.137   7.232  0.0888  0.8893 -0.1295
 8969SOL    HW138540   3.642   0.187   7.168  0.7032  0.8973  0.3550
 8969SOL    HW238541   3.522   0.199   7.257 -1.8855 -0.9454 -1.1024
 8970SOL     OW38542   2.439   2.162   9.251  0.8230 -0.1904 -0.2604
 8970SOL    HW138543   2.368   2.143   9.190 -0.8045 -0.3237  1.6677
 8970SOL    HW238544   2.440   2.257   9.246 -0.8721 -0.2249 -1.4444
 8971SOL     OW38545   3.904   0.594   4.197  0.1999 -0.2131 -0.6764
 8971SOL    HW138546   3.931   0.513   4.238 -0.0568 -0.2624 -0.6032
 8971SOL    HW238547   3.880   0.557   4.112  1.2862  2.3324 -2.1101
 8972SOL     OW38548   1.476   0.238   6.674  0.2413 -0.2804 -0.0611
 8972SOL    HW138549   1.396   0.278   6.709  0.1704 -1.0816  0.6914
 8972SOL    HW238550   1.506   0.310   6.618 -0.3675  1.2390  1.5776
 8973SOL     OW38551   1.555   2.069   5.882 -0.8715  0.0729  0.6596
 8973SOL    HW138552   1.493   2.067   5.809 -0.1000 -1.6034  0.0650
 8973SOL    HW238553   1.515   2.138   5.936 -1.5317  1.7941 -2.0112
 8974SOL     OW38554   3.631   4.711   4.786  0.1686 -0.2928 -0.5228
 8974SOL    HW138555   3.701   4.735   4.847  0.8890 -0.0432 -1.4393
 8974SOL    HW238556   3.638   0.041   4.719  0.3279  1.2687  1.1035
 8975SOL     OW38557   3.352   2.146  15.248  0.1165  0.3471  0.4992
 8975SOL    HW138558   3.259   2.124  15.246  0.6232 -1.6666 -0.0612
 8975SOL    HW238559   3.380   2.098  15.325 -2.2238 -1.0138  0.4955
 8976SOL     OW38560   4.583   1.418  15.349  0.1868 -0.5378 -0.4929
 8976SOL    HW138561   4.561   1.348  15.411  0.8437 -0.6827 -0.4147
 8976SOL    HW238562   4.667   1.448  15.383 -0.4417  1.0793 -0.3949
 8977SOL     OW38563   4.492   3.799   2.742  0.2731 -0.5211 -0.0745
 8977SOL    HW138564   4.584   3.774   2.745  0.6149  0.8355  0.7498
 8977SOL    HW238565   4.500   3.892   2.718  0.7295 -0.1961  1.3625
 8978SOL     OW38566   2.446   1.602   5.667 -0.4778 -0.1679  0.2902
 8978SOL    HW138567   2.414   1.518   5.701 -1.4155 -0.3334 -0.9870
 8978SOL    HW238568   2.363   1.648   5.658  0.7097  2.3480  2.1363
 8979SOL     OW38569   4.152   3.034   6.453  0.1525 -0.1697  0.3084
 8979SOL    HW138570   4.112   3.052   6.368 -0.8233 -0.5463  0.6979
 8979SOL    HW238571   4.243   3.017   6.428  0.0406 -0.4557  0.0969
 8980SOL     OW38572   1.290   0.450   9.783  0.3825  0.0933  0.5666
 8980SOL    HW138573   1.310   0.541   9.808 -0.4385  0.3966  0.1374
 8980SOL    HW238574   1.227   0.463   9.712 -1.1922  0.8045  2.1096
 8981SOL     OW38575   4.037   2.391   5.996 -0.3357  0.1285 -0.2040
 8981SOL    HW138576   4.035   2.451   5.922  1.8560 -1.1832 -1.3430
 8981SOL    HW238577   4.133   2.394   5.991 -0.4871  2.2547 -1.8611
 8982SOL     OW38578   1.208   2.773  10.679 -0.3948 -0.1949  0.0440
 8982SOL    HW138579   1.155   2.820  10.744  0.8314  0.0337  0.8910
 8982SOL    HW238580   1.294   2.815  10.675  0.4739 -1.7044  2.4375
 8983SOL     OW38581   4.017   0.735  12.132  0.1916  0.2628  0.0909
 8983SOL    HW138582   3.933   0.694  12.112  0.6146 -0.1168 -0.9201
 8983SOL    HW238583   4.039   0.755  12.041  0.6877 -1.2383 -0.1300
 8984SOL     OW38584   0.590   1.688   4.745 -0.0242 -0.1594 -0.0550
 8984SOL    HW138585   0.498   1.684   4.718 -0.1565 -0.5473  0.4371
 8984SOL    HW238586   0.607   1.594   4.757 -0.5179  0.1396  3.1577
 8985SOL     OW38587   3.978   1.167  11.021 -0.3274 -0.5330  0.0774
 8985SOL    HW138588   4.027   1.248  11.034  1.1411 -1.3468 -0.4358
 8985SOL    HW238589   3.915   1.193  10.954  0.2987  1.4581  0.2605
 8986SOL     OW38590   0.420   1.889   6.357 -0.3669  0.9181  0.2198
 8986SOL    HW138591   0.480   1.962   6.343  3.3004 -1.9659  1.0125
 8986SOL    HW238592   0.481   1.818   6.336 -2.0046 -0.1129 -1.0962
 8987SOL     OW38593   4.056   1.055   8.028  0.0376  0.3760 -0.0202
 8987SOL    HW138594   3.983   1.115   8.039  0.1202  0.3901  0.4562
 8987SOL    HW238595   4.098   1.108   7.960  0.4271 -1.5178 -1.2576
 8988SOL     OW38596   2.562   2.359  10.574 -0.6023  0.0815 -0.1693
 8988SOL    HW138597   2.632   2.301  10.545 -0.8727 -1.0548  1.4026
 8988SOL    HW238598   2.524   2.392  10.493 -1.9995 -0.1726  0.3764
 8989SOL     OW38599   2.942   0.379   9.628  0.0560 -0.1698  0.0669
 8989SOL    HW138600   2.962   0.373   9.722  0.1387  0.4450  0.0950
 8989SOL    HW238601   2.978   0.296   9.599  0.7412 -0.2475  1.1403
 8990SOL     OW38602   4.426   3.293  17.054 -0.1678  0.0550  0.1627
 8990SOL    HW138603   4.457   3.207  17.027  0.6046 -0.4173  2.5699
 8990SOL    HW238604   4.388   3.271  17.139  0.5955  2.0059  0.9948
 8991SOL     OW38605   1.589   4.305   8.264  0.0095  0.4277 -0.4526
 8991SOL    HW138606   1.541   4.225   8.286 -1.1648  1.2480 -0.0077
 8991SOL    HW238607   1.544   4.371   8.318  0.6096  0.6192 -0.1918
 8992SOL     OW38608   1.036   3.810   7.668  0.1893 -0.5394 -0.4900
 8992SOL    HW138609   1.012   3.733   7.617 -0.4957  0.2819 -1.3950
 8992SOL    HW238610   0.988   3.781   7.746 -2.4637 -0.8131 -2.2347
 8993SOL     OW38611   3.160   3.756   2.302 -0.1213  0.5174  0.0076
 8993SOL    HW138612   3.136   3.716   2.386  0.9943 -1.8853 -0.8147
 8993SOL    HW238613   3.096   3.728   2.235  0.1922 -0.3240  0.0585
 8994SOL     OW38614   0.460   2.851   5.425 -0.0115  0.0268  0.1585
 8994SOL    HW138615   0.509   2.785   5.375 -2.9409  0.5547 -3.4192
 8994SOL    HW238616   0.513   2.927   5.400  2.4440 -1.0245  2.2247
 8995SOL     OW38617   2.383   2.815   7.771 -1.0170 -0.0434 -0.0480
 8995SOL    HW138618   2.464   2.764   7.773 -1.3781 -0.6168 -0.4991
 8995SOL    HW238619   2.356   2.796   7.861  0.2195  2.5334  0.8802
 8996SOL     OW38620   2.440   1.630   1.149  0.1304 -0.3458 -0.2245
 8996SOL    HW138621   2.378   1.563   1.120  1.2228 -2.2601  1.7733
 8996SOL    HW238622   2.401   1.671   1.226  0.0057 -0.9274  0.0246
 8997SOL     OW38623   0.051   0.510   4.287  0.2602 -0.4525 -0.1082
 8997SOL    HW138624   0.056   0.458   4.367  1.8556  0.3943  0.3288
 8997SOL    HW238625   0.119   0.463   4.239 -0.1966 -1.4391  0.1994
 8998SOL     OW38626   3.391   3.609   6.349 -0.4893  0.0065 -0.6293
 8998SOL    HW138627   3.391   3.516   6.328 -2.3423 -0.4312  1.3310
 8998SOL    HW238628   3.466   3.608   6.409 -0.1175  1.0126 -1.0777
 8999SOL     OW38629   0.313   4.514   5.283  0.2017 -0.3114 -0.2738
 8999SOL    HW138630   0.265   4.431   5.281 -1.3486  0.5712  0.7606
 8999SOL    HW238631   0.301   4.537   5.190  1.2070 -1.4051 -0.6788
 9000SOL     OW38632   2.105   4.038  15.565 -0.7230  0.1204 -0.4226
 9000SOL    HW138633   2.098   3.949  15.529 -0.6395  0.5371 -1.4965
 9000SOL    HW238634   2.060   4.023  15.648 -1.0035 -0.5234 -0.6893
 9001SOL     OW38635   4.136   2.108   2.821 -0.8520  0.3178  0.2054
 9001SOL    HW138636   4.188   2.029   2.838  0.2602  1.0945  0.4349
 9001SOL    HW238637   4.069   2.083   2.884 -0.8589 -1.3185 -0.4546
 9002SOL     OW38638   3.751   1.362   9.695  0.0653 -0.4614 -0.5001
 9002SOL    HW138639   3.832   1.313   9.705 -0.6010 -1.0934  1.9533
 9002SOL    HW238640   3.733   1.362   9.601  0.1206  1.5537 -0.5270
 9003SOL     OW38641   2.492   2.639   5.169  0.2314  0.0129 -0.2666
 9003SOL    HW138642   2.574   2.635   5.119  0.3662  2.3086 -0.2388
 9003SOL    HW238643   2.431   2.634   5.096  0.4662  0.6389 -0.5106
 9004SOL     OW38644   0.454   0.820  14.646 -0.1552  0.1579  0.5333
 9004SOL    HW138645   0.417   0.733  14.629 -2.1952  0.7959  1.7573
 9004SOL    HW238646   0.443   0.864  14.561  0.3584 -2.7035 -1.0090
 9005SOL     OW38647   1.351   2.727   6.494  0.4073 -0.3768  0.3544
 9005SOL    HW138648   1.266   2.697   6.528  0.4686 -2.0553 -0.9520
 9005SOL    HW238649   1.415   2.699   6.560  1.2743 -0.7397 -0.6401
 9006SOL     OW38650   1.955   3.299  10.146 -0.1705  0.0029 -0.4653
 9006SOL    HW138651   1.971   3.381  10.192 -3.0208 -0.0508  0.6297
 9006SOL    HW238652   1.867   3.305  10.109 -0.8609  0.6276  1.2860
 9007SOL     OW38653   4.649   1.814  14.496 -0.1307 -0.4701 -0.0014
 9007SOL    HW138654   4.558   1.844  14.501  0.2595  1.1047 -2.4294
 9007SOL    HW238655   4.680   1.855  14.577  1.2213 -1.4037 -0.0395
 9008SOL     OW38656   1.221   1.385  15.582  0.2297  0.1152  0.1875
 9008SOL    HW138657   1.149   1.448  15.578  0.3813  0.3223  0.7050
 9008SOL    HW238658   1.247   1.359  15.494  1.2864 -0.6888  0.7311
 9009SOL     OW38659   0.488   0.486   5.255  0.0326 -0.1254  0.4523
 9009SOL    HW138660   0.504   0.573   5.218 -1.1443  0.5958  1.6389
 9009SOL    HW238661   0.579   0.456   5.267  0.5756  1.4454  0.1872
 9010SOL     OW38662   1.731   0.704   0.070  0.2530 -0.2296  0.0962
 9010SOL    HW138663   1.730   0.624   0.017 -0.1351 -0.4754  0.4728
 9010SOL    HW238664   1.722   0.661   0.155  0.0628  0.9039  0.6462
 9011SOL     OW38665   0.061   2.581   8.592  0.0252  0.1295 -0.1909
 9011SOL    HW138666   0.014   2.630   8.659 -0.7141 -0.0581 -0.5740
 9011SOL    HW238667   4.730   2.530   8.552  0.4433 -0.7339  0.1695
 9012SOL     OW38668   4.068   4.553   4.386 -0.0105 -0.7186  0.1710
 9012SOL    HW138669   3.988   4.557   4.333 -0.1953 -0.9800  0.4329
 9012SOL    HW238670   4.131   4.488   4.355 -0.5711 -1.2093  0.0606
 9013SOL     OW38671   4.426   3.487   7.649  0.1274 -0.3443  0.1649
 9013SOL    HW138672   4.403   3.567   7.695  1.0718 -0.1453  0.2960
 9013SOL    HW238673   4.512   3.478   7.692 -0.3157 -2.4231  0.6276
 9014SOL     OW38674   0.640   3.401  14.118 -0.0401 -0.9801  0.0909
 9014SOL    HW138675   0.708   3.423  14.054 -1.1663  0.7210 -0.5017
 9014SOL    HW238676   0.577   3.463  14.083  1.1119  0.3031  0.2689
 9015SOL     OW38677   2.422   2.268   7.764 -0.0672 -0.1560 -0.4001
 9015SOL    HW138678   2.385   2.355   7.749 -2.0439 -1.2476 -1.7227
 9015SOL    HW238679   2.394   2.208   7.696 -0.2969 -0.2846 -0.1909
 9016SOL     OW38680   4.396   1.869   1.175  0.7154 -0.3692 -0.5581
 9016SOL    HW138681   4.488   1.868   1.148  0.7931  1.4434 -0.3567
 9016SOL    HW238682   4.346   1.878   1.094 -0.5200 -0.9719  0.1239
 9017SOL     OW38683   1.613   2.711  12.798 -0.1271  0.0309  0.0364
 9017SOL    HW138684   1.623   2.634  12.853  1.3736 -0.4596 -0.9380
 9017SOL    HW238685   1.529   2.681  12.761 -0.3639  0.2553  0.3937
 9018SOL     OW38686   3.643   3.855  11.758 -0.2676 -0.1256 -0.0231
 9018SOL    HW138687   3.564   3.868  11.706 -1.2342  0.8190  1.7010
 9018SOL    HW238688   3.639   3.769  11.801 -0.2307  0.3783  0.9855
 9019SOL     OW38689   0.146   3.093  16.398 -0.3611  0.5376  0.0447
 9019SOL    HW138690   0.122   3.001  16.384  0.6043  0.1205  1.0949
 9019SOL    HW238691   0.119   3.108  16.488  0.5789 -0.1013  0.4340
 9020SOL     OW38692   1.649   4.729   8.890 -0.7058 -0.2285 -0.2295
 9020SOL    HW138693   1.608   0.052   8.830 -1.5402 -0.5704 -0.0053
 9020SOL    HW238694   1.730   0.030   8.921  0.1422 -0.8254 -1.6894
 9021SOL     OW38695   4.664   3.042  12.957 -0.4647  0.2585  0.0360
 9021SOL    HW138696   4.673   2.975  13.025  0.2895  1.0444  0.7055
 9021SOL    HW238697   4.721   3.107  12.997  1.2982  0.3232 -2.5529
 9022SOL     OW38698   1.637   0.685   3.850  0.0715 -0.1874 -0.5434
 9022SOL    HW138699   1.617   0.765   3.898 -0.0082  0.1653 -1.1735
 9022SOL    HW238700   1.578   0.621   3.891  2.3387 -0.5918  2.1533
 9023SOL     OW38701   4.363   2.416  15.133  0.2422 -0.0854  0.1573
 9023SOL    HW138702   4.412   2.334  15.124  1.9482  1.1293 -1.7261
 9023SOL    HW238703   4.399   2.450  15.215 -1.0870 -0.1748  0.7744
 9024SOL     OW38704   3.246   4.038   3.289 -0.9553  0.4707  0.0420
 9024SOL    HW138705   3.339   4.014   3.287 -0.5184  2.2490 -0.7241
 9024SOL    HW238706   3.247   4.105   3.221  0.2159  0.0998 -0.3080
 9025SOL     OW38707   1.138   0.089   8.937 -0.3496 -0.2003 -0.0980
 9025SOL    HW138708   1.063   0.036   8.965 -0.4814 -0.7380 -1.4485
 9025SOL    HW238709   1.162   0.132   9.019 -0.8260  0.3315 -0.2351
 9026SOL     OW38710   1.250   2.386   5.210 -0.3849 -0.5442 -0.2000
 9026SOL    HW138711   1.159   2.416   5.215  0.7452  2.8814 -0.2480
 9026SOL    HW238712   1.298   2.465   5.186 -0.9679 -0.6992 -1.9051
 9027SOL     OW38713   2.687   2.199   8.143  0.3086  0.1371 -0.0986
 9027SOL    HW138714   2.717   2.286   8.115  0.4954 -0.5305 -2.0253
 9027SOL    HW238715   2.710   2.193   8.235  0.2776  2.5512  0.0618
 9028SOL     OW38716   3.114   2.412  12.511 -0.5945 -0.0856  0.3469
 9028SOL    HW138717   3.172   2.486  12.490 -0.9555 -0.1899 -1.0445
 9028SOL    HW238718   3.093   2.443  12.599 -1.2772  0.5681 -0.0498
 9029SOL     OW38719   0.935   0.841  16.907 -0.4138 -0.0587 -0.2708
 9029SOL    HW138720   0.901   0.919  16.864  0.3163  0.3389 -0.1309
 9029SOL    HW238721   0.889   0.843  16.991  1.6469 -2.5456  0.9117
 9030SOL     OW38722   1.127   0.963   2.279 -0.0560  0.4913  0.0395
 9030SOL    HW138723   1.158   1.051   2.300 -0.3643  0.1614  1.8348
 9030SOL    HW238724   1.076   0.983   2.200 -0.6563 -3.1967 -0.4806
 9031SOL     OW38725   1.317   4.408   3.666  0.1406 -0.1303 -0.2965
 9031SOL    HW138726   1.281   4.363   3.589 -0.5468  1.8769 -1.1420
 9031SOL    HW238727   1.254   4.478   3.682  0.2744 -0.3214  1.0915
 9032SOL     OW38728   3.139   3.754   7.653 -0.4836 -0.1211  0.0149
 9032SOL    HW138729   3.049   3.737   7.624 -0.5659  0.2682  0.0423
 9032SOL    HW238730   3.159   3.818   7.584  0.8079 -0.8618 -0.3048
 9033SOL     OW38731   3.756   4.619   2.323 -0.4582 -0.5313  0.1723
 9033SOL    HW138732   3.726   4.708   2.342 -1.0663 -0.8524  0.7002
 9033SOL    HW238733   3.673   4.578   2.303 -0.7631  1.2366 -2.2031
 9034SOL     OW38734   2.836   1.502   0.686 -0.3067 -0.4831 -0.0769
 9034SOL    HW138735   2.897   1.505   0.612  0.2751 -3.6504  0.2732
 9034SOL    HW238736   2.847   1.589   0.724  2.3671  0.2465 -2.5041
 9035SOL     OW38737   1.467   2.189   2.809  0.1732  0.1014 -0.4518
 9035SOL    HW138738   1.439   2.261   2.753 -2.5451 -1.3619 -0.9876
 9035SOL    HW238739   1.554   2.226   2.824 -0.4087  0.9465  0.8913
 9036SOL     OW38740   4.191   0.932   6.704 -0.1774 -0.4202 -0.2089
 9036SOL    HW138741   4.238   0.963   6.781 -1.1907 -0.2297  0.3372
 9036SOL    HW238742   4.252   0.865   6.672  2.2697  1.0759  1.3287
 9037SOL     OW38743   1.359   2.021   6.626  0.3491 -0.4837  0.1415
 9037SOL    HW138744   1.321   2.099   6.667  1.5295 -0.1631  0.6331
 9037SOL    HW238745   1.311   1.946   6.660  0.8138 -0.6128  0.4970
 9038SOL     OW38746   0.370   0.583  16.040  0.5595  0.1787 -0.2725
 9038SOL    HW138747   0.373   0.679  16.034 -1.6756  0.1074 -2.7519
 9038SOL    HW238748   0.314   0.558  15.966  0.0348 -0.5865  0.3887
 9039SOL     OW38749   1.955   4.411   7.298 -0.1892  0.4046  0.2200
 9039SOL    HW138750   1.893   4.355   7.251 -0.8890  0.9121  0.5451
 9039SOL    HW238751   1.931   4.401   7.390 -0.3440  2.4177  0.3867
 9040SOL     OW38752   0.385   0.630   4.169 -0.0685  0.0798  0.0705
 9040SOL    HW138753   0.321   0.627   4.098  0.9664  3.3008 -1.0048
 9040SOL    HW238754   0.330   0.643   4.247  2.9286  0.4116  2.1292
 9041SOL     OW38755   0.757   2.463  17.049  0.3780  0.6734 -0.4312
 9041SOL    HW138756   0.815   2.492  17.119  1.5528 -0.4702 -0.9219
 9041SOL    HW238757   0.726   2.546  17.012 -0.6462  0.0160 -1.0601
 9042SOL     OW38758   3.714   1.093   9.072 -0.4083 -0.1908 -0.1047
 9042SOL    HW138759   3.744   1.182   9.050 -0.0277 -0.2336  0.2425
 9042SOL    HW238760   3.654   1.076   8.999 -0.3383 -0.3873 -0.1146
 9043SOL     OW38761   1.633   4.560  11.569 -0.3066  0.1090  0.2489
 9043SOL    HW138762   1.708   4.589  11.621 -0.7099  0.3982  0.6702
 9043SOL    HW238763   1.580   4.526  11.641  0.7343 -0.9174  0.5505
 9044SOL     OW38764   4.035   0.803  14.306 -0.7848  0.1872 -0.4469
 9044SOL    HW138765   4.103   0.802  14.374 -0.7421 -0.6209 -0.5029
 9044SOL    HW238766   3.961   0.761  14.351 -0.7487  1.4404  0.7883
 9045SOL     OW38767   2.308   2.350  15.804  0.1452  0.4538  0.9138
 9045SOL    HW138768   2.272   2.261  15.811  2.9245 -0.7033  0.6904
 9045SOL    HW238769   2.309   2.367  15.710 -1.7848 -0.1830  0.7676
 9046SOL     OW38770   3.344   2.322   9.127  0.5441 -0.3024  0.4067
 9046SOL    HW138771   3.395   2.340   9.048  0.1552 -1.7696 -0.1777
 9046SOL    HW238772   3.352   2.400   9.182 -1.5739 -0.5151  1.0269
 9047SOL     OW38773   1.420   0.471  10.694  0.1562  0.0030  0.1113
 9047SOL    HW138774   1.509   0.498  10.672 -0.1461  1.1641  0.3183
 9047SOL    HW238775   1.401   0.534  10.763  3.9310  1.2791 -0.0277
 9048SOL     OW38776   3.432   3.234  17.154  0.5788  0.3422  0.1378
 9048SOL    HW138777   3.376   3.311  17.140  0.3237 -0.1697 -1.6748
 9048SOL    HW238778   3.470   3.220  17.068  2.5640  3.1135  0.5557
 9049SOL     OW38779   3.308   0.600   2.914  0.3642  0.0008 -0.0192
 9049SOL    HW138780   3.390   0.649   2.919  0.5146 -0.3157  0.5464
 9049SOL    HW238781   3.259   0.651   2.849  0.3248  0.9178  0.7303
 9050SOL     OW38782   1.664   0.529  15.767  0.5293 -0.7132  0.0017
 9050SOL    HW138783   1.640   0.596  15.702 -0.7198  0.1700  1.3811
 9050SOL    HW238784   1.737   0.570  15.813 -1.1618  0.4276  1.6396
 9051SOL     OW38785   1.171   1.653   4.851 -0.1607  0.2067 -0.0747
 9051SOL    HW138786   1.239   1.659   4.784  0.0534 -0.8667  0.0492
 9051SOL    HW238787   1.102   1.596   4.817 -0.0189 -0.8064  1.3770
 9052SOL     OW38788   3.972   2.250   8.225  0.1788  0.0965  0.6604
 9052SOL    HW138789   4.042   2.302   8.265  0.5822  0.3434 -0.3770
 9052SOL    HW238790   3.998   2.252   8.133 -1.0222  0.6162  0.3359
 9053SOL     OW38791   0.362   1.014   9.278 -0.6479 -0.0388  0.2893
 9053SOL    HW138792   0.358   0.991   9.370  0.8476  0.2432  0.4192
 9053SOL    HW238793   0.441   0.965   9.254  0.8317  2.1278  0.7898
 9054SOL     OW38794   4.008   1.295   4.538 -0.4357 -0.5894 -0.1199
 9054SOL    HW138795   3.942   1.324   4.476  1.4598 -0.8665 -2.2442
 9054SOL    HW238796   3.964   1.322   4.619 -0.4329 -0.3442 -0.2030
 9055SOL     OW38797   1.694   2.706   2.579 -0.0599 -0.0491  0.1423
 9055SOL    HW138798   1.738   2.621   2.587 -0.6402 -0.3289  0.4231
 9055SOL    HW238799   1.736   2.758   2.647 -0.4913 -0.1452  0.4841
 9056SOL     OW38800   2.495   2.715  10.918  0.2669  0.2474 -0.0005
 9056SOL    HW138801   2.589   2.732  10.910  0.0849  2.1067  1.7827
 9056SOL    HW238802   2.469   2.693  10.829  0.1665  0.3540  0.0025
 9057SOL     OW38803   1.363   1.695   8.009  0.3328 -0.6034 -0.5602
 9057SOL    HW138804   1.458   1.693   8.000  0.1782 -2.9794 -1.7126
 9057SOL    HW238805   1.360   1.752   8.086  0.5247 -0.0698 -0.9393
 9058SOL     OW38806   2.352   0.235   8.582 -0.1898  0.0553  0.2407
 9058SOL    HW138807   2.328   0.144   8.568  0.8699 -0.1255 -0.3908
 9058SOL    HW238808   2.349   0.248   8.677 -2.1258  0.9128  0.0664
 9059SOL     OW38809   0.500   2.623   1.460  0.6981  0.7044 -0.1788
 9059SOL    HW138810   0.468   2.708   1.429 -0.9173  0.4574  0.7521
 9059SOL    HW238811   0.589   2.622   1.426  1.1478  2.1503  0.9481
 9060SOL     OW38812   2.962   1.727  13.744 -0.6063 -0.2272  0.6724
 9060SOL    HW138813   2.940   1.739  13.836  0.4044  0.7056  0.7867
 9060SOL    HW238814   3.035   1.786  13.728 -0.3456 -0.3792  1.3112
 9061SOL     OW38815   3.606   0.751   9.290 -0.4152  0.4808 -0.2860
 9061SOL    HW138816   3.613   0.846   9.284  1.7662  0.2672 -1.1006
 9061SOL    HW238817   3.631   0.728   9.201  0.2737  0.4323 -0.0810
 9062SOL     OW38818   2.325   2.171   7.011 -0.4468  0.3013 -0.0981
 9062SOL    HW138819   2.332   2.214   6.925 -3.7693  0.3485 -0.3558
 9062SOL    HW238820   2.283   2.241   7.061  0.7397  0.1068  1.1571
 9063SOL     OW38821   3.815   2.533   5.372 -0.0478  0.1534  0.1468
 9063SOL    HW138822   3.862   2.451   5.388 -0.7560 -0.5624 -1.3834
 9063SOL    HW238823   3.824   2.570   5.460 -1.5119 -1.7754  1.1049
 9064SOL     OW38824   4.592   0.296   6.504 -0.1631  0.1622  0.3328
 9064SOL    HW138825   4.677   0.260   6.529 -0.6161 -2.7940 -2.4238
 9064SOL    HW238826   4.546   0.212   6.500 -0.8110  0.6645 -2.7480
 9065SOL     OW38827   3.083   2.242   7.024  0.4244  0.2092 -0.3513
 9065SOL    HW138828   3.134   2.306   7.074  2.0245 -1.6933  0.4337
 9065SOL    HW238829   3.147   2.172   7.022  0.7604  0.5168 -0.4628
 9066SOL     OW38830   4.702   4.100  13.913 -0.7108  0.5300 -0.6332
 9066SOL    HW138831   0.047   4.061  13.936  0.5453  3.0780 -0.9387
 9066SOL    HW238832   4.656   4.088  13.997 -0.5699 -0.3898 -0.6882
 9067SOL     OW38833   0.989   2.578   8.141 -0.2071 -0.2231  0.5987
 9067SOL    HW138834   0.894   2.579   8.127 -0.2556 -0.8428  0.8713
 9067SOL    HW238835   0.991   2.631   8.221 -0.0151  1.8034 -0.7610
 9068SOL     OW38836   3.227   3.229   4.859 -0.1796  0.6098  0.6248
 9068SOL    HW138837   3.228   3.149   4.808 -0.1475  0.4179  0.9263
 9068SOL    HW238838   3.139   3.262   4.842 -0.7826 -1.0908  0.4947
 9069SOL     OW38839   0.267   4.438   0.710  0.2630  0.3554  0.1733
 9069SOL    HW138840   0.226   4.518   0.677  0.2070  0.2104 -0.1174
 9069SOL    HW238841   0.191   4.380   0.700 -0.2246  0.9212  0.6036
 9070SOL     OW38842   3.714   2.879   7.278 -0.3177 -0.0557  0.3839
 9070SOL    HW138843   3.720   2.967   7.241  0.9566 -0.4151 -0.2789
 9070SOL    HW238844   3.791   2.846   7.231 -1.5489 -0.8102 -1.0936
 9071SOL     OW38845   1.188   2.648   6.707  0.1942  0.3968  0.1977
 9071SOL    HW138846   1.265   2.599   6.738 -0.1413  0.9294  1.8570
 9071SOL    HW238847   1.166   2.705   6.780  0.9050 -0.2405  0.9191
 9072SOL     OW38848   1.022   0.799   5.600 -0.1117  0.1917 -0.3176
 9072SOL    HW138849   0.998   0.878   5.648  2.5209  1.0574 -0.4365
 9072SOL    HW238850   1.056   0.743   5.670  0.6368 -0.1280 -0.9420
 9073SOL     OW38851   1.473   2.187   3.847  1.2230  0.1476 -0.4792
 9073SOL    HW138852   1.471   2.193   3.752  0.3933  1.9739 -0.3613
 9073SOL    HW238853   1.382   2.161   3.865  0.5685  0.5593 -3.1789
 9074SOL     OW38854   0.945   0.740  14.455  0.2010 -0.5177  0.5473
 9074SOL    HW138855   0.861   0.695  14.459  0.4038 -1.0507 -1.1367
 9074SOL    HW238856   0.931   0.782  14.371  0.5003  0.4221  0.9659
 9075SOL     OW38857   0.818   0.817   7.158  0.2668  0.1063  0.6579
 9075SOL    HW138858   0.765   0.782   7.230 -1.2500 -0.6785 -0.8430
 9075SOL    HW238859   0.861   0.736   7.131 -0.7493 -0.6438  1.3020
 9076SOL     OW38860   0.907   0.978   0.897  0.0665  0.2638 -0.0800
 9076SOL    HW138861   0.853   0.916   0.847 -0.9501 -0.2519  1.6499
 9076SOL    HW238862   0.845   1.051   0.897 -0.5676 -0.2789  1.4093
 9077SOL     OW38863   4.524   2.309   2.141  0.0182  0.1706 -0.1152
 9077SOL    HW138864   4.457   2.378   2.149  1.3488  1.4648 -0.2289
 9077SOL    HW238865   4.598   2.349   2.096  1.0864 -2.1054 -0.3363
 9078SOL     OW38866   0.412   3.181   2.577  0.0569  0.2614  0.5769
 9078SOL    HW138867   0.338   3.225   2.536 -0.5244  0.9488  2.3380
 9078SOL    HW238868   0.370   3.114   2.630 -0.0173 -0.0880  0.0730
 9079SOL     OW38869   0.081   1.433   5.486 -0.5052  0.2089  0.1359
 9079SOL    HW138870   0.117   1.403   5.569  0.7012 -2.4066 -1.3185
 9079SOL    HW238871   4.725   1.432   5.503 -0.9832 -1.4185 -2.5013
 9080SOL     OW38872   2.405   4.592   4.611 -0.1188 -0.2718  0.2111
 9080SOL    HW138873   2.482   4.570   4.557 -0.3571 -0.1861 -0.1639
 9080SOL    HW238874   2.347   4.635   4.548  1.6429  2.1193  0.2446
 9081SOL     OW38875   3.516   3.998   3.323 -0.8258  0.2148 -0.4211
 9081SOL    HW138876   3.541   3.933   3.258 -1.3725  1.2946 -1.7047
 9081SOL    HW238877   3.583   4.065   3.308 -1.7876  1.1097 -0.6711
 9082SOL     OW38878   0.420   1.581   1.275 -0.2267  0.7083 -0.5993
 9082SOL    HW138879   0.403   1.505   1.219  1.4381  1.5619 -2.2660
 9082SOL    HW238880   0.501   1.543   1.309  0.4478  2.1688 -0.5755
 9083SOL     OW38881   3.911   1.715   9.278  0.0538 -0.9167 -0.1691
 9083SOL    HW138882   3.987   1.768   9.254 -1.4130 -0.2681 -3.3316
 9083SOL    HW238883   3.960   1.636   9.300 -1.2328 -1.6154  0.1806
 9084SOL     OW38884   3.230   3.152   8.681 -0.0533  0.1591 -0.4858
 9084SOL    HW138885   3.264   3.063   8.673  0.4724  0.4400 -1.3641
 9084SOL    HW238886   3.193   3.165   8.593  1.1338  3.3325 -0.4904
 9085SOL     OW38887   0.870   1.900   8.079  0.1269 -0.4942  0.9145
 9085SOL    HW138888   0.818   1.901   7.999  2.4863 -0.5809 -0.6140
 9085SOL    HW238889   0.908   1.812   8.075 -1.7083 -1.1399 -2.0631
 9086SOL     OW38890   1.807   0.443   1.894 -0.1658  0.3013 -0.1862
 9086SOL    HW138891   1.889   0.460   1.941  0.9685 -1.5736 -1.5043
 9086SOL    HW238892   1.784   0.534   1.878  1.0461  0.8381  1.0988
 9087SOL     OW38893   0.875   3.264   3.657 -0.0492 -0.0187  0.7807
 9087SOL    HW138894   0.921   3.343   3.631 -2.1010  1.8255  2.8467
 9087SOL    HW238895   0.910   3.207   3.588 -0.5789  0.2258  0.3071
 9088SOL     OW38896   4.549   3.871   4.459  0.7887  0.1434 -0.2226
 9088SOL    HW138897   4.563   3.798   4.399 -1.5034  1.1003 -1.9313
 9088SOL    HW238898   4.453   3.872   4.454  0.6321  0.9830  3.1737
 9089SOL     OW38899   1.866   1.325   0.067  0.1510  0.1450 -0.1694
 9089SOL    HW138900   1.784   1.278   0.074  1.0439 -1.0869  2.0673
 9089SOL    HW238901   1.908   1.265   0.005  1.1057  0.9822 -0.3453
 9090SOL     OW38902   2.784   1.776   7.048 -0.5527 -0.6482 -0.7410
 9090SOL    HW138903   2.720   1.759   7.117 -0.6184 -1.9680 -1.1322
 9090SOL    HW238904   2.764   1.707   6.986 -1.5906  2.8533 -4.2586
 9091SOL     OW38905   0.024   0.047  11.742 -0.4426 -0.1107  0.1008
 9091SOL    HW138906   0.059   4.699  11.721  0.8173  0.5590 -0.5627
 9091SOL    HW238907   4.674   0.025  11.771 -0.6111 -0.7068 -0.8268
 9092SOL     OW38908   3.812   0.771   5.603 -0.2811 -0.1039  0.0456
 9092SOL    HW138909   3.904   0.747   5.605 -0.5298 -0.8608  2.6941
 9092SOL    HW238910   3.776   0.735   5.684  0.9099  1.0722  1.0908
 9093SOL     OW38911   2.321   4.702   9.444  0.3988  0.1660  0.3258
 9093SOL    HW138912   2.343   4.658   9.526  1.4218  3.0903  1.6323
 9093SOL    HW238913   2.229   4.722   9.462 -0.8666 -4.3963 -1.0184
 9094SOL     OW38914   3.148   2.735   5.934  0.0088 -0.2196 -0.6839
 9094SOL    HW138915   3.077   2.674   5.915 -1.6643  0.7560  2.3551
 9094SOL    HW238916   3.164   2.786   5.855 -1.4502 -0.2301 -0.9780
 9095SOL     OW38917   1.632   2.492   2.068 -0.5276  0.3126 -0.2490
 9095SOL    HW138918   1.584   2.533   1.996 -2.8138  0.0751  1.1528
 9095SOL    HW238919   1.607   2.543   2.145 -0.5204  2.2850 -1.5484
 9096SOL     OW38920   2.800   0.361   0.279  0.2979 -0.3138  0.0460
 9096SOL    HW138921   2.766   0.449   0.262  0.2875 -0.9529 -3.2676
 9096SOL    HW238922   2.779   0.313   0.199  0.9794 -2.0795  0.9331
 9097SOL     OW38923   3.176   0.150   4.865  0.9597 -0.2132  0.2738
 9097SOL    HW138924   3.216   0.203   4.796 -0.9464 -0.8884 -1.3444
 9097SOL    HW238925   3.248   0.095   4.896  0.2064 -0.2087  2.0556
 9098SOL     OW38926   1.625   3.162   4.525 -0.0144  0.6211 -0.3388
 9098SOL    HW138927   1.684   3.149   4.451  0.6047 -2.4096  0.6805
 9098SOL    HW238928   1.639   3.071   4.551 -0.0351  0.6579 -0.1972
 9099SOL     OW38929   2.898   0.813   7.322 -0.0027 -0.5957  0.1646
 9099SOL    HW138930   2.989   0.816   7.352 -0.1289  0.9306  0.4221
 9099SOL    HW238931   2.858   0.893   7.357  0.3865  0.0259 -0.8333
 9100SOL     OW38932   3.969   2.133   7.565  0.4630  0.1925 -0.6083
 9100SOL    HW138933   3.966   2.198   7.635 -0.8089  0.1894 -0.6659
 9100SOL    HW238934   3.893   2.084   7.596 -0.1145  1.6019  0.1872
 9101SOL     OW38935   1.898   3.304   1.527 -0.1226 -0.5813  0.5458
 9101SOL    HW138936   1.855   3.225   1.494  0.9329 -1.2914  0.8735
 9101SOL    HW238937   1.870   3.299   1.619 -0.4098  1.6883  0.5793
 9102SOL     OW38938   2.086   3.383   4.899  0.0504  0.6842  0.0678
 9102SOL    HW138939   2.096   3.413   4.809  0.4725  1.2733  0.3056
 9102SOL    HW238940   2.137   3.302   4.902 -1.0536 -0.1388 -3.4586
 9103SOL     OW38941   1.404   1.516   2.165  0.3679 -0.3878 -0.2845
 9103SOL    HW138942   1.406   1.453   2.092 -2.4543 -1.4970  0.5939
 9103SOL    HW238943   1.410   1.458   2.240 -0.7104  0.4471  0.4538
 9104SOL     OW38944   4.722   2.194   7.330  0.1885 -0.0629  0.1755
 9104SOL    HW138945   4.730   2.226   7.240 -1.1381  0.1811  0.1378
 9104SOL    HW238946   0.035   2.114   7.330 -1.5425 -1.2075 -3.5919
 9105SOL     OW38947   4.595   2.458   8.765 -0.3850  0.7040 -0.0263
 9105SOL    HW138948   4.597   2.553   8.756  0.8765  0.5544 -1.2296
 9105SOL    HW238949   4.667   2.449   8.828 -0.2432  2.6990  0.1131
 9106SOL     OW38950   1.142   2.958   8.099 -0.7598  0.3784 -1.0516
 9106SOL    HW138951   1.221   3.002   8.132  0.1625 -1.8511 -0.2694
 9106SOL    HW238952   1.075   2.997   8.155 -0.3929  0.8353 -0.9217
 9107SOL     OW38953   3.835   2.684  17.339  0.2067  0.8202 -0.2549
 9107SOL    HW138954   3.833   2.759  17.280  2.1330  0.8831 -0.2248
 9107SOL    HW238955   3.920   2.648  17.314 -0.9395 -1.2595 -1.2303
 9108SOL     OW38956   3.024   4.605   8.884 -0.1732  0.7115 -0.7529
 9108SOL    HW138957   3.103   4.580   8.933  0.7446  0.0708 -2.5634
 9108SOL    HW238958   2.981   4.669   8.941 -0.7748  1.2927 -1.8584
 9109SOL     OW38959   1.639   4.733   8.095  0.3267  0.1771 -0.3517
 9109SOL    HW138960   1.720   0.045   8.090 -0.1326  0.7642 -1.7158
 9109SOL    HW238961   1.596   0.055   8.155  0.6287  1.4386 -1.4302
 9110SOL     OW38962   3.046   4.099   6.997  0.5323  0.2177 -0.1221
 9110SOL    HW138963   2.990   4.029   6.965 -1.8881  1.8433  0.5275
 9110SOL    HW238964   3.047   4.064   7.086  1.5574 -2.9954 -1.4229
 9111SOL     OW38965   3.114   1.727  14.290 -0.0577  0.0978 -0.2301
 9111SOL    HW138966   3.164   1.734  14.371 -0.2118  2.9352 -0.3548
 9111SOL    HW238967   3.171   1.784  14.237  1.3669 -1.6911 -0.6498
 9112SOL     OW38968   3.054   2.543   1.474 -0.3885 -0.1539 -0.0269
 9112SOL    HW138969   3.095   2.622   1.508 -2.6265  1.3198 -0.7445
 9112SOL    HW238970   2.984   2.520   1.535 -2.6381  0.0716 -2.4888
 9113SOL     OW38971   2.523   1.185  11.794 -0.3155 -0.0153  0.2603
 9113SOL    HW138972   2.434   1.172  11.762 -0.0715 -0.0858 -0.3918
 9113SOL    HW238973   2.529   1.275  11.827 -0.8540 -0.0976  0.5810
 9114SOL     OW38974   1.952   0.532   0.416 -0.0396 -0.2208 -0.0065
 9114SOL    HW138975   1.901   0.606   0.382 -1.7567 -1.5091 -0.2268
 9114SOL    HW238976   2.008   0.514   0.340  0.5261 -0.8575  0.5691
 9115SOL     OW38977   4.407   3.019   6.856  0.1903 -0.3941  0.0670
 9115SOL    HW138978   4.441   2.949   6.913 -0.2238 -0.9296 -0.3372
 9115SOL    HW238979   4.388   2.958   6.784  0.9087 -2.1210  1.3358
 9116SOL     OW38980   1.474   3.236   6.906 -0.3856 -0.0173  0.2828
 9116SOL    HW138981   1.410   3.268   6.969  0.0951  0.9496  0.2689
 9116SOL    HW238982   1.507   3.161   6.955  3.2862  1.0913 -0.4439
 9117SOL     OW38983   2.546   3.586   8.341 -0.2440  0.1288 -0.4710
 9117SOL    HW138984   2.641   3.591   8.349 -0.3837  1.0541  0.6068
 9117SOL    HW238985   2.530   3.599   8.247 -0.7096 -0.7917 -0.5203
 9118SOL     OW38986   4.483   2.780   1.032  0.3812 -0.8599 -0.6401
 9118SOL    HW138987   4.404   2.768   1.085  1.0597 -2.6394 -0.0270
 9118SOL    HW238988   4.506   2.694   0.997 -1.5090 -2.3393  1.7778
 9119SOL     OW38989   0.231   2.217   9.409 -0.3473  0.2867 -0.1740
 9119SOL    HW138990   0.264   2.128   9.423  1.3856  1.4558  3.1691
 9119SOL    HW238991   0.286   2.248   9.337  0.4556 -0.8945 -0.0714
 9120SOL     OW38992   4.291   0.874   5.260  1.0561  0.5185  0.2955
 9120SOL    HW138993   4.260   0.958   5.228  1.1361 -0.1402 -1.5370
 9120SOL    HW238994   4.250   0.820   5.191  1.8090  0.2369  0.0695
 9121SOL     OW38995   4.505   3.951   7.604 -0.6634  0.1583 -0.1543
 9121SOL    HW138996   4.428   3.905   7.569 -0.9361  1.4122 -1.2084
 9121SOL    HW238997   4.534   4.001   7.528  0.7847  0.9406  0.9110
 9122SOL     OW38998   0.476   2.026   4.403  0.1778  0.1743 -0.1029
 9122SOL    HW138999   0.540   2.096   4.415  1.8650 -0.9654 -2.6165
 9122SOL    HW239000   0.463   1.994   4.493  1.9522 -0.1505  0.0461
 9123SOL     OW39001   4.031   2.073   0.304  0.0077  0.1935 -0.0518
 9123SOL    HW139002   4.016   2.003   0.241 -0.5539  0.4506 -0.2089
 9123SOL    HW239003   3.975   2.047   0.378 -3.0877 -0.4274 -2.5877
 9124SOL     OW39004   0.019   4.350  14.954  0.4061 -0.1471  0.0173
 9124SOL    HW139005   4.709   4.318  15.030 -0.1324  0.9405  0.1368
 9124SOL    HW239006   4.694   4.402  14.905  1.0069  0.2109 -0.3883
 9125SOL     OW39007   0.151   2.051   7.143  0.3487 -0.8288 -0.0482
 9125SOL    HW139008   0.158   1.958   7.163 -1.1865 -1.2032 -1.3054
 9125SOL    HW239009   0.142   2.049   7.048  1.8992  0.4423 -0.2259
 9126SOL     OW39010   2.212   1.399   3.088 -0.6911  0.0439  0.0113
 9126SOL    HW139011   2.293   1.427   3.130 -0.7857 -2.1593  1.6270
 9126SOL    HW239012   2.160   1.478   3.105  2.7400  2.1386  0.6783
 9127SOL     OW39013   3.572   0.315   2.816 -0.0704 -0.5959  0.4062
 9127SOL    HW139014   3.663   0.327   2.844 -0.1792  0.4489  0.3194
 9127SOL    HW239015   3.571   0.365   2.734 -1.2230 -1.1776  0.0770
 9128SOL     OW39016   3.006   4.004   4.956  0.2788  0.2118  0.3665
 9128SOL    HW139017   3.077   4.018   4.893 -0.1813 -2.2446 -0.6913
 9128SOL    HW239018   2.930   4.045   4.914 -1.3702 -1.6706  1.5348
 9129SOL     OW39019   1.717   1.764  13.533 -0.1751 -0.3683  0.0985
 9129SOL    HW139020   1.676   1.686  13.495  2.6273 -1.2409 -1.0986
 9129SOL    HW239021   1.770   1.731  13.605 -1.1024  0.4623  1.1714
 9130SOL     OW39022   2.215   1.511   0.538 -0.1210 -0.0760 -0.1465
 9130SOL    HW139023   2.124   1.484   0.543 -0.0252 -0.4344 -0.3408
 9130SOL    HW239024   2.207   1.595   0.493  1.9644  0.9239  1.3290
 9131SOL     OW39025   4.481   0.384   1.863 -0.0578  0.0041 -0.0245
 9131SOL    HW139026   4.514   0.334   1.788 -0.1486  0.8002 -0.5916
 9131SOL    HW239027   4.565   0.398   1.906  1.9512 -1.6807 -3.4873
 9132SOL     OW39028   1.666   2.818   0.582  1.0157 -0.0822 -0.0816
 9132SOL    HW139029   1.718   2.834   0.661  1.3801  0.9607 -0.5386
 9132SOL    HW239030   1.600   2.887   0.580 -0.2111 -1.2614 -0.3667
 9133SOL     OW39031   3.364   3.128   7.810 -0.1228 -0.7865  0.3731
 9133SOL    HW139032   3.277   3.167   7.823  0.1447 -0.5805  1.4972
 9133SOL    HW239033   3.402   3.135   7.897 -0.2071 -3.4256  0.6117
 9134SOL     OW39034   1.195   2.526   0.723  0.0092  0.2390  0.4447
 9134SOL    HW139035   1.128   2.458   0.728  0.0054  0.2774  0.9220
 9134SOL    HW239036   1.222   2.524   0.631 -1.4244  0.3380  0.0311
 9135SOL     OW39037   2.943   3.840   8.067 -0.0287 -0.2555 -0.1541
 9135SOL    HW139038   2.953   3.791   7.985 -0.9289 -1.4309  0.4410
 9135SOL    HW239039   2.909   3.925   8.041 -0.7818 -0.3920  0.3727
 9136SOL     OW39040   2.866   1.690   4.137  0.2204  0.3844 -0.8023
 9136SOL    HW139041   2.788   1.635   4.144 -0.0596  0.5870 -2.3626
 9136SOL    HW239042   2.936   1.627   4.149 -1.5594 -1.2627  1.0525
 9137SOL     OW39043   2.640   2.633   4.928 -0.1131  0.0243 -0.1486
 9137SOL    HW139044   2.590   2.563   4.887  1.5922 -1.9670  1.1268
 9137SOL    HW239045   2.615   2.712   4.880 -0.0127 -0.0453 -0.3152
 9138SOL     OW39046   3.388   2.784   4.512 -0.0012 -0.1142  0.4110
 9138SOL    HW139047   3.458   2.843   4.482  1.2637 -2.2827 -0.9312
 9138SOL    HW239048   3.434   2.748   4.588  1.1484 -2.5488 -1.4210
 9139SOL     OW39049   2.666   3.573   9.375  0.1287  0.2552 -0.1402
 9139SOL    HW139050   2.708   3.565   9.460 -0.9329 -1.2780  0.2327
 9139SOL    HW239051   2.600   3.505   9.386  0.7453 -0.4812 -1.0267
 9140SOL     OW39052   1.460   0.268  10.548 -0.2677 -0.0486  0.0193
 9140SOL    HW139053   1.538   0.315  10.518 -0.7076  1.2691  0.9606
 9140SOL    HW239054   1.426   0.334  10.608 -0.8017 -0.2932 -0.0095
 9141SOL     OW39055   4.375   0.014  13.765 -0.0907 -0.3122 -0.7026
 9141SOL    HW139056   4.453   4.701  13.747  2.9022  4.0073 -0.0493
 9141SOL    HW239057   4.407   0.101  13.788  0.8550 -0.3668 -1.8000
 9142SOL     OW39058   2.648   2.306   3.232 -0.0097  0.7707  0.3792
 9142SOL    HW139059   2.668   2.213   3.226 -0.3964  0.6953  0.2912
 9142SOL    HW239060   2.580   2.310   3.299 -1.0233 -0.7880 -0.5552
 9143SOL     OW39061   0.083   0.629   6.109  0.5418  0.6656  0.3236
 9143SOL    HW139062   0.091   0.576   6.030  1.2869 -0.1939  0.9596
 9143SOL    HW239063   0.022   0.573   6.158 -1.4779  3.7569  1.3162
 9144SOL     OW39064   4.506   1.423   1.594  0.1061 -0.0544  0.0605
 9144SOL    HW139065   4.589   1.436   1.549  0.6925 -2.3715  0.4505
 9144SOL    HW239066   4.526   1.358   1.662 -1.2079  0.7420  1.2268
 9145SOL     OW39067   2.439   3.079   6.800 -0.3596 -0.8157  0.0769
 9145SOL    HW139068   2.390   2.997   6.796 -0.5315 -0.7374  0.5453
 9145SOL    HW239069   2.401   3.133   6.869  0.5807 -0.4542  0.3095
 9146SOL     OW39070   4.402   1.423   9.205 -0.3936  0.2639 -0.0802
 9146SOL    HW139071   4.353   1.392   9.281 -2.3654  0.0929 -1.4273
 9146SOL    HW239072   4.335   1.452   9.144  0.5183 -0.5212 -1.4658
 9147SOL     OW39073   1.565   3.959  16.987  0.0948 -0.1384  0.3605
 9147SOL    HW139074   1.526   3.913  17.061 -1.8553  1.6476  0.4418
 9147SOL    HW239075   1.547   4.050  17.010 -1.2997 -0.3933  0.3165
 9148SOL     OW39076   0.425   2.400  11.688 -0.0025 -0.3076 -0.3781
 9148SOL    HW139077   0.418   2.356  11.603  2.6016 -1.3558 -0.0489
 9148SOL    HW239078   0.360   2.468  11.672  1.8018  1.1983 -1.3580
 9149SOL     OW39079   4.470   4.218   2.354  0.1726  0.3254 -0.4384
 9149SOL    HW139080   4.471   4.313   2.356  0.8110  0.3050  0.0564
 9149SOL    HW239081   4.392   4.197   2.301 -0.6818  0.0127  0.9515
 9150SOL     OW39082   4.554   2.451   7.550  0.3596 -0.8176 -0.9576
 9150SOL    HW139083   4.575   2.373   7.601  0.2051  0.2748  0.8025
 9150SOL    HW239084   4.619   2.439   7.481  0.8340  0.5522 -0.7615
 9151SOL     OW39085   4.684   2.175   9.525  0.5453  0.4504  0.4479
 9151SOL    HW139086   4.620   2.137   9.465 -0.2394  2.2359  0.1644
 9151SOL    HW239087   0.026   2.189   9.476 -0.3743 -1.0317 -1.5066
 9152SOL     OW39088   2.526   0.751  15.266 -0.4295 -0.0546 -0.7061
 9152SOL    HW139089   2.445   0.752  15.214 -1.2077  1.7760  0.5417
 9152SOL    HW239090   2.566   0.834  15.238 -0.2571  0.8718  2.2825
 9153SOL     OW39091   2.459   1.179  14.805  0.5602 -0.2895  0.1014
 9153SOL    HW139092   2.372   1.198  14.772  0.4063  0.6205  1.0118
 9153SOL    HW239093   2.503   1.119  14.745 -1.0933 -0.9188 -0.4677
 9154SOL     OW39094   1.952   1.824   2.816 -0.6818 -0.2428 -0.1058
 9154SOL    HW139095   1.995   1.903   2.848  0.9283 -1.0440 -0.2559
 9154SOL    HW239096   1.892   1.807   2.888  0.1830  0.1669  0.7107
 9155SOL     OW39097   0.488   4.737  15.854  0.1361 -0.2290 -0.6683
 9155SOL    HW139098   0.541   4.662  15.883  1.2739  0.8844  0.1365
 9155SOL    HW239099   0.558   0.063  15.857 -0.4963  0.4340 -0.4040
 9156SOL     OW39100   3.416   3.994   6.656  0.0170 -0.1840 -0.1533
 9156SOL    HW139101   3.360   4.061   6.695 -0.4110 -0.6547  0.0464
 9156SOL    HW239102   3.417   4.028   6.567 -3.0545  0.7536  0.1594
 9157SOL     OW39103   4.338   0.161   5.779  0.2211  0.5134 -0.0921
 9157SOL    HW139104   4.294   0.242   5.754  0.2119  0.9255  1.2720
 9157SOL    HW239105   4.422   0.185   5.741  1.1624 -0.8467  1.1274
 9158SOL     OW39106   4.685   0.770  13.523  0.0055 -0.0565  0.2163
 9158SOL    HW139107   4.727   0.781  13.438  0.6956  1.1624  0.7207
 9158SOL    HW239108   4.633   0.692  13.505 -1.6687  1.3428 -1.0860
 9159SOL     OW39109   2.970   0.155  16.637 -0.5007 -0.4270 -0.0194
 9159SOL    HW139110   2.956   0.211  16.713 -0.1428  2.9651 -2.4812
 9159SOL    HW239111   2.966   0.071  16.684  1.3637 -1.5455 -1.8432
 9160SOL     OW39112   4.669   4.429  14.317 -0.0279 -0.1531  0.3382
 9160SOL    HW139113   4.605   4.486  14.274  1.1304  0.9704  0.1139
 9160SOL    HW239114   4.660   4.345  14.270 -0.4912  1.0472 -1.7393
 9161SOL     OW39115   0.324   2.819   9.402  0.2753 -0.2227 -0.2560
 9161SOL    HW139116   0.297   2.728   9.393  0.7500 -0.3279 -0.6237
 9161SOL    HW239117   0.357   2.813   9.491 -0.6682  0.7723  0.1582
 9162SOL     OW39118   0.433   0.968   1.898 -0.2321  0.3286 -0.2843
 9162SOL    HW139119   0.350   0.977   1.850 -1.4911 -1.0058  1.6675
 9162SOL    HW239120   0.458   0.877   1.883 -1.6072  0.0690 -1.0673
 9163SOL     OW39121   2.466   1.990   2.844 -0.0439  0.3812  0.5189
 9163SOL    HW139122   2.420   2.053   2.788  0.6002 -0.1434 -0.6006
 9163SOL    HW239123   2.450   1.904   2.805  0.3196  1.7184 -2.5871
 9164SOL     OW39124   4.501   0.133   2.390  0.1332  0.7293  0.0757
 9164SOL    HW139125   4.541   0.209   2.349 -0.0216  0.8546  0.1589
 9164SOL    HW239126   4.443   0.164   2.459 -2.9291 -1.0947 -1.6720
 9165SOL     OW39127   1.882   0.304   4.567 -0.5346 -0.1336 -0.3456
 9165SOL    HW139128   1.944   0.374   4.550 -0.9164  0.0730 -0.8769
 9165SOL    HW239129   1.934   0.239   4.519 -0.1243  0.5543 -0.8269
 9166SOL     OW39130   1.816   1.360  11.529 -0.3078  0.0782 -0.0783
 9166SOL    HW139131   1.775   1.408  11.457  0.7343 -0.7984 -1.2473
 9166SOL    HW239132   1.762   1.281  11.526 -0.7605  0.3968 -0.3882
 9167SOL     OW39133   0.571   3.035  11.350  0.0525  0.4817 -0.4742
 9167SOL    HW139134   0.509   2.968  11.377  0.0826  0.7020  0.1472
 9167SOL    HW239135   0.547   3.039  11.258  0.0406 -0.6393 -0.5148
 9168SOL     OW39136   3.500   1.222   2.742  0.2437 -0.6129 -0.5655
 9168SOL    HW139137   3.408   1.202   2.758 -0.1752 -0.4622 -2.7324
 9168SOL    HW239138   3.538   1.227   2.829  1.3376  0.3595 -1.0880
 9169SOL     OW39139   4.570   4.631  15.956 -0.3019 -0.8514 -0.2376
 9169SOL    HW139140   4.505   4.563  15.941  0.2998 -1.0553 -1.9534
 9169SOL    HW239141   4.645   4.587  15.997  0.7199  0.0046 -1.2059
 9170SOL     OW39142   4.387   1.959   3.960 -0.4374 -0.4737  0.3261
 9170SOL    HW139143   4.429   1.906   3.892  0.4837  0.2329  0.3461
 9170SOL    HW239144   4.442   2.036   3.947 -1.8663  0.3155 -1.0805
 9171SOL     OW39145   1.702   4.085   5.301 -0.0715  0.0005  0.5285
 9171SOL    HW139146   1.614   4.095   5.263 -0.6283 -0.2599  1.7594
 9171SOL    HW239147   1.757   4.130   5.237  0.0473  3.1393  2.8494
 9172SOL     OW39148   1.994   0.729   7.752 -0.0055  0.0289 -0.0861
 9172SOL    HW139149   2.046   0.651   7.734  0.4079  0.1481  0.5824
 9172SOL    HW239150   1.909   0.686   7.760  1.4976 -2.6938  1.5885
 9173SOL     OW39151   4.331   2.798   3.733  0.4285  0.3821 -0.2448
 9173SOL    HW139152   4.422   2.826   3.739  0.9148 -1.6701  1.8775
 9173SOL    HW239153   4.304   2.869   3.675  1.2237  0.0923 -0.9566
 9174SOL     OW39154   1.510   1.849  12.812  0.4516 -0.6510  0.1336
 9174SOL    HW139155   1.459   1.797  12.874  2.0798 -1.6923  0.5874
 9174SOL    HW239156   1.439   1.865  12.750 -0.9828 -1.0304  1.6924
 9175SOL     OW39157   1.853   0.233   0.941  0.3716 -0.2428 -0.0254
 9175SOL    HW139158   1.947   0.252   0.949  0.2658  0.9577 -1.4692
 9175SOL    HW239159   1.818   0.212   1.027  0.6285  1.2274  0.4386
 9176SOL     OW39160   3.445   4.017  17.553  0.3846  0.3825  0.7909
 9176SOL    HW139161   3.522   3.978  17.592 -0.4689 -1.2413  0.8313
 9176SOL    HW239162   3.489   4.078  17.493 -1.6575  0.2564 -0.8373
 9177SOL     OW39163   0.489   2.917  13.148  0.0718  0.2760 -0.8531
 9177SOL    HW139164   0.526   2.875  13.226  0.4264 -0.3461 -1.3595
 9177SOL    HW239165   0.444   2.841  13.113 -0.5076  0.4358 -0.4441
 9178SOL     OW39166   4.718   1.493   1.365  0.3405 -0.4175 -0.7282
 9178SOL    HW139167   0.003   1.554   1.296  0.6449 -1.6476 -1.7176
 9178SOL    HW239168   4.736   1.408   1.323 -0.4943 -1.4430  0.9858
 9179SOL     OW39169   0.661   0.875   8.263  0.3080  0.0672 -0.2589
 9179SOL    HW139170   0.669   0.970   8.262  0.0859  0.0834 -0.6093
 9179SOL    HW239171   0.741   0.851   8.309  0.6303  0.0485 -0.8244
 9180SOL     OW39172   2.899   3.221   8.532 -0.4042 -0.9335 -0.3417
 9180SOL    HW139173   2.940   3.178   8.607  2.2620 -0.2416 -1.3903
 9180SOL    HW239174   2.946   3.183   8.458 -1.3052 -1.2196 -0.7667
 9181SOL     OW39175   4.510   3.876   4.755  0.0339 -0.8589  0.3755
 9181SOL    HW139176   4.530   3.832   4.672  4.4375 -0.0426  0.9640
 9181SOL    HW239177   4.507   3.800   4.814 -0.2436 -0.3608  1.0049
 9182SOL     OW39178   1.065   2.847  14.071  0.4412  0.1389 -0.6850
 9182SOL    HW139179   1.043   2.939  14.060  1.2118  0.0258 -3.2851
 9182SOL    HW239180   0.980   2.808  14.048  1.9955 -3.9976  0.5672
 9183SOL     OW39181   3.949   3.439   8.918 -0.0926 -0.2039 -0.1256
 9183SOL    HW139182   3.920   3.455   8.829  0.4800  3.3805  0.3194
 9183SOL    HW239183   3.931   3.524   8.959  0.3799  0.5061 -1.3843
 9184SOL     OW39184   2.825   1.540   9.394 -0.1593 -0.0738 -0.5136
 9184SOL    HW139185   2.837   1.495   9.311  2.6764  0.8838 -0.6209
 9184SOL    HW239186   2.866   1.473   9.449 -0.1919 -0.2237 -0.6748
 9185SOL     OW39187   4.097   1.191   7.813 -0.0250  0.6659  0.8497
 9185SOL    HW139188   4.114   1.285   7.810  1.2441  0.4305  0.7849
 9185SOL    HW239189   4.155   1.161   7.743 -2.0838 -1.3307 -0.0141
 9186SOL     OW39190   2.608   1.363  15.909  0.3325  0.5148  0.8396
 9186SOL    HW139191   2.678   1.340  15.848  0.6414  1.0783  0.9764
 9186SOL    HW239192   2.653   1.334  15.988  0.2550 -1.7116  0.0789
 9187SOL     OW39193   3.463   0.718   7.467 -0.3116  0.0195 -0.4762
 9187SOL    HW139194   3.540   0.667   7.444  0.0637  0.5357 -0.3748
 9187SOL    HW239195   3.471   0.790   7.404  0.1153 -0.7426 -1.2774
 9188SOL     OW39196   2.456   2.824  11.792 -0.2372 -0.2728  0.6808
 9188SOL    HW139197   2.540   2.835  11.836 -0.2411  1.6517  0.1961
 9188SOL    HW239198   2.480   2.795  11.704 -2.4933  0.2381 -0.0895
 9189SOL     OW39199   3.851   2.262   2.902 -0.5390 -0.5334 -0.1844
 9189SOL    HW139200   3.838   2.329   2.969  1.9300  0.7022 -0.9191
 9189SOL    HW239201   3.825   2.179   2.941  0.6306 -1.6346 -1.7678
 9190SOL     OW39202   0.869   2.699   1.668 -0.1695  0.4297  0.2541
 9190SOL    HW139203   0.898   2.634   1.605  0.0104  0.5108  0.2526
 9190SOL    HW239204   0.954   2.743   1.670 -1.9214  3.8346  0.1236
 9191SOL     OW39205   2.902   2.110  13.767  0.2871 -0.3847  0.0739
 9191SOL    HW139206   2.917   2.114  13.862 -2.1285 -1.8873  0.5098
 9191SOL    HW239207   2.984   2.077  13.731  0.0027 -1.2087  0.1891
 9192SOL     OW39208   4.413   4.086   0.204  0.0306  0.3338  0.5986
 9192SOL    HW139209   4.326   4.104   0.169  0.0592  1.3163  1.0272
 9192SOL    HW239210   4.427   4.167   0.254 -1.0770 -0.8139  2.7313
 9193SOL     OW39211   0.482   3.483   1.039 -0.3612 -0.1619  0.2119
 9193SOL    HW139212   0.534   3.531   1.103  0.0874  1.8709 -1.6761
 9193SOL    HW239213   0.403   3.467   1.091  1.2458 -4.7962  1.2442
 9194SOL     OW39214   1.400   1.800  15.369 -0.0386 -0.0203  0.1027
 9194SOL    HW139215   1.358   1.761  15.446  1.5923  1.0945  1.5452
 9194SOL    HW239216   1.493   1.799  15.395 -0.0777  1.4435  0.2815
 9195SOL     OW39217   3.565   0.960  15.720 -0.3802  0.9333  0.2744
 9195SOL    HW139218   3.617   1.033  15.753 -0.1075  0.6345  0.5076
 9195SOL    HW239219   3.476   0.996  15.714 -0.5580 -0.0769 -3.5793
 9196SOL     OW39220   0.920   4.501   4.116 -0.2937 -0.0080  0.3265
 9196SOL    HW139221   0.894   4.465   4.201 -1.7660  1.6022  0.5664
 9196SOL    HW239222   0.944   4.422   4.067 -3.6994 -2.6313  2.9197
 9197SOL     OW39223   0.966   3.171  17.629  0.1937  0.0190 -0.4069
 9197SOL    HW139224   1.027   3.116  17.679  2.0819  2.8586  0.4589
 9197SOL    HW239225   1.032   3.227  17.587  0.7374  0.4197  0.9519
 9198SOL     OW39226   0.899   2.393   1.803 -0.0814 -0.2788  0.0939
 9198SOL    HW139227   0.991   2.403   1.828  0.0146 -0.7458 -0.0843
 9198SOL    HW239228   0.916   2.384   1.709 -0.7528  0.2501 -0.0844
 9199SOL     OW39229   2.575   4.055  11.040  0.3967 -0.3036 -0.1227
 9199SOL    HW139230   2.606   4.046  11.131 -1.4826  0.8888  0.6152
 9199SOL    HW239231   2.590   3.968  11.002  1.5778 -0.6077  1.0236
 9200SOL     OW39232   4.269   4.137  16.541 -0.7527 -0.4387  0.7995
 9200SOL    HW139233   4.222   4.214  16.572 -0.2028  0.1904  0.0705
 9200SOL    HW239234   4.230   4.075  16.603 -2.7229  0.9915  0.9727
 9201SOL     OW39235   2.529   2.929   8.680 -0.2198 -0.8704  0.4824
 9201SOL    HW139236   2.472   2.949   8.606  1.4286 -2.6671 -1.2980
 9201SOL    HW239237   2.572   3.012   8.702 -1.8204  0.2607 -0.6868
 9202SOL     OW39238   0.693   0.020   1.325  0.1452 -0.0450  0.0991
 9202SOL    HW139239   0.742   4.676   1.320 -0.1871 -0.3581  2.0249
 9202SOL    HW239240   0.751   0.076   1.274  1.2149 -1.1884  0.0655
 9203SOL     OW39241   1.992   1.881   2.149  0.3170  0.2785 -0.1301
 9203SOL    HW139242   1.925   1.873   2.080  1.3523 -0.6084 -1.0334
 9203SOL    HW239243   1.998   1.788   2.171  1.8123  0.3102 -0.3966
 9204SOL     OW39244   0.327   4.329   3.171  0.4683  0.2332  0.3481
 9204SOL    HW139245   0.372   4.272   3.233 -0.8130  0.5979  1.6161
 9204SOL    HW239246   0.287   4.261   3.117 -0.5483  1.3382 -0.2811
 9205SOL     OW39247   0.478   2.019   8.251 -0.5230  0.1586 -0.6840
 9205SOL    HW139248   0.417   2.026   8.325 -0.6466  2.2226 -0.9990
 9205SOL    HW239249   0.423   1.981   8.183 -1.5178 -0.0880  0.2743
 9206SOL     OW39250   4.008   2.143   2.588  0.4776  1.5640  0.6157
 9206SOL    HW139251   4.071   2.126   2.657  0.5716 -1.0731 -0.1415
 9206SOL    HW239252   3.980   2.232   2.610 -1.8928  0.6093  1.3750
 9207SOL     OW39253   0.642   1.285   7.091  0.2659  0.0119  0.4966
 9207SOL    HW139254   0.721   1.260   7.042  0.5893  3.1172 -0.5486
 9207SOL    HW239255   0.668   1.298   7.182  0.8873  0.3407  0.2755
 9208SOL     OW39256   0.063   2.223   7.594  0.3717  0.2304 -0.0406
 9208SOL    HW139257   0.094   2.304   7.552 -1.5883  1.3889  0.7790
 9208SOL    HW239258   0.001   2.196   7.527  2.9493  0.4559 -2.5454
 9209SOL     OW39259   3.045   2.285   8.579 -0.5189 -0.1254 -0.0003
 9209SOL    HW139260   3.043   2.352   8.648 -1.6660 -0.6605  0.4938
 9209SOL    HW239261   3.104   2.220   8.617 -1.3691 -2.6855 -3.1102
 9210SOL     OW39262   3.702   1.724   7.003 -0.1696  0.1481 -0.0314
 9210SOL    HW139263   3.625   1.779   6.990  0.1080  0.3190 -0.9365
 9210SOL    HW239264   3.680   1.655   6.941  0.4120  0.0374 -0.1130
 9211SOL     OW39265   2.473   3.442   2.892  0.1758  0.4886  0.1464
 9211SOL    HW139266   2.499   3.436   2.984 -0.0945  0.3552  0.2120
 9211SOL    HW239267   2.396   3.497   2.903  0.2159  0.5820 -0.0375
 9212SOL     OW39268   3.513   0.418   2.334 -0.2311  0.1808 -0.1586
 9212SOL    HW139269   3.432   0.386   2.294  0.7910  0.5856 -2.5628
 9212SOL    HW239270   3.543   0.479   2.267 -0.1264  2.2083  1.7256
 9213SOL     OW39271   1.961   2.315   2.220  0.2205 -0.5279  0.3004
 9213SOL    HW139272   1.874   2.294   2.254  0.3266  1.5705  1.9144
 9213SOL    HW239273   1.933   2.361   2.140  2.6005  1.0601  0.3665
 9214SOL     OW39274   1.653   1.590  11.023 -0.1625  0.0029  0.1322
 9214SOL    HW139275   1.740   1.629  11.021  0.8161 -1.9809  3.9236
 9214SOL    HW239276   1.682   1.513  10.975 -3.4780 -1.0457 -0.1616
 9215SOL     OW39277   3.394   3.658   9.653  0.4413 -0.0216  0.0662
 9215SOL    HW139278   3.452   3.669   9.578  0.8619  2.7259  0.8172
 9215SOL    HW239279   3.415   3.565   9.669 -1.0454 -0.1571  1.2364
 9216SOL     OW39280   1.162   3.416   6.427  0.1267 -0.6567 -0.1075
 9216SOL    HW139281   1.222   3.481   6.392 -0.3185  0.0920  0.5129
 9216SOL    HW239282   1.179   3.348   6.361  1.0871 -0.3584 -0.1497
 9217SOL     OW39283   4.506   1.562  16.458 -0.0197  0.3445 -0.1114
 9217SOL    HW139284   4.543   1.580  16.544  1.0512 -0.8686 -0.3132
 9217SOL    HW239285   4.431   1.509  16.486  1.0330 -1.3469 -0.5189
 9218SOL     OW39286   4.009   3.456   9.654 -0.1139 -0.5114  0.1889
 9218SOL    HW139287   3.939   3.516   9.628 -0.0109 -0.9006 -1.0050
 9218SOL    HW239288   3.961   3.387   9.701 -1.0330 -0.3082 -0.4550
 9219SOL     OW39289   0.948   3.903   4.419  0.3118 -0.2717 -0.0511
 9219SOL    HW139290   0.929   3.834   4.484  0.2783  1.3356  1.6382
 9219SOL    HW239291   0.908   3.978   4.463 -0.5702 -1.0269  0.4460
 9220SOL     OW39292   2.142   0.862  11.409  0.2339 -0.2732  0.2556
 9220SOL    HW139293   2.060   0.814  11.395  0.0885 -0.0090  0.1959
 9220SOL    HW239294   2.187   0.801  11.467  1.3325  0.1190 -0.1777
 9221SOL     OW39295   3.738   3.864  15.058 -0.2098  0.5442  0.2225
 9221SOL    HW139296   3.730   3.787  15.003  0.4558  0.3299  0.4160
 9221SOL    HW239297   3.718   3.939  15.002 -1.0239  0.4258  0.3583
 9222SOL     OW39298   3.368   3.173  10.073  0.3307 -0.1913 -0.2410
 9222SOL    HW139299   3.349   3.235  10.143  1.8785 -0.6041  0.5406
 9222SOL    HW239300   3.283   3.162  10.030 -0.1913  0.6735  0.5813
 9223SOL     OW39301   0.378   2.408   5.968 -0.0063  0.1448 -0.1675
 9223SOL    HW139302   0.471   2.390   5.980 -0.3211  0.2481  2.3896
 9223SOL    HW239303   0.388   2.471   5.896 -0.6236  0.3744 -0.0514
 9224SOL     OW39304   3.562   2.884   9.661  0.0157  0.1193 -0.3110
 9224SOL    HW139305   3.641   2.934   9.679 -0.7087 -0.1879  3.6634
 9224SOL    HW239306   3.502   2.912   9.730  0.6990  1.0004 -0.0829
 9225SOL     OW39307   4.081   3.164   7.058 -0.3914  0.8818  0.1480
 9225SOL    HW139308   4.149   3.208   7.008 -0.5603  1.3355  0.3176
 9225SOL    HW239309   4.064   3.093   6.996  1.3086  0.5601  0.0575
 9226SOL     OW39310   2.176   2.365   5.236 -0.0531 -0.1110  0.2084
 9226SOL    HW139311   2.083   2.384   5.241  0.0210  0.3808 -0.2989
 9226SOL    HW239312   2.177   2.270   5.223 -1.8123 -0.0253 -0.5317
 9227SOL     OW39313   3.681   1.798  14.826 -0.6092 -0.1317  0.2894
 9227SOL    HW139314   3.752   1.735  14.813  0.6209  1.7834 -2.1858
 9227SOL    HW239315   3.699   1.844  14.908  3.8837  0.1987 -0.8572
 9228SOL     OW39316   3.688   3.057  10.749 -0.3386  0.1040 -0.2046
 9228SOL    HW139317   3.774   3.017  10.759  0.0801  1.1408  0.3313
 9228SOL    HW239318   3.645   3.040  10.832  1.0772  0.1628  0.5468
 9229SOL     OW39319   2.205   1.893   0.032  0.0301  0.3253  0.1154
 9229SOL    HW139320   2.163   1.964   0.080  1.8217  1.3399  0.1894
 9229SOL    HW239321   2.287   1.876   0.079  0.1556 -0.4408 -0.3745
 9230SOL     OW39322   4.213   3.478   5.011 -0.0897  0.0851  0.3581
 9230SOL    HW139323   4.212   3.521   4.925 -1.9050 -0.7515 -0.0438
 9230SOL    HW239324   4.138   3.419   5.003 -1.3555  1.5100  1.6130
 9231SOL     OW39325   2.322   4.256   1.846 -0.4204  0.2115  0.0568
 9231SOL    HW139326   2.318   4.283   1.754 -2.2572 -4.0348 -1.1039
 9231SOL    HW239327   2.243   4.297   1.881 -0.7155 -1.8922  1.8416
 9232SOL     OW39328   1.988   0.194   7.761  0.1744  0.2390  0.4168
 9232SOL    HW139329   2.034   0.187   7.845 -1.5459 -0.3531  1.3000
 9232SOL    HW239330   2.005   0.107   7.726 -0.1202  1.9365 -3.8941
 9233SOL     OW39331   3.332   0.272   9.061  0.1271 -0.3973 -0.2560
 9233SOL    HW139332   3.307   0.354   9.018  2.3989 -0.5136 -1.7832
 9233SOL    HW239333   3.348   0.294   9.153 -0.5655  0.1387 -0.2685
 9234SOL     OW39334   1.713   3.441  11.987 -0.1570 -0.1836  0.3344
 9234SOL    HW139335   1.668   3.391  12.055 -1.6708  2.8312  1.5177
 9234SOL    HW239336   1.804   3.422  12.013  0.1046 -0.5308 -0.8216
 9235SOL     OW39337   2.050   0.802   5.829  0.3549  0.7003 -0.4827
 9235SOL    HW139338   2.022   0.718   5.865  0.8845 -0.3033 -2.4338
 9235SOL    HW239339   2.127   0.774   5.778 -1.2193 -0.6135 -2.1134
 9236SOL     OW39340   0.389   0.974  16.711 -0.4075  0.2244 -0.1185
 9236SOL    HW139341   0.439   1.018  16.642 -0.4931 -0.9922 -0.9639
 9236SOL    HW239342   0.339   0.914  16.656  0.9956 -1.7400  0.7872
 9237SOL     OW39343   4.614   0.125   6.961 -0.1357 -0.5465  0.1649
 9237SOL    HW139344   4.545   0.073   7.002 -0.1675 -1.0841 -0.5629
 9237SOL    HW239345   4.688   0.065   6.971 -0.9721 -1.4589  0.8101
 9238SOL     OW39346   4.383   3.735  16.315 -0.2625  0.0316  0.0767
 9238SOL    HW139347   4.365   3.729  16.409  0.5715  0.3029  0.2513
 9238SOL    HW239348   4.306   3.785  16.288  0.7396  1.4814 -0.1142
 9239SOL     OW39349   2.366   0.208   6.385 -0.6377 -0.6113 -0.2053
 9239SOL    HW139350   2.382   0.292   6.341 -3.1718  0.5553  1.1021
 9239SOL    HW239351   2.287   0.172   6.345 -1.6045 -0.2467  1.4032
 9240SOL     OW39352   1.374   2.168   7.252  0.2895  0.0340 -0.1673
 9240SOL    HW139353   1.288   2.187   7.290 -0.7847 -0.3157 -2.4607
 9240SOL    HW239354   1.409   2.109   7.319 -1.0371  1.5308  1.8418
 9241SOL     OW39355   2.971   3.129   8.783 -0.1476  0.2144 -0.5454
 9241SOL    HW139356   2.932   3.200   8.833  0.5447 -0.2214  0.6062
 9241SOL    HW239357   3.061   3.160   8.795  0.2096 -1.1515  0.2082
 9242SOL     OW39358   2.766   1.933  12.691  0.2285 -0.2271  0.6823
 9242SOL    HW139359   2.680   1.950  12.652  0.3841 -0.4759  0.2351
 9242SOL    HW239360   2.818   2.001  12.647 -1.9122  0.6929 -0.4108
 9243SOL     OW39361   0.651   1.183   8.375 -0.0087 -0.1849 -0.0033
 9243SOL    HW139362   0.608   1.131   8.443 -0.5061 -0.5289 -0.5852
 9243SOL    HW239363   0.710   1.234   8.432  0.9261  0.3482 -1.4484
 9244SOL     OW39364   0.568   1.029   3.691  0.1743 -0.0140 -0.5092
 9244SOL    HW139365   0.577   1.090   3.764 -1.0010 -0.7047  0.2094
 9244SOL    HW239366   0.482   0.994   3.712  1.4335 -0.6950  3.5684
 9245SOL     OW39367   3.125   2.897  13.890 -0.1418 -0.0184 -0.1701
 9245SOL    HW139368   3.209   2.885  13.935 -0.0779  0.9611 -0.0360
 9245SOL    HW239369   3.161   2.881  13.802  0.6354 -1.8332  0.4637
 9246SOL     OW39370   0.141   3.765  10.984  0.6241 -0.0821  0.2263
 9246SOL    HW139371   0.215   3.715  11.019 -1.7201 -2.6444  1.5105
 9246SOL    HW239372   0.159   3.842  11.038  0.6408  0.3131 -0.3415
 9247SOL     OW39373   3.385   1.202   3.866  0.4458  0.1757  0.1395
 9247SOL    HW139374   3.459   1.200   3.926  0.0920  1.4683  0.6128
 9247SOL    HW239375   3.329   1.137   3.908  3.4002 -2.5396 -0.1866
 9248SOL     OW39376   1.403   2.820  13.040 -0.0074 -0.0490  0.2459
 9248SOL    HW139377   1.364   2.735  13.058 -0.8757 -0.0676 -1.6914
 9248SOL    HW239378   1.468   2.796  12.974 -1.4262  1.5621 -1.7517
 9249SOL     OW39379   0.859   3.580  13.979 -0.3926 -0.0782  0.1214
 9249SOL    HW139380   0.936   3.621  13.941  0.9494  0.5456  3.5405
 9249SOL    HW239381   0.844   3.638  14.054  0.0950  0.0246  0.1358
 9250SOL     OW39382   1.923   2.127   1.221 -0.2039 -0.4726  0.3820
 9250SOL    HW139383   1.963   2.214   1.226  0.2726 -0.6154 -0.8175
 9250SOL    HW239384   2.000   2.070   1.221  1.3116  1.5536  0.4378
 9251SOL     OW39385   3.834   3.998   8.520 -0.1892 -0.5621 -0.1676
 9251SOL    HW139386   3.863   4.086   8.544  1.1733 -1.2012  0.5627
 9251SOL    HW239387   3.749   4.023   8.485  0.0254 -1.3905 -1.3105
 9252SOL     OW39388   4.634   3.550   7.822  0.1362 -0.0208  0.5719
 9252SOL    HW139389   4.682   3.603   7.885  1.0241  0.7853 -0.7978
 9252SOL    HW239390   4.570   3.510   7.881 -0.1980 -0.3729 -0.0271
 9253SOL     OW39391   1.075   3.812   7.089  0.0434 -0.6996  0.1305
 9253SOL    HW139392   1.082   3.904   7.066  0.6758 -0.6587  0.4955
 9253SOL    HW239393   1.145   3.773   7.036  1.1884 -1.2016  2.0216
 9254SOL     OW39394   0.514   1.198   9.944  0.0452  0.0195  0.4620
 9254SOL    HW139395   0.447   1.144   9.985 -0.6115  1.9834  1.9541
 9254SOL    HW239396   0.594   1.175   9.991 -1.4530  0.7399  3.3325
 9255SOL     OW39397   3.599   2.256   3.381 -0.4246  0.2399  0.6942
 9255SOL    HW139398   3.576   2.334   3.331 -0.5579  0.8255  1.6643
 9255SOL    HW239399   3.531   2.192   3.358  0.2656 -0.6234  1.0597
 9256SOL     OW39400   3.308   3.721   3.034 -0.1972 -0.0274 -0.0191
 9256SOL    HW139401   3.316   3.636   3.076 -0.4278 -0.1762 -0.2795
 9256SOL    HW239402   3.301   3.705   2.940 -2.8778 -2.1378  0.5236
 9257SOL     OW39403   2.255   1.517   6.185 -0.5015 -0.2201 -0.5112
 9257SOL    HW139404   2.274   1.594   6.238 -0.1501 -1.1462  0.7120
 9257SOL    HW239405   2.287   1.451   6.246 -0.0968  0.2387 -0.2236
 9258SOL     OW39406   2.128   3.757   5.640  0.3650  0.1588 -0.3670
 9258SOL    HW139407   2.161   3.808   5.714  3.4734 -0.8334 -1.0527
 9258SOL    HW239408   2.088   3.680   5.682 -0.0474  0.8727  0.5458
 9259SOL     OW39409   3.601   0.319  14.571 -0.7095 -0.0528  0.5745
 9259SOL    HW139410   3.652   0.351  14.496 -0.2208 -0.2712  0.8094
 9259SOL    HW239411   3.529   0.278  14.523 -0.0333  0.5990 -1.0067
 9260SOL     OW39412   0.569   3.056  12.003 -0.2266  0.5257 -0.4309
 9260SOL    HW139413   0.654   3.040  11.962 -0.6727  1.2455 -1.6197
 9260SOL    HW239414   0.504   3.001  11.958  1.2389  0.1169 -2.0731
 9261SOL     OW39415   3.863   2.472   3.744 -0.6446 -0.0459  0.0787
 9261SOL    HW139416   3.847   2.444   3.654 -0.5453  1.3266 -0.3697
 9261SOL    HW239417   3.882   2.389   3.787  0.7838  0.7828  1.0170
 9262SOL     OW39418   3.333   4.121   8.647 -0.0220 -0.1743 -0.3435
 9262SOL    HW139419   3.311   4.158   8.562  1.3145  0.5124 -0.3769
 9262SOL    HW239420   3.366   4.036   8.619  2.0017  0.5492 -0.1524
 9263SOL     OW39421   0.137   3.814   2.048 -0.0846  0.1545  0.0241
 9263SOL    HW139422   0.196   3.852   2.113 -0.5058  1.5841 -0.4432
 9263SOL    HW239423   0.084   3.759   2.106 -1.2851  0.3671 -0.8894
 9264SOL     OW39424   1.788   3.209   6.722 -0.2245 -0.2528 -0.0373
 9264SOL    HW139425   1.861   3.163   6.762 -1.7379 -2.1797  0.5569
 9264SOL    HW239426   1.829   3.282   6.675  0.1128 -0.3494  0.1108
 9265SOL     OW39427   2.636   2.165  14.672  0.1069 -0.3066  0.2606
 9265SOL    HW139428   2.732   2.157  14.674  0.1560  0.3184  0.5401
 9265SOL    HW239429   2.636   2.251  14.630  0.4973 -1.3861 -1.9938
 9266SOL     OW39430   3.544   2.406   8.943 -0.0127  0.1324  0.4437
 9266SOL    HW139431   3.566   2.494   8.973 -1.1605  0.7104 -0.3810
 9266SOL    HW239432   3.628   2.361   8.945 -0.5395 -0.8715  0.3805
 9267SOL     OW39433   3.961   3.996   4.337 -0.8105  0.4524 -0.1339
 9267SOL    HW139434   3.900   4.012   4.265 -0.3794  0.1741 -0.5720
 9267SOL    HW239435   3.897   3.996   4.408  0.1082  2.5157  0.6793
 9268SOL     OW39436   2.950   0.459   5.516  0.2079 -0.5683 -0.8612
 9268SOL    HW139437   2.977   0.495   5.432 -1.4427 -0.0371 -1.1700
 9268SOL    HW239438   2.953   0.367   5.490  1.9331 -0.6359 -0.3997
 9269SOL     OW39439   3.289   4.264   6.531 -0.5377 -0.2713  0.8402
 9269SOL    HW139440   3.259   4.271   6.622  1.5453  2.3203  1.3152
 9269SOL    HW239441   3.233   4.195   6.498 -1.0745  1.1160 -1.1396
 9270SOL     OW39442   0.554   3.746   6.177 -0.7001 -0.2933  0.2936
 9270SOL    HW139443   0.561   3.712   6.087 -1.4730  0.4436 -0.0517
 9270SOL    HW239444   0.592   3.680   6.235  0.0517 -0.6097 -0.5526
 9271SOL     OW39445   2.067   3.065  16.849  0.1557  0.1727 -0.5440
 9271SOL    HW139446   1.983   3.029  16.821 -0.7628  0.7277  1.4940
 9271SOL    HW239447   2.051   3.159  16.858 -0.2251  0.1035 -0.5089
 9272SOL     OW39448   2.413   3.524   0.524  0.0024  0.2545 -0.3700
 9272SOL    HW139449   2.345   3.559   0.581  1.3458  2.2197  0.0147
 9272SOL    HW239450   2.422   3.433   0.553 -1.3929 -0.1585 -1.2155
 9273SOL     OW39451   3.560   2.777  14.402 -0.0130 -0.1045 -0.3009
 9273SOL    HW139452   3.508   2.709  14.360  0.6387 -0.9209  0.2056
 9273SOL    HW239453   3.608   2.716  14.459 -1.1438 -0.5416  0.1732
 9274SOL     OW39454   4.231   4.122   4.375  0.7556  0.1615 -0.6968
 9274SOL    HW139455   4.214   4.141   4.467 -1.0698  0.7933 -1.1701
 9274SOL    HW239456   4.139   4.128   4.347 -0.2362 -1.5847  2.1488
 9275SOL     OW39457   3.661   0.508   4.439  0.0364 -0.0732  0.0293
 9275SOL    HW139458   3.724   0.509   4.366  1.9398 -1.1141  1.6643
 9275SOL    HW239459   3.597   0.456   4.390  0.4363  0.4898 -1.1108
 9276SOL     OW39460   2.348   1.825   0.740 -0.0717  0.3808  0.2231
 9276SOL    HW139461   2.288   1.777   0.683  0.5112 -0.2186  0.1041
 9276SOL    HW239462   2.340   1.908   0.693  0.7731  0.1162 -0.3892
 9277SOL     OW39463   2.662   0.282  13.352  0.2549  0.0955 -0.2453
 9277SOL    HW139464   2.653   0.210  13.288  0.1198  0.0034 -0.1229
 9277SOL    HW239465   2.697   0.242  13.432  1.8912 -0.4056 -1.2033
 9278SOL     OW39466   3.790   1.041   1.056 -0.0954 -0.5861  0.1701
 9278SOL    HW139467   3.699   1.016   1.076 -0.2959  2.1561  2.7247
 9278SOL    HW239468   3.835   0.958   1.043  1.2909  0.3286 -0.7907
 9279SOL     OW39469   2.471   2.438   1.079  0.2321  0.1688  0.5529
 9279SOL    HW139470   2.396   2.426   1.020  0.2478  1.6143  0.2205
 9279SOL    HW239471   2.466   2.353   1.122  1.7006 -0.0738  0.2685
 9280SOL     OW39472   1.476   0.122   7.438  0.8700  0.3670 -0.2956
 9280SOL    HW139473   1.556   0.121   7.491  1.7150  1.7504 -1.5242
 9280SOL    HW239474   1.451   0.033   7.461 -2.0680  1.3514  0.3326
 9281SOL     OW39475   0.951   3.785   9.280 -0.4224 -0.0857  0.4146
 9281SOL    HW139476   0.888   3.817   9.346  1.9298 -0.3872  2.7984
 9281SOL    HW239477   0.939   3.842   9.205  1.7013  0.7209  0.6962
 9282SOL     OW39478   0.655   3.259   5.600 -0.0384 -0.2748 -0.5248
 9282SOL    HW139479   0.569   3.221   5.586 -0.1688 -0.4982  0.9111
 9282SOL    HW239480   0.686   3.285   5.513  1.8431 -2.1740 -0.4303
 9283SOL     OW39481   3.573   3.945  17.188 -0.2489  1.0341 -0.0423
 9283SOL    HW139482   3.594   3.869  17.243 -1.7942 -0.7053 -1.8047
 9283SOL    HW239483   3.498   3.918  17.134 -0.7312  1.3789  0.4606
 9284SOL     OW39484   2.509   3.176  17.677 -0.5279 -0.0283  0.6655
 9284SOL    HW139485   2.570   3.133  17.737  1.7606  5.1778  2.1180
 9284SOL    HW239486   2.557   3.173  17.595 -0.8801  0.3584  0.4432
 9285SOL     OW39487   2.607   4.036   5.997 -0.3862 -0.2805  0.4548
 9285SOL    HW139488   2.567   3.969   6.052 -0.7601 -0.6935 -0.3142
 9285SOL    HW239489   2.658   4.091   6.056  0.9590 -0.1190 -0.8577
 9286SOL     OW39490   2.517   3.586   4.740  0.4485  0.4519  0.8245
 9286SOL    HW139491   2.482   3.569   4.827  0.9749  2.1581  1.3669
 9286SOL    HW239492   2.487   3.677   4.737 -0.4860  0.1348  0.6467
 9287SOL     OW39493   1.032   3.608   4.802 -0.0021 -0.0442 -0.3598
 9287SOL    HW139494   1.053   3.516   4.786  2.2995 -0.0525  2.7275
 9287SOL    HW239495   1.118   3.648   4.816  0.9522 -0.9922 -3.3855
 9288SOL     OW39496   0.437   0.390   8.002  0.7525 -0.3689  0.0719
 9288SOL    HW139497   0.484   0.322   7.954 -1.4371 -0.7563 -1.4967
 9288SOL    HW239498   0.472   0.360   8.086  0.3406 -1.6578 -0.2084
 9289SOL     OW39499   2.470   1.549   9.675 -0.4161  0.2123 -0.0026
 9289SOL    HW139500   2.384   1.508   9.672 -0.0596 -0.5323 -0.0897
 9289SOL    HW239501   2.539   1.484   9.662 -3.3231 -2.7682 -0.5033
 9290SOL     OW39502   1.810   3.945   4.311  0.0125  0.2906 -0.5734
 9290SOL    HW139503   1.838   3.853   4.317  1.6776  0.7539 -1.2385
 9290SOL    HW239504   1.778   3.955   4.401 -0.6755 -0.1096 -0.7779
 9291SOL     OW39505   4.035   0.252  13.078 -0.1255 -0.0596  0.7650
 9291SOL    HW139506   4.053   0.256  12.984  0.4792  5.2628  1.1111
 9291SOL    HW239507   4.039   0.157  13.088  0.7019  0.0071  1.0449
 9292SOL     OW39508   3.743   1.622  12.743  0.4169 -0.0916 -0.1055
 9292SOL    HW139509   3.732   1.612  12.837 -0.5329 -3.1266 -0.5355
 9292SOL    HW239510   3.724   1.715  12.734  0.6608 -0.1560 -1.3211
 9293SOL     OW39511   3.772   3.141  10.516  0.2457 -0.7371  0.5625
 9293SOL    HW139512   3.724   3.126  10.597  0.8730  0.8934  1.2326
 9293SOL    HW239513   3.753   3.233  10.499 -0.2045 -0.9159  0.1032
 9294SOL     OW39514   0.680   2.486   6.917  0.2094 -0.0043 -0.0276
 9294SOL    HW139515   0.656   2.469   7.009  2.9609 -2.5881  0.2091
 9294SOL    HW239516   0.770   2.455   6.918  0.5174  0.8880 -0.5980
 9295SOL     OW39517   2.704   3.215   2.894 -0.0799  0.1197 -0.0647
 9295SOL    HW139518   2.624   3.254   2.861 -0.2143  1.7520  2.2077
 9295SOL    HW239519   2.679   3.124   2.911  0.0416  0.0601 -0.2085
 9296SOL     OW39520   4.169   4.156   8.839 -0.1701 -0.0142 -0.4335
 9296SOL    HW139521   4.158   4.234   8.893  1.7331 -0.4330  0.5550
 9296SOL    HW239522   4.193   4.091   8.905 -0.4643  0.2783 -0.0325
 9297SOL     OW39523   3.936   0.007   8.438 -0.1598  0.3327  0.2880
 9297SOL    HW139524   3.981   0.092   8.437  0.5519 -0.0610 -0.7202
 9297SOL    HW239525   3.968   4.715   8.354  0.4601  0.0193  0.6404
 9298SOL     OW39526   3.133   1.326   5.231  0.2949  0.3263  0.2024
 9298SOL    HW139527   3.186   1.252   5.262  1.3330  0.5666 -0.9657
 9298SOL    HW239528   3.066   1.284   5.177 -0.2516 -0.8064  1.7761
 9299SOL     OW39529   3.509   0.703  16.058  0.1628  0.4061 -0.5372
 9299SOL    HW139530   3.420   0.737  16.069  0.0173 -0.3421  0.6349
 9299SOL    HW239531   3.492   0.673  15.969 -3.7324  0.6512  0.1171
 9300SOL     OW39532   1.656   2.691  11.439 -0.2270 -0.1237  0.0862
 9300SOL    HW139533   1.576   2.656  11.480 -0.6151  0.4186 -0.2070
 9300SOL    HW239534   1.706   2.610  11.446  1.3651  0.7924 -0.6667
 9301SOL     OW39535   1.171   2.700   5.565  0.2835 -0.0187  0.0612
 9301SOL    HW139536   1.235   2.631   5.581  0.6885 -0.0808 -1.8365
 9301SOL    HW239537   1.095   2.645   5.543  0.0304 -0.2334  1.5061
 9302SOL     OW39538   2.490   4.064  17.683 -0.1362 -0.2615  0.0463
 9302SOL    HW139539   2.410   4.010  17.680 -0.8475  0.8568 -0.8033
 9302SOL    HW239540   2.548   4.003  17.638  1.1934 -0.4085  1.9704
 9303SOL     OW39541   0.509   1.982   9.320  0.7020 -0.0590 -0.3395
 9303SOL    HW139542   0.547   2.054   9.371 -1.5951  2.0032 -1.5419
 9303SOL    HW239543   0.553   1.900   9.346  0.5084 -0.3380 -0.8937
 9304SOL     OW39544   1.324   1.324   3.570 -0.1098 -0.5181  0.6280
 9304SOL    HW139545   1.380   1.282   3.505  0.3887  0.1466  0.6290
 9304SOL    HW239546   1.252   1.351   3.512  0.1242 -0.2101  0.4815
 9305SOL     OW39547   2.187   2.261   6.596 -0.0543 -1.1202  0.1288
 9305SOL    HW139548   2.136   2.180   6.600 -0.8906 -0.5684  0.4160
 9305SOL    HW239549   2.143   2.312   6.663 -0.4714 -0.0106 -0.9923
 9306SOL     OW39550   3.324   2.285   4.549  0.2916 -0.0233  0.9309
 9306SOL    HW139551   3.264   2.288   4.623  0.2885  0.5026  0.9051
 9306SOL    HW239552   3.402   2.327   4.586  1.1738  1.1317 -2.2395
 9307SOL     OW39553   4.047   3.999   2.086  0.1904 -0.0099  0.2963
 9307SOL    HW139554   4.077   3.980   2.175 -1.6934  0.1028  0.9681
 9307SOL    HW239555   3.960   4.034   2.107  1.6150  2.8055  1.5149
 9308SOL     OW39556   4.336   0.854   2.700  0.3472 -0.2158  0.0811
 9308SOL    HW139557   4.427   0.877   2.685  0.5475 -2.1715 -1.6022
 9308SOL    HW239558   4.314   0.804   2.622 -1.2406  2.3863 -1.1288
 9309SOL     OW39559   2.677   2.408   8.720  0.5619  0.0581 -0.4331
 9309SOL    HW139560   2.707   2.480   8.775  1.2974 -0.0448 -0.6977
 9309SOL    HW239561   2.706   2.437   8.633 -0.0906 -0.2713 -0.7619
 9310SOL     OW39562   0.210   1.910  11.067  0.4013 -0.6546  0.1606
 9310SOL    HW139563   0.203   1.975  10.998 -2.5156 -1.1334  0.0302
 9310SOL    HW239564   0.130   1.924  11.117 -0.3015  1.1623 -1.5051
 9311SOL     OW39565   3.031   4.223   2.318 -0.4811  0.6309 -0.3272
 9311SOL    HW139566   3.019   4.160   2.389 -2.1246 -0.0215 -1.1873
 9311SOL    HW239567   2.938   4.234   2.301 -0.7455  0.0127  0.7103
 9312SOL     OW39568   1.862   3.867   3.789 -0.1713  0.3860  0.7342
 9312SOL    HW139569   1.776   3.835   3.816 -1.1114  1.1076 -1.3934
 9312SOL    HW239570   1.843   3.928   3.717 -1.2381 -0.1044  0.6014
 9313SOL     OW39571   0.552   1.256   2.888  0.0497 -0.5652 -0.4235
 9313SOL    HW139572   0.640   1.249   2.850  0.5618 -0.7928  0.8006
 9313SOL    HW239573   0.530   1.165   2.906  0.9471 -0.5525  0.7591
 9314SOL     OW39574   0.623   2.440   7.170 -0.6284  0.0264  0.1284
 9314SOL    HW139575   0.532   2.410   7.173 -1.7638  3.5469  1.3028
 9314SOL    HW239576   0.664   2.410   7.251  0.7817  2.7404  0.4266
 9315SOL     OW39577   3.248   2.023   7.789 -0.3937  0.1743  0.4390
 9315SOL    HW139578   3.171   2.075   7.765  0.1410  1.1934  0.9478
 9315SOL    HW239579   3.217   1.937   7.762  2.0885 -0.4680 -0.3280
 9316SOL     OW39580   1.512   0.520   6.563 -0.1875  0.1062  0.1308
 9316SOL    HW139581   1.488   0.613   6.566  1.4430  0.5691 -0.6497
 9316SOL    HW239582   1.527   0.504   6.470 -1.1950 -0.3713  0.0614
 9317SOL     OW39583   3.719   1.323   9.414  0.2339 -0.1735  0.4992
 9317SOL    HW139584   3.625   1.309   9.428  0.5218 -1.5832  1.0442
 9317SOL    HW239585   3.725   1.385   9.341  0.6622 -0.9088 -0.0954
 9318SOL     OW39586   2.778   2.611   6.456  0.9237 -0.0643 -0.3522
 9318SOL    HW139587   2.759   2.517   6.451  3.5239 -0.5448 -1.2634
 9318SOL    HW239588   2.857   2.608   6.510  0.2517 -1.2490  0.5582
 9319SOL     OW39589   0.611   0.124   6.717 -0.0972 -0.9567 -0.0138
 9319SOL    HW139590   0.525   0.112   6.756 -0.0630  4.2554  1.7469
 9319SOL    HW239591   0.579   0.170   6.639  0.7551  1.2015  0.8993
 9320SOL     OW39592   2.115   4.594   4.907  0.0898  0.3806  0.4855
 9320SOL    HW139593   2.021   4.594   4.892  0.0618  1.6089  0.6581
 9320SOL    HW239594   2.123   4.539   4.985 -1.4071  0.8748  0.9939
 9321SOL     OW39595   4.467   3.358   5.452  0.0388  0.2870 -0.1345
 9321SOL    HW139596   4.468   3.452   5.436  0.0548  0.2737 -0.2152
 9321SOL    HW239597   4.498   3.316   5.371  0.5557  0.8630 -0.2324
 9322SOL     OW39598   1.501   1.968   0.970 -0.8594  0.2969  0.9284
 9322SOL    HW139599   1.581   1.958   1.022 -0.4714 -1.8225 -0.0883
 9322SOL    HW239600   1.476   2.046   1.019 -1.3963  1.2101 -0.8160
 9323SOL     OW39601   3.181   1.679   0.293  0.0164  0.3666 -0.4073
 9323SOL    HW139602   3.145   1.764   0.265  1.5547  0.3948 -2.2643
 9323SOL    HW239603   3.262   1.704   0.337  0.5367  0.6019 -1.4958
 9324SOL     OW39604   4.456   0.710   1.656 -0.1880  0.1490  0.2445
 9324SOL    HW139605   4.530   0.655   1.632  1.7849  2.6039  0.7234
 9324SOL    HW239606   4.441   0.685   1.747 -1.5016  2.1991  0.6083
 9325SOL     OW39607   3.174   1.112  14.715  0.3756 -0.0258 -1.0696
 9325SOL    HW139608   3.080   1.121  14.729  0.5409 -0.7782  0.4768
 9325SOL    HW239609   3.196   1.201  14.686  1.7576  0.1566  0.5293
 9326SOL     OW39610   4.290   2.534  14.877 -0.2134 -0.1630 -0.0881
 9326SOL    HW139611   4.318   2.496  14.960  2.2059  0.6574 -0.5438
 9326SOL    HW239612   4.194   2.538  14.881 -0.1893 -0.6504  0.9842
 9327SOL     OW39613   4.332   0.650   2.521  0.4664  0.0028  0.6418
 9327SOL    HW139614   4.351   0.709   2.448  0.2225  1.4197  1.7394
 9327SOL    HW239615   4.322   0.563   2.482 -0.0627  0.1271  0.5010
 9328SOL     OW39616   3.257   2.426   3.919 -0.3249  0.2438  0.0803
 9328SOL    HW139617   3.229   2.342   3.957 -0.7633 -0.7432 -2.4042
 9328SOL    HW239618   3.345   2.425   3.957 -0.4448  1.3985  0.3932
 9329SOL     OW39619   0.681   0.792  12.442  0.7938  0.0104  0.3464
 9329SOL    HW139620   0.599   0.760  12.481  1.9158 -0.5113  2.2761
 9329SOL    HW239621   0.657   0.884  12.437 -1.0008 -0.5601 -1.3222
 9330SOL     OW39622   1.350   0.066  12.867 -0.2634 -0.2235  0.3086
 9330SOL    HW139623   1.377   0.001  12.801 -0.0386 -1.2552  1.4155
 9330SOL    HW239624   1.297   0.135  12.828  0.7198  0.1082 -0.4567
 9331SOL     OW39625   0.279   2.950   2.675  0.3559 -0.0859 -0.4469
 9331SOL    HW139626   0.222   2.880   2.706  0.0973 -0.1671 -1.1120
 9331SOL    HW239627   0.279   2.946   2.579  1.0245  0.1100 -0.4590
 9332SOL     OW39628   1.362   3.373   6.641 -0.1687 -0.2940 -0.0584
 9332SOL    HW139629   1.342   3.290   6.685  3.5588 -1.1916 -0.0708
 9332SOL    HW239630   1.278   3.386   6.597 -1.1356 -1.7991  1.3214
 9333SOL     OW39631   1.288   2.130   5.973  0.3516  0.3740  0.7252
 9333SOL    HW139632   1.289   2.072   5.897 -0.8739  1.5751 -0.2087
 9333SOL    HW239633   1.263   2.216   5.939  2.8217  0.5772 -0.6250
 9334SOL     OW39634   1.842   0.696   8.052 -0.2127  0.2773  0.2020
 9334SOL    HW139635   1.828   0.753   7.977  1.0342  1.0906  0.5791
 9334SOL    HW239636   1.807   0.756   8.117  1.3382  1.0546  0.3201
 9335SOL     OW39637   3.146   0.398  12.273 -0.2732 -0.4294  0.2148
 9335SOL    HW139638   3.067   0.373  12.225 -0.4402 -0.4661  0.5083
 9335SOL    HW239639   3.105   0.401  12.360 -2.4272  1.3720 -0.8618
 9336SOL     OW39640   3.511   1.700   0.623 -0.2712 -0.3845  0.5062
 9336SOL    HW139641   3.424   1.681   0.588  0.8052  0.3154 -2.5781
 9336SOL    HW239642   3.480   1.741   0.704 -0.8467 -0.0873  0.1412
 9337SOL     OW39643   2.525   3.868   6.192 -0.7726 -0.2313 -0.1099
 9337SOL    HW139644   2.559   3.893   6.278  1.1562 -1.5184 -0.4752
 9337SOL    HW239645   2.586   3.800   6.163 -0.0321  1.4133 -2.3537
 9338SOL     OW39646   1.784   3.210  10.770 -0.2152  0.0769  0.2715
 9338SOL    HW139647   1.831   3.279  10.816 -2.4302  1.4629  0.4684
 9338SOL    HW239648   1.859   3.157  10.744 -1.5705 -0.9652 -1.5030
 9339SOL     OW39649   0.796   0.867  14.226  0.0388  0.0895  0.5926
 9339SOL    HW139650   0.745   0.804  14.277 -1.7563 -0.6603 -2.0602
 9339SOL    HW239651   0.725   0.927  14.204  0.3148 -0.6083 -2.3397
 9340SOL     OW39652   0.652   2.023  16.647 -0.1844  0.4973 -0.2547
 9340SOL    HW139653   0.556   2.022  16.642 -0.2112  1.0233  0.1275
 9340SOL    HW239654   0.680   2.093  16.706 -2.2526 -0.2703  1.6622
 9341SOL     OW39655   3.814   4.219   4.905  0.3986 -0.2838 -0.5493
 9341SOL    HW139656   3.765   4.281   4.959 -0.3624 -3.8645  2.9067
 9341SOL    HW239657   3.834   4.270   4.827  1.3895  0.2145  0.0384
 9342SOL     OW39658   3.545   2.903   1.709  0.4150  0.1572  0.8696
 9342SOL    HW139659   3.517   2.816   1.738  1.4496  0.7235  3.5749
 9342SOL    HW239660   3.509   2.955   1.781 -0.0320  2.3867 -0.9539
 9343SOL     OW39661   2.950   0.856  14.407 -0.5361 -0.4187  0.2414
 9343SOL    HW139662   2.904   0.936  14.380 -0.1749 -0.3454 -0.1508
 9343SOL    HW239663   2.975   0.873  14.498  0.4167  0.1694 -0.1303
 9344SOL     OW39664   3.761   0.250   4.898 -0.8992  0.0317 -0.6162
 9344SOL    HW139665   3.764   0.226   4.990 -0.4076 -0.1535 -0.6843
 9344SOL    HW239666   3.794   0.339   4.912 -0.0628 -0.0084 -2.3690
 9345SOL     OW39667   1.443   2.303   8.231  0.0769  0.2750  0.1469
 9345SOL    HW139668   1.357   2.340   8.250  0.3302 -0.1346  2.0852
 9345SOL    HW239669   1.411   2.242   8.164 -0.3239  0.6506 -0.0012
 9346SOL     OW39670   0.827   2.328   9.094 -0.0579  0.1509  0.4752
 9346SOL    HW139671   0.766   2.364   9.159 -2.2296 -1.6784 -0.5450
 9346SOL    HW239672   0.889   2.399   9.082  2.4103 -1.9488  0.8603
 9347SOL     OW39673   2.098   3.410   6.779 -0.1374 -0.4490  0.4344
 9347SOL    HW139674   2.124   3.362   6.700 -2.4990 -1.8709  0.5236
 9347SOL    HW239675   2.175   3.403   6.836 -0.0788 -0.3222  0.3705
 9348SOL     OW39676   2.622   3.591   2.743 -0.5344 -0.1275 -0.3008
 9348SOL    HW139677   2.553   3.640   2.699  0.4145 -1.1664 -2.9585
 9348SOL    HW239678   2.568   3.555   2.814  0.0827  0.2180  0.3493
 9349SOL     OW39679   0.844   4.385   4.333  0.0551  0.1111 -0.1071
 9349SOL    HW139680   0.820   4.414   4.421 -0.8996 -1.7124  0.2380
 9349SOL    HW239681   0.936   4.360   4.345 -0.0413 -0.0521  0.3234
 9350SOL     OW39682   3.433   3.084  10.581  0.1042  0.3698  0.6918
 9350SOL    HW139683   3.459   3.007  10.631  1.3259  0.7735  0.6647
 9350SOL    HW239684   3.376   3.137  10.636  0.8085  0.3213  1.4633
 9351SOL     OW39685   3.433   3.329   5.002  0.0362  0.7487  0.3040
 9351SOL    HW139686   3.400   3.335   5.091 -0.2350  0.1789  0.2355
 9351SOL    HW239687   3.364   3.279   4.959  0.4666 -0.6310  1.2260
 9352SOL     OW39688   2.246   1.149  11.994  0.0225 -0.0903 -0.0409
 9352SOL    HW139689   2.295   1.070  11.973 -0.5001  0.2382 -2.5389
 9352SOL    HW239690   2.220   1.173  11.906 -2.4524  2.4895  1.4101
 9353SOL     OW39691   3.620   4.577  14.180  0.0703  0.3049 -0.8589
 9353SOL    HW139692   3.602   4.671  14.187  1.0129  0.3856  0.4747
 9353SOL    HW239693   3.636   4.557  14.272 -0.0851  3.1279 -0.1966
 9354SOL     OW39694   1.231   0.328   8.817 -0.1296 -0.6904  0.2300
 9354SOL    HW139695   1.188   0.254   8.859  0.9554 -0.8411  1.0637
 9354SOL    HW239696   1.291   0.271   8.769  0.0172  0.6969 -1.2597
 9355SOL     OW39697   3.017   3.147   7.187 -0.5001 -0.2022  0.0224
 9355SOL    HW139698   3.020   3.071   7.246 -0.9227 -1.4811 -1.6001
 9355SOL    HW239699   3.110   3.160   7.165 -0.5312 -0.0108  0.0052
 9356SOL     OW39700   0.263   3.423   7.066  0.6031 -0.2834 -0.2521
 9356SOL    HW139701   0.209   3.349   7.037 -0.5325  0.3227  0.3149
 9356SOL    HW239702   0.242   3.427   7.160  1.5278 -0.4423 -0.0399
 9357SOL     OW39703   0.092   4.438   7.562  0.1948  0.1738 -0.5631
 9357SOL    HW139704   0.039   4.500   7.512  0.9586  0.5098 -0.9681
 9357SOL    HW239705   0.035   4.401   7.629 -0.6481  0.6921 -0.9903
 9358SOL     OW39706   4.704   0.540   7.096  0.0240 -0.1107 -0.4031
 9358SOL    HW139707   0.031   0.600   7.061  1.1917 -0.7891  0.6668
 9358SOL    HW239708   4.651   0.593   7.156 -1.0354 -1.1373 -0.4275
 9359SOL     OW39709   2.909   3.367   7.298 -0.3132 -0.1104  0.7241
 9359SOL    HW139710   2.960   3.387   7.376  0.2692  2.5675 -0.3278
 9359SOL    HW239711   2.937   3.278   7.276  1.9848  1.0046 -0.9491
 9360SOL     OW39712   4.683   3.029  12.678 -0.2461 -0.7649  0.1609
 9360SOL    HW139713   4.689   3.009  12.771  0.6593  0.7129  0.4086
 9360SOL    HW239714   4.593   3.005  12.654  0.3821  0.1302 -3.0999
 9361SOL     OW39715   2.287   0.666   2.232  0.7271 -0.1817 -0.3798
 9361SOL    HW139716   2.322   0.579   2.250  0.3314  0.0494  1.5059
 9361SOL    HW239717   2.236   0.683   2.311 -0.7607 -2.4282 -0.8520
 9362SOL     OW39718   0.503   1.232   0.741  0.4521  0.3608  0.0255
 9362SOL    HW139719   0.496   1.316   0.786 -2.3437 -1.0194  2.2063
 9362SOL    HW239720   0.590   1.200   0.763 -0.0733 -0.2599  1.1948
 9363SOL     OW39721   1.395   3.322   5.526  0.1917  0.1485 -0.1444
 9363SOL    HW139722   1.376   3.256   5.592  1.3987  1.8270  1.8761
 9363SOL    HW239723   1.425   3.393   5.583  0.8454  0.7178 -1.1936
 9364SOL     OW39724   2.113   4.599   1.775  0.3577  0.3181 -0.1091
 9364SOL    HW139725   2.089   4.620   1.685 -1.4027 -0.8816  0.0748
 9364SOL    HW239726   2.208   4.602   1.779  0.3822  0.0497 -0.4577
 9365SOL     OW39727   2.109   2.112   0.204  0.0277 -0.3710 -0.3115
 9365SOL    HW139728   2.198   2.147   0.198 -0.7273  1.9503  1.9748
 9365SOL    HW239729   2.067   2.164   0.135  1.3024 -3.0595 -3.1215
 9366SOL     OW39730   1.340   2.841  12.504 -0.3689 -0.4550  0.0339
 9366SOL    HW139731   1.425   2.798  12.503  0.5735  1.4437 -1.0704
 9366SOL    HW239732   1.360   2.903  12.434 -2.8427 -2.0918 -2.1458
 9367SOL     OW39733   1.645   4.508   0.539 -0.1914 -0.7248  0.2031
 9367SOL    HW139734   1.697   4.479   0.463  0.3823  0.6744  0.0606
 9367SOL    HW239735   1.703   4.471   0.606  1.2376  1.7889  0.3531
 9368SOL     OW39736   0.846   3.897   5.426  0.2439  0.2668  0.2691
 9368SOL    HW139737   0.934   3.901   5.462  0.2305 -1.3926  0.5157
 9368SOL    HW239738   0.794   3.934   5.497 -0.1533  0.6579 -0.2231
 9369SOL     OW39739   1.247   3.651   8.123  0.2072 -0.1548 -0.0978
 9369SOL    HW139740   1.171   3.709   8.125  1.3648  1.3456  0.3282
 9369SOL    HW239741   1.260   3.644   8.218  1.5743 -1.3170 -0.3677
 9370SOL     OW39742   4.732   0.343  13.057 -0.4007  0.0572 -0.4819
 9370SOL    HW139743   4.662   0.343  13.122  0.6674 -0.0893  0.6670
 9370SOL    HW239744   4.690   0.381  12.980 -2.2938 -1.3748 -0.1287
 9371SOL     OW39745   0.124   4.702   2.372 -0.1073  0.0459 -0.1376
 9371SOL    HW139746   0.084   4.731   2.454 -0.9250  2.2655 -1.3098
 9371SOL    HW239747   0.212   4.685   2.406 -0.2561 -1.6882 -0.6291
 9372SOL     OW39748   0.707   2.311   7.804 -0.2094  0.1473  1.0975
 9372SOL    HW139749   0.764   2.374   7.761  0.6749 -1.7371 -0.5158
 9372SOL    HW239750   0.782   2.252   7.814 -0.4806 -1.0308 -3.5779
 9373SOL     OW39751   2.045   4.676   7.328  0.0146  0.4945  0.3141
 9373SOL    HW139752   2.042   4.597   7.274 -1.2005  0.7445  0.0163
 9373SOL    HW239753   2.138   4.698   7.320 -0.0601  1.1704  1.3465
 9374SOL     OW39754   0.050   4.092   4.252  0.0996  0.4902  0.4533
 9374SOL    HW139755   4.709   4.042   4.269 -0.5688  2.3402  2.6980
 9374SOL    HW239756   0.046   4.125   4.162  2.0439 -0.9234 -0.1482
 9375SOL     OW39757   3.740   1.569   0.759 -0.3853  0.1188 -0.0922
 9375SOL    HW139758   3.661   1.614   0.729 -0.4615 -1.2637 -1.9337
 9375SOL    HW239759   3.705   1.510   0.825  0.3112  1.0594  1.1234
 9376SOL     OW39760   4.668   4.549   6.598  0.2775  0.3851  0.3605
 9376SOL    HW139761   4.716   4.580   6.521 -0.0580 -1.7101 -0.6758
 9376SOL    HW239762   4.728   4.479   6.621  1.3405  0.3902 -2.4090
 9377SOL     OW39763   1.260   0.106   2.972  0.0588 -0.0736  0.0897
 9377SOL    HW139764   1.270   0.129   3.064 -2.2902 -1.6969  0.7806
 9377SOL    HW239765   1.221   0.190   2.947  1.1331  0.3592 -0.1054
 9378SOL     OW39766   3.531   0.970   5.358  0.3563 -0.4912 -0.3431
 9378SOL    HW139767   3.609   1.013   5.392  0.9665 -0.3063 -1.9753
 9378SOL    HW239768   3.531   0.883   5.400 -0.2229 -0.7124 -0.7920
 9379SOL     OW39769   1.918   0.727  11.455  0.3417  0.2195 -0.5213
 9379SOL    HW139770   1.915   0.697  11.546 -0.0790  2.9492  0.3674
 9379SOL    HW239771   1.835   0.687  11.430  0.3137 -0.4037  0.5788
 9380SOL     OW39772   2.658   2.938  12.117  0.0036 -0.0374  0.1098
 9380SOL    HW139773   2.707   2.957  12.036 -1.4912  3.1482 -0.0595
 9380SOL    HW239774   2.718   2.876  12.158 -0.7915 -0.9098 -0.0641
 9381SOL     OW39775   0.533   4.421   1.775 -0.0857 -0.2794 -0.4656
 9381SOL    HW139776   0.620   4.430   1.736  1.0155 -1.0898  1.7579
 9381SOL    HW239777   0.539   4.332   1.811 -0.6875  0.5257  1.6518
 9382SOL     OW39778   3.787   2.915   2.418  0.3657 -0.4929  0.9077
 9382SOL    HW139779   3.827   2.951   2.339 -2.0823 -1.4645 -0.7676
 9382SOL    HW239780   3.693   2.925   2.400  0.7533  1.5242  0.0010
 9383SOL     OW39781   0.408   3.408   0.136 -0.2728  0.1290 -0.2879
 9383SOL    HW139782   0.452   3.416   0.051  0.1478  1.3992  0.0474
 9383SOL    HW239783   0.441   3.488   0.176  1.0765 -1.5790  1.9858
 9384SOL     OW39784   1.021   1.132   8.588  0.1056  0.1425  0.0973
 9384SOL    HW139785   0.955   1.099   8.649  1.2427  0.8073  1.7106
 9384SOL    HW239786   0.968   1.195   8.539 -0.6309 -0.4242  0.1621
 9385SOL     OW39787   1.040   0.456  12.611  0.0613 -0.4663  0.2540
 9385SOL    HW139788   0.949   0.440  12.636 -0.0353 -1.0535 -0.4532
 9385SOL    HW239789   1.055   0.377  12.558  0.6417 -0.2141  0.0445
 9386SOL     OW39790   2.979   2.288   7.896 -0.2293 -0.2682  0.5811
 9386SOL    HW139791   2.989   2.308   7.803 -2.1666  2.6724  0.9781
 9386SOL    HW239792   2.948   2.199   7.877 -0.1245 -0.4140  1.1028
 9387SOL     OW39793   1.878   0.303   3.025  0.1559 -0.3483 -0.2818
 9387SOL    HW139794   1.802   0.344   2.984  0.0186  0.9980  1.3473
 9387SOL    HW239795   1.912   0.372   3.082 -0.3406 -1.0004  0.7946
 9388SOL     OW39796   3.544   1.504   7.255  0.2869  0.0684 -0.2746
 9388SOL    HW139797   3.635   1.475   7.254  0.3525  0.2737 -0.4761
 9388SOL    HW239798   3.554   1.599   7.254 -2.3877  0.3211 -0.9548
 9389SOL     OW39799   3.821   4.397  12.170 -0.2292 -0.2429  0.0476
 9389SOL    HW139800   3.916   4.402  12.184 -0.1404 -0.1004 -0.5870
 9389SOL    HW239801   3.789   4.341  12.241  1.3230 -0.2610  0.7247
 9390SOL     OW39802   3.456   1.551  17.720  0.2801  0.3542 -0.1651
 9390SOL    HW139803   3.490   1.479  17.666  0.2455  0.2725 -0.0801
 9390SOL    HW239804   3.486   1.528   0.055  0.0621  1.9261  0.3077
 9391SOL     OW39805   1.318   2.134   6.264 -0.0962  0.0347  0.2260
 9391SOL    HW139806   1.254   2.201   6.288  0.6885  0.3632  1.3874
 9391SOL    HW239807   1.335   2.141   6.170 -0.8294  1.8752  0.2344
 9392SOL     OW39808   3.224   0.342   3.468 -0.5049 -0.1592  0.3010
 9392SOL    HW139809   3.136   0.334   3.505 -0.6216  1.9414  0.5033
 9392SOL    HW239810   3.234   0.270   3.406  1.7188 -0.8747  1.4980
 9393SOL     OW39811   4.693   0.074   4.519  0.0270  1.2109  0.2327
 9393SOL    HW139812   4.704   4.732   4.568  0.4786  1.8627  1.2046
 9393SOL    HW239813   4.628   0.042   4.456  1.2479 -1.9114  0.5559
 9394SOL     OW39814   3.062   4.181   8.762 -0.3271  0.2803 -0.0677
 9394SOL    HW139815   3.011   4.228   8.828  0.2452 -1.2977  1.5203
 9394SOL    HW239816   3.132   4.238   8.731 -3.0101  2.8785 -1.3411
 9395SOL     OW39817   1.318   0.603   0.352  0.2137 -0.3692  0.7129
 9395SOL    HW139818   1.271   0.532   0.394 -0.1477 -0.5864 -0.0548
 9395SOL    HW239819   1.396   0.576   0.400 -0.9007 -1.2633  1.9954
 9396SOL     OW39820   3.136   2.515  13.037  0.1177  0.2220  0.2496
 9396SOL    HW139821   3.164   2.582  13.099 -1.7628  3.0553 -2.0259
 9396SOL    HW239822   3.111   2.445  13.098  0.6620 -0.8292 -0.7205
 9397SOL     OW39823   2.423   0.317   1.161 -0.3227 -0.4130  0.1940
 9397SOL    HW139824   2.360   0.249   1.187 -1.4073  0.1406 -0.9925
 9397SOL    HW239825   2.377   0.370   1.095 -0.9336 -0.4320  0.6092
 9398SOL     OW39826   3.425   2.963   9.892  0.9578  0.1581 -0.2766
 9398SOL    HW139827   3.403   2.872   9.912 -0.3236  0.1410 -1.7809
 9398SOL    HW239828   3.413   3.006   9.977 -0.6108  0.0548 -0.4472
 9399SOL     OW39829   1.097   0.540   3.456  0.0685  0.2693  0.5249
 9399SOL    HW139830   1.015   0.545   3.407  1.4643  0.6665 -1.7952
 9399SOL    HW239831   1.068   0.587   3.534 -3.2803  1.1236 -1.2289
 9400SOL     OW39832   2.773   2.079   5.292 -0.4242 -0.5934  0.3370
 9400SOL    HW139833   2.755   2.159   5.342  2.6733  1.5178 -2.0004
 9400SOL    HW239834   2.733   2.011   5.347 -4.1296  0.2965 -1.2619
 9401SOL     OW39835   1.739   2.217  15.179  0.2148 -0.1574  0.2907
 9401SOL    HW139836   1.647   2.217  15.153 -0.5080  1.8800  2.7718
 9401SOL    HW239837   1.751   2.306  15.212  0.5330  0.0803 -0.4727
 9402SOL     OW39838   2.753   3.868   9.009 -0.6730  0.8861  0.0277
 9402SOL    HW139839   2.790   3.864   9.097 -3.2373 -2.0306  1.0095
 9402SOL    HW239840   2.664   3.839   9.030 -0.8289  0.8743 -0.6304
 9403SOL     OW39841   1.298   1.219   0.532  0.4150  0.0456  0.3826
 9403SOL    HW139842   1.236   1.175   0.590  1.6330 -3.5715 -1.0686
 9403SOL    HW239843   1.315   1.150   0.468  0.4012 -0.3691  0.8281
 9404SOL     OW39844   0.002   2.260   1.333 -0.4419  0.3894  0.2999
 9404SOL    HW139845   4.706   2.227   1.250  0.3548 -0.6036  0.3601
 9404SOL    HW239846   4.675   2.236   1.398 -0.9227 -2.0481 -1.0953
 9405SOL     OW39847   1.844   4.561   7.928  0.1442 -0.1942 -0.3003
 9405SOL    HW139848   1.790   4.640   7.921 -0.7626 -0.7840  0.1830
 9405SOL    HW239849   1.824   4.522   8.012 -1.1425  1.0130 -0.0470
 9406SOL     OW39850   2.917   2.341   2.152  0.5975 -0.5724 -0.6829
 9406SOL    HW139851   2.921   2.345   2.056 -0.2349  0.5501 -0.6748
 9406SOL    HW239852   2.860   2.266   2.168  0.7469 -0.8760 -1.5436
 9407SOL     OW39853   0.581   4.648   8.234  0.4462  0.7072  0.3055
 9407SOL    HW139854   0.630   4.577   8.193 -2.0174 -1.3031  0.8522
 9407SOL    HW239855   0.500   4.647   8.184 -0.2451 -1.4518  1.4893
 9408SOL     OW39856   2.390   2.811  12.193 -0.3107  0.1700 -0.0710
 9408SOL    HW139857   2.449   2.879  12.161 -0.6395  1.0753  1.2198
 9408SOL    HW239858   2.356   2.776  12.111  0.9783 -0.1916 -0.4601
 9409SOL     OW39859   1.346   3.697  16.906  0.3474 -0.4450  0.7458
 9409SOL    HW139860   1.304   3.617  16.937  1.3788 -1.1222  0.4080
 9409SOL    HW239861   1.290   3.773  16.922  0.6754  0.1022 -0.7711
 9410SOL     OW39862   3.255   2.356   7.453 -0.3788 -0.0778  0.2354
 9410SOL    HW139863   3.316   2.426   7.479  1.9566 -0.8068 -3.1977
 9410SOL    HW239864   3.255   2.362   7.357 -0.0680 -2.3631  0.0914
 9411SOL     OW39865   2.374   0.337   1.972 -0.0206  0.1066 -0.5195
 9411SOL    HW139866   2.428   0.403   1.929  2.3775 -1.2067  0.4770
 9411SOL    HW239867   2.362   0.273   1.901 -1.4541  1.3625 -1.4051
 9412SOL     OW39868   2.990   1.659  10.002 -0.5441  0.1747 -0.3338
 9412SOL    HW139869   2.988   1.751  10.028 -0.6373  0.8161 -2.5850
 9412SOL    HW239870   2.925   1.646   9.933 -1.2494  0.4782  0.2788
 9413SOL     OW39871   1.606   4.498   1.942 -0.3742 -0.2246  0.2416
 9413SOL    HW139872   1.520   4.535   1.923  0.4903  1.3717 -0.5503
 9413SOL    HW239873   1.589   4.406   1.921 -1.5998  0.6376 -2.4433
 9414SOL     OW39874   3.612   2.552   2.939 -0.4179 -0.2925  0.0727
 9414SOL    HW139875   3.533   2.528   2.892 -1.3939  1.6550  0.6888
 9414SOL    HW239876   3.668   2.479   2.915  0.1833 -0.4793  2.0498
 9415SOL     OW39877   2.161   1.751   8.550 -0.1799 -0.0018 -0.1161
 9415SOL    HW139878   2.080   1.700   8.540  1.0199 -2.0601  0.7099
 9415SOL    HW239879   2.124   1.832   8.515 -1.9132 -0.4594  0.6268
 9416SOL     OW39880   3.981   2.838   2.838  0.4274 -0.3986 -0.0327
 9416SOL    HW139881   3.993   2.761   2.892  1.5014  0.4365  0.9204
 9416SOL    HW239882   4.072   2.863   2.827  0.6087 -0.3660  1.5250
 9417SOL     OW39883   1.084   4.299   7.252 -0.0965 -0.2027  0.1835
 9417SOL    HW139884   1.068   4.379   7.302 -0.0298  0.7296 -1.2700
 9417SOL    HW239885   0.993   4.275   7.238  0.0962  0.2749 -2.0204
 9418SOL     OW39886   4.655   0.955   2.868 -0.0877  0.3170 -0.4968
 9418SOL    HW139887   4.710   0.924   2.796  1.0644  0.1595  0.4454
 9418SOL    HW239888   4.656   1.049   2.848 -1.6711  0.5794  0.6999
 9419SOL     OW39889   4.245   2.381  15.914 -0.1953  0.0093 -0.4601
 9419SOL    HW139890   4.329   2.391  15.959 -1.4628  1.4550  1.5875
 9419SOL    HW239891   4.223   2.474  15.905 -1.4485 -0.1395  1.0692
 9420SOL     OW39892   2.929   4.151   4.217  0.0696  0.7838 -0.2345
 9420SOL    HW139893   2.920   4.103   4.300 -1.3617  0.8526 -0.3381
 9420SOL    HW239894   2.851   4.205   4.230 -1.9015 -2.4559  1.7319
 9421SOL     OW39895   0.951   2.925  15.058 -0.3462  0.2773  0.0485
 9421SOL    HW139896   0.931   2.994  15.121  0.7609  1.4700 -0.9348
 9421SOL    HW239897   0.922   2.961  14.974  0.3650  1.1798  0.1903
 9422SOL     OW39898   1.938   4.149  11.484  0.0915 -0.1713 -0.3406
 9422SOL    HW139899   1.848   4.175  11.506 -0.0940  0.2092 -1.5130
 9422SOL    HW239900   1.985   4.189  11.557 -0.7761  0.1643  0.0401
 9423SOL     OW39901   2.114   0.549   2.926 -0.2355 -0.0403  0.2591
 9423SOL    HW139902   2.049   0.596   2.875 -0.8677 -0.7356  0.4163
 9423SOL    HW239903   2.180   0.612   2.955 -0.4549  0.3727 -0.1498
 9424SOL     OW39904   0.916   0.807   4.236 -0.0097  0.1400  0.0946
 9424SOL    HW139905   0.905   0.898   4.264 -1.7747 -0.2316  0.5951
 9424SOL    HW239906   0.904   0.821   4.142 -1.1220 -0.6527  0.1189
 9425SOL     OW39907   2.057   3.611   2.790 -0.3242  0.1447  0.7667
 9425SOL    HW139908   2.060   3.599   2.695  0.8968 -2.5856  1.1362
 9425SOL    HW239909   2.004   3.690   2.801  0.0506  0.4179  0.5978
 9426SOL     OW39910   3.823   0.734  15.944  0.1656 -0.2455  0.1313
 9426SOL    HW139911   3.784   0.698  15.865 -1.0084 -2.8554  1.8834
 9426SOL    HW239912   3.916   0.741  15.922 -0.1192 -0.4185 -1.0762
 9427SOL     OW39913   2.457   4.464   8.858 -0.0066 -0.3632  0.0441
 9427SOL    HW139914   2.502   4.386   8.888 -2.9911 -1.9539  0.3660
 9427SOL    HW239915   2.430   4.425   8.775  1.0842  0.7171 -0.8262
 9428SOL     OW39916   0.102   2.495   7.489  0.1505 -0.1782 -0.1850
 9428SOL    HW139917   0.167   2.542   7.438 -0.4234  3.2613  2.2362
 9428SOL    HW239918   0.079   2.547   7.566  1.7101  2.8089 -1.7550
 9429SOL     OW39919   3.873   4.250   2.391 -0.3909  0.6523 -0.2876
 9429SOL    HW139920   3.875   4.329   2.445 -2.4338  0.7292 -0.3172
 9429SOL    HW239921   3.793   4.265   2.340 -0.5223 -0.1944 -0.3365
 9430SOL     OW39922   4.673   2.463   9.344  0.3811  0.2470 -0.1271
 9430SOL    HW139923   4.614   2.398   9.383  0.5822 -0.9064 -1.7382
 9430SOL    HW239924   4.626   2.544   9.359  0.3313  0.0593  0.7293
 9431SOL     OW39925   2.634   1.000   3.110 -0.2991 -0.1108 -0.6950
 9431SOL    HW139926   2.543   0.990   3.081 -0.4582  0.5993 -0.4256
 9431SOL    HW239927   2.671   0.913   3.125  0.6577  0.6333  1.2595
 9432SOL     OW39928   0.137   0.976   4.779  0.6966 -0.2171 -0.4612
 9432SOL    HW139929   0.042   0.989   4.775  1.0356  2.7525  0.7059
 9432SOL    HW239930   0.168   1.034   4.849  3.1147 -2.7966  0.6032
 9433SOL     OW39931   1.333   3.786   5.403 -0.2666  0.6799  1.0940
 9433SOL    HW139932   1.343   3.830   5.319 -0.9055  0.0698  0.7007
 9433SOL    HW239933   1.288   3.710   5.368 -0.9152  1.8104 -0.5098
 9434SOL     OW39934   1.932   3.492   1.859  0.4546 -0.6665 -0.4044
 9434SOL    HW139935   1.908   3.408   1.819 -0.9876  0.4961 -1.9503
 9434SOL    HW239936   1.869   3.543   1.809 -0.2841  0.0434  1.2567
 9435SOL     OW39937   1.745   2.609   4.841 -0.3277  0.4495 -0.4892
 9435SOL    HW139938   1.724   2.624   4.748 -1.7704 -4.0872 -0.8972
 9435SOL    HW239939   1.766   2.516   4.830 -1.6540  0.3240 -2.0328
 9436SOL     OW39940   2.441   4.451   8.114 -0.2521 -0.2339 -0.2038
 9436SOL    HW139941   2.349   4.456   8.088 -0.7454  2.0676  1.9312
 9436SOL    HW239942   2.439   4.465   8.209  0.5404 -2.8653  0.2107
 9437SOL     OW39943   2.983   0.379   7.985 -0.0203 -0.5264 -1.1485
 9437SOL    HW139944   3.057   0.436   7.962  0.6346 -1.1908 -0.6825
 9437SOL    HW239945   3.023   0.294   7.968 -0.1904 -1.4236  3.0662
 9438SOL     OW39946   1.339   3.768   5.882  0.0390 -0.0615  0.1296
 9438SOL    HW139947   1.382   3.792   5.800 -3.2404 -1.4313 -1.9585
 9438SOL    HW239948   1.410   3.796   5.940  0.1216  0.5314 -0.2656
 9439SOL     OW39949   0.896   1.446   6.514  0.1108 -0.1020  0.0960
 9439SOL    HW139950   0.937   1.476   6.595 -0.4454 -1.8015  1.0160
 9439SOL    HW239951   0.960   1.477   6.449 -0.2406  1.6055  0.5800
 9440SOL     OW39952   2.610   2.162  13.936 -0.1611  0.1682 -0.8478
 9440SOL    HW139953   2.613   2.070  13.963 -0.3501  0.7000  1.0401
 9440SOL    HW239954   2.553   2.188  14.009  3.3978  0.8566  1.6838
 9441SOL     OW39955   2.663   3.180   4.562  0.8259  0.3334 -0.0304
 9441SOL    HW139956   2.586   3.157   4.615 -0.7358 -0.0109 -2.4372
 9441SOL    HW239957   2.635   3.191   4.471 -0.5539  0.4045  0.3982
 9442SOL     OW39958   1.982   3.549  16.494 -0.2500  0.4526 -0.7580
 9442SOL    HW139959   1.984   3.527  16.401 -0.7900 -0.9601 -0.4400
 9442SOL    HW239960   1.957   3.472  16.545  0.7659  1.7735  1.7103
 9443SOL     OW39961   1.270   1.863  17.686  0.2369  0.6455  0.3717
 9443SOL    HW139962   1.301   1.779  17.653 -1.7170 -0.7932  2.1681
 9443SOL    HW239963   1.345   1.891  17.739 -0.5286  1.8394  0.8283
 9444SOL     OW39964   2.807   3.051   4.080  0.4789  0.1400  0.4303
 9444SOL    HW139965   2.823   2.959   4.105  0.0341  0.0793  0.4812
 9444SOL    HW239966   2.739   3.042   4.014 -2.9772 -0.3122  4.0937
 9445SOL     OW39967   2.636   0.888  17.258 -0.3690  0.1524 -0.4340
 9445SOL    HW139968   2.610   0.980  17.257 -4.3706 -1.0043 -2.3642
 9445SOL    HW239969   2.644   0.874  17.353  1.3005 -1.5427 -0.8093
 9446SOL     OW39970   0.547   1.830   8.489 -0.3197  0.1015  0.1309
 9446SOL    HW139971   0.560   1.909   8.542 -1.0054  1.1469 -1.2646
 9446SOL    HW239972   0.534   1.772   8.565  1.6656 -0.8768 -0.2652
 9447SOL     OW39973   4.701   3.450  12.990  0.4073 -0.3404  0.3046
 9447SOL    HW139974   0.014   3.389  13.043  2.2187  2.0019  1.2427
 9447SOL    HW239975   4.686   3.515  13.059  1.3573 -0.2243  0.3979
 9448SOL     OW39976   4.556   3.722  12.862  0.4642  0.5430  0.0063
 9448SOL    HW139977   4.558   3.817  12.853 -2.1476  0.4078 -2.0259
 9448SOL    HW239978   4.647   3.697  12.847 -0.1209 -2.3354  1.1478
 9449SOL     OW39979   1.076   4.270  10.542 -0.3833 -0.7204  0.3952
 9449SOL    HW139980   1.086   4.327  10.466 -1.1972 -0.8157  0.2208
 9449SOL    HW239981   1.062   4.188  10.495 -1.0881  0.1100 -0.8084
 9450SOL     OW39982   3.392   4.372   5.444 -0.4423  0.3851  0.2650
 9450SOL    HW139983   3.434   4.454   5.468  2.2735 -1.2281  1.0356
 9450SOL    HW239984   3.402   4.388   5.350  1.5138 -0.6227  0.2996
 9451SOL     OW39985   0.496   2.519   4.164  0.0924 -0.3858  0.1405
 9451SOL    HW139986   0.482   2.534   4.071 -4.0807 -0.9640  0.6912
 9451SOL    HW239987   0.410   2.500   4.202 -0.9167  1.2716 -1.2963
 9452SOL     OW39988   4.120   2.407   1.452 -0.5007  0.2987  0.5468
 9452SOL    HW139989   4.098   2.486   1.402  0.2019 -0.2901 -0.6918
 9452SOL    HW239990   4.162   2.446   1.529 -0.9303 -0.4087  1.1344
 9453SOL     OW39991   3.473   1.128  13.030 -0.7268  0.0379  0.3305
 9453SOL    HW139992   3.497   1.137  12.937  0.6465 -0.0096  0.6751
 9453SOL    HW239993   3.525   1.050  13.047 -1.7467 -1.0683 -1.6569
 9454SOL     OW39994   2.456   1.004   8.202 -0.2785 -0.3767 -0.2904
 9454SOL    HW139995   2.506   1.077   8.238  0.8630 -1.7696  0.9917
 9454SOL    HW239996   2.374   1.051   8.192  0.7259  1.4362  0.1493
 9455SOL     OW39997   0.137   0.078   1.998  0.1140  0.3743  0.2402
 9455SOL    HW139998   0.079   0.009   2.030  0.5206 -0.0954 -0.0305
 9455SOL    HW239999   0.080   0.134   1.943 -0.8511  0.6120  1.4882
 9456SOL     OW40000   2.991   0.287   3.740 -0.4427  0.3139 -0.0365
 9456SOL    HW140001   2.945   0.254   3.817 -2.6898  1.0102 -1.0696
 9456SOL    HW240002   3.001   0.206   3.691  1.1449  0.6393 -0.2513
 9457SOL     OW40003   2.030   1.797   6.093 -0.0883 -0.1482 -0.8010
 9457SOL    HW140004   2.032   1.888   6.064 -0.6377 -0.3738 -1.5504
 9457SOL    HW240005   2.002   1.810   6.184 -2.1600 -0.7076 -1.3521
 9458SOL     OW40006   3.522   0.912   8.642 -0.0774  0.0398  0.3911
 9458SOL    HW140007   3.463   0.850   8.599  1.4973 -0.2375 -1.3741
 9458SOL    HW240008   3.487   0.995   8.610  1.6784  0.6801  0.1681
 9459SOL     OW40009   3.836   4.160   9.808 -0.2738 -0.3222 -0.1731
 9459SOL    HW140010   3.847   4.149   9.902  2.9363  0.3298 -0.4631
 9459SOL    HW240011   3.816   4.072   9.778  0.4714 -0.7487  0.5663
 9460SOL     OW40012   1.037   1.981   6.091 -0.1337  0.5216 -0.0298
 9460SOL    HW140013   1.126   2.013   6.076 -0.3599 -0.2539 -3.1800
 9460SOL    HW240014   1.028   1.984   6.186  0.5832  1.6689 -0.0051
 9461SOL     OW40015   3.365   2.502   2.303  0.1534  0.4639 -0.5513
 9461SOL    HW140016   3.296   2.440   2.280 -0.6148  0.7543  0.9598
 9461SOL    HW240017   3.393   2.469   2.388 -1.0685  1.6893  0.3348
 9462SOL     OW40018   3.657   1.690  12.382  0.5132  0.1359  0.5023
 9462SOL    HW140019   3.576   1.644  12.360 -0.4526  1.5232  1.1583
 9462SOL    HW240020   3.647   1.762  12.321  1.8076  0.4075  0.6065
 9463SOL     OW40021   4.493   3.847   0.274 -0.4002  0.1879  0.1005
 9463SOL    HW140022   4.487   3.942   0.265  1.5848  0.2433 -0.6972
 9463SOL    HW240023   4.400   3.826   0.289 -0.6859  0.3025 -1.4941
 9464SOL     OW40024   3.628   0.157   2.363  0.1254 -0.2055 -0.6021
 9464SOL    HW140025   3.710   0.190   2.326  1.6880 -2.1223  1.1134
 9464SOL    HW240026   3.574   0.231   2.390  0.3781  0.1006 -0.9386
 9465SOL     OW40027   2.830   3.859   1.762  0.6471 -0.4507 -0.6273
 9465SOL    HW140028   2.818   3.941   1.715 -0.7438  0.3792  1.1944
 9465SOL    HW240029   2.846   3.886   1.852  0.0370 -0.4036 -0.5344
 9466SOL     OW40030   0.419   3.135   5.539 -0.4129  0.2608  0.2064
 9466SOL    HW140031   0.341   3.088   5.509 -0.5104  0.6744 -0.1975
 9466SOL    HW240032   0.441   3.173   5.453  2.3210  0.1879  0.8894
 9467SOL     OW40033   2.547   0.396   6.529  0.0741 -0.2601  0.3455
 9467SOL    HW140034   2.502   0.315   6.554  0.6038 -0.1051  1.8256
 9467SOL    HW240035   2.468   0.450   6.519  0.4473  0.0620 -0.8019
 9468SOL     OW40036   0.604   4.492  11.883  0.5326 -0.1966 -0.4714
 9468SOL    HW140037   0.655   4.422  11.925 -2.0204 -1.7770 -0.0619
 9468SOL    HW240038   0.528   4.447  11.846  0.6816 -1.4537  0.7482
 9469SOL     OW40039   4.382   1.127   8.050 -0.5345  0.9064 -0.5725
 9469SOL    HW140040   4.447   1.194   8.027 -0.0659  0.8202  0.5282
 9469SOL    HW240041   4.302   1.175   8.070  2.3540  3.9977  3.4269
 9470SOL     OW40042   1.400   4.624   4.036 -0.3971 -0.0152 -0.9673
 9470SOL    HW140043   1.344   4.702   4.039 -1.3708 -0.6223 -3.1660
 9470SOL    HW240044   1.391   4.606   3.943  1.6419 -1.9437 -0.7863
 9471SOL     OW40045   0.196   2.367   1.095 -0.4037  0.0980 -0.1878
 9471SOL    HW140046   0.211   2.285   1.140 -1.8146 -0.5550 -0.9132
 9471SOL    HW240047   0.220   2.431   1.162  1.1227 -2.9545  2.1302
 9472SOL     OW40048   3.510   3.818   7.414  0.2869 -0.2702  0.0224
 9472SOL    HW140049   3.486   3.861   7.495  1.9762  1.7262 -0.5405
 9472SOL    HW240050   3.454   3.858   7.348  1.1530  1.7271  0.5081
 9473SOL     OW40051   1.527   0.199   2.567 -0.1781 -0.6474  0.2306
 9473SOL    HW140052   1.592   0.250   2.519 -2.1931  0.8895 -0.8785
 9473SOL    HW240053   1.514   0.118   2.517 -0.3756 -0.9037  0.7001
 9474SOL     OW40054   3.486   2.687   4.812 -0.6216  0.0627 -0.8119
 9474SOL    HW140055   3.559   2.684   4.873 -0.8694 -2.7750 -0.6637
 9474SOL    HW240056   3.502   2.617   4.748 -0.7158 -2.0813  1.5194
 9475SOL     OW40057   0.270   1.744  12.447 -0.5445 -0.4423  0.3803
 9475SOL    HW140058   0.334   1.762  12.378 -0.4860  0.0752  0.5766
 9475SOL    HW240059   0.298   1.653  12.459  0.8387  0.0436  0.7804
 9476SOL     OW40060   3.363   2.038   3.708 -0.1823 -0.2705  0.4084
 9476SOL    HW140061   3.291   2.086   3.749 -0.0345  0.5704 -0.3336
 9476SOL    HW240062   3.310   1.991   3.644  0.4564  0.2635 -0.5034
 9477SOL     OW40063   1.434   0.648  11.838  0.4855 -0.1861  0.1135
 9477SOL    HW140064   1.486   0.620  11.763  1.6348  2.0804  0.0744
 9477SOL    HW240065   1.495   0.700  11.890  0.5574  1.3650 -1.5291
 9478SOL     OW40066   0.643   3.674   2.785 -0.2284  0.2086 -0.2477
 9478SOL    HW140067   0.603   3.751   2.744  1.3900  2.5152  2.5624
 9478SOL    HW240068   0.677   3.711   2.866  1.4441 -0.1968 -0.7509
 9479SOL     OW40069   3.427   0.423   7.559 -0.3117 -0.2310  0.0123
 9479SOL    HW140070   3.471   0.456   7.481  1.5271 -2.4783  0.0923
 9479SOL    HW240071   3.342   0.461   7.537 -0.3594  0.7124  1.7465
 9480SOL     OW40072   2.083   1.632   8.093  0.6814  0.1801  0.2554
 9480SOL    HW140073   2.140   1.705   8.113 -0.8718  0.9928  1.7872
 9480SOL    HW240074   2.016   1.640   8.161  1.4364  0.2767  0.9874
 9481SOL     OW40075   2.090   0.752   8.215 -0.0128  0.0725  0.7629
 9481SOL    HW140076   2.037   0.830   8.229  0.1040  0.1865  0.5740
 9481SOL    HW240077   2.025   0.688   8.187 -0.3769  0.7466  0.0747
 9482SOL     OW40078   4.309   3.003  15.931  0.6091 -0.0554 -0.0727
 9482SOL    HW140079   4.220   2.982  15.903  0.9438 -0.6054 -0.7286
 9482SOL    HW240080   4.288   3.083  15.980 -2.9750 -0.9476 -0.1414
 9483SOL     OW40081   1.882   0.725   7.436  0.1132 -0.3696  0.1206
 9483SOL    HW140082   1.840   0.769   7.362  0.5951 -0.6731 -0.3406
 9483SOL    HW240083   1.880   0.793   7.503  0.2178  0.8999 -1.1626
 9484SOL     OW40084   0.052   3.087  12.256  0.3428  0.4382  0.5211
 9484SOL    HW140085   0.104   3.167  12.255  2.6645 -1.1233 -1.7345
 9484SOL    HW240086   0.106   3.034  12.197  1.1185  1.3845  0.3893
 9485SOL     OW40087   0.441   2.823   7.194  0.2207 -0.2937 -0.2645
 9485SOL    HW140088   0.438   2.839   7.100 -1.1173  1.1166  0.0265
 9485SOL    HW240089   0.534   2.801   7.200  0.5924  0.3455 -3.8497
 9486SOL     OW40090   3.663   0.441  16.511 -0.1564  0.9118  0.1535
 9486SOL    HW140091   3.637   0.349  16.519 -0.7631  0.9560 -1.3387
 9486SOL    HW240092   3.575   0.467  16.538 -0.0109  1.1598  0.3920
 9487SOL     OW40093   2.580   2.982   4.794  0.5556  0.4532  0.8769
 9487SOL    HW140094   2.602   2.976   4.887 -2.2141  0.3927  1.5362
 9487SOL    HW240095   2.610   3.072   4.783 -2.0932  0.8915 -2.7943
 9488SOL     OW40096   1.524   3.744   8.490 -0.1085 -0.0869  0.4386
 9488SOL    HW140097   1.616   3.757   8.510 -0.6936  0.0435  2.9809
 9488SOL    HW240098   1.539   3.750   8.395 -0.9111  0.8875  0.3766
 9489SOL     OW40099   3.621   2.072  16.066 -0.6381 -0.1160  0.3410
 9489SOL    HW140100   3.590   2.147  16.116 -0.8095  1.3237 -1.9529
 9489SOL    HW240101   3.692   2.116  16.020  0.7808 -1.1591  1.5208
 9490SOL     OW40102   2.501   2.837   2.506 -0.4099 -0.3514  0.2100
 9490SOL    HW140103   2.512   2.902   2.575 -0.2024 -0.9535  0.7311
 9490SOL    HW240104   2.466   2.903   2.445 -0.7032 -2.0635 -1.5101
 9491SOL     OW40105   2.778   3.797  16.377 -0.5218 -0.2049  0.2089
 9491SOL    HW140106   2.776   3.773  16.284  1.0493 -0.3900  0.2218
 9491SOL    HW240107   2.686   3.814  16.396  0.2024  2.4630  1.3141
 9492SOL     OW40108   3.054   2.325   4.971 -0.3167  0.0195 -0.0970
 9492SOL    HW140109   3.009   2.408   4.991  0.8048  0.4327  0.7115
 9492SOL    HW240110   3.094   2.321   5.057  0.4522  0.0668 -0.4541
 9493SOL     OW40111   2.433   3.999   8.237  0.3242 -0.0488 -0.5763
 9493SOL    HW140112   2.386   3.982   8.155  0.4744 -2.3819 -0.1846
 9493SOL    HW240113   2.404   4.083   8.272 -0.2724 -1.4301  2.2079
 9494SOL     OW40114   3.107   2.679   3.525  0.3425  0.0399 -0.6740
 9494SOL    HW140115   3.043   2.750   3.515 -0.7032 -0.8575 -0.4343
 9494SOL    HW240116   3.099   2.650   3.616 -0.1394 -4.1788 -2.0874
 9495SOL     OW40117   3.300   1.245   4.748  0.1038  0.0146 -0.1661
 9495SOL    HW140118   3.290   1.197   4.830 -2.0814  1.6613  0.5436
 9495SOL    HW240119   3.311   1.174   4.685 -0.7914 -2.0659  2.0347
 9496SOL     OW40120   2.224   3.406   9.828  0.1273 -0.3488 -0.0185
 9496SOL    HW140121   2.307   3.388   9.784  0.9843  1.6985  0.8028
 9496SOL    HW240122   2.163   3.401   9.754  0.1888  0.2105 -0.0997
 9497SOL     OW40123   2.026   0.569  11.915  0.4021 -0.4697 -0.1808
 9497SOL    HW140124   2.065   0.503  11.858 -0.7840  0.1074 -1.6820
 9497SOL    HW240125   1.949   0.528  11.954  0.4239 -1.2568 -0.9804
 9498SOL     OW40126   3.795   1.070   0.286 -0.1432  0.3939 -0.8799
 9498SOL    HW140127   3.877   1.113   0.264  0.0599  0.7933  0.6897
 9498SOL    HW240128   3.781   1.098   0.376  0.6828 -1.4302 -0.1892
 9499SOL     OW40129   2.445   1.410   3.236  0.3192 -0.0744 -0.3014
 9499SOL    HW140130   2.498   1.473   3.187  0.0816 -0.5670 -1.2068
 9499SOL    HW240131   2.411   1.459   3.311  1.2578 -0.3544  0.3029
 9500SOL     OW40132   0.823   4.233   8.933 -0.7603  0.5328 -0.3307
 9500SOL    HW140133   0.875   4.155   8.911  0.2133  0.1939  3.1191
 9500SOL    HW240134   0.882   4.308   8.940  1.4115 -1.1458 -0.7723
 9501SOL     OW40135   3.319   0.751   6.018 -0.5321  0.3161  1.0413
 9501SOL    HW140136   3.414   0.755   6.024 -0.5672  1.7512  0.7203
 9501SOL    HW240137   3.296   0.782   6.106 -0.0489 -2.4170  2.1239
 9502SOL     OW40138   2.260   0.208  13.665 -0.3634 -0.3603  0.1913
 9502SOL    HW140139   2.166   0.191  13.653 -0.6630  1.0391  0.6349
 9502SOL    HW240140   2.265   0.186  13.758 -2.1444 -0.1582  0.3330
 9503SOL     OW40141   1.480   0.870  16.832  0.5432  0.3502 -0.4363
 9503SOL    HW140142   1.429   0.941  16.792 -1.8191 -2.2163 -1.9884
 9503SOL    HW240143   1.445   0.877  16.921 -1.0284 -0.6139 -0.9814
 9504SOL     OW40144   1.593   0.579   1.471  0.1906 -0.2077 -0.5158
 9504SOL    HW140145   1.570   0.574   1.378  2.3235 -1.5032 -0.9657
 9504SOL    HW240146   1.556   0.499   1.508  0.4961 -0.6814 -1.2193
 9505SOL     OW40147   0.322   1.762   8.361  0.2958 -0.0993  0.2381
 9505SOL    HW140148   0.293   1.725   8.444  0.8934 -0.3016  0.3593
 9505SOL    HW240149   0.409   1.794   8.386  1.4437  0.0660 -3.9064
 9506SOL     OW40150   4.110   0.055   5.933  0.3856 -0.3676 -0.2067
 9506SOL    HW140151   4.113   0.099   6.018  1.7766  0.2250 -0.5659
 9506SOL    HW240152   4.184   0.099   5.891  0.2836 -2.0632 -2.1739
 9507SOL     OW40153   1.995   3.197  17.216 -0.0746  0.6598  0.0508
 9507SOL    HW140154   2.074   3.227  17.171  0.6519 -1.6683 -0.2365
 9507SOL    HW240155   2.015   3.199  17.309 -1.2598 -1.0326  0.3401
 9508SOL     OW40156   3.862   2.861   5.438 -0.1443 -0.4416  0.3898
 9508SOL    HW140157   3.929   2.795   5.424  1.3755  1.2175 -0.0730
 9508SOL    HW240158   3.890   2.938   5.389 -0.3320 -1.0624 -0.6841
 9509SOL     OW40159   0.970   4.697  13.519 -0.3254 -0.3554  0.3880
 9509SOL    HW140160   0.904   4.697  13.450 -1.4928  2.2626  1.5354
 9509SOL    HW240161   0.983   4.603  13.536 -0.1692 -0.2901  0.6430
 9510SOL     OW40162   3.275   2.483   7.830  0.1190  0.0580 -0.5250
 9510SOL    HW140163   3.334   2.429   7.884 -0.3638  1.9491  1.9008
 9510SOL    HW240164   3.347   2.527   7.784 -0.1500  2.1547  1.0906
 9511SOL     OW40165   0.176   2.350   1.504 -0.5091 -0.2088 -0.5643
 9511SOL    HW140166   0.111   2.320   1.440 -1.2275 -0.6528  0.3736
 9511SOL    HW240167   0.220   2.267   1.523 -0.0259 -1.0708 -5.5689
 9512SOL     OW40168   4.569   3.710   4.175 -0.4277  0.3922 -0.2075
 9512SOL    HW140169   4.524   3.653   4.113  2.6411 -0.0819 -2.0147
 9512SOL    HW240170   4.617   3.647   4.229  1.3720  1.2760 -0.7708
 9513SOL     OW40171   2.879   1.875   8.283  0.6607  0.0494 -0.1255
 9513SOL    HW140172   2.921   1.809   8.339  1.5264  0.4394 -0.3064
 9513SOL    HW240173   2.790   1.852   8.309  0.4053  1.2276  0.0357
 9514SOL     OW40174   4.154   2.294   7.051 -0.6701 -0.1214 -0.1160
 9514SOL    HW140175   4.249   2.289   7.049 -0.6851 -0.4015 -0.1421
 9514SOL    HW240176   4.123   2.269   6.964  0.5795 -1.2250 -0.2382
 9515SOL     OW40177   1.584   1.214   0.039 -0.0978 -0.0751 -0.0539
 9515SOL    HW140178   1.551   1.147  17.733 -0.1727 -0.4732  0.4351
 9515SOL    HW240179   1.554   1.291  17.743  1.1713  1.2287  1.1921
 9516SOL     OW40180   0.840   3.429   3.012  0.2439  0.3578 -0.1221
 9516SOL    HW140181   0.909   3.380   2.966  1.6813  0.2001  2.2182
 9516SOL    HW240182   0.860   3.516   2.975  0.2568  0.8580  1.0672
 9517SOL     OW40183   1.001   2.759   8.354 -0.2690  0.3298  0.5398
 9517SOL    HW140184   1.044   2.711   8.424 -1.6959  0.2819  1.4001
 9517SOL    HW240185   1.038   2.846   8.367 -0.2881  0.2921  0.8349
 9518SOL     OW40186   4.719   1.576  11.626 -0.2842  0.3332  0.7634
 9518SOL    HW140187   4.667   1.655  11.608 -2.2502 -0.4913  2.9317
 9518SOL    HW240188   4.676   1.513  11.569 -1.0990  0.4595  1.2503
 9519SOL     OW40189   1.205   1.548  14.384 -0.1103  0.7741 -0.5160
 9519SOL    HW140190   1.187   1.602  14.461 -1.2140 -0.8726  0.3742
 9519SOL    HW240191   1.201   1.466  14.434 -1.6289  0.9299 -0.3731
 9520SOL     OW40192   2.630   4.090  13.618  0.1956  0.3997  0.0754
 9520SOL    HW140193   2.680   4.098  13.699  1.2979  1.7843 -0.7269
 9520SOL    HW240194   2.627   4.181  13.588 -4.2765  0.2942  0.1640
 9521SOL     OW40195   0.804   2.670   5.705  0.0649  0.6076  0.1091
 9521SOL    HW140196   0.722   2.648   5.662  0.3781 -0.7807  0.2488
 9521SOL    HW240197   0.840   2.582   5.710 -1.5782  0.0860  2.6923
 9522SOL     OW40198   0.031   1.688   6.589  0.0272 -0.3949 -0.3503
 9522SOL    HW140199   0.118   1.690   6.629  0.5532  2.2347 -1.6333
 9522SOL    HW240200   0.001   1.600   6.612 -1.0580  0.6700  2.2333
 9523SOL     OW40201   0.671   2.465  12.578 -0.3099  0.2133  0.5910
 9523SOL    HW140202   0.741   2.411  12.613  0.4014  1.3150  0.8820
 9523SOL    HW240203   0.696   2.555  12.601  0.6977 -0.2476  1.2959
 9524SOL     OW40204   0.888   1.790   3.606 -0.0434 -0.0695  0.4687
 9524SOL    HW140205   0.819   1.736   3.645 -1.0662  0.9480  0.0843
 9524SOL    HW240206   0.886   1.748   3.520  1.7121 -2.4114  1.5589
 9525SOL     OW40207   3.533   0.342  13.060  0.1563  0.1315 -0.0594
 9525SOL    HW140208   3.498   0.254  13.044 -0.5424  0.2808  0.6446
 9525SOL    HW240209   3.602   0.321  13.123  1.7647  2.2662 -1.1195
 9526SOL     OW40210   2.664   1.225   7.124  0.0541  0.2520  0.7771
 9526SOL    HW140211   2.723   1.298   7.105  0.3889 -0.3437 -0.4290
 9526SOL    HW240212   2.580   1.262   7.153 -0.5756 -1.3949  1.0605
 9527SOL     OW40213   0.547   3.287   6.347  0.1808  0.1806  0.5720
 9527SOL    HW140214   0.601   3.263   6.422  0.1625 -0.7930  0.2694
 9527SOL    HW240215   0.609   3.310   6.278  0.5244 -3.5750 -0.3213
 9528SOL     OW40216   3.902   1.611  16.723 -0.5932 -0.3330  0.7028
 9528SOL    HW140217   3.811   1.582  16.728  0.0862 -2.6528 -0.3381
 9528SOL    HW240218   3.879   1.701  16.702 -2.4771 -0.8478  0.5624
 9529SOL     OW40219   4.698   2.411   4.474  0.5688 -0.0216 -0.3146
 9529SOL    HW140220   4.629   2.382   4.414 -0.1558  1.1154 -0.0463
 9529SOL    HW240221   4.664   2.492   4.512  1.1014  0.6562 -1.2670
 9530SOL     OW40222   2.113   3.585   2.508  0.3608 -0.6571  0.3209
 9530SOL    HW140223   2.173   3.654   2.537 -0.0664 -0.7433  1.4232
 9530SOL    HW240224   2.026   3.624   2.498  0.3102 -0.3744  1.8866
 9531SOL     OW40225   1.020   1.376   4.855  0.0744  0.0896  0.4092
 9531SOL    HW140226   1.085   1.307   4.850  2.6407  2.4687  0.7882
 9531SOL    HW240227   0.988   1.361   4.944  3.0781 -1.3253  1.2391
 9532SOL     OW40228   0.471   1.522   6.846 -0.3653 -0.4073 -0.1647
 9532SOL    HW140229   0.513   1.484   6.768  0.7415  0.6901 -0.1110
 9532SOL    HW240230   0.538   1.591   6.839 -0.7832  0.1987  2.0680
 9533SOL     OW40231   4.548   1.501   5.269 -0.1492 -0.2747 -0.1261
 9533SOL    HW140232   4.537   1.451   5.349  0.8593  2.7259  1.8933
 9533SOL    HW240233   4.460   1.536   5.256  0.1655  0.4481 -0.3400
 9534SOL     OW40234   2.986   3.947  10.355 -0.3648  0.4978  0.3813
 9534SOL    HW140235   3.000   3.954  10.261  0.2586 -2.0054  0.2611
 9534SOL    HW240236   2.891   3.943  10.353 -0.4690  2.6170  1.2505
 9535SOL     OW40237   1.516   2.387   5.789  0.3872 -0.4207  0.1566
 9535SOL    HW140238   1.572   2.339   5.727 -0.2821  1.2507 -1.7165
 9535SOL    HW240239   1.583   2.428   5.845  0.2379 -0.1533  0.1341
 9536SOL     OW40240   2.675   4.417   3.850  0.2727 -0.2474 -0.0724
 9536SOL    HW140241   2.708   4.501   3.819  0.9488  0.4477  2.5487
 9536SOL    HW240242   2.617   4.398   3.776  2.5928 -1.8780 -1.4859
 9537SOL     OW40243   3.322   2.450   3.308 -0.2909  0.1238  0.4140
 9537SOL    HW140244   3.416   2.469   3.311 -0.4233  1.1243 -2.2819
 9537SOL    HW240245   3.300   2.491   3.391 -1.7568  0.8881 -0.3607
 9538SOL     OW40246   4.011   2.002  15.118  0.0310 -0.1714 -0.5525
 9538SOL    HW140247   3.936   1.985  15.061 -0.0978 -1.2640 -0.0567
 9538SOL    HW240248   3.974   2.076  15.165  2.0969 -1.2041  2.6790
 9539SOL     OW40249   3.828   0.114   6.058  0.5192  0.1740 -0.5320
 9539SOL    HW140250   3.752   0.151   6.102 -1.1313 -2.2046 -1.3469
 9539SOL    HW240251   3.906   0.134   6.110  1.4211 -2.3822 -0.8572
 9540SOL     OW40252   0.011   1.406   6.665  0.1781  0.1620 -0.3793
 9540SOL    HW140253   0.043   1.345   6.599 -1.6088  1.2386 -2.2650
 9540SOL    HW240254   0.079   1.403   6.732  0.0041 -1.0557 -0.2545
 9541SOL     OW40255   2.801   2.056   7.886 -0.2661 -0.7328 -0.1773
 9541SOL    HW140256   2.743   2.074   7.960  2.1705 -0.0981  1.5621
 9541SOL    HW240257   2.845   1.974   7.907 -0.6844 -0.5317  1.5247
 9542SOL     OW40258   2.708   2.241   4.975  0.2829  0.4316 -0.0124
 9542SOL    HW140259   2.691   2.327   4.937 -1.3109 -0.7054 -1.8143
 9542SOL    HW240260   2.669   2.259   5.061 -0.4818  2.1874 -0.7470
 9543SOL     OW40261   0.324   3.711   5.948  0.2579 -0.7287 -0.4096
 9543SOL    HW140262   0.299   3.686   6.037 -0.4146  2.2995  0.2470
 9543SOL    HW240263   0.408   3.665   5.949  0.1817 -0.8579  0.5068
 9544SOL     OW40264   0.539   2.554   5.521  0.0875 -0.0574 -0.2141
 9544SOL    HW140265   0.602   2.494   5.481 -0.5001 -1.2020  0.5935
 9544SOL    HW240266   0.500   2.603   5.449 -1.3681 -1.3084 -0.2815
 9545SOL     OW40267   3.645   0.653   7.733 -0.2411 -0.1984 -0.1843
 9545SOL    HW140268   3.655   0.696   7.648  1.3563 -0.8384 -0.3301
 9545SOL    HW240269   3.725   0.601   7.729  0.5689  1.0586 -0.2684
 9546SOL     OW40270   0.502   1.853   5.301  0.4999  0.4424 -0.1242
 9546SOL    HW140271   0.451   1.933   5.290 -0.5641 -0.0988  0.9011
 9546SOL    HW240272   0.464   1.826   5.384  0.1515 -0.7209 -0.6681
 9547SOL     OW40273   3.256   2.897   8.938 -0.3947 -0.4677  0.1572
 9547SOL    HW140274   3.268   2.821   8.996  3.8605 -0.2933 -0.5329
 9547SOL    HW240275   3.306   2.867   8.863 -0.3714 -1.4928  0.5744
 9548SOL     OW40276   1.016   0.996   7.130 -0.3108 -0.2120  0.0450
 9548SOL    HW140277   1.004   1.075   7.183 -1.5995 -1.7167  1.9888
 9548SOL    HW240278   0.930   0.954   7.124 -0.1768 -0.2086 -1.9263
 9549SOL     OW40279   3.090   2.373   1.690  0.3840  0.0312  0.5487
 9549SOL    HW140280   3.170   2.391   1.739 -0.1941  0.7319  1.2384
 9549SOL    HW240281   3.121   2.367   1.600 -1.1514 -1.5381  0.1323
 9550SOL     OW40282   0.778   1.754   6.531  1.2226  0.0127 -0.1262
 9550SOL    HW140283   0.781   1.658   6.541 -0.2566  0.1071  1.2869
 9550SOL    HW240284   0.736   1.769   6.447  0.4401 -0.7658  0.1289
 9551SOL     OW40285   4.211   0.401   2.778 -0.2176 -0.1370  0.2056
 9551SOL    HW140286   4.194   0.495   2.776  1.3799  0.1490  0.3865
 9551SOL    HW240287   4.250   0.399   2.691 -1.5855 -1.8601 -0.3622
 9552SOL     OW40288   3.611   1.902   6.325  0.6726 -0.0835 -0.4873
 9552SOL    HW140289   3.607   1.976   6.386  1.0816 -1.1842  0.8757
 9552SOL    HW240290   3.537   1.911   6.264  0.6697  1.4675 -0.2592
 9553SOL     OW40291   2.155   0.632   0.778 -0.5634 -0.7200 -0.3718
 9553SOL    HW140292   2.214   0.680   0.835 -1.3344  0.7033 -0.7810
 9553SOL    HW240293   2.165   0.679   0.695  3.6194 -1.1765 -0.1047
 9554SOL     OW40294   1.738   1.608   1.754  0.1518 -1.0052 -0.1362
 9554SOL    HW140295   1.751   1.559   1.672 -1.4080  0.2910 -1.1640
 9554SOL    HW240296   1.788   1.684   1.723  3.1240 -2.1771  1.8223
 9555SOL     OW40297   1.551   1.002   2.341  0.0794 -0.1522 -0.0770
 9555SOL    HW140298   1.599   1.039   2.416  0.0822 -0.4578  0.0729
 9555SOL    HW240299   1.463   1.003   2.379  1.1375  1.1940  2.3034
 9556SOL     OW40300   3.596   4.726   5.229  0.5467  0.0171  0.0968
 9556SOL    HW140301   3.608   0.010   5.321  1.9299  1.0595 -0.3473
 9556SOL    HW240302   3.677   0.024   5.193  1.2467 -0.5456  1.0972
 9557SOL     OW40303   3.993   3.524   5.717  1.1126  0.2846 -0.4495
 9557SOL    HW140304   4.018   3.577   5.641 -0.4394 -1.9437 -2.4620
 9557SOL    HW240305   4.072   3.471   5.723  0.3856 -0.9049 -1.4738
 9558SOL     OW40306   2.469   0.888   8.507 -0.5195  0.1646  0.5252
 9558SOL    HW140307   2.512   0.904   8.423 -2.6635  3.4082  0.0573
 9558SOL    HW240308   2.518   0.945   8.565  1.5050 -0.1889 -0.8605
 9559SOL     OW40309   4.701   2.492   6.705 -0.0942  0.3717  0.5580
 9559SOL    HW140310   4.623   2.450   6.670  1.9255 -1.1765 -2.1760
 9559SOL    HW240311   0.029   2.431   6.674 -0.0488  0.2581  0.8820
 9560SOL     OW40312   4.423   4.685   3.558 -0.0220 -0.2906 -0.5739
 9560SOL    HW140313   4.457   0.034   3.542 -0.9427  0.1153 -0.2603
 9560SOL    HW240314   4.336   4.704   3.591 -0.5917 -2.9199 -0.5523
 9561SOL     OW40315   2.822   2.450  15.174  0.2179 -0.2468  0.2880
 9561SOL    HW140316   2.745   2.477  15.122  0.5171 -0.2808 -0.1750
 9561SOL    HW240317   2.829   2.521  15.237  0.4166  1.4325 -1.6475
 9562SOL     OW40318   2.367   0.540  14.840 -0.1055  0.5930 -0.6568
 9562SOL    HW140319   2.346   0.632  14.824 -1.5934  0.3595 -0.0427
 9562SOL    HW240320   2.458   0.552  14.868 -0.2438  0.4026 -0.1069
 9563SOL     OW40321   2.504   3.318   1.678 -0.1959  0.0983  0.3868
 9563SOL    HW140322   2.584   3.316   1.730 -0.4058 -2.2722  0.6020
 9563SOL    HW240323   2.463   3.248   1.729  1.7339 -0.7097  0.8484
 9564SOL     OW40324   2.781   1.515   6.843  0.3716 -0.3689  0.1271
 9564SOL    HW140325   2.696   1.531   6.883 -0.5644  0.9357 -2.3840
 9564SOL    HW240326   2.765   1.437   6.790 -0.9111 -0.8412  1.2264
 9565SOL     OW40327   2.323   4.026  14.770  0.3679 -0.1899  0.2859
 9565SOL    HW140328   2.321   3.993  14.860  0.8620 -0.7759  0.0832
 9565SOL    HW240329   2.381   3.965  14.725  0.6330 -0.4746  1.0051
 9566SOL     OW40330   2.650   4.435   2.600 -0.2588 -0.0245 -0.0490
 9566SOL    HW140331   2.626   4.527   2.609  3.0183  0.9074 -0.5635
 9566SOL    HW240332   2.578   4.405   2.546 -1.4476  2.6667  0.0314
 9567SOL     OW40333   2.269   0.466  13.615  0.2537 -0.7526 -0.0671
 9567SOL    HW140334   2.257   0.371  13.610  1.1439 -0.9157  0.8014
 9567SOL    HW240335   2.362   0.473  13.592  0.7720 -0.3763  2.1860
 9568SOL     OW40336   1.240   3.840   1.769 -0.3232 -0.3802  0.3417
 9568SOL    HW140337   1.179   3.898   1.724  0.6520 -0.2774 -0.8440
 9568SOL    HW240338   1.240   3.759   1.719 -0.6935  0.9718 -1.8461
 9569SOL     OW40339   1.359   4.253   7.292 -0.3213  0.3365  0.3181
 9569SOL    HW140340   1.274   4.262   7.250 -0.9225  0.6901  1.6275
 9569SOL    HW240341   1.350   4.261   7.387  0.3580 -0.1787  0.4261
 9570SOL     OW40342   2.660   4.557   4.526  0.3589 -0.0805 -0.5484
 9570SOL    HW140343   2.740   4.505   4.530 -0.9209 -2.0461 -0.5531
 9570SOL    HW240344   2.650   4.589   4.437 -1.0170  4.0718  1.0798
 9571SOL     OW40345   4.196   2.988  17.341  0.0100 -0.3430 -0.0818
 9571SOL    HW140346   4.132   2.931  17.299  0.8825 -1.8389  0.5863
 9571SOL    HW240347   4.232   2.929  17.408  0.4188  0.2983  0.2731
   4.73890   4.73890  17.75347
