Membrane in water
40347
    1TMC1    C1    1   1.545   2.432  11.528 -0.0535 -0.2844 -0.7017
    1TMC1    C2    2   1.417   2.481  11.513  0.1972 -0.1506 -0.2724
    1TMC1    C3    3   1.405   2.617  11.494  0.3697 -0.1842 -0.0391
    1TMC1    C4    4   1.655   2.510  11.547 -0.3769  0.7028  0.2480
    1TMC1    C5    5   1.638   2.644  11.527 -0.4410 -0.9599  0.6339
    1TMC1    C6    6   1.517   2.699  11.494  0.6862 -0.6977 -0.2681
    1TMC1     C    7   1.541   2.306  11.594  0.0867 -0.0775 -0.3473
    1TMC1     O    8   1.454   2.235  11.546 -0.1991  0.0720 -0.1531
    1TMC1     H    9   1.333   2.412  11.511  0.3056 -0.2598 -1.3983
    1TMC1    H1   10   1.753   2.473  11.575 -0.4773  0.6353  0.5028
    1TMC1    H2   11   1.508   2.807  11.486  1.9676 -0.4842  1.1251
    1TMC1    C7   12   1.752   2.729  11.538  0.0155 -0.9756  0.5131
    1TMC1    C8   13   1.281   2.643  11.433  0.7969  0.0271  0.2388
    1TMC1    O1   14   1.858   2.701  11.595  0.1312 -0.0823 -0.4137
    1TMC1    O2   15   1.182   2.588  11.476  0.0360 -0.7763 -0.1664
    1TMC1    O3   16   1.743   2.822  11.436  0.6727 -0.5940  0.0251
    1TMC1    H3   17   1.651   2.844  11.409  0.7103 -1.6961 -1.0230
    1TMC1    O5   18   1.316   2.658  11.304 -0.0905 -1.0172  0.1579
    1TMC1    H5   19   1.412   2.653  11.288 -0.5018 -1.0128 -2.2403
    2MPD2     C   20   1.612   2.006  12.004 -0.4315 -0.1237  0.2075
    2MPD2    C1   21   1.500   2.022  11.931 -0.3167 -0.3423  0.3348
    2MPD2    C2   22   1.500   2.121  11.821  0.2407 -0.5278  0.8072
    2MPD2    C3   23   1.621   2.182  11.788  0.1190 -0.4108  0.1897
    2MPD2    C4   24   1.729   2.157  11.866 -0.2468 -0.6459  0.2312
    2MPD2    C5   25   1.725   2.072  11.967  0.9052  0.6052  0.0602
    2MPD2     H   26   1.415   2.147  11.759  0.3607 -2.1124 -0.0095
    2MPD2    H1   27   1.823   2.206  11.846 -1.2629  1.8147  1.5011
    2MPD2    H2   28   1.610   1.936  12.087 -0.2146  1.4103  1.5305
    2MPD2    H3   29   1.814   2.047  12.024  2.4633  2.0346 -1.7107
    2MPD2     N   30   1.632   2.284  11.695  0.3172  0.2938  0.4977
    2MPD2    H5   31   1.703   2.357  11.699  1.2004 -0.4712 -1.3491
    2MPD2    N1   32   1.372   1.981  11.969 -0.1901  0.2102 -0.1556
    2MPD2    H7   33   1.301   1.995  11.898  0.1598 -1.0168 -0.7326
    3TMC1    C1   34   1.563   3.689  10.909  0.2388 -0.0299 -0.7023
    3TMC1    C2   35   1.590   3.809  10.968 -0.5268  0.0178  0.9731
    3TMC1    C3   36   1.729   3.834  10.984 -0.3877 -0.1433 -0.5305
    3TMC1    C4   37   1.665   3.600  10.870  0.1800  0.6802 -0.4280
    3TMC1    C5   38   1.795   3.631  10.896 -0.1418  0.3380 -0.2358
    3TMC1    C6   39   1.824   3.743  10.963  0.3990 -0.3975  0.5204
    3TMC1     C   40   1.426   3.662  10.862  0.0108 -0.3430  0.3694
    3TMC1     O   41   1.402   3.543  10.848 -0.3463  0.3703  0.0707
    3TMC1     H   42   1.519   3.886  10.995  1.3391  2.0087  0.2306
    3TMC1    H1   43   1.636   3.515  10.809 -0.7634  1.1752 -0.6718
    3TMC1    H2   44   1.931   3.758  10.978  0.1969  1.2671  0.3260
    3TMC1    C7   45   1.891   3.576  10.801  0.3106 -0.2660  0.1119
    3TMC1    C8   46   1.775   3.966  11.021  0.6050 -0.0088 -0.1643
    3TMC1    O1   47   1.861   3.473  10.743 -0.5299 -0.0143 -0.4035
    3TMC1    O2   48   1.894   4.000  11.010 -0.6328  0.1519 -0.2438
    3TMC1    O3   49   1.986   3.668  10.753  0.1408  0.3824 -0.6455
    3TMC1    H3   50   1.979   3.757  10.793  0.6136 -1.2871  3.1918
    3TMC1    O5   51   1.687   4.018  11.110  0.2387 -0.4392 -0.2307
    3TMC1    H5   52   1.612   3.958  11.129  0.7367 -0.9820  0.0402
    4MPD2     C   53   0.933   3.781  10.806  0.9844  0.1395 -0.2332
    4MPD2    C1   54   0.999   3.902  10.830  0.0767  0.3454  0.0848
    4MPD2    C2   55   1.140   3.898  10.826  0.4007 -0.2024  0.6067
    4MPD2    C3   56   1.204   3.776  10.838  0.0298  0.0676 -0.2757
    4MPD2    C4   57   1.133   3.657  10.829 -0.4007 -0.2539  0.0308
    4MPD2    C5   58   0.998   3.667  10.804  0.1478 -0.2090 -1.0722
    4MPD2     H   59   1.187   3.995  10.839 -0.7940  0.6969 -1.8529
    4MPD2    H1   60   1.174   3.556  10.831 -0.6091 -0.3697 -1.4072
    4MPD2    H2   61   0.826   3.767  10.795  0.5871  1.9852  1.2611
    4MPD2    H3   62   0.946   3.572  10.811  0.1438 -0.0418  1.0677
    4MPD2     N   63   1.343   3.776  10.859 -0.0707  0.4707  0.0726
    4MPD2    H5   64   1.394   3.859  10.886 -0.1210  0.5693 -0.1360
    4MPD2    N1   65   0.939   4.029  10.845  0.3532 -0.1014 -0.5070
    4MPD2    H7   66   1.000   4.110  10.854 -0.1014  0.1412  0.4370
    5TCq1    O1   67   1.270   1.039  12.388  0.4099 -0.1209  0.3604
    5TCq1    C1   68   1.351   0.956  12.318  0.2729  0.1413  0.0310
    5TCq1    O2   69   1.447   0.898  12.368 -0.8431  0.4498 -0.4052
    5TCq1    C2   70   1.353   1.001  12.178  0.7105  0.3406 -0.4724
    5TCq1    C3   71   1.233   1.052  12.134  0.3706 -0.0720  0.0418
    5TCq1    C4   72   1.227   1.136  12.028 -0.8586 -0.4588  0.1473
    5TCq1    C5   73   1.352   1.162  11.969  0.0928 -0.3865  0.1670
    5TCq1    C6   74   1.475   1.129  12.030 -0.3065  0.0562 -0.3442
    5TCq1    C7   75   1.470   1.048  12.137 -0.5488 -0.3695 -0.8312
    5TCq1    C8   76   1.595   1.101  11.946  0.2627 -0.2710  0.2741
    5TCq1    O4   77   1.654   0.996  11.970  0.1957  0.0231  0.0754
    5TCq1    C9   78   1.092   1.164  11.970  0.2212 -0.3116 -0.3314
    5TCq1    O5   79   1.093   1.245  11.872  0.3059 -0.8287  0.2146
    5TCq1    O6   80   0.989   1.122  12.026 -0.3912  0.3685 -0.0264
    5TCq1    H1   81   1.216   1.096  12.328  2.6317  1.5168 -0.0896
    5TCq1    H2   82   1.139   1.006  12.165  0.2916  0.0143 -0.0708
    5TCq1    H3   83   1.357   1.222  11.879 -2.8408  2.6770  2.0513
    5TCq1    H4   84   1.555   1.005  12.188 -0.0690  1.1620 -0.3203
    6MPD2     C   85   1.648   1.220  11.603 -0.8808  0.1481  0.2760
    6MPD2    C1   86   1.648   1.130  11.713  0.1229  0.0644  0.6680
    6MPD2    C2   87   1.705   1.009  11.691  0.2270  0.1950  0.4668
    6MPD2    C3   88   1.750   0.965  11.570 -0.2545  0.0987 -0.6495
    6MPD2    C4   89   1.751   1.052  11.465  0.1256 -0.3345 -0.0399
    6MPD2    C5   90   1.699   1.171  11.483  0.2935  0.7129  0.3033
    6MPD2     H   91   1.682   0.931  11.763 -0.9317  0.6331  0.5754
    6MPD2    H1   92   1.799   1.037  11.369  0.3641  1.8250 -0.2548
    6MPD2    H2   93   1.601   1.317  11.613 -0.6729  0.2380  0.3820
    6MPD2    H3   94   1.701   1.235  11.396 -1.7159  0.5302  0.1180
    6MPD2     N   95   1.805   0.833  11.552 -1.0169  0.2017 -0.8825
    6MPD2    H5   96   1.823   0.789  11.642  2.4298  0.6567 -1.3537
    6MPD2    N1   97   1.590   1.169  11.830 -0.1880 -0.1654  0.5066
    6MPD2    H7   98   1.539   1.256  11.841  1.6234  0.9593  0.0342
    7TCq1    O1   99   3.667   4.147  12.653 -0.3665  0.3147 -0.6373
    7TCq1    C1  100   3.648   4.279  12.684 -0.1981 -0.2358 -0.4299
    7TCq1    O2  101   3.640   4.381  12.613 -0.1517 -0.5867 -0.4568
    7TCq1    C2  102   3.576   4.285  12.812  0.5721 -0.4906 -0.3499
    7TCq1    C3  103   3.485   4.391  12.831 -0.3498 -0.6660 -0.3566
    7TCq1    C4  104   3.437   4.414  12.967  0.5943 -0.0861 -0.1238
    7TCq1    C5  105   3.494   4.353  13.069 -0.0339  0.2104  0.5333
    7TCq1    C6  106   3.582   4.250  13.040  0.3292  0.0876 -0.5249
    7TCq1    C7  107   3.626   4.214  12.913  0.0076 -0.1156  0.0239
    7TCq1    C8  108   3.633   4.171  13.143 -0.2437  0.3896 -0.0159
    7TCq1    O4  109   3.692   4.066  13.113  0.0759  0.2331  1.0728
    7TCq1    C9  110   3.348   4.520  12.991  0.2401 -0.3742 -0.1879
    7TCq1    O5  111   3.362   4.595  13.094 -0.3420  0.0766 -0.5412
    7TCq1    O6  112   3.277   4.551  12.888 -0.3919 -0.0580  0.3997
    7TCq1    H1  113   3.615   4.098  12.720 -0.2323 -0.3254 -0.9991
    7TCq1    H2  114   3.444   4.443  12.746 -1.8485 -0.8965  0.2238
    7TCq1    H3  115   3.463   4.381  13.169  0.0606 -0.3803  0.7275
    7TCq1    H4  116   3.712   4.150  12.897  1.5318  1.8586  0.4093
    8MPD2     C  117   3.746   4.117  13.649  0.2570  0.6130 -0.1000
    8MPD2    C1  118   3.768   4.027  13.548  0.7419  0.4329  0.0335
    8MPD2    C2  119   3.720   4.058  13.421  0.0850  0.1211  0.1037
    8MPD2    C3  120   3.664   4.183  13.397 -0.0463  0.6474  0.8334
    8MPD2    C4  121   3.638   4.266  13.501 -0.1856 -0.6324 -0.1247
    8MPD2    C5  122   3.686   4.238  13.624  0.5107  0.5477  0.3077
    8MPD2     H  123   3.728   3.982  13.344 -0.9378  0.7054 -0.5726
    8MPD2    H1  124   3.596   4.364  13.481  0.2327 -0.3468  0.4204
    8MPD2    H2  125   3.772   4.098  13.752  0.1253 -0.9444 -0.3479
    8MPD2    H3  126   3.672   4.311  13.702 -1.1013  2.2090 -1.5532
    8MPD2     N  127   3.631   4.238  13.266 -0.0720 -0.2219 -0.1950
    8MPD2    H5  128   3.605   4.335  13.255 -0.2302 -0.2904 -0.4285
    8MPD2    N1  129   3.837   3.910  13.579  0.1610 -0.3099 -0.0702
    8MPD2    H7  130   3.845   3.890  13.679  1.5784 -1.0615 -0.3309
    9TMC1    C1  131   1.411   3.306  11.513  0.4980  0.2346 -0.0690
    9TMC1    C2  132   1.357   3.429  11.536 -1.1855 -0.3565  0.2829
    9TMC1    C3  133   1.443   3.524  11.588  0.3443 -0.3523 -1.0658
    9TMC1    C4  134   1.541   3.279  11.539  0.5666 -0.3663 -0.1335
    9TMC1    C5  135   1.614   3.369  11.602 -0.0014  0.0484  0.1454
    9TMC1    C6  136   1.565   3.497  11.625 -0.3268 -0.5190  0.4849
    9TMC1     C  137   1.331   3.192  11.478 -0.6474  0.2303 -0.1527
    9TMC1     O  138   1.387   3.102  11.420 -0.0483  0.6129  0.0811
    9TMC1     H  139   1.253   3.453  11.519 -1.3359 -0.6282  0.8095
    9TMC1    H1  140   1.582   3.184  11.506 -1.5124 -0.6516 -1.8546
    9TMC1    H2  141   1.615   3.576  11.679  0.0580 -1.2303  1.1675
    9TMC1    C7  142   1.759   3.373  11.608  0.1639  0.7349 -0.4093
    9TMC1    C8  143   1.403   3.669  11.592  0.1344  0.3685 -0.3404
    9TMC1    O1  144   1.820   3.479  11.593  0.3383 -0.1874  0.1512
    9TMC1    O2  145   1.322   3.716  11.510 -0.1802  0.0032 -0.2722
    9TMC1    O3  146   1.811   3.253  11.615  0.2643  0.2652 -0.1709
    9TMC1    H3  147   1.751   3.177  11.630  0.8854 -0.4297 -1.2529
    9TMC1    O5  148   1.383   3.680  11.724 -0.6417 -0.0447 -0.8071
    9TMC1    H5  149   1.432   3.620  11.784 -0.8101 -0.0503 -0.6732
   10MPD2     C  150   1.109   2.999  11.438  0.8517  0.2769  0.1015
   10MPD2    C1  151   1.101   3.103  11.526 -0.5256  0.3781 -0.0200
   10MPD2    C2  152   0.995   3.116  11.606 -1.0915  0.3422 -0.5355
   10MPD2    C3  153   0.890   3.023  11.603 -0.6760 -0.7197  0.4878
   10MPD2    C4  154   0.891   2.925  11.503  0.4998 -0.1815 -0.0274
   10MPD2    C5  155   1.004   2.914  11.422 -0.1246 -0.0473  0.5213
   10MPD2     H  156   0.988   3.201  11.673 -0.8416 -0.1544  0.1232
   10MPD2    H1  157   0.810   2.853  11.493  0.3945 -0.1466  0.5939
   10MPD2    H2  158   1.201   2.973  11.386  0.9129  2.6073 -0.9820
   10MPD2    H3  159   1.010   2.826  11.358 -0.4147  3.9981 -5.1069
   10MPD2     N  160   0.795   3.017  11.699 -0.4570 -0.0551  0.1020
   10MPD2    H5  161   0.724   2.945  11.684 -0.6698  0.4866 -1.4138
   10MPD2    N1  162   1.208   3.197  11.543  0.0663 -0.3794  0.1689
   10MPD2    H7  163   1.187   3.273  11.607 -1.1695 -0.4872 -0.1075
   11TCq1    O1  164   2.138   3.052  14.308  0.0920  0.0404 -0.8809
   11TCq1    C1  165   2.119   3.131  14.417 -0.0168  0.3206  0.1385
   11TCq1    O2  166   2.104   3.251  14.420 -0.9632 -0.0691 -0.4004
   11TCq1    C2  167   2.155   3.061  14.538  0.0450 -0.6798 -0.0985
   11TCq1    C3  168   2.245   3.126  14.619 -0.4373 -0.5023 -0.5808
   11TCq1    C4  169   2.317   3.058  14.709  0.0466  0.4874 -0.1230
   11TCq1    C5  170   2.304   2.922  14.716 -0.0283 -0.6696 -0.1182
   11TCq1    C6  171   2.221   2.857  14.629 -0.3140  0.7171 -0.0613
   11TCq1    C7  172   2.141   2.922  14.536  0.2631  0.1164  0.3656
   11TCq1    C8  173   2.211   2.712  14.626 -0.5801  0.2252 -0.2646
   11TCq1    O4  174   2.226   2.652  14.729  0.0555 -0.1111  0.3171
   11TCq1    C9  175   2.426   3.132  14.774 -0.5992 -0.8932 -0.2493
   11TCq1    O5  176   2.441   3.251  14.737  0.1367 -0.1498  0.0193
   11TCq1    O6  177   2.511   3.057  14.825 -0.0566  0.0687  0.0328
   11TCq1    H1  178   2.161   2.957  14.322 -3.9551 -0.6746  0.9419
   11TCq1    H2  179   2.264   3.231  14.600 -1.3856 -0.2794 -0.2709
   11TCq1    H3  180   2.359   2.856  14.782  0.4861 -1.2062 -1.0841
   11TCq1    H4  181   2.087   2.870  14.458 -1.4550  1.2011  0.8275
   12MPD2     C  182   2.228   2.428  14.551  0.7320 -0.6265 -0.8929
   12MPD2    C1  183   2.180   2.528  14.473  0.1708  0.0808 -0.5654
   12MPD2    C2  184   2.123   2.490  14.352 -0.8459 -0.9248  0.6001
   12MPD2    C3  185   2.089   2.362  14.322  0.2860  0.6043 -0.1459
   12MPD2    C4  186   2.127   2.265  14.406 -0.4064  0.3843 -0.1389
   12MPD2    C5  187   2.197   2.293  14.520 -0.1441 -0.1018 -0.2176
   12MPD2     H  188   2.075   2.568  14.294  0.8171  0.1180  0.6266
   12MPD2    H1  189   2.094   2.161  14.402 -0.8411  0.5260 -0.2084
   12MPD2    H2  190   2.285   2.442  14.642 -0.7564 -0.1021 -0.0331
   12MPD2    H3  191   2.227   2.207  14.580 -0.5249 -0.5718 -0.6939
   12MPD2     N  192   2.001   2.324  14.214  0.0496  0.2918 -0.3854
   12MPD2    H5  193   1.990   2.223  14.204  0.2354  0.2680 -0.3570
   12MPD2    N1  194   2.186   2.662  14.504  0.5669  0.4589 -0.8678
   12MPD2    H7  195   2.174   2.728  14.428 -2.0177  0.4034 -0.5011
   13TCq1    O1  196   2.154   3.924  11.109  0.5697 -0.5434  0.1913
   13TCq1    C1  197   2.147   3.797  11.164 -1.1846  0.7887  0.4133
   13TCq1    O2  198   2.155   3.695  11.097 -0.2520  0.8223  0.1311
   13TCq1    C2  199   2.055   3.807  11.273 -0.2478 -0.6681 -0.3518
   13TCq1    C3  200   2.047   3.931  11.336  0.8662  0.3955  0.0082
   13TCq1    C4  201   1.930   3.952  11.401 -0.2748  0.7137  0.4283
   13TCq1    C5  202   1.838   3.855  11.417 -0.4071 -0.2825  0.6011
   13TCq1    C6  203   1.862   3.724  11.369 -0.0749  0.2935  0.3641
   13TCq1    C7  204   1.964   3.699  11.287 -0.2134 -0.2984  0.6796
   13TCq1    C8  205   1.745   3.643  11.356 -0.6743  0.0095 -0.1590
   13TCq1    O4  206   1.637   3.684  11.399 -0.6266 -0.1789 -0.8733
   13TCq1    C9  207   1.886   4.082  11.441 -0.9433  0.7704  0.2913
   13TCq1    O5  208   1.949   4.179  11.394 -0.2468 -0.0190 -0.0046
   13TCq1    O6  209   1.810   4.092  11.540  0.5542  0.0676  0.0697
   13TCq1    H1  210   2.140   3.997  11.173 -0.0489 -0.1141 -0.4261
   13TCq1    H2  211   2.123   4.009  11.332  0.5629  0.4360 -4.1287
   13TCq1    H3  212   1.756   3.875  11.486 -1.5235 -0.6367 -0.6433
   13TCq1    H4  213   2.002   3.604  11.250 -0.0228  0.7284 -1.7263
   14MPD2     C  214   1.720   3.304  11.219  0.2457 -0.6895 -0.2282
   14MPD2    C1  215   1.677   3.433  11.247  0.1737  0.0376  0.3413
   14MPD2    C2  216   1.548   3.475  11.219 -0.4602  0.0789 -0.6023
   14MPD2    C3  217   1.455   3.385  11.168  0.4985  0.0777 -0.3390
   14MPD2    C4  218   1.504   3.263  11.129  0.8333  0.4311 -0.4983
   14MPD2    C5  219   1.633   3.226  11.155 -0.1884  0.1895  0.3335
   14MPD2     H  220   1.522   3.578  11.244 -0.9653  0.1128 -1.2994
   14MPD2    H1  221   1.446   3.183  11.084  2.3722 -1.2545  0.5046
   14MPD2    H2  222   1.816   3.274  11.258  1.5724  4.7222  0.6932
   14MPD2    H3  223   1.665   3.123  11.148 -1.2960 -0.1582  0.3533
   14MPD2     N  224   1.321   3.433  11.144  0.1765 -0.1334 -0.4957
   14MPD2    H5  225   1.296   3.528  11.170 -2.0958 -1.0345  0.6189
   14MPD2    N1  226   1.773   3.520  11.298  0.1122 -0.4158 -0.3626
   14MPD2    H7  227   1.870   3.489  11.298  0.0540 -0.6020 -0.2622
   15TCq1    O1  228   0.012   2.444   1.083  0.5560  0.1886 -0.3109
   15TCq1    C1  229   0.058   2.326   1.135  0.5433  0.0773  0.5791
   15TCq1    O2  230   0.156   2.260   1.095  0.8350 -0.4074  0.2748
   15TCq1    C2  231   4.669   2.256   1.178  0.1126  0.0145 -0.0553
   15TCq1    C3  232   4.583   2.329   1.245  0.2633  0.4236  0.7183
   15TCq1    C4  233   4.485   2.269   1.321 -0.4070  0.1774 -0.1389
   15TCq1    C5  234   4.462   2.132   1.317 -0.0008 -0.0658  0.2210
   15TCq1    C6  235   4.555   2.064   1.234  1.0721 -1.2522 -0.0735
   15TCq1    C7  236   4.661   2.122   1.168  0.4656 -0.4882  0.3993
   15TCq1    C8  237   4.538   1.918   1.221  0.3954  0.3089 -0.0273
   15TCq1    O4  238   4.637   1.847   1.213  0.1047 -0.2503 -0.1323
   15TCq1    C9  239   4.384   2.340   1.399 -0.2088  1.0662  0.0004
   15TCq1    O5  240   4.306   2.266   1.462  0.7260 -0.0555 -0.0131
   15TCq1    O6  241   4.393   2.470   1.410  0.7270 -0.5548 -0.2850
   15TCq1    H1  242   4.654   2.465   1.085  0.3923 -0.4776 -1.2155
   15TCq1    H2  243   4.590   2.436   1.257  0.4936  0.7815 -2.7662
   15TCq1    H3  244   4.385   2.086   1.378  1.1446  0.4126  2.0338
   15TCq1    H4  245   0.007   2.064   1.128  0.7039  0.1323  0.0021
   16MPD2     C  246   4.202   1.765   1.251  0.0102 -0.3516  0.9974
   16MPD2    C1  247   4.341   1.766   1.247 -0.7068 -0.1270 -0.2273
   16MPD2    C2  248   4.408   1.647   1.240 -0.3780 -0.1878  0.8047
   16MPD2    C3  249   4.339   1.526   1.255 -0.1128 -0.0008  0.1670
   16MPD2    C4  250   4.204   1.520   1.266 -0.4072 -0.3656  0.0744
   16MPD2    C5  251   4.136   1.641   1.253 -0.2367  0.0302 -0.3914
   16MPD2     H  252   4.516   1.646   1.244 -0.4042  1.1886  1.9050
   16MPD2    H1  253   4.145   1.432   1.287  1.2116 -1.3896  0.2947
   16MPD2    H2  254   4.132   1.847   1.257  1.6468  1.0527  0.6313
   16MPD2    H3  255   4.028   1.639   1.255 -0.2017 -1.1011  0.0580
   16MPD2     N  256   4.413   1.409   1.265 -0.5041  0.2503 -0.3278
   16MPD2    H5  257   4.513   1.426   1.263 -0.3211 -0.8608 -0.6120
   16MPD2    N1  258   4.406   1.889   1.238 -0.1042  0.1857 -0.5904
   16MPD2    H7  259   4.344   1.970   1.240  0.8807  0.9755 -1.8172
   17TMC1    C1  260   0.943   2.259  11.365 -0.3425 -0.4840 -0.0002
   17TMC1    C2  261   0.844   2.177  11.407  0.1059  0.2147  0.6168
   17TMC1    C3  262   0.735   2.230  11.465 -0.5870  0.4509  0.5441
   17TMC1    C4  263   0.948   2.396  11.397  0.3345  0.1945  0.1530
   17TMC1    C5  264   0.847   2.441  11.473 -0.1033  0.0759  0.1573
   17TMC1    C6  265   0.734   2.360  11.498 -0.6336 -0.4408  0.8225
   17TMC1     C  266   1.057   2.203  11.304  0.6937  1.1102  0.3479
   17TMC1     O  267   1.053   2.081  11.298  0.6023  0.0206  0.2460
   17TMC1     H  268   0.848   2.076  11.368 -0.7498  0.6593 -0.6120
   17TMC1    H1  269   1.004   2.470  11.341  0.3737  0.7484  0.9219
   17TMC1    H2  270   0.647   2.407  11.542 -1.1339  0.1843 -0.8357
   17TMC1    C7  271   0.835   2.581  11.511 -0.2806  0.5800  0.1103
   17TMC1    C8  272   0.607   2.174  11.421 -0.1234 -0.4198  0.1284
   17TMC1    O1  273   0.724   2.632  11.534  0.3047  0.2260 -0.1818
   17TMC1    O2  274   0.608   2.067  11.359 -0.3769  0.5323  0.7049
   17TMC1    O3  275   0.941   2.617  11.586 -0.0944  0.5169  0.0896
   17TMC1    H3  276   1.021   2.571  11.552 -1.3605 -2.1343  0.6418
   17TMC1    O5  277   0.508   2.228  11.490  0.1499 -0.5916 -0.1105
   17TMC1    H5  278   0.422   2.183  11.473  0.2949 -1.3108  1.0618
   18MPD2     C  279   1.330   2.119  11.236 -0.1311 -0.1569 -0.0851
   18MPD2    C1  280   1.295   2.249  11.242 -0.1518 -0.7070 -0.4979
   18MPD2    C2  281   1.384   2.340  11.194 -1.1379  0.0531 -0.0547
   18MPD2    C3  282   1.511   2.298  11.151  0.8995  0.3297  0.3560
   18MPD2    C4  283   1.531   2.165  11.136 -0.6172  0.3539 -0.2635
   18MPD2    C5  284   1.446   2.075  11.189 -0.3869 -0.3701 -0.2355
   18MPD2     H  285   1.359   2.444  11.182 -0.7950  0.0267 -1.0370
   18MPD2    H1  286   1.626   2.124  11.101  0.2190  1.6165  0.5254
   18MPD2    H2  287   1.272   2.032  11.266  1.3744 -0.0831  3.0458
   18MPD2    H3  288   1.474   1.971  11.196  0.0758 -0.2678 -0.5700
   18MPD2     N  289   1.618   2.380  11.117  0.3096  0.0523 -0.3040
   18MPD2    H5  290   1.694   2.331  11.071  1.3496  0.2832  1.1780
   18MPD2    N1  291   1.162   2.289  11.283  0.5043  0.4948  0.7503
   18MPD2    H7  292   1.140   2.388  11.277  4.4172  1.2482 -1.1145
   19TMC2    C1  293   3.490   2.572  13.616  0.5080  0.0307 -0.0428
   19TMC2    C2  294   3.378   2.637  13.576  0.4199 -0.7298 -0.0636
   19TMC2    C3  295   3.257   2.581  13.606  0.0939  0.4874  0.3068
   19TMC2    C4  296   3.483   2.458  13.694  0.2933 -0.5101 -0.4087
   19TMC2    C5  297   3.363   2.405  13.729  0.2495  0.5941  0.2520
   19TMC2    C6  298   3.250   2.466  13.687 -0.0152 -0.1200 -0.5576
   19TMC2     C  299   3.627   2.618  13.587 -0.1411  0.0252 -0.2328
   19TMC2     O  300   3.643   2.695  13.492  0.2110  0.3537 -0.1394
   19TMC2     H  301   3.388   2.727  13.516  0.6310  1.7034  3.6568
   19TMC2    H1  302   3.571   2.410  13.735 -1.1349 -2.2873  0.5775
   19TMC2    H2  303   3.157   2.445  13.738  0.3367  3.2069  1.4356
   19TMC2    C7  304   3.359   2.277  13.796  0.4335  0.3009  0.5537
   19TMC2    C8  305   3.152   2.672  13.630 -0.1134 -0.4342 -0.2473
   19TMC2    O1  306   3.463   2.228  13.835  0.5431  0.2536  0.6662
   19TMC2    O2  307   3.105   2.682  13.738 -0.4362  0.7749  0.2676
   19TMC2    O5  308   3.157   2.759  13.532 -0.5768  0.5338  0.5544
   19TMC2    H5  309   3.169   2.728  13.439  1.9866  0.7220  0.8139
   20MPD2     C  310   3.902   2.731  13.626  0.6325 -0.5254 -0.6657
   20MPD2    C1  311   3.830   2.665  13.728 -0.3524  0.1855  0.4716
   20MPD2    C2  312   3.890   2.645  13.851  0.1478 -0.7471 -0.7647
   20MPD2    C3  313   4.014   2.698  13.879  1.0812  0.1876 -0.1338
   20MPD2    C4  314   4.074   2.781  13.784  0.1322  0.0751 -0.7763
   20MPD2    C5  315   4.021   2.795  13.660 -0.9517 -0.0128  0.4357
   20MPD2     H  316   3.843   2.584  13.928 -1.3184 -0.5071 -1.4810
   20MPD2    H1  317   4.166   2.836  13.799 -0.1692  0.5983 -0.8517
   20MPD2    H2  318   3.864   2.740  13.525 -2.1140  1.1974  0.5405
   20MPD2    H3  319   4.072   2.855  13.585  0.1419 -0.1671  1.0574
   20MPD2     N  320   4.080   2.678  14.004  0.3176 -0.3645 -0.2049
   20MPD2    H5  321   4.167   2.727  14.020 -1.3986  2.8397 -0.6714
   20MPD2    N1  322   3.702   2.611  13.704  0.4127 -0.2544  0.4278
   20MPD2    H7  323   3.648   2.575  13.783 -0.2471  3.5280  1.7340
   21TMC2    C1  324   1.027   2.921  14.313 -0.0113 -0.1514  0.3037
   21TMC2    C2  325   1.019   2.964  14.181 -0.1628 -0.6987 -0.1866
   21TMC2    C3  326   0.894   2.991  14.133  0.6681 -0.3020 -0.5522
   21TMC2    C4  327   0.913   2.916  14.392  0.1921 -0.3102  0.1866
   21TMC2    C5  328   0.787   2.949  14.343 -0.1895 -1.2289 -0.0731
   21TMC2    C6  329   0.782   2.982  14.213  0.1184  0.1883 -0.1698
   21TMC2     C  330   1.131   2.828  14.344 -0.1006 -0.2506 -0.7754
   21TMC2     O  331   1.145   2.779  14.457  0.2998  0.1315 -0.4336
   21TMC2     H  332   1.104   2.971  14.115 -0.2720 -1.4580 -0.4073
   21TMC2    H1  333   0.926   2.909  14.499  0.8672  0.3750  0.1424
   21TMC2    H2  334   0.691   3.022  14.170  0.1739  0.9493  0.4320
   21TMC2    C7  335   0.671   2.952  14.428  0.0249 -0.7540 -0.5012
   21TMC2    C8  336   0.876   3.058  14.010  0.0410 -0.6680  0.0712
   21TMC2    O1  337   0.694   2.929  14.546  0.1457  0.2055 -0.2343
   21TMC2    O2  338   0.817   3.166  14.006  0.2559  0.0767  0.4742
   21TMC2    O5  339   0.983   3.032  13.932 -0.1723  0.3777 -0.2137
   21TMC2    H5  340   1.020   2.941  13.939  0.8314  0.6743 -1.5757
   22MPD2     C  341   1.533   2.524  14.225 -0.2526  0.3452  0.0702
   22MPD2    C1  342   1.498   2.587  14.342  0.1151 -0.2771  0.4472
   22MPD2    C2  343   1.396   2.677  14.345 -0.2602 -0.4463 -0.3888
   22MPD2    C3  344   1.303   2.683  14.243  0.1913 -0.2179  0.4306
   22MPD2    C4  345   1.334   2.623  14.123 -0.0189 -0.3917  0.0973
   22MPD2    C5  346   1.448   2.541  14.112  0.4240  0.2108  0.5315
   22MPD2     H  347   1.381   2.738  14.434 -3.4238 -1.7923  0.0079
   22MPD2    H1  348   1.277   2.630  14.031  0.2993 -0.1867 -0.0845
   22MPD2    H2  349   1.614   2.452  14.212 -2.5188 -1.9665 -1.3145
   22MPD2    H3  350   1.477   2.482  14.026  1.0461  0.3321  0.6565
   22MPD2     N  351   1.194   2.769  14.238  0.3586  0.2768  0.4557
   22MPD2    H5  352   1.169   2.787  14.141 -0.2000  1.1141  0.7504
   22MPD2    N1  353   1.584   2.579  14.453  0.7589  0.3042  0.4258
   22MPD2    H7  354   1.560   2.652  14.518 -0.7180  0.1984  0.0010
   23TMC2    C1  355   2.209   4.192  14.244  0.9325  0.0453  0.3575
   23TMC2    C2  356   2.219   4.256  14.129  0.5009  0.0506  0.1240
   23TMC2    C3  357   2.109   4.256  14.044  0.8611 -0.4560 -0.5776
   23TMC2    C4  358   2.101   4.123  14.282  0.8745  0.7150 -0.2141
   23TMC2    C5  359   1.993   4.113  14.195 -0.0066 -0.4702 -0.3561
   23TMC2    C6  360   1.995   4.186  14.079  0.4114  0.2577  0.5819
   23TMC2     C  361   2.323   4.174  14.327  0.7148 -0.0698 -0.2108
   23TMC2     O  362   2.305   4.142  14.440 -0.6064 -0.2090 -0.4187
   23TMC2     H  363   2.305   4.312  14.094  0.4527 -0.7729 -1.3403
   23TMC2    H1  364   2.110   4.070  14.376  2.3016  0.1736 -0.6564
   23TMC2    H2  365   1.928   4.163  13.996  1.1212  1.5673 -0.3500
   23TMC2    C7  366   1.875   4.034  14.242  0.1681 -0.2843  0.0906
   23TMC2    C8  367   2.125   4.272  13.897  0.8479 -0.4425  0.1662
   23TMC2    O1  368   1.875   4.023  14.364  0.3064  0.8465 -0.2230
   23TMC2    O2  369   2.030   4.294  13.826  0.5886  0.2432 -0.1075
   23TMC2    O5  370   2.250   4.289  13.854 -0.1020  0.0734  0.3214
   23TMC2    H5  371   2.319   4.242  13.905  1.1015 -0.6093 -1.9220
   24MPD2     C  372   2.823   4.084  14.392  0.8347 -1.0525 -0.9299
   24MPD2    C1  373   2.717   4.055  14.473  0.4659  0.3733  0.5810
   24MPD2    C2  374   2.585   4.091  14.431 -0.4702  0.3813  0.7328
   24MPD2    C3  375   2.567   4.148  14.303 -0.0650  0.1812 -0.2018
   24MPD2    C4  376   2.677   4.161  14.221  0.3114 -0.1478  0.1158
   24MPD2    C5  377   2.803   4.140  14.267 -0.2152 -0.5320 -0.7941
   24MPD2     H  378   2.505   4.070  14.501 -0.6137  1.3456  0.8607
   24MPD2    H1  379   2.667   4.214  14.127 -1.1399 -2.5771 -1.0815
   24MPD2    H2  380   2.924   4.083  14.431  0.5275  1.7706 -0.0252
   24MPD2    H3  381   2.891   4.167  14.210  1.6979  0.7958  2.7732
   24MPD2     N  382   2.440   4.187  14.257  0.0172  0.2027 -0.1181
   24MPD2    H5  383   2.427   4.206  14.159  0.6364  2.2976  0.2104
   24MPD2    N1  384   2.731   4.000  14.601  0.2338  0.3848 -0.4077
   24MPD2    H7  385   2.655   3.998  14.668 -1.1246 -0.0969 -1.9599
   25TMC2    C1  386   0.960   1.749  11.423  0.5845  0.2303 -0.6910
   25TMC2    C2  387   1.079   1.797  11.467 -0.2184  0.2028 -0.5793
   25TMC2    C3  388   1.088   1.843  11.591  0.1975  0.0085 -0.2728
   25TMC2    C4  389   0.843   1.754  11.494  0.3388 -0.3519 -0.0210
   25TMC2    C5  390   0.853   1.804  11.619 -0.3562 -0.0823 -0.3134
   25TMC2    C6  391   0.978   1.843  11.668  0.0351  0.2073 -0.4396
   25TMC2     C  392   0.958   1.693  11.290 -0.3422 -0.4369 -0.5493
   25TMC2     O  393   1.047   1.740  11.227  0.2948  0.3731 -0.5802
   25TMC2     H  394   1.167   1.795  11.404 -0.0536 -1.3642 -0.2778
   25TMC2    H1  395   0.757   1.697  11.461  2.6516 -4.0047  0.1845
   25TMC2    H2  396   0.989   1.874  11.771 -0.5295 -1.1344  0.0246
   25TMC2    C7  397   0.741   1.830  11.709  0.3462  0.2121 -0.2096
   25TMC2    C8  398   1.191   1.936  11.627 -0.2612 -0.0935 -0.1856
   25TMC2    O1  399   0.768   1.871  11.818  0.0265 -0.1049  0.0813
   25TMC2    O2  400   1.190   2.001  11.729  0.0745  0.3962 -0.6974
   25TMC2    O5  401   1.209   1.994  11.503  0.1996  0.6137 -0.4644
   25TMC2    H5  402   1.144   1.970  11.434 -0.5501  0.9118  0.1275
   26MPD2     C  403   0.717   1.510  10.879 -0.1700  0.0773 -0.8308
   26MPD2    C1  404   0.630   1.509  10.983 -0.2900  0.0988  0.2373
   26MPD2    C2  405   0.664   1.579  11.094 -0.2222 -0.1617  0.0824
   26MPD2    C3  406   0.796   1.620  11.113 -0.2661  0.6236 -0.2192
   26MPD2    C4  407   0.884   1.624  11.009 -0.2706 -0.4522  0.5011
   26MPD2    C5  408   0.841   1.567  10.896 -0.6841  0.1256  0.1844
   26MPD2     H  409   0.600   1.563  11.179 -0.3095  1.8461  0.3924
   26MPD2    H1  410   0.977   1.680  11.009 -0.1063 -0.7307 -0.8710
   26MPD2    H2  411   0.700   1.463  10.782 -2.4980  2.1915 -1.4461
   26MPD2    H3  412   0.905   1.579  10.809  1.9180  2.0705  2.3913
   26MPD2     N  413   0.833   1.656  11.248  0.2562  0.0232 -0.5097
   26MPD2    H5  414   0.765   1.639  11.322  0.8979  0.6214  0.2091
   26MPD2    N1  415   0.503   1.445  10.968 -0.0902 -0.6816 -0.2160
   26MPD2    H7  416   0.496   1.380  10.891  3.7057 -2.3476  0.8344
   27TMC2    C1  417   4.535   4.035  11.874 -0.6511  0.0072 -0.3118
   27TMC2    C2  418   4.631   4.102  11.807 -0.1046  0.2147 -0.3896
   27TMC2    C3  419   4.726   4.175  11.878 -0.2820 -0.4142  0.4626
   27TMC2    C4  420   4.545   4.027  12.013  0.1481  0.5448  0.0879
   27TMC2    C5  421   4.650   4.094  12.081  0.1668  0.1117  0.4963
   27TMC2    C6  422   4.736   4.168  12.019  0.1704 -0.3341 -0.4380
   27TMC2     C  423   4.417   3.990  11.808  0.1238 -0.2886  0.3069
   27TMC2     O  424   4.392   4.039  11.701 -0.4304  0.4451  0.6138
   27TMC2     H  425   4.618   4.121  11.701 -3.2186 -1.0061 -0.2266
   27TMC2    H1  426   4.477   3.973  12.077  1.3290  1.1827  1.8760
   27TMC2    H2  427   0.076   4.226  12.069 -0.0657 -1.2115  0.9597
   27TMC2    C7  428   4.661   4.066  12.225  0.1248 -0.4721 -0.8925
   27TMC2    C8  429   0.068   4.265  11.797  0.5809  0.3766  0.3413
   27TMC2    O1  430   4.586   3.978  12.266  0.1257 -0.3650 -0.0082
   27TMC2    O2  431   0.024   4.318  11.699  0.1590 -0.0817 -0.0086
   27TMC2    O5  432   0.185   4.289  11.856  0.4033  0.5989  0.1696
   27TMC2    H5  433   0.204   4.209  11.909  0.5771  1.4525  1.3693
   28MPD2     C  434   3.940   3.811  11.866  0.5706  0.3434  0.9530
   28MPD2    C1  435   4.022   3.750  11.963 -0.3731 -0.7042  0.1739
   28MPD2    C2  436   4.158   3.759  11.950 -1.3983  0.8417 -0.8094
   28MPD2    C3  437   4.209   3.857  11.862  0.1874  0.4446 -0.4376
   28MPD2    C4  438   4.127   3.914  11.767  0.3706  0.4866 -0.1593
   28MPD2    C5  439   3.993   3.891  11.772 -0.7053 -0.1758 -0.1916
   28MPD2     H  440   4.232   3.712  12.013 -1.3646 -3.4948 -4.0903
   28MPD2    H1  441   4.163   3.990  11.700 -0.2938 -0.4837 -1.6108
   28MPD2    H2  442   3.833   3.801  11.876  0.5070  0.0683 -0.0621
   28MPD2    H3  443   3.928   3.937  11.698  1.2903 -1.4296 -2.7248
   28MPD2     N  444   4.339   3.901  11.881  0.1659  0.1089  0.2815
   28MPD2    H5  445   4.391   3.858  11.957 -2.3699 -1.4700  1.1065
   28MPD2    N1  446   3.955   3.681  12.067 -0.1901 -0.0366 -0.2470
   28MPD2    H7  447   3.854   3.692  12.071 -0.2441 -0.4359 -0.5446
   29TMC2    C1  448   4.500   1.173  14.814  0.2115 -0.1998  0.5709
   29TMC2    C2  449   4.453   1.073  14.895 -0.0284 -0.1741  0.3414
   29TMC2    C3  450   4.381   1.110  15.003  0.6530 -0.3348  1.1315
   29TMC2    C4  451   4.479   1.302  14.840 -0.6728  0.1420  0.3505
   29TMC2    C5  452   4.406   1.337  14.946 -0.3398 -0.7272 -0.3771
   29TMC2    C6  453   4.349   1.242  15.024 -0.8485 -0.1583 -0.0785
   29TMC2     C  454   4.506   1.134  14.671 -0.5526 -0.2150 -0.3195
   29TMC2     O  455   4.578   1.034  14.656  0.3735 -0.9420 -0.0169
   29TMC2     H  456   4.495   0.973  14.896  1.9394  0.6521  0.6402
   29TMC2    H1  457   4.513   1.375  14.767 -1.2944  2.1526  2.0868
   29TMC2    H2  458   4.288   1.273  15.109 -0.1843 -0.9701  0.6941
   29TMC2    C7  459   4.332   1.463  14.927  0.2791 -0.2557  0.4904
   29TMC2    C8  460   4.351   1.010  15.101 -0.0464 -0.0043  0.5333
   29TMC2    O1  461   4.211   1.449  14.925  0.1481 -0.0873  0.0516
   29TMC2    O2  462   4.312   1.032  15.213 -0.1875 -0.3632  0.2922
   29TMC2    O5  463   4.283   0.919  15.026 -0.2319 -0.0594 -0.0555
   29TMC2    H5  464   4.293   0.909  14.929 -1.1501  1.9090 -0.3529
   30MPD2     C  465   4.266   1.031  14.237 -0.2922  0.0722  0.0617
   30MPD2    C1  466   4.362   0.956  14.306  0.1370 -0.6555  0.0675
   30MPD2    C2  467   4.405   1.011  14.422 -0.3668 -0.8545 -0.0839
   30MPD2    C3  468   4.366   1.138  14.469  0.2171 -0.6016  0.4355
   30MPD2    C4  469   4.268   1.204  14.397 -0.7841  0.5010  0.7140
   30MPD2    C5  470   4.218   1.152  14.282  0.1700  0.0710 -0.7616
   30MPD2     H  471   4.466   0.943  14.480 -0.9520 -3.2072 -2.2496
   30MPD2    H1  472   4.234   1.299  14.435 -0.2792  0.6328  0.8443
   30MPD2    H2  473   4.232   0.994  14.141 -2.6155  0.4330  0.7469
   30MPD2    H3  474   4.146   1.213  14.228 -0.2533 -1.0229 -1.4321
   30MPD2     N  475   4.409   1.188  14.592  0.0162 -0.0989  0.6920
   30MPD2    H5  476   4.366   1.274  14.625 -0.9966 -0.5517  0.5487
   30MPD2    N1  477   4.414   0.826  14.269  0.1396  0.3215 -0.3040
   30MPD2    H7  478   4.479   0.780  14.332  1.6378 -1.2238 -2.9812
   31TMC2    C1  479   2.072   4.722  15.198  0.9144  0.5975  0.9732
   31TMC2    C2  480   1.958   0.050  15.232  0.8519 -0.2639  0.8461
   31TMC2    C3  481   1.944   0.114  15.349 -0.6998  0.1041 -0.2344
   31TMC2    C4  482   2.170   4.707  15.296 -0.3533  1.0383 -0.2565
   31TMC2    C5  483   2.152   0.035  15.414  0.6781  0.7312 -0.2093
   31TMC2    C6  484   2.044   0.116  15.440 -0.0348  0.7211  0.3628
   31TMC2     C  485   2.099   4.718  15.061 -0.3751  0.0741  0.0325
   31TMC2     O  486   2.001   4.723  14.986  0.5052  0.0077 -0.2680
   31TMC2     H  487   1.880   0.068  15.160  1.0370  1.2410  1.0272
   31TMC2    H1  488   2.258   4.645  15.282 -0.4939  0.7965 -0.0499
   31TMC2    H2  489   2.028   0.168  15.534 -0.0391  0.2054  0.6479
   31TMC2    C7  490   2.255   0.008  15.507 -0.0093 -0.0459 -0.3863
   31TMC2    C8  491   1.830   0.199  15.363 -0.0393 -0.8945 -0.5018
   31TMC2    O1  492   2.325   4.649  15.490 -0.0662 -0.0645  0.2517
   31TMC2    O2  493   1.753   0.200  15.457  0.2854 -0.9766  0.0306
   31TMC2    O5  494   1.870   0.308  15.307 -0.5478 -0.6151 -0.3277
   31TMC2    H5  495   1.951   0.305  15.252 -0.5976 -1.7040 -0.3435
   32MPD2     C  496   2.419   0.036  14.661  0.6691 -0.3906  0.6551
   32MPD2    C1  497   2.280   0.056  14.662  0.5950 -0.1860 -0.0653
   32MPD2    C2  498   2.224   0.035  14.790  0.2733  0.4804 -0.0734
   32MPD2    C3  499   2.293   4.723  14.900  0.3704  0.1086  0.9728
   32MPD2    C4  500   2.428   4.712  14.883  0.1516 -0.3912  0.1946
   32MPD2    C5  501   2.495   4.733  14.770 -0.0592 -0.1486 -0.8643
   32MPD2     H  502   2.119   0.054  14.805  0.5013  0.6006  1.3754
   32MPD2    H1  503   2.481   4.664  14.965 -1.0476  0.2940  1.3597
   32MPD2    H2  504   2.477   0.055  14.571  1.5252  0.9145  1.4844
   32MPD2    H3  505   2.603   4.727  14.767  0.0233  1.2399 -0.8259
   32MPD2     N  506   2.240   4.706  15.032 -0.0945  0.6268  1.0060
   32MPD2    H5  507   2.302   4.697  15.112  0.9263  0.2375  0.1694
   32MPD2    N1  508   2.216   0.097  14.547 -0.6569  0.0894  0.1545
   32MPD2    H7  509   2.280   0.120  14.471  1.1884 -0.0083  1.6951
   33TMC2    C1  510   2.298   3.478  10.966  0.6402  0.1402 -0.2709
   33TMC2    C2  511   2.391   3.509  11.061 -0.8407 -0.1293  0.7318
   33TMC2    C3  512   2.460   3.633  11.027 -0.3458  0.1804  0.2235
   33TMC2    C4  513   2.278   3.544  10.846 -0.2054  0.1817 -0.2338
   33TMC2    C5  514   2.362   3.650  10.816 -0.1688 -0.3060  0.2210
   33TMC2    C6  515   2.440   3.708  10.919 -0.7187  0.4938  0.5273
   33TMC2     C  516   2.215   3.362  10.996  0.7325 -0.4203  0.2551
   33TMC2     O  517   2.178   3.293  10.904 -0.4225 -0.0110  0.6626
   33TMC2     H  518   2.439   3.437  11.126 -1.1035  0.0411  1.1149
   33TMC2    H1  519   2.204   3.508  10.776  1.2461 -3.1691 -0.0771
   33TMC2    H2  520   2.493   3.800  10.900  1.0030 -0.3708  1.1392
   33TMC2    C7  521   2.376   3.712  10.688 -0.0760 -0.0461 -0.3531
   33TMC2    C8  522   2.549   3.693  11.117 -0.0885  0.5375  0.0872
   33TMC2    O1  523   2.485   3.750  10.654  0.5104 -0.2826 -0.0934
   33TMC2    O2  524   2.653   3.750  11.092  0.0604  0.7068 -0.5325
   33TMC2    O5  525   2.475   3.707  11.234  0.3400  0.3935 -0.0893
   33TMC2    H5  526   2.400   3.644  11.239 -1.4173  2.6519  1.8847
   34MPD2     C  527   2.004   3.023  11.328 -0.0604  0.0561  0.3947
   34MPD2    C1  528   1.983   3.032  11.192  0.9120 -0.1701 -0.5012
   34MPD2    C2  529   2.040   3.139  11.119  0.2738 -0.4287  0.2447
   34MPD2    C3  530   2.124   3.232  11.186  0.0714  0.5688  0.9384
   34MPD2    C4  531   2.147   3.212  11.316 -0.4895 -0.8880  0.1627
   34MPD2    C5  532   2.082   3.110  11.387 -0.9696 -0.3469  0.3444
   34MPD2     H  533   2.037   3.140  11.011 -1.8007  0.5750  0.3000
   34MPD2    H1  534   2.216   3.280  11.366 -2.1509  0.0259  1.2216
   34MPD2    H2  535   1.966   2.938  11.383 -0.8119 -0.7728 -1.3969
   34MPD2    H3  536   2.107   3.102  11.492  0.0436 -1.0553  0.0485
   34MPD2     N  537   2.195   3.339  11.128 -0.0493  0.7197 -0.3720
   34MPD2    H5  538   2.246   3.399  11.192  1.6750 -0.3995 -0.7120
   34MPD2    N1  539   1.896   2.930  11.142  0.0433 -0.5019 -0.0738
   34MPD2    H7  540   1.877   2.850  11.202  1.1750  0.7340  1.9208
   35TMC2    C1  541   2.031   3.955  11.795  0.0250  0.5175  0.0738
   35TMC2    C2  542   1.900   3.985  11.772  0.6192 -0.6825 -0.2190
   35TMC2    C3  543   1.812   3.883  11.769  0.0027  0.1400 -0.4920
   35TMC2    C4  544   2.076   3.824  11.770 -0.1442 -0.0395 -0.6754
   35TMC2    C5  545   1.988   3.721  11.764  0.1553  0.0596 -0.6406
   35TMC2    C6  546   1.856   3.750  11.765  0.5760  0.0752  0.2087
   35TMC2     C  547   2.117   4.074  11.780 -0.4483 -0.3716 -0.3267
   35TMC2     O  548   2.065   4.184  11.791  0.2102  0.7066 -0.3297
   35TMC2     H  549   1.856   4.082  11.792 -3.2661 -2.1732 -1.5579
   35TMC2    H1  550   2.182   3.801  11.765  0.1553  1.2869 -0.6141
   35TMC2    H2  551   1.783   3.672  11.750  2.1871 -1.2958 -0.4181
   35TMC2    C7  552   2.026   3.604  11.830 -0.1824 -0.6512  0.7461
   35TMC2    C8  553   1.671   3.914  11.783 -0.0485 -0.4039  0.4056
   35TMC2    O1  554   2.140   3.560  11.805  0.1138  0.6657 -0.1215
   35TMC2    O2  555   1.596   3.839  11.841 -0.4702  0.1064  0.3777
   35TMC2    O5  556   1.636   3.988  11.685 -0.5394 -0.1344  0.3514
   35TMC2    H5  557   1.712   4.017  11.630  0.7034  2.1756  3.2986
   36MPD2     C  558   2.581   4.303  11.761 -0.2886 -0.2939 -0.0472
   36MPD2    C1  559   2.596   4.180  11.825  0.0456  0.4246  0.6260
   36MPD2    C2  560   2.488   4.092  11.830 -0.1960 -0.2488  0.2319
   36MPD2    C3  561   2.365   4.133  11.788  0.4632 -0.2789  0.1736
   36MPD2    C4  562   2.355   4.247  11.717 -0.1384  0.2082  0.5992
   36MPD2    C5  563   2.463   4.335  11.698  0.4155  0.2643 -0.1889
   36MPD2     H  564   2.494   4.002  11.891  0.2887  0.2936  0.9788
   36MPD2    H1  565   2.260   4.274  11.673  0.0209  2.3238  1.5271
   36MPD2    H2  566   2.666   4.369  11.760 -0.7270  0.2613 -0.3926
   36MPD2    H3  567   2.438   4.425  11.644  1.5031  0.7357  0.1011
   36MPD2     N  568   2.249   4.043  11.791  0.0474  0.1209 -0.3435
   36MPD2    H5  569   2.272   3.946  11.808  1.1253  0.7061  1.5073
   36MPD2    N1  570   2.729   4.149  11.877 -0.0394  0.2038 -0.4898
   36MPD2    H7  571   2.796   4.225  11.886  0.8661 -0.8107  1.2778
   37TMC2    C1  572   0.747   0.147  11.528  0.1953  0.1355 -0.4243
   37TMC2    C2  573   0.700   0.181  11.402  0.1769 -0.1046  0.5755
   37TMC2    C3  574   0.768   0.281  11.331 -0.4637  0.7430  0.6208
   37TMC2    C4  575   0.879   0.163  11.559 -0.7631  0.1889 -0.1584
   37TMC2    C5  576   0.946   0.253  11.485 -0.2568  1.5080 -0.2215
   37TMC2    C6  577   0.897   0.296  11.364  0.0846 -0.0098 -0.2875
   37TMC2     C  578   0.669   0.046  11.600  0.2971  0.6088  0.5414
   37TMC2     O  579   0.545   0.049  11.580  0.9727  0.5708  0.2207
   37TMC2     H  580   0.592   0.173  11.401  0.1436  0.3732 -1.5017
   37TMC2    H1  581   0.905   0.140  11.662 -1.3189  0.4984  0.0480
   37TMC2    H2  582   0.960   0.359  11.303  0.4410  1.9881  2.1135
   37TMC2    C7  583   1.064   0.309  11.544  0.5360 -0.1849 -0.0629
   37TMC2    C8  584   0.734   0.306  11.190  0.0064 -0.3673  0.6070
   37TMC2    O1  585   1.125   0.227  11.616  0.2285 -0.1421 -0.0407
   37TMC2    O2  586   0.791   0.391  11.127 -0.0114 -0.3361 -0.2588
   37TMC2    O5  587   0.695   0.183  11.141 -0.3552  0.2960  0.0137
   37TMC2    H5  588   0.658   0.132  11.216  0.4164 -1.7578 -1.0037
   38MPD2     C  589   0.668   4.353  11.891 -0.5057  0.1947 -0.4339
   38MPD2    C1  590   0.795   4.394  11.873  0.2508  0.6649  0.0078
   38MPD2    C2  591   0.819   4.512  11.799 -0.9140 -0.3975  0.1277
   38MPD2    C3  592   0.718   4.584  11.738 -0.9801  0.1791  0.4534
   38MPD2    C4  593   0.587   4.545  11.773 -0.4048  0.0974 -0.2488
   38MPD2    C5  594   0.564   4.424  11.841 -0.4712 -0.4006 -0.3988
   38MPD2     H  595   0.921   4.535  11.767 -0.4671 -0.0230  1.8478
   38MPD2    H1  596   0.508   4.605  11.729  0.2036  1.1876  0.1317
   38MPD2    H2  597   0.648   4.259  11.943 -0.8826  1.1934  1.2226
   38MPD2    H3  598   0.462   4.388  11.851 -0.3697  0.0934  2.3647
   38MPD2     N  599   0.756   4.694  11.661 -0.4929 -0.4185  0.3308
   38MPD2    H5  600   0.857   4.696  11.652 -0.3070 -2.4857  1.8567
   38MPD2    N1  601   0.912   4.327  11.921  0.2017 -0.2127 -0.2870
   38MPD2    H7  602   1.000   4.371  11.895 -1.0499  2.7943  0.6027
   39TMC2    C1  603   4.304   1.466   1.610 -0.7449 -0.1311  0.6280
   39TMC2    C2  604   4.187   1.544   1.613  0.0768 -0.0948  0.1727
   39TMC2    C3  605   4.207   1.681   1.621 -0.9217  0.8530 -0.1914
   39TMC2    C4  606   4.426   1.522   1.606  0.2235 -0.6210 -0.9581
   39TMC2    C5  607   4.433   1.657   1.598 -1.1997 -0.7933  0.5516
   39TMC2    C6  608   4.329   1.738   1.610  0.5031 -0.9675 -0.1546
   39TMC2     C  609   4.279   1.319   1.608  0.3105  0.3135 -0.1705
   39TMC2     O  610   4.164   1.294   1.565 -0.3050  0.1246 -0.1781
   39TMC2     H  611   4.091   1.495   1.624 -0.4088  0.8248 -0.0307
   39TMC2    H1  612   4.516   1.462   1.611  0.1350 -0.5743  0.9294
   39TMC2    H2  613   4.341   1.846   1.608  0.7514 -0.9984 -0.2878
   39TMC2    C7  614   4.559   1.705   1.555 -1.3457  0.4524  0.4273
   39TMC2    C8  615   4.098   1.772   1.629  0.2887 -0.4750  0.0913
   39TMC2    O1  616   4.632   1.617   1.506  0.2139  0.1702  0.5676
   39TMC2    O2  617   4.101   1.886   1.587  0.3226 -0.1892 -0.4812
   39TMC2    O5  618   3.986   1.706   1.657  0.3682 -0.5675 -0.1265
   39TMC2    H5  619   4.005   1.637   1.724  1.6086  2.0097  2.1796
   40MPD2     C  620   4.505   1.031   1.619 -0.0094  0.8843 -0.3071
   40MPD2    C1  621   4.384   1.094   1.612  1.1541 -0.2391 -0.3568
   40MPD2    C2  622   4.276   1.012   1.583 -0.1418 -0.9225 -0.0878
   40MPD2    C3  623   4.285   0.872   1.571 -0.4968 -0.3387 -0.1055
   40MPD2    C4  624   4.407   0.812   1.579 -0.3104  0.5123  0.0149
   40MPD2    C5  625   4.513   0.893   1.601 -0.3941  0.5647  0.1651
   40MPD2     H  626   4.184   1.066   1.565  0.1398 -1.2466 -2.4310
   40MPD2    H1  627   4.431   0.710   1.552 -1.6481  0.2407 -0.1337
   40MPD2    H2  628   4.601   1.080   1.618  0.5837 -0.2069  3.1958
   40MPD2    H3  629   4.611   0.852   1.580 -0.5023  0.7471 -0.7219
   40MPD2     N  630   4.170   0.798   1.541  0.0972  0.0304  0.3710
   40MPD2    H5  631   4.182   0.699   1.523  2.3774  0.6623 -1.5928
   40MPD2    N1  632   4.385   1.230   1.625 -0.1788  0.1239 -0.6615
   40MPD2    H7  633   4.468   1.263   1.674 -0.0227 -2.1177  0.5936
   41TMC2    C1  634   3.032   3.742  13.224 -0.4539  0.5324  0.1908
   41TMC2    C2  635   2.954   3.838  13.280 -0.3865 -0.3639 -0.7218
   41TMC2    C3  636   2.899   3.930  13.196 -0.3246  0.0591 -0.1899
   41TMC2    C4  637   3.062   3.752  13.087  0.4476  0.0519 -0.5720
   41TMC2    C5  638   2.998   3.841  13.008  0.0963 -0.1142  0.2119
   41TMC2    C6  639   2.916   3.934  13.068 -0.4515  0.2574  0.0800
   41TMC2     C  640   3.079   3.630  13.306  0.0900 -0.6981 -0.1967
   41TMC2     O  641   3.100   3.534  13.233  0.4877  0.2872 -0.1613
   41TMC2     H  642   2.949   3.840  13.388 -0.0449 -0.4183 -0.7046
   41TMC2    H1  643   3.124   3.674  13.043  0.9620 -0.4642  1.0783
   41TMC2    H2  644   2.874   4.011  13.004 -2.5987 -1.2097 -0.2556
   41TMC2    C7  645   3.024   3.834  12.869  0.3001  0.8425 -0.1488
   41TMC2    C8  646   2.796   4.023  13.243  0.3272  0.3864  0.4034
   41TMC2    O1  647   3.142   3.826  12.831  0.2722  0.0876 -0.3208
   41TMC2    O2  648   2.787   4.131  13.188  0.3278  0.1151 -0.0994
   41TMC2    O5  649   2.795   4.012  13.381  0.1352 -0.5414 -0.3658
   41TMC2    H5  650   2.789   3.919  13.413 -0.0322  0.0462  1.3086
   42MPD2     C  651   3.123   3.415  13.506  0.2378 -0.2950  0.3452
   42MPD2    C1  652   3.125   3.551  13.536 -0.0616  0.3740 -0.0534
   42MPD2    C2  653   3.144   3.587  13.670 -0.2133  0.6495  0.5184
   42MPD2    C3  654   3.165   3.494  13.765 -0.7872 -0.3884 -0.4508
   42MPD2    C4  655   3.155   3.362  13.736  0.2969 -0.0527  0.1686
   42MPD2    C5  656   3.121   3.319  13.608 -0.4445 -0.5721 -0.2217
   42MPD2     H  657   3.168   3.689  13.695 -0.9860  0.7929  0.6691
   42MPD2    H1  658   3.163   3.282  13.809 -2.5532 -0.2699  0.2488
   42MPD2    H2  659   3.116   3.377  13.405  0.3798 -2.0258  0.9750
   42MPD2    H3  660   3.099   3.216  13.581 -0.8483 -0.8304  1.1023
   42MPD2     N  661   3.200   3.527  13.895  0.3978  0.1287 -0.0068
   42MPD2    H5  662   3.238   3.453  13.954  1.6697  1.4277  0.8120
   42MPD2    N1  663   3.090   3.654  13.438  0.0565 -0.4215  0.1228
   42MPD2    H7  664   3.083   3.749  13.474  0.1612 -0.7004  0.8654
   43TMC2    C1  665   4.526   2.244   0.197 -0.5781  0.5433 -0.1966
   43TMC2    C2  666   4.398   2.302   0.205 -0.6215 -0.5336 -0.0809
   43TMC2    C3  667   4.397   2.430   0.261  0.1085 -0.7009 -0.1402
   43TMC2    C4  668   4.637   2.314   0.238  0.5418  0.4680 -0.1287
   43TMC2    C5  669   4.627   2.440   0.288 -0.5129 -0.3799 -0.0346
   43TMC2    C6  670   4.502   2.491   0.312 -0.0769 -0.2843 -0.1760
   43TMC2     C  671   4.551   2.103   0.183  0.3465 -0.5443 -0.6069
   43TMC2     O  672   4.662   2.060   0.154 -0.3084 -0.0411 -0.1390
   43TMC2     H  673   4.315   2.248   0.162 -0.0288  0.0825 -1.9819
   43TMC2    H1  674   0.001   2.275   0.246 -0.0617 -0.6886  1.9880
   43TMC2    H2  675   4.501   2.591   0.354 -0.2717 -0.1223 -0.5688
   43TMC2    C7  676   0.015   2.512   0.296  0.1259  0.9089  0.6094
   43TMC2    C8  677   4.281   2.488   0.314 -0.0713  0.5436 -0.3944
   43TMC2    O1  678   0.103   2.464   0.218  0.6661  0.0883  0.1110
   43TMC2    O2  679   4.284   2.577   0.402 -0.2897 -0.2913 -0.6881
   43TMC2    O5  680   4.167   2.423   0.294 -0.2449 -0.2806 -0.0014
   43TMC2    H5  681   4.173   2.354   0.225 -2.6897  0.1281 -0.6111
   44MPD2     C  682   4.422   1.617   0.292  0.4059 -0.1761 -0.2165
   44MPD2    C1  683   4.546   1.674   0.262 -0.4095 -0.3248  0.4776
   44MPD2    C2  684   4.548   1.813   0.245  0.5476  0.4917  0.2320
   44MPD2    C3  685   4.435   1.887   0.256  0.1087  0.1019  1.1561
   44MPD2    C4  686   4.326   1.822   0.296  0.3078 -0.9594 -0.7393
   44MPD2    C5  687   4.313   1.693   0.313 -0.2941 -0.5153  0.3701
   44MPD2     H  688   4.640   1.855   0.207  1.3082 -0.2614  1.2289
   44MPD2    H1  689   4.233   1.877   0.301  0.3139 -1.1692  2.1254
   44MPD2    H2  690   4.405   1.511   0.282  0.4398 -0.3158  1.2530
   44MPD2    H3  691   4.211   1.657   0.326 -0.0170 -2.0594 -1.6795
   44MPD2     N  692   4.440   2.026   0.232 -0.1492 -0.0739 -0.3194
   44MPD2    H5  693   4.358   2.081   0.258 -0.0193  0.5413 -1.2064
   44MPD2    N1  694   4.662   1.593   0.239  0.0930 -0.0600  0.5345
   44MPD2    H7  695   0.003   1.650   0.208 -0.7314  0.6337 -0.3132
   45TMC2    C1  696   0.247   0.324   9.357 -0.3894 -0.2713  0.3411
   45TMC2    C2  697   0.113   0.330   9.390 -0.1103 -0.4339 -0.3813
   45TMC2    C3  698   0.068   0.455   9.432  0.2070  0.4473  0.3224
   45TMC2    C4  699   0.331   0.429   9.351  0.6574 -0.0968 -0.0549
   45TMC2    C5  700   0.287   0.543   9.415  0.3140  0.1747 -0.0107
   45TMC2    C6  701   0.157   0.554   9.453  0.7877 -1.2675 -0.0634
   45TMC2     C  702   0.296   0.184   9.324  0.0575 -0.9060  0.0056
   45TMC2     O  703   0.413   0.175   9.316 -0.4259 -0.3347 -0.1089
   45TMC2     H  704   0.038   0.253   9.380 -0.3496 -0.1233 -0.9716
   45TMC2    H1  705   0.427   0.428   9.301  1.2841 -0.6326  1.1774
   45TMC2    H2  706   0.124   0.638   9.513  2.6085  1.8133 -3.3467
   45TMC2    C7  707   0.381   0.630   9.469  0.2451  0.4303  0.0857
   45TMC2    C8  708   4.674   0.471   9.471 -0.2045  0.4181  0.1087
   45TMC2    O1  709   0.335   0.720   9.537  0.0930  0.5282  0.3108
   45TMC2    O2  710   4.613   0.373   9.515  0.0416  0.2224  0.0483
   45TMC2    O5  711   4.632   0.596   9.445  0.1092 -0.4246  0.2395
   45TMC2    H5  712   4.702   0.625   9.383 -0.8216 -1.8331 -1.4733
   46MPD2     C  713   0.347   4.635   9.270 -0.4109 -0.4681 -1.1453
   46MPD2    C1  714   0.221   4.689   9.299 -0.3701 -1.0366 -0.0313
   46MPD2    C2  715   0.112   4.601   9.310  0.3610 -0.2328 -0.4666
   46MPD2    C3  716   0.130   4.464   9.314  0.4322  0.1136  0.5867
   46MPD2    C4  717   0.257   4.407   9.282  0.4307 -0.3869 -1.0624
   46MPD2    C5  718   0.356   4.498   9.263  0.2206 -0.1983  0.3381
   46MPD2     H  719   0.009   4.632   9.327  0.5946 -0.1495  0.7265
   46MPD2    H1  720   0.280   4.301   9.274  0.1880 -0.2777 -3.2543
   46MPD2    H2  721   0.440   4.690   9.264 -1.3588  1.0254 -2.0648
   46MPD2    H3  722   0.453   4.456   9.242  0.5878  1.2906 -0.8876
   46MPD2     N  723   0.018   4.377   9.331  0.7323 -0.0045 -0.0489
   46MPD2    H5  724   4.669   4.425   9.353  0.4490 -0.0677 -1.0379
   46MPD2    N1  725   0.194   0.090   9.311  0.4966  0.4655 -0.1913
   46MPD2    H7  726   0.102   0.133   9.318 -0.3877 -1.3297 -0.6444
   47TMC2    C1  727   2.824   4.727   8.262 -0.3719 -0.8490  0.6007
   47TMC2    C2  728   2.755   0.005   8.152  0.0810  0.4748 -0.4759
   47TMC2    C3  729   2.663   0.110   8.162  0.8171  0.3258 -0.3751
   47TMC2    C4  730   2.820   0.065   8.378  0.1773 -0.1406  0.2923
   47TMC2    C5  731   2.733   0.173   8.376  0.0117 -0.4602 -0.4439
   47TMC2    C6  732   2.651   0.190   8.273  0.5859 -0.2119  0.0078
   47TMC2     C  733   2.888   4.599   8.270 -0.0159 -0.2109  0.4224
   47TMC2     O  734   2.924   4.541   8.165 -0.1384 -0.2543  0.0540
   47TMC2     H  735   2.752   4.669   8.072  0.0672  0.6327 -0.6227
   47TMC2    H1  736   2.884   0.049   8.464  0.6840  3.4553  0.5765
   47TMC2    H2  737   2.587   0.277   8.262  1.2402  0.1067 -1.3580
   47TMC2    C7  738   2.705   0.262   8.489  0.1892 -0.1525  0.4993
   47TMC2    C8  739   2.547   0.109   8.072  0.2490 -0.5925 -0.7741
   47TMC2    O1  740   2.611   0.345   8.484  0.7231  0.0796 -0.5948
   47TMC2    O2  741   2.442   0.156   8.108 -0.7966 -0.3673 -0.3030
   47TMC2    O5  742   2.580   0.081   7.942  0.1894  0.4704  0.1584
   47TMC2    H5  743   2.676   0.064   7.931  0.2331  1.5928 -1.2127
   48MPD2     C  744   3.069   4.383   8.366  0.0582  0.4661 -0.1482
   48MPD2    C1  745   2.975   4.447   8.446  1.1558  0.1979  0.6593
   48MPD2    C2  746   2.975   4.430   8.584  0.2042  0.2642 -0.3059
   48MPD2    C3  747   3.074   4.354   8.643  0.2856 -0.0895 -0.1365
   48MPD2    C4  748   3.155   4.275   8.562 -0.3005 -0.6609  0.3131
   48MPD2    C5  749   3.155   4.291   8.426 -0.1826 -0.4589 -0.2588
   48MPD2     H  750   2.907   4.484   8.650 -0.5256 -0.9596 -0.0708
   48MPD2    H1  751   3.224   4.200   8.599 -1.7109 -1.7078  0.8198
   48MPD2    H2  752   3.082   4.398   8.260  0.7232  0.5097 -0.0618
   48MPD2    H3  753   3.219   4.234   8.361 -0.1116  0.2195 -0.7810
   48MPD2     N  754   3.072   4.344   8.780 -0.0341 -0.5791 -0.3994
   48MPD2    H5  755   2.993   4.390   8.824 -0.7857 -1.3858 -0.9009
   48MPD2    N1  756   2.891   4.552   8.395 -0.4176  0.7645  0.2234
   48MPD2    H7  757   2.824   4.588   8.461 -1.0790  1.2960 -0.7445
   49TMC2    C1  758   0.109   2.619  10.239 -0.3308  0.0653  0.2746
   49TMC2    C2  759   0.089   2.646  10.103  0.7299 -0.1230 -0.3513
   49TMC2    C3  760   0.051   2.548  10.026  0.7407 -0.4982 -0.5659
   49TMC2    C4  761   0.126   2.491  10.295 -0.3255  0.3352 -0.0671
   49TMC2    C5  762   0.085   2.396  10.213  0.6455 -0.1656 -0.5458
   49TMC2    C6  763   0.037   2.424  10.086  1.1357  0.9956  0.2273
   49TMC2     C  764   0.157   2.728  10.314  0.2769  0.2923 -0.4654
   49TMC2     O  765   0.243   2.798  10.257  0.0380 -0.4367  0.2110
   49TMC2     H  766   0.084   2.747  10.064  0.8317  0.2011  0.4911
   49TMC2    H1  767   0.145   2.468  10.399  0.4323  0.7353 -0.1169
   49TMC2    H2  768   0.011   2.338  10.024  1.0284  1.8051 -0.8492
   49TMC2    C7  769   0.132   2.262  10.223  0.7139 -0.5999  0.5815
   49TMC2    C8  770   4.726   2.586   9.898  0.0753  0.8159  0.2857
   49TMC2    O1  771   0.078   2.175  10.158 -0.4354  0.1349  0.4895
   49TMC2    O2  772   4.727   2.700   9.854 -0.4107 -0.6321  0.2456
   49TMC2    O5  773   4.647   2.489   9.854 -0.1680  0.3212 -0.0762
   49TMC2    H5  774   4.626   2.416   9.916  3.7377 -1.3357 -0.6740
   50MPD2     C  775   0.338   2.830  10.530  0.0958  0.9084 -0.1731
   50MPD2    C1  776   0.215   2.766  10.553  0.3066  0.1772  0.9068
   50MPD2    C2  777   0.166   2.750  10.682 -0.0084  0.4861 -0.1038
   50MPD2    C3  778   0.235   2.801  10.793  0.8972 -0.3256 -0.2929
   50MPD2    C4  779   0.356   2.868  10.770  0.9014 -0.2323 -0.1000
   50MPD2    C5  780   0.400   2.886  10.643 -0.5824 -0.1860 -0.2558
   50MPD2     H  781   0.064   2.715  10.693 -0.4740  0.8452 -3.1107
   50MPD2    H1  782   0.417   2.913  10.847  1.7029 -0.9479 -0.3151
   50MPD2    H2  783   0.388   2.840  10.435  1.2768  0.2787  0.3754
   50MPD2    H3  784   0.482   2.955  10.629 -1.4125  0.8824  0.1656
   50MPD2     N  785   0.195   2.778  10.924  0.3572 -0.1544 -0.3765
   50MPD2    H5  786   0.249   2.810  11.004  0.9756 -0.6124 -0.6118
   50MPD2    N1  787   0.136   2.707  10.448  0.4439 -0.2819 -0.0778
   50MPD2    H7  788   0.060   2.646  10.477  0.1191 -0.4070 -1.1939
   51TMC2    C1  789   1.322   0.802   1.633  0.2226  0.2521 -0.3839
   51TMC2    C2  790   1.235   0.807   1.745  0.0802  0.2737  0.4161
   51TMC2    C3  791   1.238   0.929   1.816 -0.3613 -0.7377 -0.5871
   51TMC2    C4  792   1.398   0.911   1.595 -0.2277  0.2891  0.3057
   51TMC2    C5  793   1.386   1.032   1.659 -0.2593 -0.0672  0.4039
   51TMC2    C6  794   1.305   1.041   1.774  0.0775 -0.2264  0.4712
   51TMC2     C  795   1.354   0.670   1.562 -0.9642 -0.3420  0.2358
   51TMC2     O  796   1.398   0.674   1.449 -0.3922 -0.1632 -0.4082
   51TMC2     H  797   1.160   0.738   1.781  0.2433  0.9705  2.1119
   51TMC2    H1  798   1.461   0.913   1.507  0.0782 -0.0220  0.5179
   51TMC2    H2  799   1.297   1.128   1.838 -2.1926 -0.3121  0.2887
   51TMC2    C7  800   1.484   1.141   1.637 -0.3701  0.9143 -0.6280
   51TMC2    C8  801   1.144   0.944   1.928  0.2355  0.5549  0.5115
   51TMC2    O1  802   1.603   1.113   1.615  0.8460  0.1630 -0.4144
   51TMC2    O2  803   1.080   1.046   1.952  0.2672  0.2841 -0.2620
   51TMC2    O5  804   1.133   0.829   2.002 -0.2971  0.2971 -0.0017
   51TMC2    H5  805   1.196   0.756   1.981 -0.4989  0.5730 -1.5467
   52MPD2     C  806   1.425   0.166   1.559 -0.0379 -0.3186 -0.4972
   52MPD2    C1  807   1.453   0.258   1.464  0.0515  0.0175  0.1231
   52MPD2    C2  808   1.406   0.386   1.480 -0.1775  0.1595 -0.1894
   52MPD2    C3  809   1.342   0.427   1.596 -0.8373 -0.8511 -0.3666
   52MPD2    C4  810   1.319   0.334   1.692 -0.4497 -0.7007 -1.0752
   52MPD2    C5  811   1.343   0.200   1.662  0.0763 -0.6113 -0.4768
   52MPD2     H  812   1.417   0.456   1.397  0.6417 -0.0991 -0.2966
   52MPD2    H1  813   1.268   0.350   1.786 -0.2100 -0.5621 -0.9685
   52MPD2    H2  814   1.432   0.059   1.540  0.6921 -0.4198  0.3337
   52MPD2    H3  815   1.321   0.125   1.737  1.2040 -0.8452 -0.3664
   52MPD2     N  816   1.304   0.561   1.630 -0.3304  0.1108  0.1937
   52MPD2    H5  817   1.275   0.576   1.726 -0.5169 -0.1045  0.1724
   52MPD2    N1  818   1.524   0.222   1.342  0.7091 -0.3358 -0.1625
   52MPD2    H7  819   1.560   0.304   1.294  0.0550 -0.1135 -0.2688
   53TMC2    C1  820   1.704   0.472  11.911  0.3017 -0.6563 -0.1568
   53TMC2    C2  821   1.836   0.468  11.914  0.2007 -0.1724  0.1186
   53TMC2    C3  822   1.898   0.348  11.954  0.4598 -0.4350 -0.3536
   53TMC2    C4  823   1.628   0.375  11.983 -0.3745 -0.6015 -0.2424
   53TMC2    C5  824   1.697   0.267  12.040  0.2124  0.3485  1.1932
   53TMC2    C6  825   1.835   0.254  12.033  0.3799 -0.4941  0.1083
   53TMC2     C  826   1.642   0.547  11.799 -0.3514  0.1146 -0.0265
   53TMC2     O  827   1.703   0.642  11.755 -0.1915  0.6131  0.3343
   53TMC2     H  828   1.891   0.539  11.853 -0.4725  0.9932  0.8706
   53TMC2    H1  829   1.525   0.397  12.010 -1.2130 -0.9143 -3.0745
   53TMC2    H2  830   1.883   0.169  12.078 -0.0985 -1.5590 -1.3794
   53TMC2    C7  831   1.611   0.163  12.107  0.0283 -0.0086 -0.2860
   53TMC2    C8  832   2.042   0.342  11.932  0.5618 -0.3790  0.0297
   53TMC2    O1  833   1.494   0.177  12.074  0.3911 -0.0639 -0.2179
   53TMC2    O2  834   2.105   0.448  11.937  0.1950 -0.1592  0.0410
   53TMC2    O5  835   2.082   0.235  11.998  0.1786  0.0344  1.2256
   53TMC2    H5  836   2.022   0.159  11.988 -2.0313  2.0301 -0.6605
   54MPD2     C  837   1.486   0.616  11.558 -0.3268  0.0504 -0.1656
   54MPD2    C1  838   1.448   0.514  11.644  0.4980 -0.3825  0.2215
   54MPD2    C2  839   1.334   0.441  11.615 -0.2551 -0.1079  0.1809
   54MPD2    C3  840   1.237   0.490  11.527 -0.1631  0.8937  0.1765
   54MPD2    C4  841   1.272   0.603  11.454  0.4795  0.3259  0.4873
   54MPD2    C5  842   1.392   0.663  11.459  0.0378  0.0245 -0.0263
   54MPD2     H  843   1.318   0.349  11.671  0.1893 -0.3189 -0.0409
   54MPD2    H1  844   1.212   0.642  11.373  0.2950 -1.5098 -0.2731
   54MPD2    H2  845   1.577   0.674  11.564  0.8041 -1.7343 -0.3221
   54MPD2    H3  846   1.411   0.742  11.387  0.3304 -1.4652 -1.6015
   54MPD2     N  847   1.113   0.428  11.497 -0.3428  0.6207  0.0349
   54MPD2    H5  848   1.053   0.483  11.436 -0.9989  0.9350  0.9694
   54MPD2    N1  849   1.526   0.486  11.758  0.0420 -0.0149  0.0029
   54MPD2    H7  850   1.490   0.410  11.816  1.4812 -0.9787 -0.3707
   55TMC2    C1  851   3.161   1.753   0.497  0.1773 -0.0037  0.1692
   55TMC2    C2  852   3.130   1.619   0.471 -0.2594  0.1819 -0.2973
   55TMC2    C3  853   3.138   1.531   0.575 -0.8015  0.3174  0.5952
   55TMC2    C4  854   3.181   1.795   0.629 -0.5416  0.6134 -0.3305
   55TMC2    C5  855   3.187   1.702   0.728  0.0588  0.4125  0.1522
   55TMC2    C6  856   3.171   1.568   0.705 -0.7077 -0.3515  0.1273
   55TMC2     C  857   3.098   1.862   0.417 -0.9564 -0.1608  0.2454
   55TMC2     O  858   3.107   1.974   0.473 -0.0391 -0.0933 -0.4657
   55TMC2     H  859   3.099   1.586   0.372  1.3367  1.2428 -1.1408
   55TMC2    H1  860   3.213   1.893   0.662 -1.0230  0.0891  1.7127
   55TMC2    H2  861   3.183   1.498   0.786  0.2673  0.5958  0.7948
   55TMC2    C7  862   3.136   1.750   0.855 -0.9384  1.0271 -0.1634
   55TMC2    C8  863   3.125   1.384   0.560  0.1557  0.2274 -0.0915
   55TMC2    O1  864   3.087   1.863   0.847  0.0551  0.4825 -0.1252
   55TMC2    O2  865   3.089   1.321   0.661 -0.7714 -0.1143  0.3241
   55TMC2    O5  866   3.113   1.350   0.433  0.3194  0.3668 -0.1175
   55TMC2    H5  867   3.179   1.405   0.385 -1.2354  1.1160 -1.3969
   56MPD2     C  868   2.846   1.855   0.151  0.6399  0.4949  0.4914
   56MPD2    C1  869   2.917   1.904   0.258 -0.1873  0.3476  0.4044
   56MPD2    C2  870   2.889   2.034   0.290  0.1807 -0.0979  1.0613
   56MPD2    C3  871   2.791   2.113   0.231  0.1646 -0.0319 -0.2239
   56MPD2    C4  872   2.713   2.049   0.134 -0.5688  0.2421 -0.1512
   56MPD2    C5  873   2.742   1.921   0.097 -0.1029 -0.3407  0.0907
   56MPD2     H  874   2.948   2.087   0.363  0.5683  0.7643  0.1151
   56MPD2    H1  875   2.633   2.096   0.077 -0.7679  1.2962  1.0052
   56MPD2    H2  876   2.867   1.756   0.112 -1.0291  0.6331 -0.7553
   56MPD2    H3  877   2.674   1.878   0.025  1.0320 -1.5526 -0.2671
   56MPD2     N  878   2.781   2.245   0.276  0.0058 -0.4183  0.5134
   56MPD2    H5  879   2.848   2.278   0.344  0.0709  1.6143 -0.5400
   56MPD2    N1  880   3.009   1.823   0.323 -0.2737  0.0778  0.7788
   56MPD2    H7  881   3.012   1.726   0.295 -0.0419  0.3900 -0.2782
   57TMC2    C1  882   1.558   2.914  14.064 -0.0464  0.4105 -0.3505
   57TMC2    C2  883   1.622   2.892  14.183 -0.0938 -0.2729  0.3255
   57TMC2    C3  884   1.750   2.835  14.180 -0.3323  0.2374 -0.4218
   57TMC2    C4  885   1.597   2.858  13.941  0.6748  0.0029  0.0099
   57TMC2    C5  886   1.727   2.796  13.946  0.3683  0.8804 -0.5006
   57TMC2    C6  887   1.796   2.789  14.062  0.1882 -0.5981 -0.4134
   57TMC2     C  888   1.444   2.999  14.066  0.1652 -0.2347 -0.1715
   57TMC2     O  889   1.355   2.957  13.992 -0.0766 -0.3203 -0.0100
   57TMC2     H  890   1.600   2.947  14.274 -0.2427 -1.3304  0.9253
   57TMC2    H1  891   1.537   2.866  13.851  0.0397 -2.1093  0.2476
   57TMC2    H2  892   1.891   2.738  14.053  0.9383  0.4018  1.6327
   57TMC2    C7  893   1.808   2.777  13.828  0.9084 -0.9100 -0.3738
   57TMC2    C8  894   1.833   2.841  14.302  0.0125 -0.3908 -0.7489
   57TMC2    O1  895   1.898   2.692  13.835 -0.1008 -0.3068  0.4494
   57TMC2    O2  896   1.810   2.908  14.401  0.2109  0.2303  0.1179
   57TMC2    O5  897   1.925   2.745  14.292 -0.5923 -0.5082  0.0560
   57TMC2    H5  898   1.909   2.670  14.231 -1.7795 -1.3796  1.4567
   58MPD2     C  899   1.245   3.468  14.029  0.3641 -0.5919 -0.0596
   58MPD2    C1  900   1.188   3.348  13.993 -0.1791  0.2680 -0.2093
   58MPD2    C2  901   1.259   3.236  14.038 -0.1153  0.2842  0.3456
   58MPD2    C3  902   1.381   3.240  14.099  0.0331 -0.3512  0.0276
   58MPD2    C4  903   1.435   3.359  14.137 -0.0328 -0.4178  0.2286
   58MPD2    C5  904   1.359   3.476  14.105 -0.1586  0.0647 -0.2051
   58MPD2     H  905   1.226   3.137  14.012  0.9148 -0.2180  0.9612
   58MPD2    H1  906   1.531   3.365  14.188  1.0882 -2.1207 -1.6808
   58MPD2    H2  907   1.198   3.558  13.991  1.0780  0.4521  1.5199
   58MPD2    H3  908   1.392   3.576  14.131  1.3548 -0.6495  0.6107
   58MPD2     N  909   1.454   3.121  14.122 -0.4183 -0.2233  0.2889
   58MPD2    H5  910   1.541   3.137  14.171  1.0785  0.8646 -2.7319
   58MPD2    N1  911   1.073   3.329  13.909  0.2952 -0.2891  0.3900
   58MPD2    H7  912   1.051   3.234  13.882  1.1780  0.4752 -2.9759
   59TMC2    C1  913   3.658   3.279  12.512  0.0142 -0.3672 -0.2058
   59TMC2    C2  914   3.612   3.222  12.635  0.1515 -0.1949 -0.1688
   59TMC2    C3  915   3.486   3.168  12.638  0.6880 -0.6311  0.4343
   59TMC2    C4  916   3.573   3.282  12.395  0.2164  0.1574 -0.2382
   59TMC2    C5  917   3.457   3.226  12.410  0.3425 -0.3916  0.0356
   59TMC2    C6  918   3.413   3.167  12.525  0.1901  0.1902  0.0770
   59TMC2     C  919   3.796   3.313  12.492  0.1284  0.6351  0.2128
   59TMC2     O  920   3.827   3.322  12.374  0.1033  0.3129  0.0217
   59TMC2     H  921   3.682   3.188  12.710  0.6220 -0.3019 -0.6588
   59TMC2    H1  922   3.600   3.317  12.296 -2.6121 -1.2987 -1.5144
   59TMC2    H2  923   3.314   3.124  12.524 -0.4751  1.8293 -3.6869
   59TMC2    C7  924   3.370   3.198  12.289  0.0458 -0.0290 -0.5081
   59TMC2    C8  925   3.441   3.072  12.735 -0.1305 -0.5133  0.8198
   59TMC2    O1  926   3.300   3.101  12.292  0.1680 -0.2066  0.1556
   59TMC2    O2  927   3.336   3.083  12.798  0.4194  0.4161 -0.7240
   59TMC2    O5  928   3.471   2.970  12.656  0.0843 -0.2867  0.2767
   59TMC2    H5  929   3.563   2.978  12.623 -0.2234 -0.4020 -0.6073
   60MPD2     C  930   4.088   3.378  12.508 -0.7117 -0.5254 -0.4010
   60MPD2    C1  931   4.016   3.340  12.619  0.1424  0.7725  0.5963
   60MPD2    C2  932   4.075   3.343  12.747 -0.0761 -0.7749 -0.1886
   60MPD2    C3  933   4.207   3.363  12.757 -0.7161  0.6814 -0.7538
   60MPD2    C4  934   4.281   3.413  12.647 -0.0866 -0.2638 -0.4384
   60MPD2    C5  935   4.211   3.424  12.533 -0.4590  0.5225 -0.2239
   60MPD2     H  936   4.008   3.325  12.831  0.3328  0.7458  0.4695
   60MPD2    H1  937   4.379   3.458  12.662 -0.3397  0.6355 -1.5256
   60MPD2    H2  938   4.049   3.381  12.407  3.1733  1.6619 -1.8193
   60MPD2    H3  939   4.267   3.474  12.455  0.2031  0.8845  0.4892
   60MPD2     N  940   4.277   3.342  12.879  0.6860  0.4697 -0.0948
   60MPD2    H5  941   4.378   3.344  12.870  0.7544  1.0133  0.7227
   60MPD2    N1  942   3.875   3.315  12.609  0.4527  0.6241  0.4578
   60MPD2    H7  943   3.834   3.298  12.700 -1.6408 -0.3241 -0.6609
   61TMC2    C1  944   3.352   3.890  14.784  1.0780  0.0098  0.7158
   61TMC2    C2  945   3.419   3.917  14.900  0.1732  0.0690  0.7390
   61TMC2    C3  946   3.356   4.005  14.985 -0.3368 -0.5661  0.9450
   61TMC2    C4  947   3.231   3.947  14.748  0.0614 -0.7861  1.4431
   61TMC2    C5  948   3.171   4.033  14.835  0.3182  0.1059  0.2528
   61TMC2    C6  949   3.225   4.045  14.960  0.1192  0.2523 -0.5562
   61TMC2     C  950   3.395   3.783  14.697 -0.4332 -0.2653  0.1160
   61TMC2     O  951   3.313   3.711  14.644 -0.4434  0.1788  0.1252
   61TMC2     H  952   3.510   3.863  14.924  0.0421  0.0942  1.2809
   61TMC2    H1  953   3.213   3.958  14.642  0.8464 -0.4076  1.3504
   61TMC2    H2  954   3.171   4.112  15.027  1.2240  0.0752  0.5082
   61TMC2    C7  955   3.136   4.157  14.768 -0.0588  0.2681  0.2286
   61TMC2    C8  956   3.405   4.000  15.115  0.0153 -0.4584  0.6139
   61TMC2    O1  957   3.185   4.185  14.658 -0.4150  0.5067  0.4414
   61TMC2    O2  958   3.486   3.921  15.161  0.3170 -0.4211 -0.3771
   61TMC2    O5  959   3.396   4.132  15.157  0.0591 -0.4388 -0.5839
   61TMC2    H5  960   3.324   4.175  15.106 -0.4751 -1.0088 -0.3179
   62MPD2     C  961   3.556   3.641  14.491 -0.4360  0.5008 -1.0104
   62MPD2    C1  962   3.613   3.727  14.583  0.1392  0.2829 -0.2655
   62MPD2    C2  963   3.738   3.781  14.562 -0.1510 -0.1441  0.3426
   62MPD2    C3  964   3.815   3.728  14.456 -0.0272  0.3074 -0.1793
   62MPD2    C4  965   3.767   3.627  14.381  0.3432  0.4205  0.3690
   62MPD2    C5  966   3.644   3.581  14.403  0.2944  0.1184 -0.1646
   62MPD2     H  967   3.766   3.871  14.615  0.5926  0.7584 -1.5707
   62MPD2    H1  968   3.821   3.598  14.291  2.1188  0.7456  1.3330
   62MPD2    H2  969   3.452   3.612  14.501 -0.1614 -0.1709 -0.0461
   62MPD2    H3  970   3.615   3.492  14.347 -1.1460  1.7562 -2.0298
   62MPD2     N  971   3.931   3.795  14.413  0.0320  0.5263  0.2865
   62MPD2    H5  972   3.959   3.771  14.319  1.0007  2.2110  0.1382
   62MPD2    N1  973   3.530   3.798  14.677  0.5803  0.1268  0.7358
   62MPD2    H7  974   3.573   3.874  14.728 -1.9124  1.9615  0.0732
   63TMC2    C1  975   3.016   0.292  10.063 -0.3472 -0.8042 -0.0685
   63TMC2    C2  976   3.139   0.326  10.018  0.5258  0.3375 -0.4622
   63TMC2    C3  977   3.170   0.300   9.888  0.3306 -0.0295  1.1022
   63TMC2    C4  978   2.924   0.219   9.984  0.9426  0.0764 -0.1916
   63TMC2    C5  979   2.962   0.201   9.853  0.0580 -0.6250  0.6241
   63TMC2    C6  980   3.086   0.229   9.804  0.1991  0.1869 -0.4403
   63TMC2     C  981   2.976   0.347  10.190 -0.0785  1.0123 -0.1044
   63TMC2     O  982   3.060   0.414  10.247  0.1073  0.7342 -0.5686
   63TMC2     H  983   3.200   0.395  10.075 -0.5424  0.5383  0.4483
   63TMC2    H1  984   2.822   0.198  10.016  1.7499 -1.8736  1.0791
   63TMC2    H2  985   3.110   0.218   9.699  1.0585 -2.1106 -0.0023
   63TMC2    C7  986   2.865   0.174   9.746  0.2166  0.0272 -0.5484
   63TMC2    C8  987   3.303   0.326   9.833 -0.2030 -0.3397 -0.4741
   63TMC2    O1  988   2.852   0.052   9.730  0.2568  0.3791 -0.1936
   63TMC2    O2  989   3.325   0.314   9.712 -0.3193  0.3585 -0.6843
   63TMC2    O5  990   3.372   0.258   9.926  0.0421  0.2817  0.5498
   63TMC2    H5  991   3.365   0.300  10.013  0.9691  0.9997  0.2803
   64MPD2     C  992   2.737   0.328  10.633  0.2727 -0.8039  0.4069
   64MPD2    C1  993   2.684   0.231  10.543 -0.6408  0.7261 -0.3654
   64MPD2    C2  994   2.717   0.231  10.409  0.0229  0.1594  0.4159
   64MPD2    C3  995   2.812   0.317  10.365  0.4499  0.6790 -0.2000
   64MPD2    C4  996   2.861   0.416  10.443  0.7279  0.5333  0.6100
   64MPD2    C5  997   2.825   0.418  10.576 -0.6488  0.5760  0.1984
   64MPD2     H  998   2.668   0.166  10.339  0.0188 -1.4290  1.9041
   64MPD2    H1  999   2.929   0.491  10.403 -0.4643  0.8899 -0.7435
   64MPD2    H2 1000   2.703   0.322  10.735  2.0026 -0.3223  1.0148
   64MPD2    H3 1001   2.859   0.495  10.645  0.6733 -0.1545  0.3477
   64MPD2     N 1002   2.855   0.303  10.229  0.0587  0.4076  0.4710
   64MPD2    H5 1003   2.808   0.229  10.176  0.7649  0.5324 -0.3216
   64MPD2    N1 1004   2.620   0.111  10.582  0.4127  0.1880  0.0994
   64MPD2    H7 1005   2.614   0.042  10.508  1.0640 -0.6903  0.8631
   65TMC2    C1 1006   3.791   4.652  15.315  0.0144 -0.3647 -0.2593
   65TMC2    C2 1007   3.728   4.585  15.209 -0.0644 -0.0546 -0.3959
   65TMC2    C3 1008   3.728   4.655  15.086 -0.3918 -0.1768  0.7267
   65TMC2    C4 1009   3.843   0.042  15.304  0.2994  0.0411  0.0782
   65TMC2    C5 1010   3.847   0.093  15.177  0.5789  0.7066 -0.4908
   65TMC2    C6 1011   3.796   0.031  15.066  0.3821  0.0565  0.2240
   65TMC2     C 1012   3.807   4.591  15.450 -0.3879  0.4576 -0.6100
   65TMC2     O 1013   3.821   4.670  15.541  0.0107  0.3032 -0.0399
   65TMC2     H 1014   3.703   4.479  15.218 -2.0087  0.4256 -0.0945
   65TMC2    H1 1015   3.901   0.090  15.383 -0.1422 -0.0070  0.4327
   65TMC2    H2 1016   3.810   0.063  14.963  1.4597 -0.1001  0.3293
   65TMC2    C7 1017   3.928   0.211  15.142  0.8929 -0.5423 -0.0509
   65TMC2    C8 1018   3.669   4.593  14.968  0.3564  1.0012 -0.6788
   65TMC2    O1 1019   3.978   0.228  15.033 -0.2064 -0.1593  0.4709
   65TMC2    O2 1020   3.751   4.561  14.886 -0.3279 -0.0203 -0.1204
   65TMC2    O5 1021   3.589   4.500  15.019  0.4001  0.6592  0.1894
   65TMC2    H5 1022   3.528   4.530  15.089  3.0163  1.9437  1.9300
   66MPD2     C 1023   3.867   4.438  15.686 -0.1370  0.7617 -0.4306
   66MPD2    C1 1024   3.813   4.382  15.574 -0.9395  0.3228 -0.5929
   66MPD2    C2 1025   3.789   4.245  15.579  0.5316  0.5364  0.1957
   66MPD2    C3 1026   3.804   4.164  15.693 -0.4058  0.4680 -0.3816
   66MPD2    C4 1027   3.842   4.220  15.810  0.1713 -0.4006 -0.1239
   66MPD2    C5 1028   3.873   4.354  15.797 -0.6960 -0.7963 -0.2314
   66MPD2     H 1029   3.755   4.196  15.488  2.4808  1.7719 -1.2034
   66MPD2    H1 1030   3.868   4.171  15.903 -2.3153 -2.8368 -0.7186
   66MPD2    H2 1031   3.924   4.530  15.687 -0.8476  1.2158 -1.6808
   66MPD2    H3 1032   3.915   4.405  15.883 -0.7605 -0.2850 -0.4964
   66MPD2     N 1033   3.802   4.025  15.691 -0.7375 -0.3381 -0.0976
   66MPD2    H5 1034   3.834   3.971  15.770 -0.6888 -0.4802 -0.2150
   66MPD2    N1 1035   3.804   4.454  15.456 -0.2855  0.3654  0.3413
   66MPD2    H7 1036   3.785   4.393  15.377 -0.3547 -1.6904  1.9462
   67TMC2    C1 1037   4.307   3.199  14.394  0.1823 -0.8112 -0.0809
   67TMC2    C2 1038   4.185   3.228  14.446 -0.3445  0.3438  0.0101
   67TMC2    C3 1039   4.174   3.315  14.547 -0.9876  0.4010  0.0105
   67TMC2    C4 1040   4.421   3.246  14.453 -0.1638  0.7257 -0.0804
   67TMC2    C5 1041   4.408   3.311  14.572 -0.0344 -0.7917  0.1871
   67TMC2    C6 1042   4.288   3.350  14.616  0.5719  0.6032  0.6732
   67TMC2     C 1043   4.324   3.166  14.258  0.9145 -0.0469 -0.7805
   67TMC2     O 1044   4.435   3.165  14.205 -0.2758  0.9374  0.3142
   67TMC2     H 1045   4.091   3.211  14.393  0.1443  0.3731 -0.8683
   67TMC2    H1 1046   4.520   3.240  14.409  0.3646 -0.4068  1.2799
   67TMC2    H2 1047   4.273   3.415  14.702  1.3417 -0.5241  1.6677
   67TMC2    C7 1048   4.526   3.333  14.647 -0.4914  0.0535 -0.3659
   67TMC2    C8 1049   4.048   3.329  14.608 -0.1253  0.3199  1.0794
   67TMC2    O1 1050   4.629   3.306  14.587  0.0509  0.3800  0.1028
   67TMC2    O2 1051   3.969   3.234  14.593 -0.0411 -0.4378 -0.2974
   67TMC2    O5 1052   4.012   3.454  14.568 -0.4528 -0.1357  0.3689
   67TMC2    H5 1053   4.082   3.518  14.591 -0.6735 -0.1340  1.0308
   68MPD2     C 1054   4.251   3.189  13.968  0.3923  0.6083 -0.2048
   68MPD2    C1 1055   4.177   3.123  14.066 -0.7294  0.2139  0.1126
   68MPD2    C2 1056   4.047   3.087  14.029  0.5606  0.5689 -0.3497
   68MPD2    C3 1057   4.003   3.098  13.895  0.0935  0.4555 -1.0151
   68MPD2    C4 1058   4.093   3.152  13.805 -0.2059  0.2777  0.5429
   68MPD2    C5 1059   4.207   3.209  13.846 -0.2972  0.0880  0.1546
   68MPD2     H 1060   3.991   3.044  14.111 -0.5769  2.5235 -0.1046
   68MPD2    H1 1061   4.071   3.169  13.700  0.1195 -0.7032  0.3174
   68MPD2    H2 1062   4.343   3.245  13.986  1.1593 -0.2586 -1.3878
   68MPD2    H3 1063   4.269   3.269  13.781  0.9189 -0.4099  0.8548
   68MPD2     N 1064   3.874   3.068  13.844 -0.2271 -0.2521  0.5100
   68MPD2    H5 1065   3.833   3.105  13.758 -2.8627  1.5413  2.5401
   68MPD2    N1 1066   4.204   3.126  14.202 -0.3431 -0.2910  0.1035
   68MPD2    H7 1067   4.132   3.100  14.268  1.1482 -0.4109  1.6669
   69TMC2    C1 1068   1.468   0.084  12.644 -0.4822 -0.0874  0.3599
   69TMC2    C2 1069   1.406   0.163  12.736  0.2495 -0.3058  0.0537
   69TMC2    C3 1070   1.393   0.291  12.701  0.8547 -0.1976  0.8767
   69TMC2    C4 1071   1.501   0.121  12.521  0.0864  0.2050  0.1111
   69TMC2    C5 1072   1.488   0.257  12.490 -0.2474  0.2538 -0.5764
   69TMC2    C6 1073   1.436   0.343  12.581  0.1965  0.8043 -0.0275
   69TMC2     C 1074   1.520   4.697  12.697  0.2688  0.1942  0.5549
   69TMC2     O 1075   1.487   4.656  12.805  0.5757 -0.2867  0.2160
   69TMC2     H 1076   1.387   0.121  12.834 -0.0095 -0.4088 -0.0401
   69TMC2    H1 1077   1.519   0.047  12.445 -0.1820 -0.3532  0.5914
   69TMC2    H2 1078   1.436   0.450  12.565  2.5164  0.2692 -3.5426
   69TMC2    C7 1079   1.610   0.310  12.424  0.0317 -0.1156 -0.5350
   69TMC2    C8 1080   1.310   0.370  12.789  0.8804 -0.1067  0.0047
   69TMC2    O1 1081   1.706   0.233  12.413 -0.6152  0.4574  0.1842
   69TMC2    O2 1082   1.336   0.483  12.824  0.2391 -0.3231 -0.5915
   69TMC2    O5 1083   1.203   0.293  12.829 -0.1341  0.6896  0.6011
   69TMC2    H5 1084   1.196   0.211  12.775  0.2658  0.6348  0.6291
   70MPD2     C 1085   1.837   4.550  12.594  0.0501 -0.0291 -0.1860
   70MPD2    C1 1086   1.708   4.547  12.648 -0.1360 -0.3352  0.0170
   70MPD2    C2 1087   1.676   4.435  12.728  0.1170 -0.8695  0.2922
   70MPD2    C3 1088   1.769   4.339  12.753  0.1953  0.3471 -0.3601
   70MPD2    C4 1089   1.886   4.341  12.682 -0.1453  1.0426 -0.6018
   70MPD2    C5 1090   1.918   4.437  12.595  0.2327 -0.0780  0.0231
   70MPD2     H 1091   1.577   4.430  12.771  0.2315  0.5889  0.7180
   70MPD2    H1 1092   1.957   4.261  12.701  1.2666  2.0734 -1.5763
   70MPD2    H2 1093   1.857   4.633  12.527  0.1035 -0.1660 -0.3390
   70MPD2    H3 1094   2.017   4.428  12.549  1.4787 -1.1135  2.9287
   70MPD2     N 1095   1.741   4.225  12.832 -0.1568 -0.4434  0.3211
   70MPD2    H5 1096   1.816   4.160  12.851  1.1789  0.9814 -0.1395
   70MPD2    N1 1097   1.622   4.652  12.617  0.5343  0.1754  0.5594
   70MPD2    H7 1098   1.654   4.722  12.552  1.7385 -1.7930 -0.9625
   71TMC2    C1 1099   3.803   0.393   1.806  0.2480  0.5564 -0.2565
   71TMC2    C2 1100   3.872   0.494   1.870 -0.1574 -0.3532 -0.1013
   71TMC2    C3 1101   3.798   0.585   1.944 -0.3434  0.4529  0.4222
   71TMC2    C4 1102   3.666   0.367   1.826  0.1466  0.6796 -0.3276
   71TMC2    C5 1103   3.599   0.467   1.898 -0.0152 -0.7633  0.3779
   71TMC2    C6 1104   3.662   0.578   1.948 -0.2164 -0.0201  0.0993
   71TMC2     C 1105   3.878   0.325   1.705 -0.3602 -0.4114 -0.5115
   71TMC2     O 1106   3.968   0.390   1.652 -0.3637 -0.1981 -0.4433
   71TMC2     H 1107   3.976   0.508   1.843 -0.8700  2.5710 -1.3139
   71TMC2    H1 1108   3.610   0.280   1.794  0.2849  0.4628  0.0225
   71TMC2    H2 1109   3.601   0.645   2.006  0.4433 -0.4724  1.3309
   71TMC2    C7 1110   3.450   0.467   1.903  0.1343  0.3392  0.7006
   71TMC2    C8 1111   3.837   0.721   1.917  1.2063 -0.0040 -0.3717
   71TMC2    O1 1112   3.395   0.548   1.977 -0.2748  0.3307  0.0748
   71TMC2    O2 1113   3.773   0.813   1.870 -0.3055  0.3196  0.4818
   71TMC2    O5 1114   3.964   0.738   1.951 -0.0688  0.1849 -0.1900
   71TMC2    H5 1115   4.004   0.681   2.019 -2.5093 -1.5143 -0.1628
   72MPD2     C 1116   3.855   4.701   1.341  0.0423  0.3147  0.3391
   72MPD2    C1 1117   3.921   0.079   1.342  0.5296  0.4976 -0.6626
   72MPD2    C2 1118   3.923   0.157   1.452  0.1936 -0.0531 -0.1335
   72MPD2    C3 1119   3.852   0.118   1.564  0.7666  0.4944 -0.4149
   72MPD2    C4 1120   3.793   4.732   1.576  0.3263 -0.0496 -0.1994
   72MPD2    C5 1121   3.797   4.655   1.459  0.6508  0.2910 -0.0948
   72MPD2     H 1122   3.958   0.259   1.450  0.4132 -0.0880  1.7875
   72MPD2    H1 1123   3.747   4.689   1.664 -0.0451  0.7378 -0.0063
   72MPD2    H2 1124   3.858   4.637   1.254  1.1596  3.1148 -1.6834
   72MPD2    H3 1125   3.754   4.556   1.462 -1.2985  1.0408 -3.6290
   72MPD2     N 1126   3.820   0.203   1.671  0.1469  0.5563  0.3479
   72MPD2    H5 1127   3.764   0.167   1.747  4.2042 -0.3738  2.8925
   72MPD2    N1 1128   3.988   0.131   1.230  0.0956 -0.2879  0.2764
   72MPD2    H7 1129   4.043   0.213   1.253  2.1391 -0.9468 -2.2723
   73TMC2    C1 1130   4.069   1.966  13.516  0.5317 -0.4230  0.7335
   73TMC2    C2 1131   4.139   2.003  13.629  0.2199  0.2250 -0.0136
   73TMC2    C3 1132   4.237   2.099  13.614  0.6656  0.8224 -0.2426
   73TMC2    C4 1133   4.109   2.028  13.397 -0.5028 -0.2013 -0.0649
   73TMC2    C5 1134   4.201   2.122  13.387  0.1261 -0.3961 -0.2657
   73TMC2    C6 1135   4.275   2.156  13.495 -0.2199 -0.1423  0.0247
   73TMC2     C 1136   3.929   1.983  13.533  0.8289 -0.1008  0.8303
   73TMC2     O 1137   3.890   2.089  13.483  0.6734 -0.3029 -0.3615
   73TMC2     H 1138   4.096   1.974  13.724 -1.1118 -0.1907 -0.7460
   73TMC2    H1 1139   4.048   2.008  13.309  2.2579 -2.7602 -1.3829
   73TMC2    H2 1140   4.349   2.234  13.480 -0.9586 -0.0208 -3.0361
   73TMC2    C7 1141   4.172   2.238  13.297  0.1180  0.5056 -0.4549
   73TMC2    C8 1142   4.314   2.123  13.734  0.5953  0.2190 -0.0838
   73TMC2    O1 1143   4.269   2.308  13.254  0.4198  0.0308  0.5148
   73TMC2    O2 1144   4.315   2.042  13.825  0.4164 -0.6172  0.2866
   73TMC2    O5 1145   4.313   2.258  13.751 -0.1051  0.3351  0.1853
   73TMC2    H5 1146   4.320   2.303  13.664 -1.3373 -2.3396 -1.2902
   74MPD2     C 1147   3.444   1.845  13.641  0.3550 -0.7663 -0.3025
   74MPD2    C1 1148   3.502   1.952  13.570  0.1991  0.1612 -0.1673
   74MPD2    C2 1149   3.637   1.960  13.548 -0.4396  0.8087  0.3677
   74MPD2    C3 1150   3.722   1.874  13.613 -0.0027  0.1200  0.5330
   74MPD2    C4 1151   3.671   1.768  13.686 -0.0444  0.4681  0.4896
   74MPD2    C5 1152   3.533   1.754  13.693 -0.5243 -0.5140 -0.3104
   74MPD2     H 1153   3.675   2.040  13.486 -0.5786  1.5912  1.2800
   74MPD2    H1 1154   3.736   1.687  13.718 -0.3985 -0.6400 -1.5679
   74MPD2    H2 1155   3.341   1.819  13.661 -0.2582  0.7769 -1.4352
   74MPD2    H3 1156   3.499   1.670  13.751  3.4292  0.9345  4.0692
   74MPD2     N 1157   3.865   1.880  13.596 -0.7848 -0.0763 -0.2712
   74MPD2    H5 1158   3.911   1.794  13.624 -1.0227  0.0392  0.4792
   74MPD2    N1 1159   3.412   2.053  13.515 -0.3251  0.2323  0.8635
   74MPD2    H7 1160   3.312   2.039  13.515 -0.2865 -0.0154 -1.3855
   75TMC2    C1 1161   3.649   2.978  13.850  0.6726 -0.1645 -1.2432
   75TMC2    C2 1162   3.544   2.928  13.922  0.1000  0.7600 -0.1339
   75TMC2    C3 1163   3.416   2.940  13.879 -0.0357  0.6331 -0.0124
   75TMC2    C4 1164   3.626   3.007  13.719  0.2648  0.6405 -0.4631
   75TMC2    C5 1165   3.493   3.006  13.680  0.1653 -0.3600  0.7600
   75TMC2    C6 1166   3.385   2.974  13.753 -0.3813  0.3156 -0.4508
   75TMC2     C 1167   3.787   2.988  13.915  0.1205  0.4921 -0.4035
   75TMC2     O 1168   3.804   2.935  14.024  0.0557 -0.5366 -0.3175
   75TMC2     H 1169   3.568   2.894  14.022  0.7803 -2.0762 -1.2338
   75TMC2    H1 1170   3.706   3.034  13.650 -1.2985 -1.0980 -2.9536
   75TMC2    H2 1171   3.288   2.995  13.709 -0.4053 -1.6716 -1.3526
   75TMC2    C7 1172   3.461   3.035  13.541 -0.6849 -0.3350  0.1519
   75TMC2    C8 1173   3.306   2.935  13.979 -0.4839 -0.4666  0.1141
   75TMC2    O1 1174   3.364   3.105  13.520 -0.2300 -0.2551  0.9547
   75TMC2    O2 1175   3.334   2.906  14.096  0.3508  0.1678 -0.0048
   75TMC2    O5 1176   3.193   2.895  13.913 -0.0671 -0.6489  0.4277
   75TMC2    H5 1177   3.182   2.910  13.817 -0.1067  2.1187  0.8662
   76TMC2    C1 1178   1.894   4.502  11.928  0.0168 -0.1347  0.3272
   76TMC2    C2 1179   1.780   4.569  11.895 -0.0061  0.1900  0.4190
   76TMC2    C3 1180   1.664   4.501  11.882  0.0149  0.2524  0.4978
   76TMC2    C4 1181   1.876   4.375  11.977  0.1434 -0.3955  0.2806
   76TMC2    C5 1182   1.750   4.312  11.976  0.2096 -0.0913 -0.2475
   76TMC2    C6 1183   1.644   4.373  11.922  0.4808 -0.1277 -0.9295
   76TMC2     C 1184   2.006   4.577  11.969 -0.2675 -0.0757 -0.6855
   76TMC2     O 1185   1.995   4.702  11.966  0.1829 -0.2816 -0.7073
   76TMC2     H 1186   1.785   4.677  11.888 -0.7724  0.2141  0.3402
   76TMC2    H1 1187   1.953   4.336  12.043  3.1150  2.5220 -1.4423
   76TMC2    H2 1188   1.544   4.333  11.914  1.2510 -2.4445  0.8953
   76TMC2    C7 1189   1.732   4.184  12.052 -0.4183 -0.3733  0.4661
   76TMC2    C8 1190   1.552   4.563  11.820 -0.2990 -0.0801 -0.4591
   76TMC2    O1 1191   1.616   4.141  12.062 -0.0776 -0.3936 -0.0291
   76TMC2    O2 1192   1.439   4.565  11.867  0.0433 -0.0696  0.3333
   76TMC2    O5 1193   1.595   4.620  11.703 -0.0679 -0.3827  0.3472
   76TMC2    H5 1194   1.688   4.598  11.684 -0.3906 -2.0024  0.7099
   77MPD2     C 1195   2.490   4.653  12.077  0.1238  1.0505  0.4296
   77MPD2    C1 1196   2.379   4.723  12.111  0.0043  0.8346  0.1300
   77MPD2    C2 1197   2.257   4.668  12.073 -0.2947 -0.2535  0.2101
   77MPD2    C3 1198   2.241   4.547  12.003  0.4157 -0.4305  0.0484
   77MPD2    C4 1199   2.356   4.476  11.977 -0.3379  0.2233  0.3750
   77MPD2    C5 1200   2.477   4.534  12.009  0.0853 -0.7491  0.4868
   77MPD2     H 1201   2.179   4.731  12.113 -1.5405  0.1838 -2.8907
   77MPD2    H1 1202   2.342   4.384  11.923 -1.6471  0.9909 -0.5838
   77MPD2    H2 1203   2.589   4.693  12.095  0.9229 -0.5985 -0.3051
   77MPD2    H3 1204   2.567   4.489  11.968  1.6176  1.1136  1.7767
   77MPD2     N 1205   2.120   4.501  11.970  0.2946 -0.0713 -0.3764
   77MPD2    H5 1206   2.113   4.409  11.927 -3.1758 -0.8702  1.8709
   77MPD2    N1 1207   2.385   0.112  12.183  0.4252  0.5039  0.6592
   77MPD2    H7 1208   2.298   0.157  12.212  0.0084 -0.2069  0.5009
   78TMC2    C1 1209   4.609   4.616   1.865 -0.0433 -0.0342 -0.1182
   78TMC2    C2 1210   4.540   4.694   1.949  0.0142 -0.1317 -0.0416
   78TMC2    C3 1211   4.525   0.096   1.930  0.1291 -0.1856 -0.0893
   78TMC2    C4 1212   4.672   4.671   1.758  0.0767  0.1225 -0.4584
   78TMC2    C5 1213   4.664   0.071   1.746 -0.0117 -0.1177 -0.5162
   78TMC2    C6 1214   4.574   0.152   1.818  0.0422  0.1332 -0.5878
   78TMC2     C 1215   4.629   4.474   1.895 -0.3027  0.5336 -0.1669
   78TMC2     O 1216   4.730   4.422   1.844 -0.3715 -0.2205 -0.3532
   78TMC2     H 1217   4.502   4.651   2.041 -0.5262 -0.9760 -0.6594
   78TMC2    H1 1218   4.726   4.608   1.689  1.2057  0.4229  0.1532
   78TMC2    H2 1219   4.563   0.258   1.800  0.1250  0.3604  0.6340
   78TMC2    C7 1220   4.724   0.120   1.623  0.4980 -0.7341 -1.0192
   78TMC2    C8 1221   4.401   0.150   1.985  0.2201  0.1892  1.2343
   78TMC2    O1 1222   0.080   0.056   1.580 -0.3357  0.6725 -0.5473
   78TMC2    O2 1223   4.325   0.225   1.931  0.1771 -0.2274  0.0516
   78TMC2    O5 1224   4.418   0.131   2.113 -0.3201 -0.7079  0.0662
   78TMC2    H5 1225   4.509   0.100   2.134 -0.8058 -1.4741  1.0694
   79MPD1     C 1226   4.492   4.027   2.121 -0.9002  0.5141  0.0137
   79MPD1    C1 1227   4.600   4.056   2.035  0.3947  0.1588  0.7030
   79MPD1    C2 1228   4.612   4.187   1.991  0.7166  0.2580  0.6175
   79MPD1    C3 1229   4.527   4.292   2.024  0.4737  0.7011 -0.4239
   79MPD1    C4 1230   4.426   4.263   2.117  0.2334  0.1998  0.7905
   79MPD1    C5 1231   4.415   4.132   2.159 -0.0250 -0.2206  0.1914
   79MPD1     H 1232   4.685   4.219   1.916 -0.9519  4.8227  0.9320
   79MPD1    H1 1233   4.340   4.324   2.143  0.2932  0.4411  0.4235
   79MPD1    H2 1234   4.459   3.928   2.152 -0.9995  0.8976  1.1234
   79MPD1    H3 1235   4.336   4.112   2.230 -0.5090 -0.1036 -0.3109
   79MPD1     N 1236   4.535   4.421   1.972 -0.3872 -0.1598 -0.1981
   79MPD1    H5 1237   4.458   4.480   2.002  0.2073  0.5969 -0.1274
   79MPD1    N1 1238   4.680   3.959   1.982  0.3501 -0.3216 -0.3899
   79MPD1    H6 1239   4.695   3.870   2.028  1.3255  0.5011  0.8750
   79MPD1    H7 1240   0.025   4.001   1.939  0.1096  1.1128  0.5387
   80TMC2    C1 1241   0.646   3.913  12.203 -0.3482 -0.9043  0.1411
   80TMC2    C2 1242   0.581   3.979  12.095 -0.1787  0.2588 -0.9912
   80TMC2    C3 1243   0.445   3.978  12.094 -0.0071 -0.9258  0.3063
   80TMC2    C4 1244   0.580   3.867  12.314  0.0207  0.0605  0.0722
   80TMC2    C5 1245   0.445   3.869  12.310  0.8546  0.1854  0.6159
   80TMC2    C6 1246   0.377   3.920  12.200 -0.4964 -0.0740 -0.0385
   80TMC2     C 1247   0.730   3.814  12.146 -0.9481 -0.1737  0.5449
   80TMC2     O 1248   0.733   3.713  12.215 -0.3128 -0.1470  0.0420
   80TMC2     H 1249   0.631   4.023  12.010  1.1861 -0.6769 -0.6794
   80TMC2    H1 1250   0.640   3.826  12.395 -1.0962  1.6619  1.6958
   80TMC2    H2 1251   0.268   3.918  12.199 -0.5290  1.3190  1.5929
   80TMC2    C7 1252   0.386   3.760  12.382 -0.4403 -0.2022  0.1434
   80TMC2    C8 1253   0.382   4.081  12.026  0.1683 -0.7020  0.7441
   80TMC2    O1 1254   0.267   3.776  12.420 -0.7490  0.0145  0.1409
   80TMC2    O2 1255   0.429   4.192  12.016 -0.3018 -0.2757  0.5476
   80TMC2    O5 1256   0.274   4.035  11.960  0.7697 -0.2846  0.0181
   80TMC2    H5 1257   0.243   3.942  11.972  0.3138  0.0190  1.2152
   81MPD2     C 1258   0.888   3.634  11.974  0.3522 -0.4875 -0.5271
   81MPD2    C1 1259   0.874   3.770  11.953  0.1436  0.1834 -0.2900
   81MPD2    C2 1260   0.945   3.834  11.855  0.0949  0.1622 -0.1079
   81MPD2    C3 1261   1.048   3.766  11.781 -0.1083 -0.0947 -0.7416
   81MPD2    C4 1262   1.057   3.625  11.792 -0.2367 -0.3956  0.7391
   81MPD2    C5 1263   0.978   3.566  11.889  0.2386 -0.4553  0.2614
   81MPD2     H 1264   0.933   3.941  11.844 -0.7567  0.1113  0.2753
   81MPD2    H1 1265   1.128   3.567  11.733  0.6081  0.4340  0.9313
   81MPD2    H2 1266   0.840   3.575  12.051 -0.2509 -0.8031 -1.1524
   81MPD2    H3 1267   0.980   3.458  11.902  2.1784 -0.1889  2.0321
   81MPD2     N 1268   1.148   3.838  11.705  0.0032 -0.6477 -0.1487
   81MPD2    H5 1269   1.197   3.794  11.628  0.8819  1.4971 -0.8051
   81MPD2    N1 1270   0.787   3.848  12.025  0.1458 -0.4405  0.0489
   81MPD2    H7 1271   0.785   3.947  12.005  0.1468 -0.3182  0.6731
   82TMC2    C1 1272   4.290   3.098  11.278 -0.8818 -0.2703  0.3397
   82TMC2    C2 1273   4.382   3.100  11.382 -0.0551 -0.3374 -0.4294
   82TMC2    C3 1274   4.385   3.000  11.475 -0.2753  0.0166 -0.5180
   82TMC2    C4 1275   4.201   2.998  11.272 -0.1906 -0.8926  0.5219
   82TMC2    C5 1276   4.203   2.903  11.370 -0.2311  0.1263  0.2364
   82TMC2    C6 1277   4.283   2.910  11.479 -0.0125 -0.4614  0.1794
   82TMC2     C 1278   4.261   3.222  11.207  0.5249  0.7641 -0.1154
   82TMC2     O 1279   4.145   3.239  11.181 -0.3633  0.3069  0.0647
   82TMC2     H 1280   4.437   3.189  11.411 -2.1637  1.0565 -0.7843
   82TMC2    H1 1281   4.135   2.991  11.186  1.8905 -2.4701 -0.9301
   82TMC2    H2 1282   4.282   2.830  11.552  0.5239  1.3912  2.2083
   82TMC2    C7 1283   4.097   2.802  11.384 -0.9549  0.5616  0.4869
   82TMC2    C8 1284   4.429   3.046  11.596  0.8852  0.2060  0.0130
   82TMC2    O1 1285   4.080   2.781  11.505 -0.3790 -0.9330 -0.0642
   82TMC2    O2 1286   4.539   3.101  11.613 -0.4241 -0.0553  0.2914
   82TMC2    O5 1287   4.333   3.023  11.690  0.6107 -0.0771 -0.3128
   82TMC2    H5 1288   4.242   3.039  11.656  0.6322  0.5525 -0.0838
   83MPD2     C 1289   4.397   3.688  11.055 -0.6846  0.3774 -0.4768
   83MPD2    C1 1290   4.278   3.637  11.095 -0.1195  0.4019 -0.4150
   83MPD2    C2 1291   4.269   3.508  11.140 -0.3562  1.4451 -0.1930
   83MPD2    C3 1292   4.375   3.425  11.132  0.0963  0.4764  0.1229
   83MPD2    C4 1293   4.498   3.478  11.092 -0.3493  0.8375 -0.2293
   83MPD2    C5 1294   4.508   3.607  11.054 -0.1287  0.1633 -0.4531
   83MPD2     H 1295   4.174   3.474  11.181 -0.7235  2.1134 -0.4886
   83MPD2    H1 1296   4.580   3.407  11.082  0.7063  1.5557  3.3977
   83MPD2    H2 1297   4.407   3.791  11.024 -0.3816  1.0558  1.8582
   83MPD2    H3 1298   4.595   3.654  11.011 -1.1025  0.8952 -1.6256
   83MPD2     N 1299   4.377   3.288  11.167  0.3926  0.0022 -0.0737
   83MPD2    H5 1300   4.456   3.224  11.172  0.5650  0.1006 -1.5416
   83MPD2    N1 1301   4.179   3.736  11.101  0.7949 -0.1682  0.3255
   83MPD2    H7 1302   4.201   3.829  11.067 -2.3083  0.4874  0.1135
   84TMC2    C1 1303   0.096   2.773  11.310  0.4700  0.2407  0.4993
   84TMC2    C2 1304   0.034   2.668  11.368  0.8849 -0.0885  0.0893
   84TMC2    C3 1305   0.007   2.563  11.291 -0.1449  0.1607 -0.1963
   84TMC2    C4 1306   0.137   2.771  11.177  0.0161  0.3441  0.1072
   84TMC2    C5 1307   0.087   2.670  11.104 -0.2527 -0.5533 -0.1847
   84TMC2    C6 1308   0.030   2.560  11.154  0.3104 -0.4853 -1.3470
   84TMC2     C 1309   0.089   2.901  11.375  0.5668 -0.0622  0.5517
   84TMC2     O 1310   4.732   2.902  11.457  0.1040  0.4668  0.3586
   84TMC2     H 1311   0.009   2.674  11.473  2.9868 -0.5327  0.6080
   84TMC2    H1 1312   0.163   2.867  11.134  0.0806 -1.0959 -3.0537
   84TMC2    H2 1313   4.715   2.482  11.101 -1.2782  0.8642 -1.7723
   84TMC2    C7 1314   0.104   2.679  10.955  0.1879 -0.1508 -0.3140
   84TMC2    C8 1315   4.683   2.444  11.346  0.1345 -0.5710  0.6115
   84TMC2    O1 1316   0.046   2.596  10.885 -0.0285 -0.3921 -0.1991
   84TMC2    O2 1317   4.638   2.360  11.278 -0.0708  0.2080  0.2249
   84TMC2    O5 1318   0.017   2.419  11.455 -0.2088  0.3466  0.1884
   84TMC2    H5 1319   0.083   2.490  11.473  1.3023 -0.9299 -0.2455
   85TMC2    C1 1320   1.817   0.439  15.757 -0.0155  0.5671  0.5634
   85TMC2    C2 1321   1.701   0.411  15.690  0.7863 -0.5115  0.4486
   85TMC2    C3 1322   1.647   0.498  15.606  0.4974  0.2754 -0.0823
   85TMC2    C4 1323   1.876   0.563  15.755 -0.0348 -0.6613 -0.2436
   85TMC2    C5 1324   1.819   0.651  15.669 -0.3244  0.2173 -0.1711
   85TMC2    C6 1325   1.711   0.619  15.584 -0.1804 -0.4942  0.0521
   85TMC2     C 1326   1.904   0.330  15.797  0.1402  0.2275 -0.2315
   85TMC2     O 1327   2.025   0.351  15.797  0.4120 -0.4468  0.0635
   85TMC2     H 1328   1.656   0.312  15.686 -1.2936  0.3454  2.2711
   85TMC2    H1 1329   1.966   0.592  15.809 -0.6715  1.3382 -0.2482
   85TMC2    H2 1330   1.671   0.688  15.511 -0.2200  0.1942  0.7236
   85TMC2    C7 1331   1.862   0.791  15.689  0.1630 -0.1966 -0.2176
   85TMC2    C8 1332   1.526   0.474  15.543  0.1152  1.1266  0.3216
   85TMC2    O1 1333   1.924   0.830  15.788 -0.2583  0.4124  0.3760
   85TMC2    O2 1334   1.453   0.566  15.511 -0.8749 -0.1782 -0.5923
   85TMC2    O5 1335   1.539   0.366  15.467  0.4363 -0.1161  0.0201
   85TMC2    H5 1336   1.620   0.315  15.487  0.6927  1.1065  2.0741
   86MPD2     C 1337   2.022   4.574  15.853 -0.2333 -0.7348  0.5844
   86MPD2    C1 1338   1.882   4.583  15.839  0.1032  0.0461 -0.1255
   86MPD2    C2 1339   1.832   4.710  15.823 -0.2967  0.7158  0.1910
   86MPD2    C3 1340   1.904   0.087  15.838  0.6680 -0.0273  1.3389
   86MPD2    C4 1341   2.039   0.072  15.865  0.3717 -0.3553 -0.6702
   86MPD2    C5 1342   2.097   4.685  15.859 -0.5542 -0.5285  0.1473
   86MPD2     H 1343   1.728   4.713  15.790 -0.1060 -0.7938 -0.5134
   86MPD2    H1 1344   2.108   0.155  15.879  0.5695 -0.8420  1.2639
   86MPD2    H2 1345   2.078   4.483  15.867 -0.3679 -0.7491  1.0537
   86MPD2    H3 1346   2.204   4.682  15.879 -1.0857  1.0672  3.1642
   86MPD2     N 1347   1.844   0.208  15.799 -0.3067 -0.3589 -0.3409
   86MPD2    H5 1348   1.746   0.199  15.774 -0.1935 -1.3305 -0.4214
   86MPD2    N1 1349   1.802   4.469  15.819  0.3534  0.0031  0.0160
   86MPD2    H7 1350   1.700   4.475  15.823  0.3089 -0.7203  0.0473
   87TMC2    C1 1351   4.264   3.912   1.494  0.0249  0.1754 -0.2812
   87TMC2    C2 1352   4.251   3.846   1.616 -0.1808  0.2411 -0.1688
   87TMC2    C3 1353   4.282   3.899   1.738 -0.3759 -0.1167  0.1595
   87TMC2    C4 1354   4.331   4.032   1.499  0.6995 -0.1259  0.4312
   87TMC2    C5 1355   4.353   4.085   1.625 -0.0472  0.1206 -0.0577
   87TMC2    C6 1356   4.335   4.023   1.745  0.8290 -0.6966 -0.1264
   87TMC2     C 1357   4.266   3.849   1.362  0.1382 -0.0962  0.3201
   87TMC2     O 1358   4.321   3.900   1.265  0.0925 -0.6794 -0.1233
   87TMC2     H 1359   4.236   3.738   1.620 -2.6497  0.6122  0.7697
   87TMC2    H1 1360   4.365   4.084   1.410 -1.7032  1.1995  0.2963
   87TMC2    H2 1361   4.375   4.055   1.840 -0.6131  0.2974  0.1409
   87TMC2    C7 1362   4.361   4.234   1.631  0.2589  0.3425 -0.2045
   87TMC2    C8 1363   4.299   3.815   1.854 -0.6739  0.1045  0.3440
   87TMC2    O1 1364   4.395   4.296   1.531 -0.5776 -0.2535 -0.1296
   87TMC2    O2 1365   4.362   3.711   1.843 -0.0088  0.0044 -0.4100
   87TMC2    O5 1366   4.237   3.863   1.962  0.6299 -0.4209 -0.9140
   87TMC2    H5 1367   4.183   3.943   1.945 -1.0341 -1.0613  1.2322
   88MPD2     C 1368   4.205   4.419   1.896  0.0833 -0.1768 -0.3618
   88MPD2    C1 1369   4.268   4.417   1.777 -0.3138 -0.5291  0.0637
   88MPD2    C2 1370   4.298   4.526   1.704 -0.5032 -0.2050  0.2442
   88MPD2    C3 1371   4.238   4.649   1.740 -0.0744  0.9369  0.3635
   88MPD2    C4 1372   4.171   4.650   1.865  0.2774  0.4530 -0.1414
   88MPD2    C5 1373   4.160   4.536   1.944 -0.1154  0.0351  0.5639
   88MPD2     H 1374   4.351   4.516   1.610 -0.5824  1.3996  0.0210
   88MPD2    H1 1375   4.126   0.005   1.899 -0.2360  0.5253 -1.0429
   88MPD2    H2 1376   4.199   4.326   1.952  0.6572 -0.6560 -1.0822
   88MPD2    H3 1377   4.102   4.544   2.036  0.8707  2.0915  1.0136
   88MPD2     N 1378   4.264   0.040   1.682  0.2570  0.0888 -0.6067
   88MPD2    H5 1379   4.269   0.110   1.755  0.9302 -1.1727  0.5758
   88MPD2    N1 1380   4.308   4.284   1.749  0.1705  0.1557 -0.1497
   88MPD2    H7 1381   4.282   4.207   1.810  1.4289  0.5557  0.8916
   89TMC2    C1 1382   0.079   2.507   1.485 -0.6570  0.0896  0.3488
   89TMC2    C2 1383   4.685   2.534   1.519  0.1928 -0.0736  0.0889
   89TMC2    C3 1384   4.653   2.668   1.528 -0.5849  0.5252  0.2986
   89TMC2    C4 1385   0.170   2.601   1.444  1.1783  0.2697  0.4742
   89TMC2    C5 1386   0.135   2.729   1.468 -0.5473  0.8568 -0.2311
   89TMC2    C6 1387   0.013   2.766   1.516 -0.3188 -0.0747  0.2541
   89TMC2     C 1388   0.121   2.368   1.483 -0.2413 -0.6533 -0.4362
   89TMC2     O 1389   0.227   2.351   1.419 -0.0239  0.9215  0.1051
   89TMC2     H 1390   4.632   2.447   1.556  0.7394 -0.7337 -0.6901
   89TMC2    H1 1391   0.276   2.586   1.428  1.2460  0.3848  0.8151
   89TMC2    H2 1392   4.734   2.869   1.547 -2.5221 -0.4189  0.2613
   89TMC2    C7 1393   0.229   2.834   1.441  0.6159 -0.7041  0.0667
   89TMC2    C8 1394   4.538   2.691   1.619  0.5993 -0.5152  0.1592
   89TMC2    O1 1395   0.223   2.932   1.518  0.1896 -0.3974  0.2489
   89TMC2    O2 1396   4.547   2.779   1.705  0.0994  0.0874 -0.0024
   89TMC2    O5 1397   4.446   2.593   1.626  0.2207  0.2548  0.4599
   89TMC2    H5 1398   4.426   2.544   1.544  2.0872 -0.7872  0.6366
   90MPD2     C 1399   0.049   1.866   1.455 -0.4272  0.1641  0.2189
   90MPD2    C1 1400   4.686   1.920   1.526  0.3245 -0.7612  0.1015
   90MPD2    C2 1401   4.683   2.055   1.556 -0.0915 -0.2669 -0.7217
   90MPD2    C3 1402   0.047   2.134   1.507 -0.3457  0.1695  0.3676
   90MPD2    C4 1403   0.147   2.078   1.436 -0.4015 -0.1663 -0.6073
   90MPD2    C5 1404   0.145   1.952   1.402 -0.6064  0.2584 -0.1259
   90MPD2     H 1405   4.598   2.096   1.609  0.4518  1.3223 -1.0658
   90MPD2    H1 1406   0.226   2.138   1.392  0.1659  0.0161  0.6415
   90MPD2    H2 1407   0.049   1.760   1.429 -0.8518  0.2663 -0.1991
   90MPD2    H3 1408   0.230   1.913   1.347 -0.7756  1.1149 -0.9915
   90MPD2     N 1409   0.035   2.272   1.532 -0.3203 -0.4654  0.2468
   90MPD2    H5 1410   4.687   2.302   1.578 -0.5389  0.1231 -0.5457
   90MPD2    N1 1411   4.586   1.835   1.586  0.0483  0.3917 -0.6051
   90MPD2    H7 1412   4.521   1.875   1.652 -0.8128 -0.9160 -0.6541
   91TMC2    C1 1413   1.869   1.064  16.063 -0.1384  1.5480 -0.7900
   91TMC2    C2 1414   1.868   1.160  15.968 -0.0845  0.3500 -0.1161
   91TMC2    C3 1415   1.745   1.196  15.918 -0.7103 -0.2245  0.6550
   91TMC2    C4 1416   1.755   1.002  16.099  0.1156  0.3114 -0.0142
   91TMC2    C5 1417   1.642   1.033  16.035 -0.5170  0.0331 -0.6299
   91TMC2    C6 1418   1.632   1.131  15.942  0.4585  0.4068 -0.0074
   91TMC2     C 1419   1.964   1.073  16.173 -0.5554  0.0393 -0.3713
   91TMC2     O 1420   1.929   1.036  16.283  0.2795 -0.3468 -0.0912
   91TMC2     H 1421   1.959   1.201  15.925  0.4018 -0.9189 -0.2874
   91TMC2    H1 1422   1.753   0.922  16.172 -0.0699 -0.0911 -0.4658
   91TMC2    H2 1423   1.534   1.168  15.910  0.1960 -1.0120 -0.8573
   91TMC2    C7 1424   1.520   0.973  16.087  0.1905 -0.0422 -0.2979
   91TMC2    C8 1425   1.755   1.306  15.829  0.9059 -0.3196  0.2693
   91TMC2    O1 1426   1.528   0.919  16.196 -0.5652 -0.4677 -0.2622
   91TMC2    O2 1427   1.846   1.388  15.827  0.6550 -0.0593 -0.3312
   91TMC2    O5 1428   1.664   1.288  15.727  0.0227  0.4620  0.0837
   91TMC2    H5 1429   1.632   1.196  15.739 -1.3575  1.0106  0.6350
   92MPD2     C 1430   2.185   1.159  16.347  0.1948 -0.6312  0.5478
   92MPD2    C1 1431   2.176   1.192  16.211  0.1370 -0.3754 -0.4838
   92MPD2    C2 1432   2.275   1.272  16.156 -0.5995 -0.7576 -0.2161
   92MPD2    C3 1433   2.367   1.338  16.234 -0.4437  0.2485  0.2031
   92MPD2    C4 1434   2.368   1.316  16.373  0.6938  0.5991 -0.1633
   92MPD2    C5 1435   2.283   1.217  16.422  0.4276 -0.3431 -0.1842
   92MPD2     H 1436   2.272   1.300  16.051  2.4831  2.2263  0.4887
   92MPD2    H1 1437   2.445   1.356  16.438 -1.0153 -1.5487  3.1950
   92MPD2    H2 1438   2.123   1.078  16.382  1.2687 -0.5128  2.7264
   92MPD2    H3 1439   2.298   1.182  16.524  2.0033 -0.9783 -0.6286
   92MPD2     N 1440   2.460   1.427  16.175  0.0055 -0.0979  0.2161
   92MPD2    H5 1441   2.463   1.425  16.074  2.3250 -0.9640  0.3036
   92MPD2    N1 1442   2.070   1.146  16.127 -0.3102  0.1382 -0.6434
   92MPD2    H7 1443   2.080   1.163  16.027 -2.5118  2.8931 -0.3803
   93TMC2    C1 1444   3.740   0.879  13.133 -0.2841 -0.4471  0.0817
   93TMC2    C2 1445   3.823   0.776  13.103 -0.6751  0.1057  0.5183
   93TMC2    C3 1446   3.937   0.752  13.188  0.7275 -0.0950 -0.5675
   93TMC2    C4 1447   3.768   0.960  13.235 -0.1099 -0.0090 -0.4464
   93TMC2    C5 1448   3.880   0.936  13.308 -0.0612 -0.2404 -0.0023
   93TMC2    C6 1449   3.968   0.836  13.288 -0.5169  0.2994 -0.4866
   93TMC2     C 1450   3.633   0.906  13.035 -0.0316  0.1581  0.9830
   93TMC2     O 1451   3.648   0.864  12.922 -0.5181 -0.3618 -0.0640
   93TMC2     H 1452   3.794   0.704  13.027  0.8725  0.3139 -0.2636
   93TMC2    H1 1453   3.710   1.051  13.248  1.4903  0.7841  1.0905
   93TMC2    H2 1454   4.042   0.807  13.363 -1.2400 -1.0663 -0.3025
   93TMC2    C7 1455   3.911   1.017  13.422 -0.0763  1.0778 -0.2303
   93TMC2    C8 1456   4.030   0.635  13.169 -0.2147 -0.0600 -0.3412
   93TMC2    O1 1457   4.025   1.011  13.465  0.5143 -0.2014 -0.5115
   93TMC2    O2 1458   4.147   0.641  13.192  0.7610  0.1260  0.2744
   93TMC2    O5 1459   3.954   0.527  13.134  0.2249  0.6021  0.6333
   93TMC2    H5 1460   3.857   0.541  13.140 -0.2614 -1.7996 -1.7872
   94MPD2     C 1461   3.392   0.991  12.895  0.0298  0.2439 -0.0336
   94MPD2    C1 1462   3.393   0.970  13.028 -0.3901  0.9362 -0.2125
   94MPD2    C2 1463   3.277   0.981  13.102  0.5271 -0.0689 -0.0884
   94MPD2    C3 1464   3.159   1.009  13.039 -0.2315  0.6428 -0.6773
   94MPD2    C4 1465   3.157   1.026  12.903  0.2432  0.6245  0.3944
   94MPD2    C5 1466   3.275   1.004  12.831  0.1650  0.0893  0.4149
   94MPD2     H 1467   3.278   0.956  13.208 -0.8700  0.3178  0.0237
   94MPD2    H1 1468   3.069   1.048  12.845  1.3543  3.1617 -0.3110
   94MPD2    H2 1469   3.479   0.990  12.831 -0.0303  0.4130 -0.1192
   94MPD2    H3 1470   3.278   1.031  12.726 -0.4454  1.7151  0.8142
   94MPD2     N 1471   3.034   1.017  13.112  0.0310  0.6013  0.8770
   94MPD2    H5 1472   2.951   1.051  13.064  1.2688 -0.5175 -2.0298
   94MPD2    N1 1473   3.517   0.950  13.096 -0.4457 -0.0014  0.4624
   94MPD2    H7 1474   3.516   0.963  13.197 -0.5496  1.1298  0.3211
   95TMC2    C1 1475   3.218   3.530  16.391  0.1906  0.4754  0.6408
   95TMC2    C2 1476   3.115   3.437  16.375  0.0273  0.5033  0.5837
   95TMC2    C3 1477   3.041   3.419  16.486 -0.2794  0.3844 -0.1574
   95TMC2    C4 1478   3.245   3.595  16.508  0.6019 -0.3723 -0.1304
   95TMC2    C5 1479   3.179   3.556  16.624 -0.4721  0.3200 -0.0485
   95TMC2    C6 1480   3.076   3.469  16.611 -0.0118  0.0276 -0.4636
   95TMC2     C 1481   3.317   3.531  16.285 -0.2601 -0.0594  0.1156
   95TMC2     O 1482   3.401   3.622  16.288 -0.2435  0.3841  0.2609
   95TMC2     H 1483   3.094   3.395  16.277  1.2774  0.4341  0.3398
   95TMC2    H1 1484   3.338   3.650  16.511  0.8801 -0.8657  0.4294
   95TMC2    H2 1485   3.009   3.435  16.689  0.1501  0.8611  0.0360
   95TMC2    C7 1486   3.177   3.636  16.738  0.2469 -0.2280 -0.0885
   95TMC2    C8 1487   2.937   3.322  16.478  0.0028  0.7100 -0.5083
   95TMC2    O1 1488   3.132   3.599  16.843 -0.3053  0.1319  0.2888
   95TMC2    O2 1489   2.847   3.305  16.559  0.1197  0.3281 -0.1753
   95TMC2    O5 1490   2.968   3.232  16.381 -0.5235  0.3859 -0.0745
   95TMC2    H5 1491   3.065   3.230  16.369 -0.8187 -0.5132 -2.2123
   96MPD2     C 1492   3.482   3.285  15.875  0.5144 -0.3837  0.4101
   96MPD2    C1 1493   3.533   3.400  15.929  0.3554  0.4005  0.5513
   96MPD2    C2 1494   3.484   3.444  16.050 -0.2086 -0.6749 -0.0398
   96MPD2    C3 1495   3.398   3.363  16.118 -0.1106  0.2769  0.6058
   96MPD2    C4 1496   3.370   3.242  16.071  0.0686  0.3026 -0.6071
   96MPD2    C5 1497   3.398   3.204  15.943 -0.6410  0.1837  0.2742
   96MPD2     H 1498   3.510   3.538  16.097  0.2486 -0.1238 -1.3693
   96MPD2    H1 1499   3.321   3.168  16.133  0.2797  1.0526  0.4468
   96MPD2    H2 1500   3.520   3.251  15.780  0.4372  1.0171 -0.1238
   96MPD2    H3 1501   3.352   3.109  15.917  2.2590 -1.1198 -0.0943
   96MPD2     N 1502   3.324   3.406  16.235  0.1932  0.7787  0.4270
   96MPD2    H5 1503   3.272   3.331  16.278 -0.2704 -0.2301 -1.8948
   96MPD2    N1 1504   3.632   3.465  15.848 -0.3035 -0.7652  0.0141
   96MPD2    H7 1505   3.664   3.421  15.763 -0.2802 -2.5496  0.9405
   97TMC2    C1 1506   1.604   1.012  17.509 -0.3690  0.7783  0.2565
   97TMC2    C2 1507   1.577   0.992  17.377 -0.4000  0.8789  0.2583
   97TMC2    C3 1508   1.573   1.093  17.282  0.1329  1.3956 -0.0688
   97TMC2    C4 1509   1.627   1.140  17.554 -0.7528  0.4937 -0.7070
   97TMC2    C5 1510   1.623   1.241  17.458  0.3183 -0.4074 -0.0026
   97TMC2    C6 1511   1.601   1.218  17.324 -0.0913  0.0730  0.3898
   97TMC2     C 1512   1.558   0.906  17.605  0.7442 -0.7288  0.0520
   97TMC2     O 1513   1.582   0.786  17.579 -0.2570  0.0470  0.2943
   97TMC2     H 1514   1.541   0.893  17.353  0.5509  0.3886  0.9016
   97TMC2    H1 1515   1.659   1.156  17.657  1.6740  2.1708 -1.7098
   97TMC2    H2 1516   1.578   1.296  17.252 -3.5826 -1.6099 -0.2993
   97TMC2    C7 1517   1.629   1.372  17.519 -0.2429 -0.1132 -0.2977
   97TMC2    C8 1518   1.522   1.072  17.147  0.4516 -0.2244  0.5975
   97TMC2    O1 1519   1.629   1.377  17.641 -0.1487 -0.5225 -0.3764
   97TMC2    O2 1520   1.445   1.144  17.087 -0.2670  0.0098 -0.0837
   97TMC2    O5 1521   1.537   0.936  17.134  0.4156 -1.1130  0.0747
   97TMC2    H5 1522   1.597   0.895  17.201 -1.2845 -2.2653  0.9075
   98MPD2     C 1523   1.395   0.793   0.344  0.5350 -0.7344  0.2570
   98MPD2    C1 1524   1.433   0.713   0.244  0.3042  0.3040 -0.5494
   98MPD2    C2 1525   1.485   0.754   0.122  0.5822 -0.4397  0.0338
   98MPD2    C3 1526   1.489   0.893   0.103  0.4842 -1.2960  0.0867
   98MPD2    C4 1527   1.436   0.977   0.199 -0.2522  0.3744  0.1279
   98MPD2    C5 1528   1.390   0.927   0.318  0.4208 -0.1618  0.0477
   98MPD2     H 1529   1.503   0.682   0.044  1.4905 -2.7342  2.3684
   98MPD2    H1 1530   1.416   1.081   0.175 -1.3965 -0.2729 -1.7349
   98MPD2    H2 1531   1.344   0.764   0.435  0.6907 -0.1574  0.5244
   98MPD2    H3 1532   1.366   0.987   0.404 -0.2009 -1.9674  1.1281
   98MPD2     N 1533   1.523   0.959  17.727 -0.3237  0.1706  0.9352
   98MPD2    H5 1534   1.501   1.058  17.723 -1.7921 -0.2518 -1.2596
   98MPD2    N1 1535   1.425   0.580   0.286  0.3178  0.4297 -0.4200
   98MPD2    H7 1536   1.388   0.571   0.380  0.4615  0.5657 -0.3505
   99TMC2    C1 1537   0.258   3.112   0.837 -0.2467  0.9903 -0.1405
   99TMC2    C2 1538   0.344   3.218   0.868 -0.0001 -0.4292 -0.6771
   99TMC2    C3 1539   0.319   3.287   0.975 -0.0436 -0.0007  0.2835
   99TMC2    C4 1540   0.185   3.062   0.936  0.5397  0.0022 -0.2281
   99TMC2    C5 1541   0.184   3.124   1.059 -0.1905  0.6159 -0.0106
   99TMC2    C6 1542   0.246   3.244   1.079 -0.4528  0.0022  0.5439
   99TMC2     C 1543   0.302   3.019   0.730 -0.0612  0.1971  0.3956
   99TMC2     O 1544   0.412   3.042   0.679 -0.1348  0.1122  0.0369
   99TMC2     H 1545   0.420   3.253   0.799  1.3445  0.9437  1.4830
   99TMC2    H1 1546   0.114   2.982   0.919 -1.0263  1.4691 -0.5931
   99TMC2    H2 1547   0.209   3.309   1.157 -0.8631 -1.3671  1.4918
   99TMC2    C7 1548   0.087   3.081   1.154  0.8789  0.5632  0.2825
   99TMC2    C8 1549   0.371   3.420   0.966 -0.1074  0.2104  0.0639
   99TMC2    O1 1550   0.057   3.164   1.239 -0.1601 -0.2274  0.4179
   99TMC2    O2 1551   0.472   3.439   0.901  0.5778  0.5036  0.4127
   99TMC2    O5 1552   0.346   3.484   1.082  0.2792  0.1908 -0.2607
   99TMC2    H5 1553   0.253   3.468   1.109  0.3056  0.2890 -0.1124
  100MPD2     C 1554   0.353   2.820   0.515 -0.4253 -0.5121 -0.5290
  100MPD2    C1 1555   0.233   2.850   0.574  0.0701  0.4170  0.4008
  100MPD2    C2 1556   0.121   2.779   0.522 -0.4826 -0.8850  0.0895
  100MPD2    C3 1557   0.133   2.685   0.422  0.1432  0.6094  0.2788
  100MPD2    C4 1558   0.260   2.655   0.372 -0.9916  0.1878 -0.4619
  100MPD2    C5 1559   0.368   2.728   0.415 -0.0997 -0.0579  0.1408
  100MPD2     H 1560   0.024   2.803   0.562  0.3867 -0.2768  1.8233
  100MPD2    H1 1561   0.284   2.577   0.301  0.2998 -0.0689  0.2514
  100MPD2    H2 1562   0.442   2.872   0.549 -0.9688 -0.5859  1.0168
  100MPD2    H3 1563   0.467   2.696   0.384 -0.7871 -1.8710 -0.2036
  100MPD2     N 1564   0.014   2.620   0.382  0.6525  0.2087 -0.0320
  100MPD2    H5 1565   4.665   2.657   0.420 -0.0753 -1.0346 -0.4558
  100MPD2    N1 1566   0.207   2.944   0.676 -0.2195  0.0624 -0.0079
  100MPD2    H7 1567   0.109   2.933   0.703 -0.1331  3.0865  1.4580
  101TMC2    C1 1568   0.588   3.600  13.017  0.2091  0.0675  0.0979
  101TMC2    C2 1569   0.709   3.535  13.033 -0.1565 -0.7234 -0.0602
  101TMC2    C3 1570   0.817   3.571  12.956  0.0040  0.0363 -0.2483
  101TMC2    C4 1571   0.570   3.697  12.925  0.2392 -0.3921  0.0222
  101TMC2    C5 1572   0.681   3.741  12.858 -0.4977 -0.5114 -0.0797
  101TMC2    C6 1573   0.803   3.679  12.871  0.0751 -0.5800 -0.4136
  101TMC2     C 1574   0.465   3.530  13.054  0.0875  0.6979 -0.1564
  101TMC2     O 1575   0.357   3.589  13.032  0.2151 -0.0906  0.3171
  101TMC2     H 1576   0.735   3.469  13.115  0.1263  0.7045  0.9890
  101TMC2    H1 1577   0.471   3.741  12.916  0.8827  1.1118  0.3602
  101TMC2    H2 1578   0.887   3.722  12.817 -0.7093  0.5375 -0.7205
  101TMC2    C7 1579   0.674   3.839  12.760  0.8509 -0.4728  0.0826
  101TMC2    C8 1580   0.949   3.547  13.023 -0.2153 -0.2782 -0.0481
  101TMC2    O1 1581   0.778   3.876  12.698 -0.2634  0.4215 -0.0424
  101TMC2    O2 1582   0.957   3.451  13.096 -0.0396 -0.2009 -0.0389
  101TMC2    O5 1583   1.020   3.662  13.036 -0.3823  0.9361  0.4577
  101TMC2    H5 1584   0.973   3.738  12.995 -1.3619  0.0032 -0.1255
  102MPD2     C 1585   0.420   3.164  13.047  0.0285 -0.0096 -0.3733
  102MPD2    C1 1586   0.381   3.295  13.070  0.1178 -0.3258 -0.2351
  102MPD2    C2 1587   0.239   3.316  13.087 -0.1529 -0.0767  0.4554
  102MPD2    C3 1588   0.150   3.214  13.077  0.5220 -0.2333 -0.1513
  102MPD2    C4 1589   0.190   3.084  13.062  0.1394  0.0903 -0.1820
  102MPD2    C5 1590   0.326   3.061  13.041  0.7076 -0.4598 -0.4598
  102MPD2     H 1591   0.206   3.416  13.110 -0.1308 -0.1668  0.8868
  102MPD2    H1 1592   0.118   3.003  13.056  0.8992 -0.5456 -0.9676
  102MPD2    H2 1593   0.527   3.148  13.055 -0.4752 -2.5780  1.1675
  102MPD2    H3 1594   0.359   2.960  13.024 -0.5360 -0.8989 -0.2267
  102MPD2     N 1595   0.013   3.240  13.106  0.1182  0.4215 -0.4930
  102MPD2    H5 1596   4.727   3.328  13.151  1.0923  0.2074  0.4182
  102MPD2    N1 1597   0.486   3.390  13.066 -0.3241  0.2704  0.5295
  102MPD2    H7 1598   0.581   3.361  13.044 -0.8033 -1.3631  0.6566
  103TMC2    C1 1599   2.313   3.616  12.165 -0.4166  0.3339 -0.4253
  103TMC2    C2 1600   2.383   3.561  12.061 -0.0047  0.8789  0.0518
  103TMC2    C3 1601   2.515   3.533  12.084 -1.1457 -0.3156 -0.0203
  103TMC2    C4 1602   2.367   3.634  12.290  0.2868  0.4142  0.3142
  103TMC2    C5 1603   2.500   3.598  12.305 -0.5845 -0.2067 -0.0354
  103TMC2    C6 1604   2.575   3.545  12.204  0.5429 -0.3916  0.6197
  103TMC2     C 1605   2.202   3.713  12.134 -0.0187 -0.6528 -0.4405
  103TMC2     O 1606   2.216   3.790  12.042  0.0178 -0.4278 -0.0829
  103TMC2     H 1607   2.343   3.544  11.962  1.7699 -1.9222 -0.1797
  103TMC2    H1 1608   2.324   3.694  12.369 -1.4967 -1.6830  0.9330
  103TMC2    H2 1609   2.682   3.528  12.210  0.5744  0.0802  1.4500
  103TMC2    C7 1610   2.568   3.644  12.424  0.2894 -0.4171  0.7326
  103TMC2    C8 1611   2.600   3.523  11.968 -0.0625  0.1970 -0.3320
  103TMC2    O1 1612   2.511   3.656  12.531 -0.0869 -0.0178  0.0564
  103TMC2    O2 1613   2.719   3.557  11.961 -0.5982  0.2448 -0.2430
  103TMC2    O5 1614   2.557   3.398  11.936  0.0209 -1.1282  0.3448
  103TMC2    H5 1615   2.463   3.383  11.958 -0.1700  0.4626  0.5612
  104MPD2     C 1616   1.903   3.779  12.333  1.4461 -0.1632  0.0546
  104MPD2    C1 1617   1.995   3.804  12.231 -0.4598 -0.0097 -0.0535
  104MPD2    C2 1618   1.965   3.912  12.143 -0.3535  0.3636 -0.1488
  104MPD2    C3 1619   1.855   3.997  12.156  0.0358  0.1242 -0.2978
  104MPD2    C4 1620   1.761   3.964  12.254  0.1076  0.0942  0.7484
  104MPD2    C5 1621   1.789   3.853  12.330 -0.0237  0.2065  0.8318
  104MPD2     H 1622   2.024   3.925  12.053 -1.1297 -1.4622 -0.9242
  104MPD2    H1 1623   1.664   4.011  12.250 -0.6896 -1.4681  1.5641
  104MPD2    H2 1624   1.919   3.696  12.401  1.6563 -0.5764 -0.4960
  104MPD2    H3 1625   1.720   3.829  12.410  0.4123  1.0654  1.4573
  104MPD2     N 1626   1.850   4.117  12.076  0.5269  0.3579 -0.0071
  104MPD2    H5 1627   1.938   4.151  12.040  0.6401 -0.9980 -0.9851
  104MPD2    N1 1628   2.109   3.721  12.233  0.5803 -0.0946  0.5877
  104MPD2    H7 1629   2.114   3.659  12.313  3.5105  0.8920  1.1334
  105TMC2    C1 1630   4.502   3.467   0.516 -0.4882  0.3011  0.8540
  105TMC2    C2 1631   4.547   3.595   0.500  0.6126  0.5071 -0.3202
  105TMC2    C3 1632   4.487   3.698   0.572  0.3101 -0.3356  0.1262
  105TMC2    C4 1633   4.404   3.441   0.610  0.4220 -0.3204 -0.5211
  105TMC2    C5 1634   4.352   3.544   0.679  0.6526  0.2165  0.1217
  105TMC2    C6 1635   4.397   3.670   0.669 -0.2726  0.2940  0.2340
  105TMC2     C 1636   4.561   3.354   0.456  0.3348 -0.1449  0.0228
  105TMC2     O 1637   4.523   3.246   0.502  0.5139 -0.0826 -0.4099
  105TMC2     H 1638   4.630   3.624   0.436 -0.3271 -0.5687 -1.9973
  105TMC2    H1 1639   4.369   3.342   0.637 -2.0948  0.9435  0.7705
  105TMC2    H2 1640   4.336   3.746   0.716 -1.3734 -0.5079  0.1085
  105TMC2    C7 1641   4.277   3.497   0.794 -0.3869 -0.7081  0.0793
  105TMC2    C8 1642   4.553   3.825   0.549 -0.3312 -0.5960 -0.6520
  105TMC2    O1 1643   4.208   3.394   0.781  0.2690  0.0807  0.0432
  105TMC2    O2 1644   4.637   3.854   0.466  0.3221  0.7049  0.0598
  105TMC2    O5 1645   4.516   3.905   0.655 -0.6683  0.1224  0.2424
  105TMC2    H5 1646   4.474   3.856   0.729  0.3853  0.3777  1.0021
  106MPD2     C 1647   0.064   3.098   0.089  0.2176  0.0059 -0.9524
  106MPD2    C1 1648   0.033   3.225   0.042  0.2400 -0.1228 -0.6369
  106MPD2    C2 1649   4.720   3.313   0.130  0.5598  0.1438 -0.8927
  106MPD2    C3 1650   4.695   3.277   0.259  0.2781 -0.0411 -0.7686
  106MPD2    C4 1651   4.719   3.146   0.305  0.5470 -0.1583 -0.3580
  106MPD2    C5 1652   0.047   3.060   0.223  0.4235 -0.0928 -0.4707
  106MPD2     H 1653   4.697   3.411   0.088  1.2035  0.6790 -0.0098
  106MPD2    H1 1654   4.696   3.112   0.405  0.8513 -1.9230 -0.8905
  106MPD2    H2 1655   0.081   3.013   0.024 -2.4457 -0.3948 -1.1279
  106MPD2    H3 1656   0.047   2.956   0.253  0.5879 -0.1998 -0.8320
  106MPD2     N 1657   4.626   3.376   0.333 -0.1005  0.1085 -0.1858
  106MPD2    H5 1658   4.616   3.468   0.293  0.2051  0.4546  0.5291
  106MPD2    N1 1659   0.027   3.256  17.650 -0.2715 -0.4355 -0.1497
  106MPD2    H7 1660   4.733   3.350  17.627  0.2806  0.7728  4.0209
  107TMC2    C1 1661   4.354   3.531  11.624  0.6165 -1.0049 -0.3323
  107TMC2    C2 1662   4.288   3.645  11.585 -0.1532  0.2127 -0.1086
  107TMC2    C3 1663   4.349   3.723  11.488 -0.0078 -0.4241 -0.7283
  107TMC2    C4 1664   4.470   3.488  11.567 -0.2315 -0.1328 -0.1663
  107TMC2    C5 1665   4.527   3.563  11.472 -0.9900 -0.1620  0.9094
  107TMC2    C6 1666   4.463   3.683  11.423 -0.1834  0.1043 -0.1901
  107TMC2     C 1667   4.304   3.450  11.738 -0.3541 -0.9802  0.3826
  107TMC2     O 1668   4.382   3.383  11.804 -0.2577 -0.2539 -0.4165
  107TMC2     H 1669   4.202   3.677  11.643  0.6874  1.5054  0.4411
  107TMC2    H1 1670   4.521   3.405  11.615 -0.1390  0.5537  0.9112
  107TMC2    H2 1671   4.517   3.749  11.357  0.9144 -0.6903 -0.0853
  107TMC2    C7 1672   4.661   3.537  11.426  0.1819  0.1917  0.7431
  107TMC2    C8 1673   4.292   3.849  11.445  0.9149 -0.1856  0.4108
  107TMC2    O1 1674   4.719   3.617  11.351 -0.4734  0.9019 -0.0744
  107TMC2    O2 1675   4.357   3.920  11.368 -0.2842  0.0702  0.6720
  107TMC2    O5 1676   4.160   3.833  11.438 -0.6476  0.3430 -0.3383
  107TMC2    H5 1677   4.129   3.746  11.472 -1.0780  1.1308  1.2928
  108MPD2     C 1678   3.948   3.450  11.815 -0.6982  0.0592  1.1021
  108MPD2    C1 1679   4.082   3.404  11.840 -0.2563  0.0323 -0.1358
  108MPD2    C2 1680   4.106   3.322  11.943  0.4560  0.3398 -0.7294
  108MPD2    C3 1681   4.006   3.293  12.037  0.1748  0.3168 -0.5186
  108MPD2    C4 1682   3.882   3.344  12.021 -0.3325  0.0721  0.3097
  108MPD2    C5 1683   3.852   3.426  11.916 -0.2657  0.1434 -0.3380
  108MPD2     H 1684   4.208   3.287  11.956 -0.3090  0.0435  4.4382
  108MPD2    H1 1685   3.813   3.323  12.101  0.8601 -2.2007  0.7531
  108MPD2    H2 1686   3.921   3.514  11.732 -0.7715 -2.2728 -0.6884
  108MPD2    H3 1687   3.751   3.465  11.921 -0.0640  0.7540 -1.0063
  108MPD2     N 1688   4.024   3.209  12.147  1.2060  0.3537 -0.8801
  108MPD2    H5 1689   3.937   3.185  12.195  1.4421  0.2544 -0.4980
  108MPD2    N1 1690   4.166   3.447  11.736  0.0607  0.5643  0.0327
  108MPD2    H7 1691   4.130   3.501  11.658  0.0100  2.8213  1.6033
  109TMC2    C1 1692   0.444   0.265   0.109 -0.4695  0.1691  0.1458
  109TMC2    C2 1693   0.400   0.291  17.725 -0.4692  0.6788  0.3509
  109TMC2    C3 1694   0.465   0.230  17.625  0.6275 -0.2583  0.0960
  109TMC2    C4 1695   0.537   0.165   0.143 -0.0106  0.2133  0.0007
  109TMC2    C5 1696   0.607   0.118   0.034 -0.1441 -0.2189 -0.5302
  109TMC2    C6 1697   0.563   0.132  17.652 -0.1541 -0.4147  0.3666
  109TMC2     C 1698   0.373   0.343   0.209 -0.2291  0.8111  0.1976
  109TMC2     O 1699   0.255   0.364   0.182 -0.3476 -0.1137 -0.5901
  109TMC2     H 1700   0.321   0.363  17.708 -0.5622  0.1634 -1.3699
  109TMC2    H1 1701   0.566   0.157   0.247  2.1593  1.4847 -0.5042
  109TMC2    H2 1702   0.621   0.095  17.568 -0.7495 -0.5740  0.0260
  109TMC2    C7 1703   0.725   0.049   0.071 -0.3030  0.1121 -1.0073
  109TMC2    C8 1704   0.435   0.259  17.487 -0.3163 -0.7509 -0.3077
  109TMC2    O1 1705   0.814   0.063  17.733  0.0846  0.3263 -0.4206
  109TMC2    O2 1706   0.529   0.243  17.416  0.0250  0.6529 -0.0131
  109TMC2    O5 1707   0.312   0.217  17.467  0.2800 -0.0167  0.2687
  109TMC2    H5 1708   0.247   0.228  17.539 -0.1833  1.2749 -0.3454
  110MPD2     C 1709   0.325   0.592   0.671 -0.1271 -0.0849 -0.0779
  110MPD2    C1 1710   0.425   0.505   0.672 -0.6172  0.2279 -0.0929
  110MPD2    C2 1711   0.466   0.436   0.561 -0.4791 -0.5507 -0.5058
  110MPD2    C3 1712   0.397   0.448   0.439  0.9150  0.5280 -0.3018
  110MPD2    C4 1713   0.291   0.541   0.432 -0.0813 -0.2808 -0.1791
  110MPD2    C5 1714   0.255   0.616   0.550 -0.4152 -0.0218  0.3706
  110MPD2     H 1715   0.545   0.362   0.566 -0.8723 -1.1205 -2.7318
  110MPD2    H1 1716   0.241   0.563   0.338 -0.1105 -1.1697 -0.3743
  110MPD2    H2 1717   0.303   0.652   0.759 -0.2226 -0.1751 -0.0391
  110MPD2    H3 1718   0.180   0.694   0.543 -0.1808  0.1018 -0.7527
  110MPD2     N 1719   0.442   0.375   0.328 -0.2776 -0.2584 -0.2903
  110MPD2    H5 1720   0.531   0.327   0.338 -0.8288 -0.9729  1.0801
  110MPD2    N1 1721   0.479   0.490   0.803  0.5393 -0.7026 -0.9428
  110MPD2    H7 1722   0.435   0.539   0.880  2.4062 -3.8943  2.1914
  111TMC2    C1 1723   0.216   0.373  11.679 -0.1688  0.4022  0.3222
  111TMC2    C2 1724   0.097   0.368  11.743 -0.0937 -0.2620 -0.2988
  111TMC2    C3 1725   0.087   0.280  11.854 -0.1170 -0.2105 -0.0623
  111TMC2    C4 1726   0.319   0.298  11.718 -0.0104 -0.0872  0.4103
  111TMC2    C5 1727   0.303   0.221  11.827 -0.1712 -0.0736  0.6392
  111TMC2    C6 1728   0.191   0.202  11.895 -0.2060  0.5094  0.0265
  111TMC2     C 1729   0.225   0.435  11.547 -0.2348 -0.3688 -0.1485
  111TMC2     O 1730   0.309   0.389  11.469  0.4369  0.0656  0.0172
  111TMC2     H 1731   0.010   0.409  11.693 -0.0695 -1.0035 -0.9450
  111TMC2    H1 1732   0.409   0.292  11.658  0.3952  0.3202  0.9760
  111TMC2    H2 1733   0.180   0.130  11.975  2.3174 -1.1519 -1.1300
  111TMC2    C7 1734   0.422   0.190  11.902  0.1904 -0.1752 -0.3828
  111TMC2    C8 1735   4.705   0.274  11.934 -0.0961 -0.1615 -0.2865
  111TMC2    O1 1736   0.413   0.125  12.005 -0.2586  0.3569 -0.1776
  111TMC2    O2 1737   4.676   0.362  12.018  0.3188 -0.4053 -0.0018
  111TMC2    O5 1738   4.629   0.252  11.825  0.2207  0.1105 -0.2810
  111TMC2    H5 1739   4.672   0.193  11.758 -0.1336  0.5932 -0.9381
  112MPD2     C 1740   0.098   0.801  11.202  0.1312  0.2139 -0.4008
  112MPD2    C1 1741   0.155   0.673  11.192 -0.0238 -0.0839  0.7463
  112MPD2    C2 1742   0.185   0.600  11.303 -0.2841 -0.1034  0.0972
  112MPD2    C3 1743   0.152   0.638  11.425 -0.4978 -0.0930  0.7363
  112MPD2    C4 1744   0.097   0.766  11.438 -0.0686  0.4538 -0.7135
  112MPD2    C5 1745   0.075   0.845  11.330  0.9462  0.4772  0.7258
  112MPD2     H 1746   0.221   0.499  11.289 -1.8902 -0.6411 -0.2464
  112MPD2    H1 1747   0.051   0.794  11.532  0.6525  2.0649 -0.8300
  112MPD2    H2 1748   0.089   0.863  11.113 -0.2738  0.0261 -0.4860
  112MPD2    H3 1749   0.016   0.934  11.351 -0.3891  0.0349 -1.1607
  112MPD2     N 1750   0.150   0.548  11.536 -0.0874 -0.0184 -0.5176
  112MPD2    H5 1751   0.112   0.583  11.623  0.4848  1.5986 -0.9072
  112MPD2    N1 1752   0.189   0.636  11.062 -0.2507  1.0290  0.6531
  112MPD2    H7 1753   0.151   0.698  10.990  0.0653 -1.3910 -1.6216
  113TMC2    C1 1754   3.887   2.021   0.767  0.0061  0.5575 -0.2095
  113TMC2    C2 1755   3.773   2.086   0.811  0.2028  0.0493  0.3683
  113TMC2    C3 1756   3.716   2.047   0.925 -0.4157 -0.3244 -0.9466
  113TMC2    C4 1757   3.934   1.903   0.831  0.0385  0.3665 -0.2211
  113TMC2    C5 1758   3.854   1.849   0.927 -0.3923 -0.1097 -0.5430
  113TMC2    C6 1759   3.747   1.925   0.982 -0.0106 -0.0749  0.2187
  113TMC2     C 1760   3.993   2.103   0.706  0.5819  0.1726 -0.0478
  113TMC2     O 1761   3.956   2.221   0.718  0.1630 -0.5023 -0.8837
  113TMC2     H 1762   3.735   2.177   0.766  1.0524 -0.0602 -0.5769
  113TMC2    H1 1763   4.017   1.846   0.791  0.3598 -0.4297  1.5806
  113TMC2    H2 1764   3.683   1.876   1.055  1.3712 -0.4490  1.1722
  113TMC2    C7 1765   3.865   1.712   0.963  0.7170  0.0089  0.1477
  113TMC2    C8 1766   3.612   2.135   0.986 -0.7460  0.3975 -0.1126
  113TMC2    O1 1767   3.978   1.663   0.949  0.1163 -0.6134 -0.0687
  113TMC2    O2 1768   3.533   2.201   0.924  0.2300  0.1909 -0.0787
  113TMC2    O5 1769   3.663   2.173   1.099  0.2001 -0.4979 -0.3339
  113TMC2    H5 1770   3.748   2.125   1.110  1.0251  0.4859 -2.3730
  114MPD2     C 1771   4.467   2.233   0.579  0.1956  0.4932 -0.4400
  114MPD2    C1 1772   4.361   2.309   0.627  0.1645 -1.0392  0.2096
  114MPD2    C2 1773   4.235   2.246   0.633 -0.4209 -0.0507  0.7163
  114MPD2    C3 1774   4.222   2.111   0.615 -0.4841 -0.7540 -0.3327
  114MPD2    C4 1775   4.333   2.039   0.564  0.2107 -0.5622  0.1242
  114MPD2    C5 1776   4.459   2.104   0.540  0.0656 -0.2035  0.3435
  114MPD2     H 1777   4.157   2.305   0.678  1.5874  2.0409  1.4826
  114MPD2    H1 1778   4.327   1.932   0.552  1.2155 -0.8006  1.7522
  114MPD2    H2 1779   4.564   2.280   0.564 -0.0963  0.7933 -1.3880
  114MPD2    H3 1780   4.549   2.046   0.521  1.1107  1.4306  0.3428
  114MPD2     N 1781   4.111   2.039   0.654 -0.5248  0.3281 -0.1132
  114MPD2    H5 1782   4.104   1.938   0.651 -0.4398  0.4244 -3.3365
  114MPD2    N1 1783   4.367   2.444   0.668  0.0565 -0.3553  0.3644
  114MPD2    H7 1784   4.281   2.489   0.697  0.5743  1.0559 -0.3466
  115TMC2    C1 1785   4.481   0.225  17.486 -0.5585 -0.2148 -0.0913
  115TMC2    C2 1786   4.609   0.235  17.535  0.0848 -1.1420  0.0501
  115TMC2    C3 1787   4.652   0.364  17.548  0.1326  0.2193 -0.3194
  115TMC2    C4 1788   4.404   0.330  17.442 -0.6040  0.1230 -0.3449
  115TMC2    C5 1789   4.460   0.454  17.449  0.1589  0.5014  0.4217
  115TMC2    C6 1790   4.585   0.476  17.500  0.0151  0.6917 -0.1125
  115TMC2     C 1791   4.444   0.097  17.419 -0.1682  0.8387 -0.3662
  115TMC2     O 1792   4.536   0.028  17.382 -0.1270  0.5600 -0.2733
  115TMC2     H 1793   4.674   0.149  17.542 -0.5701 -1.4016  3.0651
  115TMC2    H1 1794   4.309   0.325  17.391 -0.1448 -0.3368 -1.1686
  115TMC2    H2 1795   4.628   0.574  17.519 -1.2978  1.4510 -1.0588
  115TMC2    C7 1796   4.382   0.568  17.416 -0.0451  0.3558 -0.3367
  115TMC2    C8 1797   0.053   0.382  17.590 -0.1551  1.0434 -0.3725
  115TMC2    O1 1798   4.261   0.567  17.438 -0.3212  0.2092 -0.0178
  115TMC2    O2 1799   0.103   0.282  17.641 -0.4020  0.2289  0.8614
  115TMC2    O5 1800   0.117   0.469  17.509  0.5086 -0.3124  0.0975
  115TMC2    H5 1801   0.060   0.545  17.486  0.2043 -0.2451  1.0534
  116MPD2     C 1802   4.090   4.491  17.320  0.0497  0.3805 -0.3408
  116MPD2    C1 1803   4.213   4.493  17.263  0.5479  0.6064 -0.2448
  116MPD2    C2 1804   4.295   4.600  17.301  0.8497 -0.9545  0.5072
  116MPD2    C3 1805   4.247   4.704  17.383 -0.1135 -0.5105 -0.2565
  116MPD2    C4 1806   4.113   4.708  17.416  0.3733 -0.3153 -0.0335
  116MPD2    C5 1807   4.039   4.600  17.383 -0.0300  0.2296 -0.2643
  116MPD2     H 1808   4.393   4.614  17.257  1.4212 -0.5735  1.9093
  116MPD2    H1 1809   4.071   0.056  17.466 -0.4635  0.4237 -1.9941
  116MPD2    H2 1810   4.014   4.419  17.289 -0.5286  0.7772  0.1641
  116MPD2    H3 1811   3.933   4.602  17.408 -0.5445  0.3494 -2.4982
  116MPD2     N 1812   4.312   0.085  17.407 -0.0495 -0.3010 -0.0379
  116MPD2    H5 1813   4.258   0.157  17.454  2.2986  0.0122  2.1613
  116MPD2    N1 1814   4.246   4.387  17.176  0.1131 -0.0031  0.1062
  116MPD2    H7 1815   4.170   4.323  17.153  0.9479 -0.6205 -0.9132
  117TMC2    C1 1816   2.558   1.644  13.622  0.1956  0.6683  0.3947
  117TMC2    C2 1817   2.629   1.527  13.601 -0.0194  0.0654  0.2118
  117TMC2    C3 1818   2.758   1.530  13.653  0.0600  0.3703 -0.8169
  117TMC2    C4 1819   2.620   1.762  13.672  0.2337  0.9505  0.4184
  117TMC2    C5 1820   2.745   1.753  13.715 -0.0951  0.1793  0.3261
  117TMC2    C6 1821   2.818   1.640  13.700 -0.0596 -0.5428 -0.2634
  117TMC2     C 1822   2.414   1.632  13.580 -0.0998  0.3829  0.0772
  117TMC2     O 1823   2.373   1.529  13.532 -0.1555  0.2001 -0.3736
  117TMC2     H 1824   2.585   1.440  13.552 -0.6798  2.5069 -3.5706
  117TMC2    H1 1825   2.573   1.859  13.670  3.1258  2.3149 -1.0552
  117TMC2    H2 1826   2.925   1.641  13.717 -0.2833  1.3281  1.0041
  117TMC2    C7 1827   2.813   1.871  13.767 -0.0892 -0.0666 -0.4638
  117TMC2    C8 1828   2.842   1.411  13.632  0.5846 -0.3037 -0.4153
  117TMC2    O1 1829   2.767   1.981  13.743  0.4660 -0.5355  0.5527
  117TMC2    O2 1830   2.826   1.334  13.539 -0.0166 -0.1628  0.0070
  117TMC2    O5 1831   2.923   1.392  13.745 -0.0043 -0.2240  0.7426
  117TMC2    H5 1832   2.914   1.466  13.809  1.5561  2.1183 -1.6929
  118MPD2     C 1833   3.126   1.843  13.954  0.4541  0.1476 -0.1507
  118MPD2    C1 1834   3.040   1.910  13.873 -0.1199  0.2657  0.3498
  118MPD2    C2 1835   3.069   2.038  13.835  0.2289  0.1268  0.1303
  118MPD2    C3 1836   3.197   2.091  13.864 -0.8291  0.4675  0.2813
  118MPD2    C4 1837   3.286   2.018  13.941  0.3026 -0.0129 -1.0582
  118MPD2    C5 1838   3.250   1.895  13.986 -0.3681  0.5115  0.2394
  118MPD2     H 1839   3.001   2.100  13.777 -0.9668 -0.2237  1.1676
  118MPD2    H1 1840   3.383   2.051  13.978  0.8124 -1.2182 -1.3089
  118MPD2    H2 1841   3.097   1.744  13.989  0.7439  0.3047  0.5343
  118MPD2    H3 1842   3.318   1.849  14.056  0.2695  1.3059  0.1463
  118MPD2     N 1843   3.233   2.213  13.798 -0.4793  0.0894  0.4340
  118MPD2    H5 1844   3.155   2.270  13.767 -1.3223 -1.5165 -0.4068
  118MPD2    N1 1845   2.924   1.832  13.837 -0.0702 -0.7884  0.1987
  118MPD2    H7 1846   2.927   1.734  13.862  0.5696 -0.9235 -0.4113
  119TMC2    C1 1847   0.728   2.525  13.097 -0.1802  0.5710 -0.7622
  119TMC2    C2 1848   0.758   2.516  12.962  0.2056  0.3497  0.2999
  119TMC2    C3 1849   0.657   2.545  12.870 -0.2880  0.3762  0.8429
  119TMC2    C4 1850   0.599   2.538  13.143  0.5835 -0.3363  0.4196
  119TMC2    C5 1851   0.502   2.556  13.048  0.5955 -0.5267  0.1023
  119TMC2    C6 1852   0.522   2.557  12.915 -0.5060 -0.1662 -0.6322
  119TMC2     C 1853   0.839   2.544  13.191  0.6685 -0.0266  0.5289
  119TMC2     O 1854   0.935   2.471  13.181  0.5271  0.4322  0.2231
  119TMC2     H 1855   0.862   2.509  12.930  0.1349  0.9031 -0.0419
  119TMC2    H1 1856   0.584   2.543  13.251 -3.1366 -0.6590 -0.0832
  119TMC2    H2 1857   0.444   2.577  12.843 -0.0230 -1.2055 -1.4493
  119TMC2    C7 1858   0.377   2.612  13.084  0.2824  0.4044  0.1029
  119TMC2    C8 1859   0.688   2.593  12.733 -0.9424  0.1100  0.0121
  119TMC2    O1 1860   0.308   2.669  12.996  0.4265 -0.0579 -0.3625
  119TMC2    O2 1861   0.602   2.653  12.674 -0.0425  0.0117  0.3776
  119TMC2    O5 1862   0.806   2.535  12.687 -0.4201 -0.1996 -0.5797
  119TMC2    H5 1863   0.846   2.482  12.759 -0.2329 -0.5208 -0.9220
  120MPD2     C 1864   1.052   2.832  13.554  0.6234  0.3613  0.1083
  120MPD2    C1 1865   0.929   2.882  13.530  0.2715  0.0517 -0.3666
  120MPD2    C2 1866   0.843   2.811  13.452 -0.2558  0.3376  0.5259
  120MPD2    C3 1867   0.886   2.695  13.388 -0.0433 -0.3550  0.6170
  120MPD2    C4 1868   1.010   2.645  13.411 -0.1876  0.5475  0.8283
  120MPD2    C5 1869   1.092   2.722  13.487 -0.2465  0.1732  0.1534
  120MPD2     H 1870   0.749   2.858  13.422  0.1840  0.7135 -0.2676
  120MPD2    H1 1871   1.051   2.564  13.351  0.5756  1.4214  0.1895
  120MPD2    H2 1872   1.124   2.879  13.620  1.6272 -0.2309 -0.5612
  120MPD2    H3 1873   1.200   2.710  13.491 -0.1494  0.3424 -1.7907
  120MPD2     N 1874   0.808   2.647  13.277 -0.5671 -0.3385 -0.7156
  120MPD2    H5 1875   0.715   2.687  13.264 -0.0485  1.1894  0.3202
  120MPD2    N1 1876   0.900   3.000  13.597 -0.3506  0.4163 -0.1969
  120MPD2    H7 1877   0.979   3.043  13.644  0.3764 -0.7974 -0.2934
  121TMC2    C1 1878   2.168   4.555  14.319  0.0247  0.6577  0.4087
  121TMC2    C2 1879   2.186   4.507  14.446 -0.3927 -0.4291 -0.7189
  121TMC2    C3 1880   2.076   4.458  14.508  0.0613  0.3232 -0.2341
  121TMC2    C4 1881   2.056   4.536  14.250 -0.0597 -0.1101 -0.7308
  121TMC2    C5 1882   1.949   4.492  14.315 -0.1115 -0.5824 -0.2799
  121TMC2    C6 1883   1.956   4.461  14.445  0.1705 -0.0813  0.4119
  121TMC2     C 1884   2.271   4.645  14.282 -0.0447 -0.5386  0.5831
  121TMC2     O 1885   2.375   4.646  14.350  0.1409  0.5767 -0.4682
  121TMC2     H 1886   2.275   4.522  14.506 -0.6196  0.9718 -0.7234
  121TMC2    H1 1887   2.040   4.553  14.144 -0.5280  0.3147 -0.5908
  121TMC2    H2 1888   1.867   4.452  14.506  1.1529 -0.1599  1.8301
  121TMC2    C7 1889   1.826   4.472  14.233 -0.2940  0.6747  0.2809
  121TMC2    C8 1890   2.081   4.446  14.656 -0.3144  0.5017  0.4271
  121TMC2    O1 1891   1.827   4.517  14.122 -0.0243  0.4483 -0.3973
  121TMC2    O2 1892   2.176   4.492  14.721  0.2900  0.1972 -1.1473
  121TMC2    O5 1893   1.989   4.348  14.692 -0.3660  0.1168  0.5775
  121TMC2    H5 1894   1.929   4.316  14.622  0.3725 -1.7631  0.8001
  122MPD2     C 1895   2.466   0.108  14.158  0.7040  0.3745 -0.2737
  122MPD2    C1 1896   2.334   0.087  14.115 -0.2509  0.1550 -0.2386
  122MPD2    C2 1897   2.279   0.173  14.026  0.0037 -0.2583 -0.3599
  122MPD2    C3 1898   2.352   0.288  13.979  0.0353 -0.4863 -0.2920
  122MPD2    C4 1899   2.482   0.303  14.028  0.4888  0.2805 -0.1335
  122MPD2    C5 1900   2.541   0.212  14.107 -0.6498 -0.3135  0.5289
  122MPD2     H 1901   2.177   0.151  13.997 -0.3453 -1.9964  2.1823
  122MPD2    H1 1902   2.549   0.381  13.994  1.1170 -0.4140 -0.4914
  122MPD2    H2 1903   2.520   0.032  14.214 -0.1422  0.1514  0.2310
  122MPD2    H3 1904   2.644   0.224  14.139 -0.0544 -2.2360 -0.6357
  122MPD2     N 1905   2.316   0.384  13.880 -0.1196 -0.1952  0.0723
  122MPD2    H5 1906   2.389   0.453  13.862 -0.3507 -0.0259 -0.2219
  122MPD2    N1 1907   2.245   4.727  14.172  0.2066 -0.3924 -0.6651
  122MPD2    H7 1908   2.155   4.715  14.125 -1.0365  0.0722  1.5901
  123TMC2    C1 1909   1.119   3.485  10.059  0.2740 -0.0264  1.1426
  123TMC2    C2 1910   1.192   3.578  10.128  0.0811 -0.8221 -0.0019
  123TMC2    C3 1911   1.210   3.694  10.061 -0.6539  0.0631  0.0579
  123TMC2    C4 1912   1.067   3.520   9.938  0.1351  0.8012 -0.0450
  123TMC2    C5 1913   1.101   3.630   9.865 -0.4687 -0.5335 -0.3079
  123TMC2    C6 1914   1.167   3.722   9.933 -0.4251  0.2547 -0.2880
  123TMC2     C 1915   1.049   3.380  10.134  0.1518 -0.1434  0.5744
  123TMC2     O 1916   1.109   3.327  10.229  0.7485  1.0334 -0.2534
  123TMC2     H 1917   1.218   3.559  10.231 -1.1232 -0.3126  0.3925
  123TMC2    H1 1918   1.027   3.441   9.876  2.3897 -1.8775  1.9223
  123TMC2    H2 1919   1.209   3.811   9.888  0.1824 -0.1307 -0.4780
  123TMC2    C7 1920   1.001   3.675   9.774  0.0395 -0.1616 -0.1183
  123TMC2    C8 1921   1.274   3.796  10.136  0.0138  0.0614 -1.0694
  123TMC2    O1 1922   0.905   3.598   9.779 -0.2928 -0.5685  0.3609
  123TMC2    O2 1923   1.350   3.781  10.227 -0.2849  0.5017 -0.4113
  123TMC2    O5 1924   1.189   3.902  10.133  0.1602  0.1181 -0.8382
  123TMC2    H5 1925   1.134   3.912  10.052 -1.3517 -0.9089  0.0631
  124MPD2     C 1926   0.595   3.155  10.231 -0.7621 -0.2494 -0.1919
  124MPD2    C1 1927   0.589   3.219  10.112  0.3115 -0.1791 -0.6376
  124MPD2    C2 1928   0.697   3.286  10.057 -0.6194  0.9322  0.0579
  124MPD2    C3 1929   0.812   3.290  10.133 -0.3478 -0.1213  1.0784
  124MPD2    C4 1930   0.814   3.232  10.254 -0.6036 -0.2328 -0.4937
  124MPD2    C5 1931   0.700   3.182  10.304 -0.3484 -0.4798  0.5849
  124MPD2     H 1932   0.699   3.329   9.957 -1.5574 -2.5953 -1.4845
  124MPD2    H1 1933   0.905   3.234  10.313  0.1848 -2.4998 -1.6620
  124MPD2    H2 1934   0.512   3.103  10.278  0.1101 -0.5495  1.0123
  124MPD2    H3 1935   0.707   3.148  10.407  2.1938 -1.8825 -0.0493
  124MPD2     N 1936   0.920   3.363  10.083  0.4094  0.4087 -0.0654
  124MPD2    H5 1937   0.897   3.418  10.001  2.8323  1.5103  0.0134
  124MPD2    N1 1938   0.455   3.226  10.055 -0.1397  0.0038  0.5344
  124MPD2    H7 1939   0.389   3.175  10.113 -0.5285 -0.9480 -0.7378
  125TMC2    C1 1940   2.296   0.683   9.072  0.0881  0.5383  0.2507
  125TMC2    C2 1941   2.295   0.783   9.168  0.0507 -0.6125 -0.4745
  125TMC2    C3 1942   2.417   0.828   9.209  0.2023  0.3267  0.8192
  125TMC2    C4 1943   2.413   0.631   9.025  0.0002  0.0532  0.7883
  125TMC2    C5 1944   2.529   0.672   9.082 -0.0464  0.1005 -0.3694
  125TMC2    C6 1945   2.535   0.773   9.176 -0.5545  0.2382 -0.6551
  125TMC2     C 1946   2.168   0.612   9.045  0.6796  0.3454  1.1565
  125TMC2     O 1947   2.177   0.535   8.949  0.1059  0.3435  0.2264
  125TMC2     H 1948   2.211   0.835   9.213  2.2719  0.7325  2.0717
  125TMC2    H1 1949   2.401   0.540   8.967  0.1190  1.0744 -0.8492
  125TMC2    H2 1950   2.625   0.819   9.216  0.7383 -1.2473 -1.8517
  125TMC2    C7 1951   2.657   0.612   9.042  0.4645  0.1263  0.4899
  125TMC2    C8 1952   2.418   0.939   9.302 -0.2863  0.0069 -0.2598
  125TMC2    O1 1953   2.744   0.630   9.122 -0.0562  0.0643 -0.2957
  125TMC2    O2 1954   2.465   0.937   9.415 -0.0906 -0.0309  0.3021
  125TMC2    O5 1955   2.400   1.050   9.226 -0.0321  0.1377  0.1949
  125TMC2    H5 1956   2.358   1.039   9.137 -1.3790 -1.6100  1.0431
  126MPD1     C 1957   1.659   0.567   9.060 -0.2643  0.2950 -0.1570
  126MPD1    C1 1958   1.699   0.646   9.166  0.5425 -0.8116 -0.4501
  126MPD1    C2 1959   1.832   0.668   9.181  0.3149 -0.1447 -0.7064
  126MPD1    C3 1960   1.925   0.611   9.095  0.7194 -0.1347  0.2348
  126MPD1    C4 1961   1.885   0.528   9.000 -0.8510 -0.1649 -0.2409
  126MPD1    C5 1962   1.748   0.501   8.982  0.1666 -0.5978  0.3685
  126MPD1     H 1963   1.870   0.730   9.261 -2.6212  1.9681 -0.9252
  126MPD1    H1 1964   1.956   0.469   8.945  0.9281  0.7842  1.0376
  126MPD1    H2 1965   1.558   0.542   9.027 -0.7962  0.7237  1.1539
  126MPD1    H3 1966   1.706   0.429   8.913 -0.1931  0.4902 -0.5471
  126MPD1     N 1967   2.060   0.647   9.126  0.3336  0.1671 -0.4443
  126MPD1    H5 1968   2.071   0.702   9.210 -0.6448 -0.1855 -0.0888
  126MPD1    N1 1969   1.609   0.714   9.247 -0.0734  0.1030 -0.6342
  126MPD1    H6 1970   1.511   0.686   9.242 -0.6761  2.1165 -0.1251
  126MPD1    H7 1971   1.641   0.728   9.343  0.0999 -3.6439 -0.1350
  127TMC2    C1 1972   2.607   4.287   9.953  0.1465 -0.3440 -0.4583
  127TMC2    C2 1973   2.715   4.290  10.036  0.6506  0.3211  0.0205
  127TMC2    C3 1974   2.690   4.253  10.169 -0.1594  0.5917 -0.3745
  127TMC2    C4 1975   2.491   4.223   9.992  0.1415  0.2381 -0.3532
  127TMC2    C5 1976   2.482   4.177  10.120  0.6653  0.0625 -0.1867
  127TMC2    C6 1977   2.580   4.187  10.213 -0.3460 -0.7181  0.2052
  127TMC2     C 1978   2.655   4.286   9.814 -0.2087 -0.4608 -0.3425
  127TMC2     O 1979   2.771   4.263   9.789 -1.0438  0.5325  0.4965
  127TMC2     H 1980   2.810   4.327  10.000  1.1862  0.9927  2.0893
  127TMC2    H1 1981   2.409   4.219   9.922  0.0391  1.2526 -0.2931
  127TMC2    H2 1982   2.567   4.165  10.318 -0.5016  1.6317  0.6809
  127TMC2    C7 1983   2.366   4.090  10.154  0.0658  0.7567  0.3156
  127TMC2    C8 1984   2.803   4.273  10.264 -0.0131  0.0240  0.4201
  127TMC2    O1 1985   2.291   4.073  10.061  0.2396 -0.1302  0.0939
  127TMC2    O2 1986   2.776   4.249  10.380 -0.1791 -0.0986 -0.1621
  127TMC2    O5 1987   2.880   4.378  10.227 -0.3150  0.1170  0.0781
  127TMC2    H5 1988   2.925   4.365  10.141  1.1650  0.4768  0.7889
  128MPD2     C 1989   2.464   4.383   9.516  0.8033 -0.2729  1.1636
  128MPD2    C1 1990   2.572   4.343   9.589  0.0515 -0.4873  0.5591
  128MPD2    C2 1991   2.690   4.323   9.517 -0.5329 -0.6120  0.0117
  128MPD2    C3 1992   2.701   4.345   9.377  0.1082 -0.4083  0.2026
  128MPD2    C4 1993   2.581   4.401   9.313  0.2652 -0.7408 -0.1662
  128MPD2    C5 1994   2.465   4.410   9.382  0.6549  0.3372  0.2487
  128MPD2     H 1995   2.779   4.284   9.565  0.9838  1.3225 -1.2629
  128MPD2    H1 1996   2.591   4.421   9.207 -1.5838  0.4128 -0.1212
  128MPD2    H2 1997   2.366   4.396   9.561  1.3874  1.8968  1.8238
  128MPD2    H3 1998   2.384   4.458   9.329  0.6203 -0.5521 -0.5038
  128MPD2     N 1999   2.832   4.335   9.316 -0.1887 -0.3350 -0.0134
  128MPD2    H5 2000   2.908   4.296   9.370 -1.0584 -1.0663  0.6973
  128MPD2    N1 2001   2.557   4.312   9.726  0.3130  0.1365 -1.2943
  128MPD2    H7 2002   2.466   4.321   9.770  1.5777  0.6331  1.1950
  129TMC2    C1 2003   2.173   3.935   1.442 -0.0905 -0.3852  0.1624
  129TMC2    C2 2004   2.225   3.845   1.534 -0.3582  0.0565 -0.0209
  129TMC2    C3 2005   2.220   3.714   1.495 -0.0208  0.3156  0.7303
  129TMC2    C4 2006   2.127   3.897   1.318 -0.1356 -0.3971  0.6907
  129TMC2    C5 2007   2.139   3.765   1.288 -0.0004  0.4384 -0.0209
  129TMC2    C6 2008   2.186   3.668   1.369 -0.3632 -0.4427  0.5286
  129TMC2     C 2009   2.228   4.066   1.457  0.0232 -0.3026 -0.8949
  129TMC2     O 2010   2.340   4.079   1.505  0.1381  0.1252  0.3041
  129TMC2     H 2011   2.265   3.875   1.630 -1.7487  2.0630 -0.0808
  129TMC2    H1 2012   2.093   3.966   1.241 -0.7259  0.2978  1.5775
  129TMC2    H2 2013   2.165   3.562   1.357  0.0225 -0.3529 -0.9302
  129TMC2    C7 2014   2.065   3.715   1.169  0.2185  0.2027  0.0009
  129TMC2    C8 2015   2.255   3.616   1.593  0.4322 -0.2355 -0.0298
  129TMC2    O1 2016   1.981   3.797   1.121 -0.5535  0.6238 -0.0291
  129TMC2    O2 2017   2.236   3.638   1.713  0.1326  0.6713  0.0222
  129TMC2    O5 2018   2.365   3.553   1.540  0.4593 -0.6019  0.0022
  129TMC2    H5 2019   2.361   3.541   1.443 -3.8849 -2.0130  0.3465
  130MPD2     C 2020   2.304   4.347   1.395 -0.8294 -0.4502  0.0365
  130MPD2    C1 2021   2.175   4.295   1.393 -0.1522  0.8190 -0.3417
  130MPD2    C2 2022   2.077   4.374   1.342 -0.0931 -0.4220  0.0088
  130MPD2    C3 2023   2.103   4.502   1.285  0.4727  0.1247 -0.1840
  130MPD2    C4 2024   2.234   4.553   1.302  0.6606 -0.5873 -0.3664
  130MPD2    C5 2025   2.329   4.475   1.350 -0.6775  0.2582 -0.2143
  130MPD2     H 2026   1.975   4.337   1.334 -0.4006  0.0786  1.7214
  130MPD2    H1 2027   2.267   4.655   1.291 -0.0217 -0.1591  1.5102
  130MPD2    H2 2028   2.394   4.300   1.433 -1.3105 -3.3373 -2.4109
  130MPD2    H3 2029   2.430   4.514   1.360 -0.8067  0.1217  1.5557
  130MPD2     N 2030   1.996   4.585   1.239  0.6817  0.1726 -0.4524
  130MPD2    H5 2031   1.899   4.558   1.251  0.8661 -0.5381 -0.5770
  130MPD2    N1 2032   2.141   4.156   1.421 -0.3745 -0.0406  0.0548
  130MPD2    H7 2033   2.049   4.115   1.410 -0.5245  0.5480 -0.8721
  131TMC2    C1 2034   0.732   4.121   9.768  0.8806 -0.3840  0.2540
  131TMC2    C2 2035   0.706   4.254   9.729  0.2320  0.1645  0.0951
  131TMC2    C3 2036   0.815   4.333   9.709  0.9723 -0.2174  0.3044
  131TMC2    C4 2037   0.858   4.077   9.794  0.0482  0.8984  0.7628
  131TMC2    C5 2038   0.965   4.166   9.778  0.3524  0.0590  0.6413
  131TMC2    C6 2039   0.945   4.298   9.742  0.9621  0.0813 -0.0208
  131TMC2     C 2040   0.620   4.032   9.791 -0.3649 -0.0002  0.1799
  131TMC2     O 2041   0.631   3.954   9.883  0.1111 -0.6274  0.4500
  131TMC2     H 2042   0.605   4.287   9.705  0.8923  2.6643  0.6795
  131TMC2    H1 2043   0.888   3.975   9.812 -2.1649 -0.0061 -0.7826
  131TMC2    H2 2044   1.028   4.366   9.731  2.0602 -1.2051  0.2997
  131TMC2    C7 2045   1.099   4.125   9.827  1.0217 -1.6240  0.5958
  131TMC2    C8 2046   0.786   4.468   9.693 -0.0842  0.0919 -0.4779
  131TMC2    O1 2047   1.107   4.026   9.899 -0.5874  0.4072 -0.0457
  131TMC2    O2 2048   0.677   4.510   9.649  0.2131 -0.0359 -0.3548
  131TMC2    O5 2049   0.874   4.540   9.759  0.4161  0.0768  0.1775
  131TMC2    H5 2050   0.945   4.494   9.808 -0.3952 -2.2456 -0.8615
  132MPD2     C 2051   0.330   4.020   9.586 -0.7822 -1.1599 -0.3078
  132MPD2    C1 2052   0.408   3.973   9.690 -0.0881 -0.0007  0.2585
  132MPD2    C2 2053   0.370   3.867   9.779 -0.4461  0.4674 -0.0903
  132MPD2    C3 2054   0.251   3.807   9.758 -0.1666 -0.1855  0.4653
  132MPD2    C4 2055   0.169   3.853   9.657 -0.2157 -0.3258 -1.0640
  132MPD2    C5 2056   0.208   3.952   9.567  0.1091 -0.4268 -0.1034
  132MPD2     H 2057   0.443   3.838   9.853 -1.4236  0.3612  0.8297
  132MPD2    H1 2058   0.064   3.829   9.662 -0.6170  1.6785 -0.0083
  132MPD2    H2 2059   0.354   4.104   9.522 -2.8805  1.1114  1.8746
  132MPD2    H3 2060   0.133   3.977   9.493  1.9325  1.6347 -1.2498
  132MPD2     N 2061   0.214   3.709   9.847  0.0404  0.5054 -0.7475
  132MPD2    H5 2062   0.287   3.683   9.914 -1.2900  0.6006  0.7341
  132MPD2    N1 2063   0.527   4.034   9.692  0.1422  0.0781  0.1000
  132MPD2    H7 2064   0.541   4.105   9.622  0.3192  1.0341  1.1006
  133TMC2    C1 2065   4.711   3.216   9.274  0.7210  0.1752  0.4173
  133TMC2    C2 2066   0.105   3.207   9.248  0.1620 -0.9801 -0.5275
  133TMC2    C3 2067   0.164   3.093   9.291  0.8180 -0.0602 -0.3237
  133TMC2    C4 2068   4.638   3.115   9.327 -0.2509  0.3187  0.2847
  133TMC2    C5 2069   4.707   3.000   9.364  0.4584 -0.1906 -0.1627
  133TMC2    C6 2070   0.104   2.994   9.359  0.3883  0.1642  0.0032
  133TMC2     C 2071   4.641   3.335   9.231 -0.2519 -0.3110  0.0626
  133TMC2     O 2072   4.714   3.436   9.216 -0.1795  0.5582  0.5805
  133TMC2     H 2073   0.155   3.281   9.187 -1.6960 -1.4608 -2.6620
  133TMC2    H1 2074   4.533   3.117   9.353 -0.2526  2.9393  0.0982
  133TMC2    H2 2075   0.150   2.902   9.392 -0.9965  0.5177  2.9286
  133TMC2    C7 2076   4.642   2.898   9.452  0.4273 -0.4548  0.2327
  133TMC2    C8 2077   0.311   3.102   9.297 -0.5918  0.1980 -0.1316
  133TMC2    O1 2078   4.719   2.827   9.522 -0.1412 -0.3731 -0.4985
  133TMC2    O2 2079   0.382   3.198   9.327  0.0919  0.2569  0.4415
  133TMC2    O5 2080   0.356   2.973   9.286 -0.1353  0.5538  0.2463
  133TMC2    H5 2081   0.289   2.924   9.234  1.8381 -1.0509 -0.7572
  134MPD2     C 2082   4.291   3.409   9.174  0.2637  0.8061  0.0979
  134MPD2    C1 2083   4.419   3.432   9.222 -0.3601  0.6352  0.1609
  134MPD2    C2 2084   4.454   3.559   9.257 -0.2271  1.1626 -0.2558
  134MPD2    C3 2085   4.357   3.659   9.252 -0.4354 -0.4641  0.5477
  134MPD2    C4 2086   4.231   3.634   9.201  0.4308  0.3473 -0.0410
  134MPD2    C5 2087   4.199   3.507   9.166 -0.6111 -0.7588  0.0275
  134MPD2     H 2088   4.555   3.590   9.282 -0.5380  0.3269  2.1110
  134MPD2    H1 2089   4.161   3.715   9.186  1.6763  1.7817  1.9979
  134MPD2    H2 2090   4.260   3.310   9.144  1.8966  0.3844 -0.1843
  134MPD2    H3 2091   4.100   3.483   9.127 -0.2047 -0.1347 -1.3857
  134MPD2     N 2092   4.380   3.793   9.284  0.0050  0.5236 -0.1641
  134MPD2    H5 2093   4.305   3.859   9.265 -1.9247 -1.3919  0.7233
  134MPD2    N1 2094   4.506   3.323   9.227 -0.0082 -0.1937 -0.4596
  134MPD2    H7 2095   4.463   3.231   9.215 -1.5083  0.3952  0.4260
  135TMC2    C1 2096   2.119   0.639  10.372 -0.2032  0.2522  0.0115
  135TMC2    C2 2097   2.075   0.538  10.296 -0.4852 -0.4697 -0.2521
  135TMC2    C3 2098   2.005   0.443  10.366  0.5386  0.0426  0.3226
  135TMC2    C4 2099   2.104   0.642  10.507  0.3871  0.2888 -0.4477
  135TMC2    C5 2100   2.050   0.534  10.574  0.3302  0.2319  0.3520
  135TMC2    C6 2101   1.997   0.434  10.503  0.4996  0.5432 -0.3684
  135TMC2     C 2102   2.178   0.760  10.309 -0.3038 -0.3822  0.3828
  135TMC2     O 2103   2.143   0.866  10.352 -1.0658 -0.1742  0.0905
  135TMC2     H 2104   2.079   0.540  10.187 -1.7366  0.3623 -0.2874
  135TMC2    H1 2105   2.150   0.723  10.563  0.7250 -0.3876  0.2475
  135TMC2    H2 2106   1.975   0.340  10.553 -0.4144  1.1394  0.3417
  135TMC2    C7 2107   2.005   0.559  10.714 -0.0313  0.2277  0.0641
  135TMC2    C8 2108   1.973   0.326  10.285 -0.1442  0.0723  0.3366
  135TMC2    O1 2109   2.061   0.658  10.761 -0.0946 -0.0773  0.0529
  135TMC2    O2 2110   2.057   0.253  10.230 -0.1036 -0.0562  0.1850
  135TMC2    O5 2111   1.864   0.273  10.347 -0.0572 -0.2275  0.2876
  135TMC2    H5 2112   1.804   0.329  10.400 -0.3938 -0.5207  0.2186
  136MPD2     C 2113   2.342   0.954  10.175  0.0625  0.0919 -0.5001
  136MPD2    C1 2114   2.346   0.813  10.152 -0.4889  0.1154 -0.6895
  136MPD2    C2 2115   2.407   0.753  10.043  0.6387  0.0358 -0.0986
  136MPD2    C3 2116   2.459   0.834   9.948 -0.2920  0.1622  0.0092
  136MPD2    C4 2117   2.458   0.976   9.970  0.3411 -0.5516  0.3844
  136MPD2    C5 2118   2.395   1.034  10.076  0.4034 -0.7145 -0.2245
  136MPD2     H 2119   2.407   0.645  10.028  0.1883 -0.0608  0.5755
  136MPD2    H1 2120   2.489   1.040   9.888  1.7982 -1.5934  0.1205
  136MPD2    H2 2121   2.293   0.997  10.262 -1.2370  0.2212 -1.2988
  136MPD2    H3 2122   2.399   1.140  10.099  0.0657 -0.4280 -1.5120
  136MPD2     N 2123   2.504   0.795   9.819 -0.5024  0.1455 -0.5780
  136MPD2    H5 2124   2.535   0.867   9.755 -0.5107  1.0367  0.4266
  136MPD2    N1 2125   2.284   0.728  10.233 -0.1262  0.1519  0.4269
  136MPD2    H7 2126   2.292   0.628  10.218  0.5541  0.1682  0.6877
  137TMC2    C1 2127   2.150   0.651   9.787 -0.4102  0.0147 -0.4900
  137TMC2    C2 2128   2.158   0.690   9.653  0.2691  0.0772 -0.2626
  137TMC2    C3 2129   2.116   0.815   9.620  0.3087  0.3993 -0.2745
  137TMC2    C4 2130   2.115   0.745   9.881  0.0237 -0.2442 -0.6811
  137TMC2    C5 2131   2.055   0.864   9.845 -0.7816  0.0852 -0.0172
  137TMC2    C6 2132   2.071   0.907   9.713 -0.2222 -0.3506 -1.0198
  137TMC2     C 2133   2.169   0.511   9.828 -0.5142 -0.2919  0.0338
  137TMC2     O 2134   2.166   0.494   9.947 -0.5496 -0.3833  0.6663
  137TMC2     H 2135   2.202   0.626   9.577  0.1031  0.0692 -0.3525
  137TMC2    H1 2136   2.114   0.724   9.987  1.8370  1.9966 -0.2221
  137TMC2    H2 2137   2.015   0.996   9.687 -2.1491 -0.9338  1.1127
  137TMC2    C7 2138   1.929   0.872   9.917 -0.2358 -0.6357  1.2947
  137TMC2    C8 2139   2.100   0.837   9.478  0.5853  1.0594  0.1740
  137TMC2    O1 2140   1.866   0.978   9.923  0.3048 -0.1943 -0.1918
  137TMC2    O2 2141   2.069   0.749   9.403 -0.0557  0.1970  0.0763
  137TMC2    O5 2142   2.104   0.971   9.460  0.2161 -0.0578  0.4302
  137TMC2    H5 2143   2.142   1.019   9.536 -0.3014 -0.5657  1.0068
  138MPD2     C 2144   2.097   0.208   9.632 -0.7077 -0.3017 -0.0386
  138MPD2    C1 2145   2.128   0.282   9.745 -0.0022  0.9606  0.1961
  138MPD2    C2 2146   2.108   0.225   9.868  0.7180 -0.2479 -0.3021
  138MPD2    C3 2147   2.076   0.099   9.883  0.1923  0.0778 -0.2743
  138MPD2    C4 2148   2.055   0.018   9.774  0.1042 -0.1393  1.1570
  138MPD2    C5 2149   2.073   0.072   9.648 -0.0069 -0.3407  0.3184
  138MPD2     H 2150   2.097   0.279   9.961  1.4627 -1.1582  0.3029
  138MPD2    H1 2151   2.035   4.649   9.780 -0.5376 -0.0829  0.0025
  138MPD2    H2 2152   2.116   0.247   9.532 -1.6833  0.8901  0.2306
  138MPD2    H3 2153   2.057   0.002   9.567  0.9379  1.7226 -1.6605
  138MPD2     N 2154   2.058   0.044  10.016 -0.3615  0.8268  0.5052
  138MPD2    H5 2155   2.060   0.115  10.089  1.4216 -0.0079  1.2761
  138MPD2    N1 2156   2.146   0.419   9.727  0.7834 -0.5774 -0.4790
  138MPD2    H7 2157   2.136   0.464   9.637  0.7210  0.3686  0.0040
  139TMC2    C1 2158   2.188   2.868  13.422  0.0243 -0.6045  0.2178
  139TMC2    C2 2159   2.233   2.924  13.304  0.7912  0.4304 -0.1156
  139TMC2    C3 2160   2.170   3.039  13.275  0.0161 -0.3700 -0.2675
  139TMC2    C4 2161   2.109   2.932  13.513  0.2642 -0.1705  0.3706
  139TMC2    C5 2162   2.061   3.055  13.483 -0.6767  0.5453  0.0240
  139TMC2    C6 2163   2.099   3.112  13.360  0.9221  0.0673  0.3209
  139TMC2     C 2164   2.244   2.737  13.450  0.5210  0.0499  0.1703
  139TMC2     O 2165   2.345   2.708  13.386  0.0444 -0.0134 -0.1821
  139TMC2     H 2166   2.287   2.862  13.234  0.0307 -1.7832  1.2448
  139TMC2    H1 2167   2.079   2.886  13.607  0.6197  1.1835  1.1443
  139TMC2    H2 2168   2.044   3.198  13.322  0.6562 -0.5624 -0.7308
  139TMC2    C7 2169   2.034   3.152  13.588 -0.2638  0.2116 -0.2453
  139TMC2    C8 2170   2.167   3.065  13.134  0.4019  1.1003 -0.5918
  139TMC2    O1 2171   2.014   3.264  13.551  0.1120 -0.1909  0.5762
  139TMC2    O2 2172   2.251   3.001  13.069  0.0403 -0.3761 -0.6771
  139TMC2    O5 2173   2.039   3.063  13.112  0.2177  0.0755 -0.0152
  139TMC2    H5 2174   1.983   3.090  13.188 -0.3942 -1.1372 -0.0297
  140MPD2     C 2175   2.157   2.484  13.707 -0.7437  0.4394  0.0705
  140MPD2    C1 2176   2.220   2.539  13.597 -0.1320 -0.1722  0.5193
  140MPD2    C2 2177   2.298   2.451  13.523  0.6363  0.1660  0.0308
  140MPD2    C3 2178   2.325   2.324  13.563  0.8325 -0.6143 -0.1399
  140MPD2    C4 2179   2.277   2.273  13.681 -0.4141  0.7571 -0.2128
  140MPD2    C5 2180   2.187   2.355  13.749  0.3714  0.1477 -0.6006
  140MPD2     H 2181   2.346   2.482  13.431 -0.1733  0.8041 -0.1778
  140MPD2    H1 2182   2.299   2.174  13.720  0.6195  1.3647  0.7342
  140MPD2    H2 2183   2.081   2.533  13.767  0.9253  1.5224  1.3254
  140MPD2    H3 2184   2.152   2.309  13.840 -0.2675  0.4734 -0.6829
  140MPD2     N 2185   2.401   2.246  13.471  0.5929  0.6621 -0.1076
  140MPD2    H5 2186   2.394   2.295  13.382 -1.7820 -0.0763 -0.3250
  140MPD2    N1 2187   2.183   2.669  13.555  0.3269 -0.4720 -0.6787
  140MPD2    H7 2188   2.115   2.720  13.610  1.1683 -1.2122  1.0439
  141TMC2    C1 2189   3.209   3.657  14.088  0.4138  0.5127  0.2632
  141TMC2    C2 2190   3.168   3.567  14.182 -0.9790 -0.4805  0.0449
  141TMC2    C3 2191   3.176   3.606  14.308 -0.3814  0.2520  0.0263
  141TMC2    C4 2192   3.268   3.773  14.111 -0.1281 -0.5548 -1.0723
  141TMC2    C5 2193   3.278   3.806  14.241  0.5545 -0.3482 -0.1573
  141TMC2    C6 2194   3.223   3.730  14.341 -0.3264 -0.2051 -0.2332
  141TMC2     C 2195   3.168   3.646  13.950 -0.3341 -0.7483  0.9571
  141TMC2     O 2196   3.108   3.740  13.904  0.0328  0.6808 -0.3076
  141TMC2     H 2197   3.101   3.487  14.155  0.5142 -1.9404  0.6933
  141TMC2    H1 2198   3.299   3.838  14.030 -1.7789  0.7658 -0.6616
  141TMC2    H2 2199   3.235   3.752  14.446  1.5530 -3.3030  0.1823
  141TMC2    C7 2200   3.317   3.937  14.275  0.1367  0.0230  0.0613
  141TMC2    C8 2201   3.098   3.534  14.405 -0.1021  1.4336  0.2639
  141TMC2    O1 2202   3.390   3.945  14.370  0.1130  0.2501  0.1695
  141TMC2    O2 2203   3.001   3.479  14.355  0.2173 -0.3421 -0.2480
  141TMC2    O5 2204   3.128   3.559  14.535 -0.1717  0.3159 -0.3819
  141TMC2    H5 2205   3.205   3.616  14.552  1.1953 -1.0422 -2.0300
  142TMC2    C1 2206   0.217   3.520   9.472 -0.4521 -0.1197  0.2419
  142TMC2    C2 2207   0.141   3.594   9.390  0.9943 -0.3811 -0.7434
  142TMC2    C3 2208   0.210   3.693   9.324  0.5362 -0.5706  0.4020
  142TMC2    C4 2209   0.350   3.542   9.510 -0.5037  0.2781  0.6065
  142TMC2    C5 2210   0.414   3.645   9.447  0.6951  0.0860  0.4373
  142TMC2    C6 2211   0.340   3.725   9.353  0.4469 -0.2636 -0.6220
  142TMC2     C 2212   0.154   3.407   9.533  0.1028  0.3746 -0.2482
  142TMC2     O 2213   0.033   3.403   9.525 -0.8163 -0.2320  0.5066
  142TMC2     H 2214   0.033   3.583   9.390  0.7673  1.8838 -1.1253
  142TMC2    H1 2215   0.399   3.481   9.585  0.6996 -2.9014 -2.7175
  142TMC2    H2 2216   0.378   3.810   9.298 -1.2766 -0.9324 -2.8390
  142TMC2    C7 2217   0.544   3.677   9.503 -0.3799  0.0966 -0.5809
  142TMC2    C8 2218   0.135   3.759   9.225 -0.0955  0.2963  0.0059
  142TMC2    O1 2219   0.586   3.603   9.590  0.3396  0.2590  0.0244
  142TMC2    O2 2220   0.168   3.872   9.196  0.4681 -0.6409  0.5058
  142TMC2    O5 2221   0.075   3.665   9.143 -0.0297 -0.2810  0.8822
  142TMC2    H5 2222   0.064   3.579   9.189 -2.9172  0.4758  1.6040
  143MPD2     C 2223   0.177   2.938   9.735 -0.4498 -0.7256  0.7410
  143MPD2    C1 2224   0.071   3.030   9.732 -0.1290 -0.4891  0.3441
  143MPD2    C2 2225   0.088   3.156   9.675 -0.4133  0.1573 -0.6698
  143MPD2    C3 2226   0.217   3.187   9.641 -0.3565 -0.2462  1.1599
  143MPD2    C4 2227   0.327   3.103   9.653 -0.1876  0.7723  0.0272
  143MPD2    C5 2228   0.301   2.972   9.691  0.5192 -0.1359  0.4829
  143MPD2     H 2229   0.015   3.236   9.671  0.3385  1.0423  2.8203
  143MPD2    H1 2230   0.427   3.133   9.622  0.7454 -1.9388  0.3967
  143MPD2    H2 2231   0.163   2.835   9.764  1.1624 -0.8876  0.9401
  143MPD2    H3 2232   0.376   2.894   9.690 -1.4572 -2.0613  3.7793
  143MPD2     N 2233   0.244   3.310   9.579  0.2342 -0.1620 -0.1804
  143MPD2    H5 2234   0.339   3.325   9.547 -0.2072 -2.6833 -2.7061
  143MPD2    N1 2235   4.689   2.982   9.788 -0.1262  0.1281 -0.6969
  143MPD2    H7 2236   4.688   2.886   9.822  0.3920 -0.0189 -1.0977
  144TMC2    C1 2237   3.975   1.318   0.803 -0.6064  0.5817 -0.0875
  144TMC2    C2 2238   4.009   1.193   0.836 -0.1487  0.0551  0.3158
  144TMC2    C3 2239   4.134   1.174   0.879 -0.2176 -0.3201  0.3348
  144TMC2    C4 2240   4.057   1.431   0.824 -0.3675  0.6019 -0.2843
  144TMC2    C5 2241   4.179   1.402   0.889 -0.0707 -0.2159 -0.4177
  144TMC2    C6 2242   4.219   1.271   0.915 -0.4047 -0.2102  0.1476
  144TMC2     C 2243   3.873   1.315   0.703 -0.1233 -0.0719 -0.3668
  144TMC2     O 2244   3.853   1.210   0.647  0.6247 -0.0049 -0.5048
  144TMC2     H 2245   3.941   1.109   0.826  2.3054 -1.5634 -2.8211
  144TMC2    H1 2246   4.036   1.530   0.786 -0.1441  1.1992  1.1299
  144TMC2    H2 2247   4.300   1.252   0.983  0.4109 -1.2631 -1.1263
  144TMC2    C7 2248   4.281   1.499   0.893 -0.1636  0.2551  0.1237
  144TMC2    C8 2249   4.172   1.033   0.912  0.3696 -0.3809 -0.2246
  144TMC2    O1 2250   4.394   1.449   0.889  0.5796  0.0738 -0.3203
  144TMC2    O2 2251   4.095   0.960   0.966  0.3361 -0.2459 -0.2617
  144TMC2    O5 2252   4.309   1.033   0.924 -0.2852 -0.8554  0.1744
  144TMC2    H5 2253   4.346   1.073   0.843 -1.2409 -0.5858 -0.1326
  145MPD2     C 2254   3.480   1.565   0.476 -0.3689  0.8142  0.3366
  145MPD2    C1 2255   3.525   1.437   0.449  0.0038  0.1339 -0.0081
  145MPD2    C2 2256   3.637   1.397   0.529  0.8589  0.0512 -0.0171
  145MPD2    C3 2257   3.683   1.468   0.636  0.5015 -0.2959 -0.4089
  145MPD2    C4 2258   3.619   1.580   0.670  0.0487 -0.7628  0.4124
  145MPD2    C5 2259   3.527   1.631   0.586  0.2837  0.1922  0.4210
  145MPD2     H 2260   3.685   1.306   0.496 -0.7273 -0.8238  0.1161
  145MPD2    H1 2261   3.650   1.644   0.752 -0.9600  0.6240 -0.3008
  145MPD2    H2 2262   3.420   1.629   0.413 -0.4081 -0.0610 -0.5141
  145MPD2    H3 2263   3.484   1.726   0.617  0.2429  0.6771 -1.1142
  145MPD2     N 2264   3.798   1.434   0.716  0.1495 -0.0121 -0.1453
  145MPD2    H5 2265   3.831   1.503   0.783  0.3660  0.2641 -0.5314
  145MPD2    N1 2266   3.485   1.353   0.341 -0.0407 -0.6007  0.0863
  145MPD2    H7 2267   3.535   1.268   0.320 -0.4860  0.0233 -3.4532
  146TMC2    C1 2268   4.336   0.200  12.696 -0.0925  0.0426  0.0757
  146TMC2    C2 2269   4.234   0.260  12.635 -0.9631  0.3701  0.7131
  146TMC2    C3 2270   4.212   0.226  12.506 -0.3017  0.5979  0.0569
  146TMC2    C4 2271   4.437   0.121  12.638 -0.0741 -0.5748 -0.0213
  146TMC2    C5 2272   4.424   0.113  12.502 -0.4526 -0.8884  0.6089
  146TMC2    C6 2273   4.313   0.154  12.434  0.2232  0.0997  0.8452
  146TMC2     C 2274   4.352   0.243  12.833  0.0547  0.6628 -0.0458
  146TMC2     O 2275   4.293   0.345  12.867  0.5655 -0.2059 -0.3660
  146TMC2     H 2276   4.157   0.322  12.679 -1.8634 -0.0387 -0.2936
  146TMC2    H1 2277   4.514   0.065  12.691 -0.1829 -0.5195  0.1934
  146TMC2    H2 2278   4.311   0.157  12.326  0.9298 -0.7410  0.8054
  146TMC2    C7 2279   4.533   0.041  12.433 -0.0547  0.5050 -0.0950
  146TMC2    C8 2280   4.096   0.284  12.434  0.3570 -0.2312  0.4010
  146TMC2    O1 2281   4.502   0.000  12.320 -0.1697 -0.3198  0.2336
  146TMC2    O2 2282   4.031   0.374  12.487  0.1359 -0.5458 -0.0312
  146TMC2    O5 2283   4.050   0.185  12.354 -0.1400 -0.2239  0.6964
  146TMC2    H5 2284   4.113   0.111  12.337 -1.2741 -1.0219 -0.0563
  147MPD2     C 2285   0.280   4.622  12.361  0.1501 -0.2383 -0.1085
  147MPD2    C1 2286   0.255   4.614  12.496 -0.7457  0.1200 -0.4271
  147MPD2    C2 2287   0.132   4.660  12.546  0.1458  0.6203  0.4996
  147MPD2    C3 2288   0.025   4.696  12.457 -0.1425 -0.1646 -0.3186
  147MPD2    C4 2289   0.059   4.691  12.313  0.0591 -0.3646  0.1043
  147MPD2    C5 2290   0.182   4.664  12.272  0.3245  0.4320 -0.8331
  147MPD2     H 2291   0.106   4.656  12.652 -0.7462  0.6121  0.2845
  147MPD2    H1 2292   4.720   4.720  12.243  1.3011  3.6448  0.4140
  147MPD2    H2 2293   0.371   4.577  12.322 -0.3873 -2.6917  1.5407
  147MPD2    H3 2294   0.207   4.655  12.167  0.6533 -2.5449 -0.5115
  147MPD2     N 2295   4.642   0.008  12.508  0.9058  0.0120 -0.1211
  147MPD2    H5 2296   4.637   0.020  12.609 -0.3494  1.3700 -0.3475
  147MPD2    N1 2297   0.358   4.562  12.579 -0.7371 -0.1700  0.0969
  147MPD2    H7 2298   0.449   4.540  12.539 -1.4381 -0.4464 -1.3405
  148TMC2    C1 2299   1.098   3.822  10.481  0.1005  0.5485  0.8306
  148TMC2    C2 2300   1.232   3.791  10.499  0.3722 -0.0589 -0.2561
  148TMC2    C3 2301   1.263   3.661  10.516 -0.2052 -0.3899 -0.2343
  148TMC2    C4 2302   1.002   3.725  10.460 -0.7040 -0.4527  0.8565
  148TMC2    C5 2303   1.054   3.592  10.468  0.1754 -0.0404  0.3538
  148TMC2    C6 2304   1.181   3.553  10.499  0.5175  0.1320  1.0688
  148TMC2     C 2305   1.053   3.967  10.482 -0.4262  0.1279 -0.4165
  148TMC2     O 2306   1.142   4.056  10.478  0.1053 -0.1430 -0.2447
  148TMC2     H 2307   1.303   3.873  10.497  1.0466 -0.6680 -1.0479
  148TMC2    H1 2308   0.899   3.746  10.434 -0.9886 -2.5119  0.3383
  148TMC2    H2 2309   1.212   3.452  10.526  2.1304  0.5705  0.8730
  148TMC2    C7 2310   0.943   3.498  10.489 -0.0579  0.1605  0.4020
  148TMC2    C8 2311   1.402   3.619  10.474 -0.1844 -0.2982 -0.1942
  148TMC2    O1 2312   0.833   3.523  10.432  0.1830 -0.0581 -0.0369
  148TMC2    O2 2313   1.423   3.508  10.428 -0.0190 -0.2037  0.1272
  148TMC2    O5 2314   1.500   3.700  10.530 -0.6197  0.1703 -0.1335
  148TMC2    H5 2315   1.472   3.792  10.550 -2.2229 -0.8453  2.2077
  149MPD2     C 2316   0.887   4.218  10.475  0.1022  0.1502  0.0604
  149MPD2    C1 2317   0.839   4.087  10.484  0.2742 -0.8430  0.0246
  149MPD2    C2 2318   0.707   4.067  10.504  0.1237 -1.1889  0.0810
  149MPD2    C3 2319   0.618   4.171  10.486  0.4237 -0.4477  0.7735
  149MPD2    C4 2320   0.663   4.296  10.466 -0.7974  0.1320  0.4183
  149MPD2    C5 2321   0.797   4.320  10.446  0.6261 -0.1652 -0.7978
  149MPD2     H 2322   0.672   3.965  10.515 -3.1708  0.0432  1.0897
  149MPD2    H1 2323   0.587   4.372  10.451 -1.2071 -0.5034 -0.6736
  149MPD2    H2 2324   0.992   4.241  10.458  1.1637 -3.9437  1.0334
  149MPD2    H3 2325   0.821   4.424  10.429  0.4187  0.2945  1.7350
  149MPD2     N 2326   0.484   4.130  10.481 -0.1865  0.1161 -0.8326
  149MPD2    H5 2327   0.467   4.030  10.490  1.7098 -0.1212  0.1399
  149MPD2    N1 2328   0.917   3.974  10.490  0.9891 -0.0232  0.1435
  149MPD2    H7 2329   0.872   3.883  10.500  0.2300  0.4181  0.6474
  150TMC2    C1 2330   1.619   2.826  12.438 -0.5642 -0.0579 -0.5068
  150TMC2    C2 2331   1.563   2.952  12.467  0.2441  0.6001 -0.5148
  150TMC2    C3 2332   1.645   3.064  12.462  0.0343 -0.1861 -0.7221
  150TMC2    C4 2333   1.752   2.798  12.441  0.9095  0.0933 -0.3123
  150TMC2    C5 2334   1.825   2.913  12.457  0.0630  0.1557  0.0578
  150TMC2    C6 2335   1.776   3.040  12.455  0.8984  0.2105 -0.1919
  150TMC2     C 2336   1.525   2.718  12.423 -0.6980  0.5257  0.6568
  150TMC2     O 2337   1.562   2.604  12.454  0.1006 -0.8261 -0.7819
  150TMC2     H 2338   1.457   2.960  12.487  0.6122  1.5884  1.0322
  150TMC2    H1 2339   1.787   2.697  12.422  0.8533  0.2699 -1.3173
  150TMC2    H2 2340   1.838   3.127  12.468  0.1500  0.4884  1.5932
  150TMC2    C7 2341   1.969   2.911  12.429  0.2305  0.2458 -0.4685
  150TMC2    C8 2342   1.606   3.190  12.530  0.1967 -0.0461  0.7978
  150TMC2    O1 2343   2.007   3.001  12.356  0.4685 -0.3851 -0.8524
  150TMC2    O2 2344   1.658   3.300  12.521  0.3322 -0.3369  0.6640
  150TMC2    O5 2345   1.498   3.171  12.607  0.1810  0.1212 -0.0254
  150TMC2    H5 2346   1.488   3.075  12.625  1.1075  0.3589  1.7340
  151MPD2     C 2347   1.020   2.638  12.431  0.0523  0.7055  0.3899
  151MPD2    C1 2348   1.045   2.719  12.332  0.0068 -0.1451  0.1281
  151MPD2    C2 2349   1.178   2.752  12.310 -0.0517  0.9845  0.4841
  151MPD2    C3 2350   1.284   2.696  12.378  0.3647  0.4104 -0.5386
  151MPD2    C4 2351   1.255   2.601  12.474  0.5775 -0.0694 -0.3740
  151MPD2    C5 2352   1.125   2.579  12.508 -0.5419  0.1131 -0.3784
  151MPD2     H 2353   1.197   2.834  12.243 -2.4490  0.2505 -1.0922
  151MPD2    H1 2354   1.330   2.561  12.542 -0.0883 -2.8578 -1.2761
  151MPD2    H2 2355   0.919   2.603  12.450  0.5010  0.4346  2.2598
  151MPD2    H3 2356   1.095   2.508  12.584  1.5898 -1.4244 -1.0039
  151MPD2     N 2357   1.405   2.764  12.374 -0.3436 -0.1310  0.3415
  151MPD2    H5 2358   1.403   2.843  12.310  3.3652 -0.1814  0.1589
  151MPD2    N1 2359   0.929   2.785  12.266 -0.2838  0.3741  0.1298
  151MPD2    H7 2360   0.835   2.755  12.289 -0.2847 -0.5859 -1.1163
  152TMC2    C1 2361   1.734   2.838  12.872 -0.2862 -0.3766  0.2574
  152TMC2    C2 2362   1.795   2.733  12.937  0.2269  0.4032 -0.0339
  152TMC2    C3 2363   1.932   2.730  12.931  0.9463  0.2682  0.0447
  152TMC2    C4 2364   1.814   2.945  12.827 -0.1266  0.1233  0.5493
  152TMC2    C5 2365   1.954   2.943  12.839  0.0197  0.1973 -0.3723
  152TMC2    C6 2366   2.014   2.829  12.882 -0.6312  0.6925 -0.0814
  152TMC2     C 2367   1.593   2.852  12.845 -0.6871 -0.6181  0.1841
  152TMC2     O 2368   1.563   2.934  12.757 -0.0337 -0.2522 -0.1344
  152TMC2     H 2369   1.739   2.644  12.964 -0.1650  0.4243 -0.7731
  152TMC2    H1 2370   1.767   3.035  12.791 -0.2618  0.6536  2.0467
  152TMC2    H2 2371   2.121   2.814  12.888 -0.7840 -0.4224 -0.2525
  152TMC2    C7 2372   2.027   3.042  12.763 -0.5703  0.0530 -0.2505
  152TMC2    C8 2373   2.007   2.632  13.020  0.3550 -0.5017  0.5465
  152TMC2    O1 2374   1.961   3.121  12.700  0.2037  0.2044  0.1937
  152TMC2    O2 2375   2.120   2.654  13.065 -0.3763  0.0703  0.7374
  152TMC2    O5 2376   1.936   2.515  13.024  0.0577  0.4955  0.0847
  152TMC2    H5 2377   1.853   2.511  12.972 -0.3678  0.0470  0.8010
  153MPD2     C 2378   1.306   2.734  13.032  0.0059 -0.8429  0.1313
  153MPD2    C1 2379   1.376   2.781  12.923  0.1833  0.1722  0.2435
  153MPD2    C2 2380   1.302   2.827  12.819 -0.2235  0.3462  0.5523
  153MPD2    C3 2381   1.166   2.819  12.819 -0.3849  0.1044 -0.3972
  153MPD2    C4 2382   1.093   2.774  12.924 -0.6699  0.2777  0.0559
  153MPD2    C5 2383   1.173   2.722  13.028 -0.0810 -0.1407 -0.2553
  153MPD2     H 2384   1.355   2.866  12.732 -0.4955  0.3056  0.3682
  153MPD2    H1 2385   0.986   2.772  12.937 -0.9208  3.1097 -1.8124
  153MPD2    H2 2386   1.356   2.687  13.116 -2.2988 -0.7457  1.5632
  153MPD2    H3 2387   1.122   2.684  13.116  0.8257  2.3492  1.3608
  153MPD2     N 2388   1.106   2.882  12.708 -0.3039  0.0569 -0.3633
  153MPD2    H5 2389   1.176   2.917  12.643  0.3149 -2.4387 -1.0165
  153MPD2    N1 2390   1.513   2.777  12.930 -0.8771 -0.0201  0.2159
  153MPD2    H7 2391   1.556   2.732  13.010 -1.5708  0.7012  0.9876
  154TMC2    C1 2392   4.337   3.310   0.144 -0.2218  1.0665 -0.2952
  154TMC2    C2 2393   4.373   3.184   0.176 -0.1271 -0.1493  0.4046
  154TMC2    C3 2394   4.417   3.100   0.082  1.0023  0.3668  0.3167
  154TMC2    C4 2395   4.329   3.345   0.014  0.5170  0.2874 -0.2621
  154TMC2    C5 2396   4.383   3.260  17.669 -0.5073 -0.0431  0.3108
  154TMC2    C6 2397   4.430   3.140  17.699 -0.2109 -0.3101  0.2267
  154TMC2     C 2398   4.264   3.390   0.240 -0.4382 -0.2527 -0.5186
  154TMC2     O 2399   4.231   3.342   0.346  0.3350 -0.4086  0.2438
  154TMC2     H 2400   4.386   3.158   0.280 -0.6459 -1.9577  0.0217
  154TMC2    H1 2401   4.277   3.432  17.725  3.3749  2.4229  0.7957
  154TMC2    H2 2402   4.461   3.066  17.625 -0.4141  0.6633 -0.8248
  154TMC2    C7 2403   4.386   3.313  17.533  0.7010 -0.3863 -0.0669
  154TMC2    C8 2404   4.463   2.965   0.122 -0.2788  0.6926  0.0863
  154TMC2    O1 2405   4.414   3.430  17.518 -0.3782 -0.3286  0.1509
  154TMC2    O2 2406   4.550   2.903   0.069 -0.0013  0.2532  0.7670
  154TMC2    O5 2407   4.372   2.916   0.212 -0.1451 -0.3358 -0.4958
  154TMC2    H5 2408   4.297   2.978   0.205 -0.1530 -0.3325 -0.3819
  155MPD2     C 2409   4.297   3.760   0.249 -0.7791 -0.4951  0.7006
  155MPD2    C1 2410   4.248   3.634   0.279 -1.3806  0.2620  0.4068
  155MPD2    C2 2411   4.168   3.621   0.394 -0.0333  0.4521  0.3792
  155MPD2    C3 2412   4.144   3.730   0.470  0.2476 -0.4095 -0.0052
  155MPD2    C4 2413   4.210   3.845   0.452  0.4085 -0.0477  0.1427
  155MPD2    C5 2414   4.287   3.864   0.334 -0.3837 -0.7373  0.4820
  155MPD2     H 2415   4.123   3.527   0.424 -1.1023  0.2286 -1.9543
  155MPD2    H1 2416   4.211   3.924   0.526  2.7953  0.7829 -0.7534
  155MPD2    H2 2417   4.355   3.776   0.159 -2.8033  0.1016 -0.5098
  155MPD2    H3 2418   4.337   3.955   0.303 -1.2565 -0.6600 -0.6699
  155MPD2     N 2419   4.062   3.699   0.577  0.7510 -0.6714  0.3774
  155MPD2    H5 2420   4.029   3.603   0.574  1.6803 -1.0539  2.0269
  155MPD2    N1 2421   4.274   3.515   0.198  0.1366 -0.3562  0.3697
  155MPD2    H7 2422   4.326   3.530   0.112 -1.7557 -0.2047 -0.7349
  156TMC2    C1 2423   2.200   1.201  11.786  0.9324  0.4390 -0.2757
  156TMC2    C2 2424   2.160   1.082  11.718  0.2280 -0.6956 -0.0502
  156TMC2    C3 2425   2.112   1.098  11.593  1.0416  0.0897  0.0326
  156TMC2    C4 2426   2.197   1.322  11.735  0.0317 -0.0944  0.1492
  156TMC2    C5 2427   2.141   1.336  11.614  0.1957 -0.9269 -0.3586
  156TMC2    C6 2428   2.102   1.227  11.535 -0.3112 -0.1389 -0.2408
  156TMC2     C 2429   2.177   1.212  11.924  0.6755  0.3054 -0.5393
  156TMC2     O 2430   2.139   1.324  11.956  0.1901 -0.2718  0.8338
  156TMC2     H 2431   2.157   0.989  11.772  0.1101 -0.6037  0.1016
  156TMC2    H1 2432   2.230   1.415  11.778  0.2072  0.9363 -2.2114
  156TMC2    H2 2433   2.054   1.236  11.439 -1.9279 -3.3713  0.2425
  156TMC2    C7 2434   2.098   1.462  11.558 -0.4313  0.1295  0.5247
  156TMC2    C8 2435   2.126   0.975  11.514 -0.2606 -0.0519 -0.0797
  156TMC2    O1 2436   2.074   1.465  11.443  0.0250 -0.0260 -0.6871
  156TMC2    O2 2437   2.184   0.881  11.561  0.6160  0.1765  0.0751
  156TMC2    O5 2438   2.101   0.998  11.386  0.4238  0.4039  0.1836
  156TMC2    H5 2439   2.044   1.073  11.357 -0.8421 -0.2376  1.0046
  157MPD2     C 2440   2.155   0.946  12.186 -0.0876 -0.6242  1.5287
  157MPD2    C1 2441   2.119   1.057  12.113 -0.6174 -0.0911 -0.2737
  157MPD2    C2 2442   2.020   1.138  12.161  0.2549  0.2644 -0.3881
  157MPD2    C3 2443   1.945   1.101  12.273  0.1296 -0.3795  0.1932
  157MPD2    C4 2444   1.991   1.002  12.348  0.3864 -0.1871 -0.3992
  157MPD2    C5 2445   2.092   0.925  12.299  0.1201  0.5235 -0.3997
  157MPD2     H 2446   1.998   1.228  12.104 -2.0489  1.3824  2.2875
  157MPD2    H1 2447   1.931   0.980  12.435  0.1769  0.8083 -0.2941
  157MPD2    H2 2448   2.236   0.879  12.160 -0.1759 -0.2559  0.2812
  157MPD2    H3 2449   2.123   0.841  12.360 -1.5309  1.1414  1.3230
  157MPD2     N 2450   1.834   1.173  12.321 -0.9816  0.5522 -0.1307
  157MPD2    H5 2451   1.792   1.138  12.406  0.5724 -0.4568  0.2143
  157MPD2    N1 2452   2.188   1.095  11.996  0.4366  0.0656 -0.4968
  157MPD2    H7 2453   2.229   1.023  11.939  2.8130  1.5095 -0.6196
  158TMC2    C1 2454   2.504   4.003  12.971  0.0470  0.6442  0.8752
  158TMC2    C2 2455   2.546   4.074  12.860  0.1116  0.4226  0.2126
  158TMC2    C3 2456   2.468   4.180  12.827 -0.5213  0.2958 -0.1623
  158TMC2    C4 2457   2.398   4.039  13.045 -0.0474  0.3412 -0.9350
  158TMC2    C5 2458   2.329   4.151  13.006  0.1599  0.2581  0.0964
  158TMC2    C6 2459   2.362   4.220  12.900  0.3558 -0.6859  0.2474
  158TMC2     C 2460   2.578   3.885  12.995  0.3761  1.1022 -1.1968
  158TMC2     O 2461   2.665   3.859  12.913  0.3075 -0.3806  0.9090
  158TMC2     H 2462   2.618   4.034  12.790 -0.4018  0.1524 -0.1618
  158TMC2    H1 2463   2.356   3.968  13.115  1.1849  1.1040  0.6038
  158TMC2    H2 2464   2.296   4.297  12.860  0.4379 -0.3908  0.6766
  158TMC2    C7 2465   2.200   4.185  13.066  0.3587  0.5149  0.1559
  158TMC2    C8 2466   2.464   4.223  12.692  0.5235  0.7049  0.1117
  158TMC2    O1 2467   2.119   4.242  12.994 -0.2011 -0.2794  0.1044
  158TMC2    O2 2468   2.490   4.152  12.598  0.1463  0.4161 -0.1595
  158TMC2    O5 2469   2.471   4.360  12.686  0.2613 -0.2061  0.0607
  158TMC2    H5 2470   2.436   4.407  12.765 -1.0731 -3.0415  1.1634
  159MPD2     C 2471   2.780   3.502  13.269 -0.0944 -0.4482 -0.1954
  159MPD2    C1 2472   2.718   3.587  13.353  1.0973  0.9572  0.4738
  159MPD2    C2 2473   2.635   3.690  13.306 -0.1635 -0.8410 -0.1195
  159MPD2    C3 2474   2.625   3.717  13.167 -0.2203  0.4174 -0.2897
  159MPD2    C4 2475   2.691   3.626  13.085  0.0123  0.8510 -1.0923
  159MPD2    C5 2476   2.776   3.527  13.132  0.2720 -0.4261 -0.3110
  159MPD2     H 2477   2.577   3.760  13.365 -1.5616 -1.2427 -1.0315
  159MPD2    H1 2478   2.681   3.634  12.978  1.7216  0.7787 -1.2451
  159MPD2    H2 2479   2.847   3.424  13.304 -0.4386 -0.1508  1.1084
  159MPD2    H3 2480   2.827   3.463  13.061  1.1217  1.2054 -1.1718
  159MPD2     N 2481   2.558   3.830  13.121 -0.2380  0.2630  0.2298
  159MPD2    H5 2482   2.487   3.868  13.184 -0.0588 -0.5123  0.8985
  159MPD2    N1 2483   2.753   3.585  13.493 -0.1071 -0.0553 -0.2151
  159MPD2    H7 2484   2.806   3.505  13.527  0.7692 -0.7771 -3.2585
  160TMC2    C1 2485   2.232   2.139   1.667  1.0056  0.6187 -0.3728
  160TMC2    C2 2486   2.199   2.094   1.792 -0.4070 -0.0938  0.3546
  160TMC2    C3 2487   2.298   2.034   1.866 -0.0064 -0.0326 -0.0579
  160TMC2    C4 2488   2.363   2.145   1.614 -1.0210  0.3289  0.1783
  160TMC2    C5 2489   2.459   2.097   1.697  0.3628  0.2755  0.2116
  160TMC2    C6 2490   2.430   2.043   1.823 -0.3382  0.3566 -0.3946
  160TMC2     C 2491   2.127   2.123   1.577  0.0853 -0.7277  0.3690
  160TMC2     O 2492   2.063   2.019   1.581 -0.0414  0.0802 -0.1373
  160TMC2     H 2493   2.095   2.092   1.821  0.1088 -0.3246  2.1931
  160TMC2    H1 2494   2.383   2.176   1.511  1.1556 -0.0750  0.4869
  160TMC2    H2 2495   2.507   2.004   1.888 -0.8224  1.6737  0.9690
  160TMC2    C7 2496   2.589   2.062   1.643 -0.3363 -0.1255  0.2852
  160TMC2    C8 2497   2.276   2.011   2.010 -1.0458  0.1569  0.2487
  160TMC2    O1 2498   2.651   1.966   1.684  0.3039 -0.1020  0.2127
  160TMC2    O2 2499   2.350   2.048   2.101 -0.1614 -0.2590  0.2733
  160TMC2    O5 2500   2.168   1.931   2.028  0.0571  0.6545  0.6257
  160TMC2    H5 2501   2.133   1.907   1.939  1.9262 -0.5619  0.2074
  161MPD2     C 2502   1.929   2.142   1.369 -0.5357 -0.1873  0.5379
  161MPD2    C1 2503   2.033   2.228   1.374 -0.5976  0.0258  0.0419
  161MPD2    C2 2504   2.077   2.301   1.265 -0.9171  0.0223  0.5333
  161MPD2    C3 2505   2.001   2.286   1.147  0.0174  0.2203 -0.5049
  161MPD2    C4 2506   1.889   2.208   1.147 -0.2847 -0.0821 -0.3626
  161MPD2    C5 2507   1.854   2.136   1.256 -0.0820  0.7083 -0.3536
  161MPD2     H 2508   2.166   2.362   1.283 -1.5407  0.1922  3.0098
  161MPD2    H1 2509   1.840   2.195   1.052 -3.5181  2.2444  1.0074
  161MPD2    H2 2510   1.894   2.087   1.456  1.0402 -0.3905  1.0331
  161MPD2    H3 2511   1.765   2.075   1.257  0.9328 -0.8178 -1.7740
  161MPD2     N 2512   2.026   2.355   1.025 -0.0299 -0.3820  0.7776
  161MPD2    H5 2513   1.957   2.338   0.953 -0.0429 -1.1646  0.9811
  161MPD2    N1 2514   2.121   2.223   1.479  0.1589  0.3941  0.1746
  161MPD2    H7 2515   2.192   2.295   1.484 -0.4081  1.0721 -1.5091
  162TMC2    C1 2516   0.811   4.453   0.994  0.2104  0.1140  0.2734
  162TMC2    C2 2517   0.744   4.529   1.089  0.0358  0.1913  0.9086
  162TMC2    C3 2518   0.793   4.529   1.210 -0.4285  0.1717  0.4843
  162TMC2    C4 2519   0.932   4.400   1.011  0.7425  0.4281 -0.8698
  162TMC2    C5 2520   0.983   4.401   1.140  0.5664  0.1055  0.4516
  162TMC2    C6 2521   0.915   4.466   1.240  0.2160 -0.0414 -0.8664
  162TMC2     C 2522   0.751   4.441   0.860 -0.5981 -0.0864 -0.3743
  162TMC2     O 2523   0.830   4.415   0.774  0.0163 -0.5671  0.2452
  162TMC2     H 2524   0.643   4.563   1.070  0.4813  0.4910 -0.9308
  162TMC2    H1 2525   0.974   4.337   0.933  1.5915 -0.6649  0.4697
  162TMC2    H2 2526   0.960   4.480   1.338 -0.3721 -1.2635 -0.4246
  162TMC2    C7 2527   1.110   4.335   1.170  0.1910  0.4856 -0.7817
  162TMC2    C8 2528   0.715   4.605   1.303 -0.2663 -0.4256  0.9695
  162TMC2    O1 2529   1.159   4.358   1.280  0.1751 -0.5881 -0.0389
  162TMC2    O2 2530   0.635   4.690   1.261 -0.1963 -0.0058  0.4789
  162TMC2    O5 2531   0.751   4.596   1.440 -0.0223  0.0505 -0.0237
  162TMC2    H5 2532   0.795   4.510   1.457 -2.7572 -1.6603 -1.6983
  163MPD2     C 2533   0.379   4.399   0.503  0.6447  0.3305 -0.1872
  163MPD2    C1 2534   0.504   4.352   0.501  0.7648  0.1395 -0.3723
  163MPD2    C2 2535   0.589   4.380   0.614 -0.2425 -0.2497 -0.4304
  163MPD2    C3 2536   0.539   4.443   0.724  0.4108  0.0926 -0.0632
  163MPD2    C4 2537   0.410   4.496   0.724  0.4837  0.5964  0.4424
  163MPD2    C5 2538   0.335   4.473   0.612  0.7388 -0.1234 -0.6035
  163MPD2     H 2539   0.687   4.335   0.626 -0.1563  0.4618  1.5246
  163MPD2    H1 2540   0.369   4.551   0.808  0.3288 -2.0058  2.0740
  163MPD2    H2 2541   0.313   4.381   0.419  2.9068 -1.3626 -1.5961
  163MPD2    H3 2542   0.238   4.522   0.606 -0.6319 -2.5633  1.3703
  163MPD2     N 2543   0.613   4.466   0.842  0.2000 -0.2971  0.1922
  163MPD2    H5 2544   0.571   4.493   0.931 -1.8101 -0.6272 -0.6745
  163MPD2    N1 2545   0.538   4.270   0.395  0.1680  0.2424 -0.2910
  163MPD2    H7 2546   0.471   4.252   0.321 -0.1001  2.0421 -0.4744
  164TMC2    C1 2547   0.782   4.190  10.914  0.2462  0.0766  0.3339
  164TMC2    C2 2548   0.884   4.279  10.898 -0.2334  0.2112 -0.6335
  164TMC2    C3 2549   0.849   4.408  10.917 -1.0837  0.0945 -0.0805
  164TMC2    C4 2550   0.661   4.224  10.963  0.1948  0.5642  0.4054
  164TMC2    C5 2551   0.628   4.357  10.973  0.3155 -0.4055  0.4604
  164TMC2    C6 2552   0.726   4.452  10.953 -0.5251 -0.0144  0.1215
  164TMC2     C 2553   0.805   4.055  10.872 -0.3699 -0.0953  0.6085
  164TMC2     O 2554   0.714   3.971  10.901 -0.1460  0.0874  0.6780
  164TMC2     H 2555   0.984   4.263  10.859 -0.6810  2.9673 -2.8818
  164TMC2    H1 2556   0.597   4.141  10.993  0.0871  0.3224 -0.4995
  164TMC2    H2 2557   0.710   4.557  10.970  0.3157  0.2045 -0.4652
  164TMC2    C7 2558   0.534   4.407  11.079  0.3849 -1.0623 -0.0384
  164TMC2    C8 2559   0.941   4.505  10.857 -0.5501  0.2272 -0.1021
  164TMC2    O1 2560   0.502   4.522  11.055 -0.2173  0.4495 -0.5575
  164TMC2    O2 2561   1.061   4.498  10.889  0.4989  0.6359  0.8128
  164TMC2    O5 2562   0.875   4.615  10.827  0.2752 -0.6483 -0.1818
  164TMC2    H5 2563   0.782   4.616  10.796  0.2165 -0.5107  0.0007
  165TMC2    C1 2564   2.002   1.527   1.512 -0.9188 -0.0624 -0.4924
  165TMC2    C2 2565   2.030   1.619   1.614  0.0160  0.3366  0.2719
  165TMC2    C3 2566   2.152   1.614   1.671  0.1911 -1.0652 -0.0422
  165TMC2    C4 2567   2.106   1.447   1.466 -0.2920 -0.2425 -0.5697
  165TMC2    C5 2568   2.230   1.448   1.524 -0.7226  0.6653 -0.6764
  165TMC2    C6 2569   2.253   1.533   1.628  0.1737  0.0015  0.7803
  165TMC2     C 2570   1.865   1.490   1.487 -0.4320 -0.3858  0.1593
  165TMC2     O 2571   1.848   1.377   1.445  0.3427 -0.0988  0.1545
  165TMC2     H 2572   1.949   1.666   1.669 -0.0439 -0.6230  1.0030
  165TMC2    H1 2573   2.093   1.376   1.385  1.1959  0.0248 -1.0461
  165TMC2    H2 2574   2.351   1.545   1.673  0.2525 -2.2009  1.2003
  165TMC2    C7 2575   2.345   1.404   1.452  0.1059  0.7182 -0.4693
  165TMC2    C8 2576   2.170   1.732   1.765 -0.5217  0.2758 -0.1103
  165TMC2    O1 2577   2.448   1.376   1.516  0.1359 -0.3173  0.3553
  165TMC2    O2 2578   2.076   1.795   1.813  1.0822  0.2921  0.1426
  165TMC2    O5 2579   2.298   1.751   1.792  0.1484 -0.0031  0.4123
  165TMC2    H5 2580   2.356   1.723   1.717 -0.9133  1.0894 -0.8071
  166MPD2     C 2581   1.374   1.497   1.638 -0.0836 -0.0310 -0.4443
  166MPD2    C1 2582   1.463   1.393   1.632 -0.8910  0.2452 -0.3694
  166MPD2    C2 2583   1.595   1.425   1.587  0.3725 -0.4595 -0.1590
  166MPD2    C3 2584   1.642   1.547   1.556 -0.3999  0.8303  0.9331
  166MPD2    C4 2585   1.554   1.648   1.573 -0.2637  0.6567  0.2228
  166MPD2    C5 2586   1.422   1.619   1.612  0.0694 -0.4705 -0.4811
  166MPD2     H 2587   1.660   1.340   1.569 -0.1199 -1.0134  0.6723
  166MPD2    H1 2588   1.583   1.750   1.551 -0.5953  0.3465 -1.6805
  166MPD2    H2 2589   1.274   1.491   1.679 -0.1737  1.2376 -0.4698
  166MPD2    H3 2590   1.347   1.697   1.618  0.7290  0.3070 -2.2144
  166MPD2     N 2591   1.774   1.580   1.521 -0.2707 -0.7910 -0.0160
  166MPD2    H5 2592   1.794   1.679   1.520 -1.3566 -0.5750 -3.1565
  166MPD2    N1 2593   1.413   1.263   1.647  0.0433  0.0992 -0.6508
  166MPD2    H7 2594   1.313   1.272   1.659  0.3650 -1.2265  2.7677
  167TMC2    C1 2595   4.646   3.849  12.904 -0.2236 -0.4348 -0.3736
  167TMC2    C2 2596   4.566   3.861  13.013  0.1025 -0.3678 -0.1370
  167TMC2    C3 2597   4.506   3.747  13.051  0.5205  0.6168 -0.6958
  167TMC2    C4 2598   4.673   3.725  12.838  0.5110  0.6698 -0.5383
  167TMC2    C5 2599   4.619   3.614  12.898 -0.6990 -0.1883  0.5961
  167TMC2    C6 2600   4.527   3.627  13.006  0.0041  0.3350 -0.4013
  167TMC2     C 2601   4.709   3.970  12.861 -0.3211 -0.2586  0.2648
  167TMC2     O 2602   4.733   4.057  12.945  0.2632  0.7976  0.2856
  167TMC2     H 2603   4.532   3.953  13.057  1.6447  0.9110 -1.6248
  167TMC2    H1 2604   0.020   3.718  12.770  1.6108 -1.7626  1.1063
  167TMC2    H2 2605   4.489   3.540  13.058  2.1289 -0.7406 -0.6457
  167TMC2    C7 2606   4.631   3.484  12.835 -0.1624  0.0774  0.7884
  167TMC2    C8 2607   4.437   3.757  13.181  0.0341  0.3615  0.2895
  167TMC2    O1 2608   4.562   3.395  12.880 -0.1429  0.1209  0.2309
  167TMC2    O2 2609   4.447   3.664  13.261 -0.6166  0.2865 -0.4090
  167TMC2    O5 2610   4.309   3.804  13.146  0.1214 -0.1724 -0.2246
  167TMC2    H5 2611   4.320   3.867  13.072  0.8719  2.0876  1.8340
  168MPD2     C 2612   0.026   4.219  12.696  0.1158 -1.1791  0.1895
  168MPD2    C1 2613   0.008   4.092  12.646  0.5169 -0.2674  0.1204
  168MPD2    C2 2614   4.722   4.078  12.513 -0.1462 -0.4670  1.0348
  168MPD2    C3 2615   4.724   4.186  12.428 -0.2140  0.0039 -0.1926
  168MPD2    C4 2616   0.005   4.317  12.484 -0.1470  0.0064  0.1641
  168MPD2    C5 2617   0.024   4.325  12.616 -0.3758  0.0619  0.1762
  168MPD2     H 2618   4.694   3.978  12.480  1.6988 -0.9127  0.7991
  168MPD2    H1 2619   4.733   4.408  12.426  5.6494  0.2979 -0.3245
  168MPD2    H2 2620   0.023   4.238  12.803  0.1589  1.0238 -0.1900
  168MPD2    H3 2621   0.052   4.424  12.651  0.7808 -0.3647  0.4549
  168MPD2     N 2622   4.704   4.178  12.291 -0.3374 -0.2946  0.0206
  168MPD2    H5 2623   4.701   4.265  12.238 -0.1401 -0.0768  0.3629
  168MPD2    N1 2624   4.723   3.975  12.719 -0.0642  0.2663  0.4061
  168MPD2    H7 2625   4.697   3.889  12.673  1.2677  0.5692 -0.9363
  169MPD1     C 2626   2.285   4.262   8.941  0.3956 -0.0390  0.1496
  169MPD1    C1 2627   2.403   4.225   9.000 -0.4452 -0.0139  0.2963
  169MPD1    C2 2628   2.400   4.164   9.131 -0.0759  0.7388  0.2692
  169MPD1    C3 2629   2.285   4.165   9.201 -0.2954  0.3246 -0.6741
  169MPD1    C4 2630   2.168   4.218   9.142  0.4962  0.0047 -0.5108
  169MPD1    C5 2631   2.168   4.266   9.013 -0.6607  0.2254 -0.7447
  169MPD1     H 2632   2.483   4.110   9.177 -0.3286  0.1413  0.0258
  169MPD1    H1 2633   2.072   4.227   9.190  0.2079 -1.2525 -0.8546
  169MPD1    H2 2634   2.285   4.303   8.840 -0.9954 -0.7040 -0.1221
  169MPD1    H3 2635   2.075   4.293   8.963  0.1856  0.9060 -1.9329
  169MPD1     N 2636   2.278   4.108   9.333  0.3365 -0.2235  0.1253
  169MPD1    H5 2637   2.352   4.044   9.362 -1.9222 -2.6190  0.6051
  169MPD1    N1 2638   2.516   4.218   8.921  0.3973  0.8093 -0.1126
  169MPD1    H6 2639   2.514   4.286   8.846  0.9723  0.1768 -0.7075
  169MPD1    H7 2640   2.605   4.230   8.968 -0.3341 -0.8549  1.6950
  170MPD1     C 2641   0.832   0.652  12.653  0.5941 -0.4648 -0.1998
  170MPD1    C1 2642   0.901   0.596  12.765  0.3717  0.4911 -0.4248
  170MPD1    C2 2643   0.933   0.686  12.874  0.0484  0.5275 -0.6828
  170MPD1    C3 2644   0.878   0.818  12.880  0.6524  0.0461  0.6495
  170MPD1    C4 2645   0.817   0.859  12.759 -0.1922  0.0521  0.0784
  170MPD1    C5 2646   0.796   0.780  12.650  0.1276 -0.8505  0.3350
  170MPD1     H 2647   0.999   0.655  12.954 -0.4126 -0.1989 -0.5782
  170MPD1    H1 2648   0.774   0.959  12.758 -0.8971 -0.2605 -0.6709
  170MPD1    H2 2649   0.796   0.592  12.571 -0.3835  1.0791 -0.8989
  170MPD1    H3 2650   0.745   0.824  12.565  2.8226  1.0520 -0.3147
  170MPD1     N 2651   0.911   0.897  12.997  0.3789 -0.0935 -0.5900
  170MPD1    H5 2652   0.961   0.846  13.069  0.7162  1.2330  0.1168
  170MPD1    N1 2653   0.949   0.466  12.763  0.3947 -0.5675 -0.0428
  170MPD1    H6 2654   0.979   0.434  12.855  2.0750  1.0752 -0.0112
  170MPD1    H7 2655   0.902   0.389  12.716  0.0395  0.4467 -1.3524
  171MPD1     C 2656   4.372   2.500  15.471  0.1295  0.2612  0.2395
  171MPD1    C1 2657   4.395   2.379  15.400  0.0306  0.6016  0.6086
  171MPD1    C2 2658   4.403   2.260  15.471  0.3043  0.2830  0.1881
  171MPD1    C3 2659   4.375   2.258  15.609 -0.5600 -0.7466 -0.4774
  171MPD1    C4 2660   4.350   2.373  15.676  0.6027 -0.5347  0.8300
  171MPD1    C5 2661   4.352   2.491  15.604 -0.2926 -0.5301  0.6383
  171MPD1     H 2662   4.433   2.168  15.421 -1.7383  0.1315 -0.7433
  171MPD1    H1 2663   4.327   2.380  15.782 -1.1031  1.3319  0.3403
  171MPD1    H2 2664   4.376   2.594  15.417  2.1330  0.8055  1.3542
  171MPD1    H3 2665   4.341   2.578  15.668  1.4681  0.3409 -0.2468
  171MPD1     N 2666   4.380   2.142  15.691  0.1780  0.3673 -0.5126
  171MPD1    H5 2667   4.359   2.157  15.789  1.5887 -1.1404  0.0250
  171MPD1    N1 2668   4.440   2.382  15.267 -0.1254 -0.3762  0.0358
  171MPD1    H6 2669   4.436   2.295  15.214 -2.0019  0.5525 -1.3490
  171MPD1    H7 2670   4.428   2.463  15.206 -0.7210 -0.0942  0.5266
  172MPD1     C 2671   4.029   1.389  17.215 -0.5221  0.4038  0.3261
  172MPD1    C1 2672   3.945   1.495  17.261 -1.1596  0.5914  0.3216
  172MPD1    C2 2673   3.906   1.479  17.393  0.5682 -0.2037  0.0535
  172MPD1    C3 2674   3.956   1.380  17.481 -0.3326 -0.0381  0.8285
  172MPD1    C4 2675   4.059   1.294  17.434 -0.0661  0.1930  0.7167
  172MPD1    C5 2676   4.085   1.296  17.296  0.5174 -0.1028  0.2405
  172MPD1     H 2677   3.835   1.552  17.428 -0.9059 -0.4838 -2.3283
  172MPD1    H1 2678   4.110   1.224  17.500 -0.5979 -1.2376 -0.3935
  172MPD1    H2 2679   4.056   1.392  17.110 -0.4334 -1.2784  0.3057
  172MPD1    H3 2680   4.159   1.227  17.256  2.4944  1.1532  1.7615
  172MPD1     N 2681   3.919   1.362  17.618 -0.4288 -0.3085  0.0976
  172MPD1    H5 2682   3.957   1.283  17.669 -0.2875 -1.4452 -1.7823
  172MPD1    N1 2683   3.879   1.578  17.173 -0.2845 -0.4257  0.3880
  172MPD1    H6 2684   3.929   1.608  17.090  1.3124 -1.4493  0.9990
  172MPD1    H7 2685   3.851   1.664  17.221 -2.2942 -0.3351 -0.9552
  173MPD1     C 2686   4.608   1.553  14.460  0.1372  0.9100  0.2787
  173MPD1    C1 2687   4.604   1.426  14.422 -0.1707 -0.3229  0.2119
  173MPD1    C2 2688   4.682   1.340  14.486 -0.3422 -0.6135  0.0900
  173MPD1    C3 2689   0.004   1.368  14.611 -0.0179  0.3373 -0.4291
  173MPD1    C4 2690   0.007   1.503  14.659 -0.1073  0.4379  1.2020
  173MPD1    C5 2691   4.676   1.588  14.577  0.2576 -0.2572  0.2282
  173MPD1     H 2692   4.695   1.240  14.448 -0.0922 -0.2076 -0.9020
  173MPD1    H1 2693   0.061   1.533  14.748 -1.0743  2.3107  1.1551
  173MPD1    H2 2694   4.553   1.632  14.409  1.2450  2.0117  0.8103
  173MPD1    H3 2695   4.682   1.692  14.606 -3.3212  0.2958 -1.0401
  173MPD1     N 2696   0.069   1.254  14.669  0.5035  0.0726 -0.2753
  173MPD1    H5 2697   0.065   1.167  14.617 -0.6220  0.2040 -0.4112
  173MPD1    N1 2698   4.543   1.385  14.301  0.5492 -0.3489  0.2634
  173MPD1    H6 2699   4.481   1.456  14.261  1.5755  0.2641 -0.2453
  173MPD1    H7 2700   4.494   1.296  14.305  2.2748 -1.3107  0.1300
  174MPD1     C 2701   0.641   0.575  14.492  0.5118 -0.2815  0.9402
  174MPD1    C1 2702   0.511   0.531  14.486  0.1701  0.3675  0.5617
  174MPD1    C2 2703   0.427   0.597  14.573 -0.0619 -0.0216  0.5329
  174MPD1    C3 2704   0.460   0.714  14.645  0.3578  0.1355 -0.2510
  174MPD1    C4 2705   0.597   0.744  14.654  0.2693 -0.5972  0.6085
  174MPD1    C5 2706   0.688   0.674  14.574  0.0586 -0.8749  0.2240
  174MPD1     H 2707   0.320   0.579  14.566  0.3633 -2.8629  1.1782
  174MPD1    H1 2708   0.638   0.833  14.698 -1.1405  0.4865 -0.2764
  174MPD1    H2 2709   0.723   0.538  14.432  1.0804  3.2804 -0.4579
  174MPD1    H3 2710   0.789   0.712  14.580 -0.1961 -0.4978  2.1741
  174MPD1     N 2711   0.361   0.809  14.695  0.3117  0.1811  0.6434
  174MPD1    H5 2712   0.391   0.895  14.738 -0.7850  0.2314  1.3020
  174MPD1    N1 2713   0.459   0.445  14.384 -1.1131 -0.3389 -0.4058
  174MPD1    H6 2714   0.364   0.410  14.396 -0.3912 -2.3816 -0.6430
  174MPD1    H7 2715   0.524   0.384  14.336  1.0247  0.7554  1.1114
  175MPD1     C 2716   3.929   2.491  15.699 -0.2503 -0.3984 -0.6819
  175MPD1    C1 2717   3.801   2.443  15.687 -0.9180  0.0136 -0.1142
  175MPD1    C2 2718   3.739   2.390  15.797 -0.1248 -0.2414  0.7529
  175MPD1    C3 2719   3.810   2.366  15.916 -0.4291 -0.4169  0.9197
  175MPD1    C4 2720   3.947   2.407  15.922 -0.2336 -0.0734  0.6017
  175MPD1    C5 2721   4.000   2.470  15.815 -0.3646  0.0873 -0.5039
  175MPD1     H 2722   3.643   2.341  15.783  0.2795 -1.1254  1.0556
  175MPD1    H1 2723   4.005   2.404  16.013 -0.7125  1.0729  0.9409
  175MPD1    H2 2724   3.986   2.536  15.618  1.1435 -0.4377  0.2853
  175MPD1    H3 2725   4.101   2.504  15.830 -0.2877  0.5021 -1.9703
  175MPD1     N 2726   3.753   2.296  16.029 -0.3639 -0.3727 -0.2140
  175MPD1    H5 2727   3.824   2.279  16.100 -1.5694 -0.7772  0.8895
  175MPD1    N1 2728   3.721   2.483  15.577  0.4039 -0.1637 -0.7868
  175MPD1    H6 2729   3.778   2.498  15.494 -0.2496  1.1928 -0.9804
  175MPD1    H7 2730   3.649   2.416  15.550 -1.1482  1.9627 -1.9152
  176MPD1     C 2731   0.912   4.230  17.645  0.7037  0.4200 -0.3260
  176MPD1    C1 2732   0.926   4.338  17.729 -0.4749 -0.6732 -0.6645
  176MPD1    C2 2733   0.901   4.460  17.670 -0.6267 -0.4171  0.7907
  176MPD1    C3 2734   0.860   4.474  17.537  0.4842  0.1322  0.1228
  176MPD1    C4 2735   0.843   4.364  17.457 -0.0986 -0.3236  0.3558
  176MPD1    C5 2736   0.875   4.248  17.512  0.1508  0.4218 -0.0165
  176MPD1     H 2737   0.915   4.553  17.723  1.0468  0.0938 -0.5464
  176MPD1    H1 2738   0.803   4.368  17.356  0.1562  0.5937  0.2941
  176MPD1    H2 2739   0.921   4.129  17.681  0.8835 -0.1481 -1.9674
  176MPD1    H3 2740   0.863   4.155  17.458 -0.3328 -0.8871  2.3233
  176MPD1     N 2741   0.845   4.608  17.482  0.2993 -0.2362 -0.1180
  176MPD1    H5 2742   0.839   4.683  17.551  0.0051 -1.3798  1.1077
  176MPD1    N1 2743   0.962   4.326   0.117  0.0886 -0.3201  0.0218
  176MPD1    H6 2744   1.008   4.237   0.139  1.0513 -0.6784 -3.4099
  176MPD1    H7 2745   1.020   4.405   0.145  1.3679 -0.8428 -1.1076
  177MPD1     C 2746   3.563   4.354   9.754 -0.6013  0.2112  0.1417
  177MPD1    C1 2747   3.426   4.339   9.767  0.0624  0.2183 -0.1397
  177MPD1    C2 2748   3.345   4.332   9.657 -0.0189  0.0075  0.0396
  177MPD1    C3 2749   3.392   4.357   9.531  0.1808 -0.3038  0.3886
  177MPD1    C4 2750   3.529   4.391   9.524  0.1100  0.1085  0.2317
  177MPD1    C5 2751   3.611   4.387   9.638  0.8750  0.2183 -0.0065
  177MPD1     H 2752   3.239   4.311   9.664 -0.0403  0.2167  0.3358
  177MPD1    H1 2753   3.574   4.423   9.431 -0.5962  0.3623 -0.0215
  177MPD1    H2 2754   3.634   4.345   9.835 -1.6672  0.9366  1.1574
  177MPD1    H3 2755   3.718   4.400   9.625  0.8884 -0.0284 -0.1585
  177MPD1     N 2756   3.301   4.353   9.426  0.2854 -0.4786 -0.9452
  177MPD1    H5 2757   3.205   4.341   9.457 -0.0486  3.4203 -0.5520
  177MPD1    N1 2758   3.376   4.305   9.888  0.6222  0.0497  0.0176
  177MPD1    H6 2759   3.422   4.342   9.971 -0.4120  0.2519  0.5070
  177MPD1    H7 2760   3.277   4.330   9.891  1.1434  2.0888  0.1942
  178MPD1     C 2761   1.274   0.143  17.624  0.6024  0.0768 -0.0875
  178MPD1    C1 2762   1.397   0.175  17.567  0.3471 -0.1619 -0.3448
  178MPD1    C2 2763   1.430   0.113  17.448 -0.5991  0.2027 -0.5908
  178MPD1    C3 2764   1.346   0.029  17.385  0.9318 -0.2160  0.5159
  178MPD1    C4 2765   1.218   0.005  17.437 -0.3360 -0.4808 -0.5641
  178MPD1    C5 2766   1.187   0.068  17.559 -0.4093 -0.2767  0.6254
  178MPD1     H 2767   1.526   0.139  17.404 -0.7598 -1.5546 -2.0128
  178MPD1    H1 2768   1.152   4.664  17.402 -3.3627  1.2941  1.1170
  178MPD1    H2 2769   1.235   0.192  17.712 -0.8302  0.5572 -0.9839
  178MPD1    H3 2770   1.087   0.047  17.596 -0.8969 -0.1319 -0.6285
  178MPD1     N 2771   1.379   4.694  17.265  0.5429  0.5396 -0.7286
  178MPD1    H5 2772   1.309   4.639  17.216  0.6285 -1.2422  1.1810
  178MPD1    N1 2773   1.503   0.239  17.645  0.2598  0.0058 -0.2397
  178MPD1    H6 2774   1.564   0.288  17.580 -1.5941  2.8646  0.2051
  178MPD1    H7 2775   1.475   0.306  17.716  0.7939 -1.9451  1.8375
  179MPD1     C 2776   1.279   3.127  15.855  0.0236 -0.1541  0.6989
  179MPD1    C1 2777   1.198   3.222  15.790 -0.1414  0.3428 -0.0456
  179MPD1    C2 2778   1.068   3.236  15.828  0.1122 -0.3656 -0.1748
  179MPD1    C3 2779   1.030   3.179  15.950 -0.5268  0.4787 -0.1366
  179MPD1    C4 2780   1.121   3.118  16.030 -0.0865  0.3494  1.1050
  179MPD1    C5 2781   1.241   3.084  15.977  0.2856 -0.1601 -0.6714
  179MPD1     H 2782   0.999   3.304  15.779  0.1650  0.2075  0.5584
  179MPD1    H1 2783   1.083   3.073  16.121 -0.4351 -1.6087  0.0035
  179MPD1    H2 2784   1.377   3.098  15.818  0.1572 -1.2976  1.9500
  179MPD1    H3 2785   1.305   3.023  16.039 -1.9749  0.0030  1.8662
  179MPD1     N 2786   0.903   3.180  15.999  0.5253  0.8999  0.3581
  179MPD1    H5 2787   0.895   3.124  16.083 -0.5484  0.9477  0.2839
  179MPD1    N1 2788   1.230   3.269  15.658  0.2708  0.4144  0.5263
  179MPD1    H6 2789   1.327   3.279  15.629  0.2663  3.0393  1.4168
  179MPD1    H7 2790   1.187   3.356  15.625 -0.9286  0.1377  1.3397
  180MPD1     C 2791   1.406   4.037  14.786  0.1809 -0.2756 -0.4154
  180MPD1    C1 2792   1.426   4.161  14.730 -0.0578  0.8191  0.0526
  180MPD1    C2 2793   1.317   4.216  14.663  0.0579 -0.5823  0.1088
  180MPD1    C3 2794   1.188   4.171  14.698  0.6247  0.0871 -0.8518
  180MPD1    C4 2795   1.172   4.060  14.780  0.3488 -0.1265 -0.2710
  180MPD1    C5 2796   1.283   3.993  14.822  0.6688 -0.2628  0.2898
  180MPD1     H 2797   1.333   4.307  14.607  1.7079  0.1470  1.7862
  180MPD1    H1 2798   1.078   4.019  14.814  0.5631 -0.2147  0.2140
  180MPD1    H2 2799   1.487   3.990  14.839 -0.6106 -1.6616 -0.4452
  180MPD1    H3 2800   1.273   3.902  14.879 -1.2525 -0.2994 -0.1172
  180MPD1     N 2801   1.083   4.237  14.633 -0.1652 -0.1163 -0.5631
  180MPD1    H5 2802   1.097   4.325  14.586 -0.3697 -0.8278 -1.9495
  180MPD1    N1 2803   1.560   4.189  14.695 -0.8903 -0.3893 -0.3913
  180MPD1    H6 2804   1.581   4.283  14.661  1.2157  0.2652  2.6645
  180MPD1    H7 2805   1.615   4.170  14.778  1.1446  0.9372 -1.4482
  181MPD1     C 2806   3.363   2.719   9.426  0.2217  0.2752 -0.0661
  181MPD1    C1 2807   3.337   2.851   9.462  0.1650  0.7601  0.3627
  181MPD1    C2 2808   3.270   2.869   9.587 -0.0281 -0.5514  0.2056
  181MPD1    C3 2809   3.248   2.769   9.680 -0.1060  0.6154 -0.2978
  181MPD1    C4 2810   3.267   2.639   9.636 -0.1284  0.2588 -0.2825
  181MPD1    C5 2811   3.324   2.620   9.510 -0.1650 -0.2292 -0.2521
  181MPD1     H 2812   3.244   2.972   9.610 -0.8536 -0.5613 -0.6719
  181MPD1    H1 2813   3.237   2.551   9.691  0.8518 -0.2252 -0.5314
  181MPD1    H2 2814   3.395   2.689   9.327 -1.3496  0.4342 -0.6247
  181MPD1    H3 2815   3.332   2.516   9.481 -1.3140 -0.0232 -1.2902
  181MPD1     N 2816   3.202   2.778   9.814  0.2158 -0.3217  0.3323
  181MPD1    H5 2817   3.179   2.693   9.866  1.1599 -0.5461  0.3918
  181MPD1    N1 2818   3.356   2.964   9.381  0.1829  0.2866  0.2166
  181MPD1    H6 2819   3.373   3.055   9.422  0.5389 -0.0738  0.8557
  181MPD1    H7 2820   3.425   2.957   9.306  0.5546  1.0618  0.4867
  182MPD1     C 2821   2.939   0.621   1.544 -0.3001  0.3340  0.1467
  182MPD1    C1 2822   2.913   0.564   1.421 -0.1107  0.5709  0.9936
  182MPD1    C2 2823   3.026   0.540   1.342 -0.0906  0.0836  0.1445
  182MPD1    C3 2824   3.158   0.555   1.388 -0.0193 -0.1313 -0.7211
  182MPD1    C4 2825   3.173   0.604   1.512  0.1107  0.6146 -0.1895
  182MPD1    C5 2826   3.071   0.655   1.573  0.7447  0.6866 -0.5468
  182MPD1     H 2827   3.008   0.516   1.238  2.6846  0.1376 -0.3310
  182MPD1    H1 2828   3.273   0.611   1.553 -0.3335 -0.8998  1.1197
  182MPD1    H2 2829   2.855   0.647   1.607 -1.1083  0.9407 -1.1906
  182MPD1    H3 2830   3.088   0.724   1.655  0.5528 -2.2472  1.9508
  182MPD1     N 2831   3.274   0.525   1.311  0.3178  0.1224 -0.0819
  182MPD1    H5 2832   3.360   0.564   1.348  0.8705 -1.7522  0.5888
  182MPD1    N1 2833   2.781   0.564   1.359  0.4410  0.5840 -0.3460
  182MPD1    H6 2834   2.712   0.524   1.421 -0.1932  2.1431 -0.0612
  182MPD1    H7 2835   2.788   0.495   1.284  1.7184  0.2202  0.1074
  183MPD1     C 2836   3.136   1.426   9.173 -0.6804  0.0654 -0.5516
  183MPD1    C1 2837   3.051   1.488   9.258 -0.0417  0.7625 -0.0277
  183MPD1    C2 2838   3.107   1.565   9.361 -0.7036  0.4318 -0.0140
  183MPD1    C3 2839   3.241   1.582   9.375  0.5009 -0.3942 -0.2260
  183MPD1    C4 2840   3.324   1.516   9.293 -0.4766 -0.1775  0.2919
  183MPD1    C5 2841   3.273   1.431   9.197  0.7525 -0.1672 -0.7697
  183MPD1     H 2842   3.047   1.621   9.432  0.1765  1.2715  0.0609
  183MPD1    H1 2843   3.432   1.519   9.305 -0.3846 -0.5715 -0.4230
  183MPD1    H2 2844   3.088   1.362   9.100  0.6973 -1.3888 -0.1731
  183MPD1    H3 2845   3.347   1.377   9.138 -1.8638 -3.0297 -1.4621
  183MPD1     N 2846   3.285   1.650   9.488 -0.1882  0.5138 -0.3507
  183MPD1    H5 2847   3.214   1.689   9.549  1.5381  1.7250  0.8679
  183MPD1    N1 2848   2.911   1.486   9.236  0.3026 -0.5068 -0.4153
  183MPD1    H6 2849   2.891   1.394   9.196 -1.0023 -0.8442  1.0125
  183MPD1    H7 2850   2.854   1.499   9.320  0.3286 -2.8160 -0.0471
  184MPD1     C 2851   2.640   4.573  10.214 -0.4054 -0.8890 -1.0752
  184MPD1    C1 2852   2.520   4.555  10.151  0.4997 -0.2604  1.0666
  184MPD1    C2 2853   2.510   4.604  10.022 -0.1936 -0.6053 -0.1704
  184MPD1    C3 2854   2.614   4.650   9.946  0.3891  0.3317  0.0054
  184MPD1    C4 2855   2.735   4.660  10.003 -0.3824  0.3409  0.2737
  184MPD1    C5 2856   2.744   4.622  10.134  0.8373 -0.1773  0.7665
  184MPD1     H 2857   2.413   4.615   9.976 -0.3731 -2.2141 -0.1716
  184MPD1    H1 2858   2.818   4.701   9.947 -1.8223 -0.3937 -2.3822
  184MPD1    H2 2859   2.652   4.539  10.316 -0.7163 -3.1307 -1.7699
  184MPD1    H3 2860   2.837   4.630  10.189  1.2111  0.1777  0.0731
  184MPD1     N 2861   2.611   4.689   9.810 -0.3079  0.4938  0.1879
  184MPD1    H5 2862   2.697   4.727   9.773  0.4570 -0.7286  0.7116
  184MPD1    N1 2863   2.401   4.536  10.224 -0.0026 -0.3538 -0.4936
  184MPD1    H6 2864   2.336   4.487  10.162  2.1372 -1.9729 -1.4595
  184MPD1    H7 2865   2.411   4.463  10.294  2.3864 -0.5873 -1.0778
  185MPD1     C 2866   2.138   4.625   8.846 -0.0477  0.3346  0.1806
  185MPD1    C1 2867   2.083   4.665   8.968  0.1456  0.1030  0.5402
  185MPD1    C2 2868   2.172   4.688   9.066  0.7361 -1.2016 -0.4152
  185MPD1    C3 2869   2.306   4.656   9.057  0.7373  0.2961  0.1877
  185MPD1    C4 2870   2.356   4.601   8.940 -0.6901  0.0688 -0.4957
  185MPD1    C5 2871   2.266   4.592   8.836 -0.1967  0.4221 -0.6774
  185MPD1     H 2872   2.136   4.736   9.156  1.7667 -1.1067 -0.0548
  185MPD1    H1 2873   2.463   4.589   8.924 -0.6177 -0.6355  0.4898
  185MPD1    H2 2874   2.070   4.618   8.762 -1.3558 -0.2694  1.2924
  185MPD1    H3 2875   2.313   4.564   8.742  0.1642  0.8221 -0.6163
  185MPD1     N 2876   2.399   4.686   9.156  0.7580  0.1378  0.6992
  185MPD1    H5 2877   2.494   4.660   9.131  1.0716  1.3503  0.6183
  185MPD1    N1 2878   1.945   4.700   8.980 -0.1667  0.5271 -0.3296
  185MPD1    H6 2879   1.912   4.689   9.076  0.3873  0.6148 -0.1288
  185MPD1    H7 2880   1.886   4.634   8.930 -2.0952  1.0738  1.2133
  186MPD1     C 2881   0.929   4.107  15.571  0.9423 -0.9822 -0.7464
  186MPD1    C1 2882   0.864   4.012  15.647 -0.1017  0.2137 -0.5327
  186MPD1    C2 2883   0.929   3.944  15.754  0.6267  0.5875  0.1754
  186MPD1    C3 2884   1.066   3.971  15.776  0.0112  0.6470 -0.2163
  186MPD1    C4 2885   1.128   4.065  15.698  0.5817  0.7526  0.0462
  186MPD1    C5 2886   1.058   4.130  15.597 -0.5154 -0.0792  0.1783
  186MPD1     H 2887   0.883   3.869  15.817 -1.4541  1.2482 -0.5566
  186MPD1    H1 2888   1.232   4.095  15.707  1.4421 -1.8358 -1.1953
  186MPD1    H2 2889   0.882   4.154  15.486  0.0208  2.5895  1.7449
  186MPD1    H3 2890   1.105   4.202  15.531  1.8046 -1.2028  0.6351
  186MPD1     N 2891   1.135   3.911  15.878  0.0501  0.2537 -0.4099
  186MPD1    H5 2892   1.223   3.957  15.903  0.3476 -1.1349  1.1388
  186MPD1    N1 2893   0.725   4.003  15.638 -0.0534  0.4314  0.2110
  186MPD1    H6 2894   0.704   3.912  15.679 -0.3925 -0.6288 -2.2630
  186MPD1    H7 2895   0.680   4.009  15.546  1.2107 -5.3091 -0.8108
  187MPD1     C 2896   1.103   0.804  17.345  0.7885 -0.0242 -0.1210
  187MPD1    C1 2897   0.972   0.781  17.388 -0.4921  0.2173  0.6079
  187MPD1    C2 2898   0.882   0.749  17.288  0.3700 -0.1739  0.6965
  187MPD1    C3 2899   0.918   0.732  17.158 -0.3983  0.3356 -0.0671
  187MPD1    C4 2900   1.055   0.735  17.129  0.2792 -0.0105  0.0177
  187MPD1    C5 2901   1.149   0.779  17.217 -0.0731 -0.2561 -0.5016
  187MPD1     H 2902   0.778   0.754  17.317  0.3490  3.7620  0.0374
  187MPD1    H1 2903   1.104   0.705  17.037 -0.3812 -0.6876 -0.1171
  187MPD1    H2 2904   1.167   0.868  17.405  1.7363  0.5254 -1.7020
  187MPD1    H3 2905   1.253   0.789  17.189  0.6426 -0.1359  2.2006
  187MPD1     N 2906   0.822   0.711  17.060 -0.3269 -0.1289 -0.0975
  187MPD1    H5 2907   0.851   0.749  16.970  1.7214 -1.4639  0.0034
  187MPD1    N1 2908   0.925   0.836  17.513 -0.0055 -0.6345  0.4887
  187MPD1    H6 2909   0.832   0.804  17.540  0.1208 -0.5604  1.0049
  187MPD1    H7 2910   0.988   0.826  17.592  1.9786 -1.2259 -1.1552
  188MPD1     C 2911   0.359   0.925  10.378 -0.1407  0.1603  0.3411
  188MPD1    C1 2912   0.279   0.908  10.273 -0.1840 -0.0359  0.2613
  188MPD1    C2 2913   0.323   0.831  10.166  0.4563  0.4211 -0.1698
  188MPD1    C3 2914   0.450   0.777  10.155 -0.3428 -0.1914  0.3738
  188MPD1    C4 2915   0.530   0.803  10.260 -0.8539 -0.1237 -0.0136
  188MPD1    C5 2916   0.484   0.870  10.372 -0.2435  0.4740 -0.0802
  188MPD1     H 2917   0.258   0.823  10.080 -0.2161  0.6909  0.3153
  188MPD1    H1 2918   0.627   0.755  10.269 -0.7477  0.0319 -0.3251
  188MPD1    H2 2919   0.322   0.964  10.472  1.7425 -4.7693  3.1145
  188MPD1    H3 2920   0.552   0.872  10.456  0.2075  1.5879 -0.4670
  188MPD1     N 2921   0.487   0.683  10.066  0.1585 -0.1937  0.1318
  188MPD1    H5 2922   0.581   0.648  10.080 -0.1864 -1.2304 -0.1419
  188MPD1    N1 2923   0.144   0.946  10.288 -0.0219 -0.2005 -0.0205
  188MPD1    H6 2924   0.121   1.034  10.334  2.0304 -0.7361  1.9946
  188MPD1    H7 2925   0.107   0.955  10.193 -4.4814  1.5995  1.8690
  189MPD1     C 2926   2.045   1.502   0.882  0.8674  0.1854 -0.0235
  189MPD1    C1 2927   1.924   1.472   0.826  0.1091  0.6460  0.4378
  189MPD1    C2 2928   1.865   1.559   0.729 -0.4662 -0.1613  0.8168
  189MPD1    C3 2929   1.927   1.671   0.694  0.5925  0.0213 -0.3336
  189MPD1    C4 2930   2.045   1.707   0.756 -0.0524 -1.0130  0.2384
  189MPD1    C5 2931   2.104   1.620   0.850 -0.3893 -0.5356 -0.8495
  189MPD1     H 2932   1.776   1.526   0.677  0.8596 -0.5778 -1.1672
  189MPD1    H1 2933   2.091   1.802   0.732 -0.6396 -0.8446 -0.2053
  189MPD1    H2 2934   2.099   1.420   0.928  1.3355  0.1717 -0.6064
  189MPD1    H3 2935   2.204   1.649   0.881 -0.8943 -1.6325  1.8545
  189MPD1     N 2936   1.875   1.733   0.582  0.5407 -0.0698 -0.4050
  189MPD1    H5 2937   1.813   1.675   0.525  0.8679 -0.5766 -0.2472
  189MPD1    N1 2938   1.867   1.342   0.842  0.3479  0.3497 -0.6834
  189MPD1    H6 2939   1.900   1.301   0.929  1.0642  0.3838 -0.9398
  189MPD1    H7 2940   1.765   1.342   0.838  0.2707 -1.4074  1.7791
  190MPD1     C 2941   0.688   4.720  15.196  0.0014  0.1183  0.2468
  190MPD1    C1 2942   0.725   0.054  15.310  0.4501 -0.2279 -0.0359
  190MPD1    C2 2943   0.856   0.066  15.340 -0.3033 -0.0369  0.2343
  190MPD1    C3 2944   0.957   0.018  15.254 -0.6615  0.3631  0.2998
  190MPD1    C4 2945   0.916   4.695  15.138 -0.1853 -0.7199 -0.5936
  190MPD1    C5 2946   0.786   4.677  15.110 -0.1559  0.1074 -0.0172
  190MPD1     H 2947   0.881   0.102  15.439 -0.9553 -0.2484  0.4754
  190MPD1    H1 2948   0.980   4.655  15.060 -1.2905 -0.4995 -1.6223
  190MPD1    H2 2949   0.583   4.710  15.168  0.0630  3.2808 -1.1602
  190MPD1    H3 2950   0.759   4.627  15.018  3.3840 -1.5981 -0.1082
  190MPD1     N 2951   1.096   0.035  15.298 -0.1738 -0.2186 -0.6789
  190MPD1    H5 2952   1.107   0.068  15.394 -1.6095 -0.8059 -0.3095
  190MPD1    N1 2953   0.626   0.076  15.402 -0.0119 -0.6856 -0.3105
  190MPD1    H6 2954   0.651   0.149  15.468  1.5832  0.4758 -2.2080
  190MPD1    H7 2955   0.539   0.102  15.356 -0.1611  0.9355  0.9093
  191MPD1     C 2956   0.065   1.059  12.945  0.0447 -0.3272 -0.1122
  191MPD1    C1 2957   0.107   1.190  12.972  0.2237 -0.3621  0.5081
  191MPD1    C2 2958   0.011   1.290  12.957  0.0638  0.1451 -0.0356
  191MPD1    C3 2959   4.615   1.263  12.930 -0.0972 -0.5448  0.6214
  191MPD1    C4 2960   4.578   1.130  12.897  0.0781  0.0684  0.3845
  191MPD1    C5 2961   4.672   1.034  12.901  0.6927  0.0019  0.2992
  191MPD1     H 2962   0.044   1.386  12.995  0.0605 -0.1824  0.7837
  191MPD1    H1 2963   4.476   1.107  12.871  0.3495 -0.2658 -0.3832
  191MPD1    H2 2964   0.137   0.978  12.953 -0.4503 -0.8042 -0.4916
  191MPD1    H3 2965   4.654   0.935  12.860 -0.7088  0.5713 -0.4286
  191MPD1     N 2966   4.535   1.372  12.927  0.6538  0.5138  0.0551
  191MPD1    H5 2967   4.571   1.467  12.924  1.7891  0.0974  0.4988
  191MPD1    N1 2968   0.225   1.213  13.032  0.2190  0.2257 -0.2682
  191MPD1    H6 2969   0.292   1.147  12.992  0.6804  0.0283  0.8297
  191MPD1    H7 2970   0.263   1.307  13.034 -0.5210  0.4634  2.4057
  192MPD1     C 2971   3.606   1.872  13.233  0.2680 -0.4148 -0.5530
  192MPD1    C1 2972   3.617   1.739  13.189 -0.2802  0.4099  0.1878
  192MPD1    C2 2973   3.741   1.692  13.146 -0.5900  0.1376 -0.2857
  192MPD1    C3 2974   3.844   1.785  13.109  0.5731 -0.3874  1.1951
  192MPD1    C4 2975   3.827   1.918  13.145 -0.3506 -0.1919 -0.0659
  192MPD1    C5 2976   3.714   1.953  13.213  0.2339  1.1304 -0.6681
  192MPD1     H 2977   3.743   1.589  13.112  0.7328  0.5082 -1.3140
  192MPD1    H1 2978   3.904   1.992  13.129  0.2183 -0.6204  0.6831
  192MPD1    H2 2979   3.512   1.906  13.276  0.9635  1.2892 -0.4083
  192MPD1    H3 2980   3.704   2.051  13.259  0.5290  0.5283  0.6880
  192MPD1     N 2981   3.957   1.747  13.041 -0.1259 -0.6544 -0.0934
  192MPD1    H5 2982   4.012   1.825  13.006  0.2332 -0.4159  0.9978
  192MPD1    N1 2983   3.510   1.653  13.219  0.3300  0.0054  0.6423
  192MPD1    H6 2984   3.419   1.700  13.222 -0.9970 -2.4662 -0.7789
  192MPD1    H7 2985   3.512   1.560  13.178  1.1742  0.3267 -0.0478
  193MPD1     C 2986   4.223   1.728  17.125  0.0515 -0.0184 -0.0807
  193MPD1    C1 2987   4.343   1.668  17.147 -0.3809  0.0176  0.6208
  193MPD1    C2 2988   4.459   1.747  17.139  0.3588  0.0917 -0.5623
  193MPD1    C3 2989   4.449   1.883  17.135 -0.0570 -0.5230 -0.0623
  193MPD1    C4 2990   4.322   1.940  17.133 -0.0691 -0.1297  0.0194
  193MPD1    C5 2991   4.215   1.860  17.132  0.3823 -0.3957 -0.5120
  193MPD1     H 2992   4.555   1.697  17.148  1.3129  1.6931 -1.8269
  193MPD1    H1 2993   4.302   2.047  17.127  2.1167  0.3318  1.1101
  193MPD1    H2 2994   4.134   1.667  17.117  0.0068  0.2510 -1.6418
  193MPD1    H3 2995   4.120   1.909  17.117  0.1929  0.0602  2.2173
  193MPD1     N 2996   4.555   1.977  17.120  0.1393 -0.1214 -0.5029
  193MPD1    H5 2997   4.535   2.075  17.103  0.7297  0.0153 -0.3953
  193MPD1    N1 2998   4.334   1.522  17.158  0.6734 -0.4545  0.0289
  193MPD1    H6 2999   4.417   1.484  17.203  0.6481  0.7947  1.1253
  193MPD1    H7 3000   4.248   1.492  17.202  0.0349 -1.1625 -1.6715
  194MPD1     C 3001   3.779   4.277  16.552 -0.0320 -0.0586  0.1515
  194MPD1    C1 3002   3.838   4.302  16.674 -0.5250 -0.3008 -0.1551
  194MPD1    C2 3003   3.799   4.230  16.787 -0.0153 -0.0513 -0.0235
  194MPD1    C3 3004   3.700   4.134  16.772 -0.3020 -0.2746  0.8865
  194MPD1    C4 3005   3.651   4.105  16.647 -0.1931 -0.8820 -0.0892
  194MPD1    C5 3006   3.691   4.178  16.537 -0.5696 -1.0769 -0.0319
  194MPD1     H 3007   3.843   4.245  16.884  0.2315  0.5813 -0.2319
  194MPD1    H1 3008   3.577   4.030  16.621 -1.6128  0.4658  0.0635
  194MPD1    H2 3009   3.813   4.330  16.464  1.8072 -0.4221  0.6441
  194MPD1    H3 3010   3.652   4.150  16.439 -0.3274  0.1156 -0.4659
  194MPD1     N 3011   3.667   4.035  16.874  0.2313 -0.0371  0.2078
  194MPD1    H5 3012   3.596   3.967  16.848 -1.1404  0.3572  2.9210
  194MPD1    N1 3013   3.912   4.424  16.694 -0.2469 -0.0895 -0.1069
  194MPD1    H6 3014   3.961   4.468  16.616  1.2992 -0.3512  0.7182
  194MPD1    H7 3015   3.984   4.424  16.765 -0.2736 -1.1686 -0.0883
  195MPD1     C 3016   4.725   1.708  17.384 -0.2448 -0.4703  0.4802
  195MPD1    C1 3017   4.647   1.647  17.482 -0.1114 -0.0397 -0.4916
  195MPD1    C2 3018   4.689   1.514  17.509  0.3411 -0.1173 -0.2061
  195MPD1    C3 3019   0.058   1.451  17.448 -0.2886 -0.2961  0.7742
  195MPD1    C4 3020   0.128   1.521  17.354  0.5694 -0.7213 -0.3731
  195MPD1    C5 3021   0.093   1.645  17.322  0.3123  1.0838 -0.8826
  195MPD1     H 3022   4.627   1.474  17.589 -1.3436 -0.1609 -1.5283
  195MPD1    H1 3023   0.208   1.477  17.295  0.7520  0.6350 -1.1345
  195MPD1    H2 3024   4.706   1.804  17.337 -0.0561  0.2400  1.8607
  195MPD1    H3 3025   0.151   1.704  17.252 -2.6492  1.3599 -3.0947
  195MPD1     N 3026   0.075   1.310  17.460  0.6207  0.2254 -1.1596
  195MPD1    H5 3027   0.159   1.271  17.418  0.7253 -0.8752  0.0722
  195MPD1    N1 3028   4.529   1.699  17.538 -0.2959 -0.4696 -0.0613
  195MPD1    H6 3029   4.498   1.654  17.623  0.6141 -0.4557  0.2788
  195MPD1    H7 3030   4.539   1.800  17.553 -3.0788 -0.0357 -1.1066
  196MPD1     C 3031   3.913   4.612   0.259 -0.0602 -0.0358  0.8906
  196MPD1    C1 3032   3.967   0.002   0.262  0.1320  0.5136  0.4056
  196MPD1    C2 3033   4.022   0.047   0.377 -0.0859 -0.3606 -0.5581
  196MPD1    C3 3034   4.010   4.713   0.498  0.2783 -0.6200 -0.5213
  196MPD1    C4 3035   3.936   4.595   0.487  0.0848 -0.4482  0.1221
  196MPD1    C5 3036   3.890   4.546   0.374 -0.2865 -0.2742  0.6326
  196MPD1     H 3037   4.061   0.148   0.384 -0.4052 -0.1892 -1.2261
  196MPD1    H1 3038   3.918   4.534   0.575 -0.1071  0.5170  0.7618
  196MPD1    H2 3039   3.874   4.568   0.168  0.7353  1.2276 -0.0642
  196MPD1    H3 3040   3.836   4.453   0.385 -0.9174 -0.0058 -0.1612
  196MPD1     N 3041   4.056   0.030   0.625 -0.4230 -0.2517 -0.7048
  196MPD1    H5 3042   4.034   4.717   0.710  0.7338  0.0871 -0.1997
  196MPD1    N1 3043   3.981   0.063   0.135  0.0281  0.1855 -1.1356
  196MPD1    H6 3044   3.995   0.163   0.137 -1.1119  0.3273  0.4284
  196MPD1    H7 3045   3.891   0.053   0.088 -0.0394  1.3944 -1.2589
  197MPD1     C 3046   3.428   2.462  17.701 -0.2544  0.4320  0.0141
  197MPD1    C1 3047   3.433   2.600  17.718 -0.9479 -0.5161  0.6882
  197MPD1    C2 3048   3.412   2.678  17.606 -0.3884  0.0661  0.5836
  197MPD1    C3 3049   3.413   2.619  17.480  0.1198  0.7570  0.4745
  197MPD1    C4 3050   3.440   2.486  17.465 -0.5387  0.4583  0.2784
  197MPD1    C5 3051   3.437   2.404  17.574 -0.0897  0.1799  0.9160
  197MPD1     H 3052   3.417   2.785  17.626 -3.3746  0.3564 -0.1340
  197MPD1    H1 3053   3.444   2.436  17.369 -0.5409 -2.2448  1.6616
  197MPD1    H2 3054   3.440   2.401   0.043  1.8574 -0.5629 -0.9552
  197MPD1    H3 3055   3.438   2.297  17.554 -0.5136  0.6580 -1.6429
  197MPD1     N 3056   3.425   2.689  17.354  0.4942  0.0256  0.7457
  197MPD1    H5 3057   3.451   2.627  17.278  2.6030  0.7769  0.8647
  197MPD1    N1 3058   3.424   2.654   0.108  0.0203  0.2558  0.6653
  197MPD1    H6 3059   3.455   2.751   0.118  1.2362  0.1462 -1.9669
  197MPD1    H7 3060   3.488   2.605   0.170  2.1153 -0.3682 -1.9482
  198MPD1     C 3061   4.680   0.974  15.718 -0.0164 -0.3615  0.1574
  198MPD1    C1 3062   0.028   1.014  15.824  0.3255 -0.0981 -0.2616
  198MPD1    C2 3063   0.165   0.998  15.809  0.3498 -0.8726  0.9566
  198MPD1    C3 3064   0.220   0.974  15.684 -0.5130  0.2130  0.3739
  198MPD1    C4 3065   0.131   0.948  15.584 -0.2387 -0.1819 -0.4045
  198MPD1    C5 3066   4.737   0.944  15.600 -0.3496  0.2221 -0.9412
  198MPD1     H 3067   0.235   1.008  15.891  0.3663  0.3647  0.7957
  198MPD1    H1 3068   0.168   0.930  15.483 -2.1903 -1.4750 -0.9021
  198MPD1    H2 3069   4.572   0.971  15.727  0.0708  0.3109  1.4059
  198MPD1    H3 3070   4.675   0.912  15.517 -0.5136  0.0270 -0.7450
  198MPD1     N 3071   0.359   0.963  15.668 -0.1182  0.1797 -0.1085
  198MPD1    H5 3072   0.423   0.974  15.746  0.3169 -2.3682 -0.1043
  198MPD1    N1 3073   4.701   1.039  15.948  0.2524 -0.8044  0.2099
  198MPD1    H6 3074   4.605   1.071  15.937  0.4566  0.1174  1.0775
  198MPD1    H7 3075   0.015   1.099  16.013 -0.2327  1.5258 -1.5682
  199MPD1     C 3076   1.628   3.115  10.803 -0.0981 -0.1919  0.3121
  199MPD1    C1 3077   1.602   3.017  10.715 -0.7612 -0.3401 -0.5985
  199MPD1    C2 3078   1.574   3.057  10.588  1.0393 -0.4574  0.0789
  199MPD1    C3 3079   1.580   3.192  10.550  0.1707 -0.8459 -0.1184
  199MPD1    C4 3080   1.630   3.285  10.641 -0.0803  0.1638  0.0166
  199MPD1    C5 3081   1.652   3.248  10.765  0.4187  0.6563  0.7489
  199MPD1     H 3082   1.547   2.983  10.514  0.1837 -0.2621  0.1964
  199MPD1    H1 3083   1.646   3.389  10.613 -2.5711  0.5230 -0.0941
  199MPD1    H2 3084   1.630   3.095  10.910  0.4691  2.4973  0.8108
  199MPD1    H3 3085   1.679   3.312  10.848  0.7126  0.9273  0.4428
  199MPD1     N 3086   1.543   3.247  10.421 -0.1887 -0.2634 -0.2593
  199MPD1    H5 3087   1.544   3.348  10.425 -1.8516 -0.1884 -1.6921
  199MPD1    N1 3088   1.579   2.885  10.761  0.2110  0.8496  0.1052
  199MPD1    H6 3089   1.613   2.814  10.696 -0.2015  0.3113  0.4673
  199MPD1    H7 3090   1.608   2.865  10.857 -1.3956 -1.1491  0.1677
  200MPD1     C 3091   1.892   3.199  15.936 -0.3763  0.0506  0.5882
  200MPD1    C1 3092   1.891   3.238  15.805 -0.3829 -0.4948  0.0393
  200MPD1    C2 3093   1.960   3.156  15.713 -0.1752 -0.0901 -0.3331
  200MPD1    C3 3094   2.035   3.050  15.755 -0.2775  0.5991 -0.3731
  200MPD1    C4 3095   2.030   3.015  15.892  0.0971  0.3733 -0.0250
  200MPD1    C5 3096   1.957   3.091  15.977 -0.5169 -0.3162 -0.5773
  200MPD1     H 3097   1.967   3.189  15.610  1.2611  1.1183  0.1559
  200MPD1    H1 3098   2.084   2.927  15.925  2.2463  1.3969 -0.7709
  200MPD1    H2 3099   1.834   3.252  16.011 -0.8734 -0.4359  0.5500
  200MPD1    H3 3100   1.954   3.057  16.080  2.9253 -1.6162 -0.9136
  200MPD1     N 3101   2.101   2.975  15.653 -0.1841  0.1605 -0.3023
  200MPD1    H5 3102   2.100   3.017  15.561 -2.7635 -0.6095 -0.6192
  200MPD1    N1 3103   1.792   3.330  15.761  0.9298  0.4164  0.3352
  200MPD1    H6 3104   1.822   3.383  15.679 -0.4395 -0.5442 -0.7994
  200MPD1    H7 3105   1.792   3.401  15.834  0.5001 -0.1021  0.8405
  201MPD1     C 3106   3.627   0.867  13.722  0.8969  0.4211  0.3321
  201MPD1    C1 3107   3.730   0.937  13.780 -0.0779  0.1469  1.1730
  201MPD1    C2 3108   3.857   0.882  13.751  0.4819  0.2452  0.7057
  201MPD1    C3 3109   3.882   0.775  13.670  0.3326  0.1314  0.0916
  201MPD1    C4 3110   3.777   0.719  13.609  0.3227 -0.0773 -0.6464
  201MPD1    C5 3111   3.654   0.761  13.647  0.4116 -0.5186 -0.1473
  201MPD1     H 3112   3.952   0.911  13.794  0.2036  0.6720  1.0199
  201MPD1    H1 3113   3.784   0.646  13.529  0.2557 -0.6381 -0.1318
  201MPD1    H2 3114   3.523   0.891  13.741  0.8202  1.4361 -1.3495
  201MPD1    H3 3115   3.568   0.698  13.627  0.2405 -0.7701  1.3883
  201MPD1     N 3116   4.018   0.730  13.661 -0.4140  0.2320  0.3355
  201MPD1    H5 3117   4.088   0.778  13.717  0.8616  1.4001 -2.2805
  201MPD1    N1 3118   3.712   1.028  13.883  0.0406  0.8670  0.3307
  201MPD1    H6 3119   3.787   1.094  13.903  0.1539  0.9828 -0.4583
  201MPD1    H7 3120   3.629   1.087  13.885 -0.8368 -0.3946  0.6724
  202MPD1     C 3121   3.504   0.798   9.355 -1.0026  0.1770  0.6369
  202MPD1    C1 3122   3.482   0.841   9.485  0.7954  0.0085  0.2673
  202MPD1    C2 3123   3.601   0.852   9.558 -0.0651 -0.2593  0.4747
  202MPD1    C3 3124   3.722   0.874   9.500  1.1417  0.2750  0.6454
  202MPD1    C4 3125   3.737   0.851   9.370  0.6124  0.0926 -0.6097
  202MPD1    C5 3126   3.624   0.807   9.296 -0.6039  0.7233 -0.0289
  202MPD1     H 3127   3.585   0.875   9.663 -0.7840  1.8865 -0.1030
  202MPD1    H1 3128   3.830   0.869   9.318  0.6997  0.1780 -0.4233
  202MPD1    H2 3129   3.427   0.746   9.301 -2.0606  2.1168  0.2888
  202MPD1    H3 3130   3.648   0.772   9.196  1.1644  0.1399  0.5910
  202MPD1     N 3131   3.837   0.924   9.564  0.0951 -0.5336  0.0086
  202MPD1    H5 3132   3.928   0.937   9.519 -1.4050 -1.6727 -3.3332
  202MPD1    N1 3133   3.361   0.796   9.546 -0.1671  0.0214 -0.9872
  202MPD1    H6 3134   3.285   0.796   9.479 -1.3717  2.2842  0.3885
  202MPD1    H7 3135   3.329   0.850   9.627 -0.8882  1.4586 -2.2400
  203MPD1     C 3136   1.767   1.451  12.706 -0.6406  0.5194  0.5233
  203MPD1    C1 3137   1.764   1.333  12.781 -0.0538  0.4755  0.1267
  203MPD1    C2 3138   1.872   1.243  12.772  0.6507  0.1301 -0.0427
  203MPD1    C3 3139   1.978   1.268  12.681  0.1762 -0.2526 -0.0354
  203MPD1    C4 3140   1.967   1.386  12.604  0.8121 -0.1527  0.1822
  203MPD1    C5 3141   1.866   1.468  12.612 -0.4360 -0.3560  0.4133
  203MPD1     H 3142   1.869   1.154  12.833  1.5909 -0.3877 -0.7530
  203MPD1    H1 3143   2.051   1.413  12.542  0.6430  1.1311  0.5179
  203MPD1    H2 3144   1.680   1.516  12.706 -0.2071  1.0952  0.9997
  203MPD1    H3 3145   1.872   1.554  12.547  1.9773 -2.4602 -2.1261
  203MPD1     N 3146   2.082   1.171  12.670  0.4166  0.4912 -0.1579
  203MPD1    H5 3147   2.074   1.083  12.720 -0.4905  1.3008  1.1225
  203MPD1    N1 3148   1.661   1.326  12.878 -0.8167  0.3763  0.2575
  203MPD1    H6 3149   1.582   1.390  12.862 -0.4815  0.4773 -0.9848
  203MPD1    H7 3150   1.635   1.232  12.906  3.1041 -1.1816 -1.4175
  204MPD1     C 3151   2.151   2.982  17.546  0.3699 -0.7001 -0.2948
  204MPD1    C1 3152   2.223   2.978  17.428  0.7188  0.4217 -0.4001
  204MPD1    C2 3153   2.330   2.896  17.416 -0.4223 -0.0826  0.1110
  204MPD1    C3 3154   2.361   2.805  17.516  0.4932 -0.0046  0.0521
  204MPD1    C4 3155   2.286   2.810  17.627  0.6936 -0.5035  0.1798
  204MPD1    C5 3156   2.177   2.893  17.642 -0.7344 -0.1330  0.7997
  204MPD1     H 3157   2.385   2.888  17.323 -1.9512 -0.5298 -0.7469
  204MPD1    H1 3158   2.314   2.753  17.715 -0.2258 -0.2608  0.6385
  204MPD1    H2 3159   2.071   3.054  17.560  0.5592 -0.8490  1.5007
  204MPD1    H3 3160   2.134   2.909  17.740 -2.6355 -1.4125  0.1728
  204MPD1     N 3161   2.467   2.715  17.492  0.3084  0.0860 -0.1678
  204MPD1    H5 3162   2.510   2.738  17.403  2.2048  0.4208  0.8354
  204MPD1    N1 3163   2.209   3.080  17.333  0.0570 -0.0916  0.7900
  204MPD1    H6 3164   2.111   3.106  17.329 -0.0406 -0.6877 -0.3472
  204MPD1    H7 3165   2.231   3.047  17.240 -1.9722  1.6882 -0.3306
  205MPD1     C 3166   3.389   1.219  16.738 -0.1034 -0.4165 -0.5048
  205MPD1    C1 3167   3.346   1.354  16.748  0.2957 -0.7215 -0.3030
  205MPD1    C2 3168   3.257   1.388  16.851  0.0229  0.5862  0.1778
  205MPD1    C3 3169   3.213   1.288  16.938 -0.3613  0.3980 -0.4344
  205MPD1    C4 3170   3.268   1.158  16.928  0.3231  0.4794  0.1712
  205MPD1    C5 3171   3.360   1.130  16.835  0.1084 -1.1914  0.0807
  205MPD1     H 3172   3.211   1.486  16.853  0.7224  0.9087  0.5697
  205MPD1    H1 3173   3.246   1.073  16.993  0.4467 -0.0978 -0.5396
  205MPD1    H2 3174   3.468   1.192  16.669  0.1284  1.4605 -0.9751
  205MPD1    H3 3175   3.395   1.027  16.832  0.6581 -1.0509  1.5773
  205MPD1     N 3176   3.108   1.301  17.034 -0.0895  0.1170  0.2294
  205MPD1    H5 3177   3.105   1.224  17.100 -2.6366 -0.9986 -1.1788
  205MPD1    N1 3178   3.394   1.455  16.667  0.0294 -0.1702 -0.4195
  205MPD1    H6 3179   3.329   1.531  16.649 -0.3216 -0.2043  0.7043
  205MPD1    H7 3180   3.430   1.428  16.576 -0.0089 -1.4384 -0.0615
  206MPD1     C 3181   2.867   4.098  16.763  0.1451 -0.1736 -0.0063
  206MPD1    C1 3182   2.968   4.180  16.706 -0.0929  0.2346 -0.2677
  206MPD1    C2 3183   2.935   4.240  16.581 -0.4094  0.2448 -0.1840
  206MPD1    C3 3184   2.817   4.207  16.518 -0.1077  0.1455  0.3841
  206MPD1    C4 3185   2.730   4.113  16.573  0.4134  0.4003 -0.6628
  206MPD1    C5 3186   2.757   4.056  16.694  0.2027  0.0620  0.4883
  206MPD1     H 3187   3.011   4.299  16.530 -1.2575  2.2128  0.8059
  206MPD1    H1 3188   2.643   4.075  16.521 -0.6973  1.3181  0.5443
  206MPD1    H2 3189   2.883   4.045  16.856 -1.8360  1.2351  1.1166
  206MPD1    H3 3190   2.693   3.976  16.729 -0.4631  1.1819  1.8988
  206MPD1     N 3191   2.785   4.262  16.392  0.3414  0.4791  0.3966
  206MPD1    H5 3192   2.716   4.218  16.333  2.4721 -0.3032 -1.4903
  206MPD1    N1 3193   3.089   4.207  16.769  0.2601  0.1575 -0.1473
  206MPD1    H6 3194   3.118   4.119  16.811  0.4362 -0.0968 -0.8076
  206MPD1    H7 3195   3.155   4.228  16.694  0.7298  1.7896  0.7059
  207MPD1     C 3196   3.672   2.759   9.677  0.0960  0.5762 -0.4853
  207MPD1    C1 3197   3.721   2.884   9.672 -0.3585 -0.6203  0.4195
  207MPD1    C2 3198   3.840   2.918   9.742  0.3889 -0.5205 -0.6412
  207MPD1    C3 3199   3.914   2.816   9.808  0.0619 -0.3366  0.6198
  207MPD1    C4 3200   3.864   2.687   9.807 -0.4370 -0.3303  0.2362
  207MPD1    C5 3201   3.744   2.665   9.750  0.4984  0.1031  0.3063
  207MPD1     H 3202   3.885   3.017   9.747 -1.5062  0.3688 -1.3370
  207MPD1    H1 3203   3.916   2.607   9.857 -1.1398 -0.3725  0.8931
  207MPD1    H2 3204   3.578   2.730   9.630 -1.1935 -0.4770  2.7667
  207MPD1    H3 3205   3.712   2.562   9.753  0.4782  0.0653 -1.4953
  207MPD1     N 3206   4.036   2.846   9.874  0.8117  0.0044 -0.2068
  207MPD1    H5 3207   4.069   2.762   9.922  1.5268  0.3648 -0.0686
  207MPD1    N1 3208   3.652   2.981   9.595  0.1765  0.3313 -0.4439
  207MPD1    H6 3209   3.659   3.072   9.640  1.0572 -0.0999  0.2946
  207MPD1    H7 3210   3.551   2.974   9.581  0.3798  0.0438 -1.7276
  208MPD1     C 3211   4.035   0.997  17.711  0.4141  0.0058  0.2325
  208MPD1    C1 3212   3.987   0.965   0.090  0.3401  0.5572  0.1355
  208MPD1    C2 3213   3.863   0.908   0.096 -0.7650  0.1174 -0.0548
  208MPD1    C3 3214   3.787   0.892  17.734  0.0428  0.6971 -1.6229
  208MPD1    C4 3215   3.823   0.949  17.613  0.4475  0.6171 -0.1232
  208MPD1    C5 3216   3.953   0.994  17.596 -0.1424  0.1376 -0.4229
  208MPD1     H 3217   3.819   0.874   0.189 -0.9122 -0.5205 -0.3619
  208MPD1    H1 3218   3.759   0.943  17.526  0.1845 -1.4688  0.2357
  208MPD1    H2 3219   4.137   1.031  17.695  0.4389  0.4958  1.3678
  208MPD1    H3 3220   3.986   1.035  17.501  1.6723 -2.3088 -0.8424
  208MPD1     N 3221   3.670   0.816   0.005  0.2088  0.0108 -0.8267
  208MPD1    H5 3222   3.656   0.773   0.096 -0.1786 -1.7906 -1.7243
  208MPD1    N1 3223   4.073   0.970   0.201  0.0862  0.0830  0.8280
  208MPD1    H6 3224   4.032   0.993   0.291  1.0966  0.4658  1.1864
  208MPD1    H7 3225   4.152   1.032   0.186 -0.8169  1.3363  1.2717
  209MPD1     C 3226   4.596   1.657  11.202  0.0966  0.2619  0.0665
  209MPD1    C1 3227   4.713   1.725  11.222  0.0166  0.2630 -0.7716
  209MPD1    C2 3228   0.008   1.832  11.141 -0.7426  0.4291 -0.5647
  209MPD1    C3 3229   4.677   1.856  11.020 -0.1468 -0.1569  0.6498
  209MPD1    C4 3230   4.563   1.781  10.994 -0.1240 -0.8339  0.7994
  209MPD1    C5 3231   4.523   1.684  11.086 -0.6529 -0.0409  0.5882
  209MPD1     H 3232   0.092   1.894  11.171  0.6895 -1.4999 -0.5811
  209MPD1    H1 3233   4.490   1.796  10.915  0.3213  3.4406  1.2278
  209MPD1    H2 3234   4.568   1.595  11.287  1.1679  2.0944  1.7483
  209MPD1    H3 3235   4.427   1.635  11.078  1.5272 -4.2049  0.2807
  209MPD1     N 3236   4.715   1.962  10.943  0.5458 -0.0761  0.2367
  209MPD1    H5 3237   0.053   2.017  10.983 -0.1831  1.4651 -0.5160
  209MPD1    N1 3238   0.048   1.704  11.341  0.5790 -0.0387 -0.3261
  209MPD1    H6 3239   0.144   1.737  11.336  1.4612 -2.7133 -0.9030
  209MPD1    H7 3240   0.069   1.605  11.352  1.4291  0.0557 -1.0797
  210MPD1     C 3241   0.475   2.552  11.262 -0.4195 -0.1277  0.5792
  210MPD1    C1 3242   0.502   2.585  11.135  0.4607 -0.5717  0.6039
  210MPD1    C2 3243   0.424   2.526  11.032 -0.2167  0.3406  0.2642
  210MPD1    C3 3244   0.344   2.423  11.062  1.0805 -0.7073  0.2666
  210MPD1    C4 3245   0.331   2.384  11.188 -0.4329 -0.2321 -0.1664
  210MPD1    C5 3246   0.387   2.448  11.294  0.4614 -0.0763 -0.1480
  210MPD1     H 3247   0.439   2.564  10.931 -1.5574 -0.2058 -0.1338
  210MPD1    H1 3248   0.275   2.293  11.208  3.1411 -2.3982  0.0168
  210MPD1    H2 3249   0.522   2.615  11.336  1.3206  1.2904 -1.7260
  210MPD1    H3 3250   0.370   2.421  11.397 -0.6846  0.1718 -0.2713
  210MPD1     N 3251   0.259   2.345  10.972  0.0433  0.5309  0.3393
  210MPD1    H5 3252   0.183   2.287  11.004 -1.1290  2.4453  1.0257
  210MPD1    N1 3253   0.586   2.696  11.103 -0.2846  0.1846  0.1421
  210MPD1    H6 3254   0.660   2.719  11.168  0.9825  1.4508 -1.7392
  210MPD1    H7 3255   0.635   2.685  11.015 -1.7996 -2.1244 -0.4130
  211MPD1     C 3256   2.561   1.293  15.383  0.1030 -0.0704 -0.6312
  211MPD1    C1 3257   2.461   1.357  15.450 -0.0147  0.2059  0.1034
  211MPD1    C2 3258   2.497   1.407  15.574  0.1144  0.2272 -0.3258
  211MPD1    C3 3259   2.626   1.400  15.624  0.9854 -0.5636  0.5849
  211MPD1    C4 3260   2.723   1.333  15.550 -0.2355  0.0318  0.6473
  211MPD1    C5 3261   2.689   1.290  15.426  0.1509 -0.5006 -0.0645
  211MPD1     H 3262   2.429   1.465  15.636 -0.2536  1.2717 -1.7270
  211MPD1    H1 3263   2.828   1.325  15.573  0.1630  4.7691  0.5246
  211MPD1    H2 3264   2.552   1.254  15.282  2.3349 -0.4420 -0.6872
  211MPD1    H3 3265   2.760   1.244  15.358 -0.1230  0.9907 -1.3544
  211MPD1     N 3266   2.653   1.455  15.758 -0.3244  0.2476  0.6888
  211MPD1    H5 3267   2.579   1.504  15.807  1.2082 -0.1942  3.4258
  211MPD1    N1 3268   2.330   1.365  15.407 -0.2485  0.0533 -0.5045
  211MPD1    H6 3269   2.279   1.444  15.446  0.7848  0.3570  0.2283
  211MPD1    H7 3270   2.333   1.384  15.307 -0.7065 -0.9530 -0.7064
  212MPD1     C 3271   2.321   4.359  16.202  0.1079 -0.0921  0.0656
  212MPD1    C1 3272   2.186   4.388  16.229 -0.1971  0.2873  0.1734
  212MPD1    C2 3273   2.128   4.318  16.336  0.0950 -0.2169  0.6366
  212MPD1    C3 3274   2.203   4.238  16.418  0.6903  0.5080  0.2325
  212MPD1    C4 3275   2.339   4.228  16.402 -0.0352 -0.4481  0.3624
  212MPD1    C5 3276   2.392   4.289  16.294  0.2607 -0.2815 -0.6920
  212MPD1     H 3277   2.023   4.334  16.354  0.0080 -1.4929  1.2645
  212MPD1    H1 3278   2.404   4.162  16.458 -0.6788 -0.7522  0.7523
  212MPD1    H2 3279   2.373   4.406  16.120  1.2870 -1.1543  0.1977
  212MPD1    H3 3280   2.496   4.266  16.277  0.4440 -0.2887  0.4505
  212MPD1     N 3281   2.148   4.168  16.522 -0.4803  0.1689 -0.0398
  212MPD1    H5 3282   2.208   4.100  16.568 -2.2607  0.0436  2.0992
  212MPD1    N1 3283   2.104   4.467  16.141  0.1123 -0.7362 -0.1106
  212MPD1    H6 3284   2.159   4.543  16.100 -0.7708 -0.9997 -1.8075
  212MPD1    H7 3285   2.021   4.510  16.179  1.8692  1.5083  1.1792
  213MPD1     C 3286   0.610   0.106  15.866  0.3773 -0.7185 -0.2364
  213MPD1    C1 3287   0.622   0.172  15.752  0.2374  0.2154  0.1028
  213MPD1    C2 3288   0.501   0.212  15.695 -0.0610 -0.1891  0.5590
  213MPD1    C3 3289   0.377   0.172  15.743 -0.6534  0.0387 -0.1970
  213MPD1    C4 3290   0.372   0.122  15.869 -0.2283  0.3310 -0.1798
  213MPD1    C5 3291   0.493   0.095  15.928 -0.2030 -0.2830 -0.6250
  213MPD1     H 3292   0.493   0.262  15.599 -0.8417  0.9843  1.2356
  213MPD1    H1 3293   0.281   0.113  15.927  1.0011 -0.9374  1.5725
  213MPD1    H2 3294   0.693   0.073  15.927  1.3523 -1.9764 -2.2466
  213MPD1    H3 3295   0.492   0.054  16.028  0.0572  1.2416  0.0011
  213MPD1     N 3296   0.259   0.179  15.653 -0.6466 -0.1253 -0.3326
  213MPD1    H5 3297   0.273   0.226  15.564  1.0503 -0.7868 -0.4304
  213MPD1    N1 3298   0.746   0.168  15.684  0.5368 -0.7659 -0.7228
  213MPD1    H6 3299   0.756   0.257  15.636  1.4293  0.8925  2.5457
  213MPD1    H7 3300   0.823   0.156  15.749  0.2971  0.0999 -0.2777
  214MPD1     C 3301   4.427   4.171  15.387 -0.0472  0.3239 -0.1843
  214MPD1    C1 3302   4.484   4.244  15.288 -0.0341  0.7322 -0.0052
  214MPD1    C2 3303   4.537   4.369  15.319  0.5079 -0.0718  0.2156
  214MPD1    C3 3304   4.504   4.432  15.441 -0.4849  0.4033  0.1417
  214MPD1    C4 3305   4.456   4.349  15.544 -0.1767  0.1451  0.1741
  214MPD1    C5 3306   4.423   4.221  15.513  0.3513 -0.4819  0.1314
  214MPD1     H 3307   4.584   4.429  15.242  1.3072 -0.7003  0.2097
  214MPD1    H1 3308   4.446   4.387  15.645  0.4358 -0.8441  0.6085
  214MPD1    H2 3309   4.410   4.065  15.373 -2.0950  0.5920  0.2556
  214MPD1    H3 3310   4.380   4.152  15.584  0.7420 -1.5153 -0.6445
  214MPD1     N 3311   4.538   4.571  15.472 -0.3791  0.1765 -0.3749
  214MPD1    H5 3312   4.531   4.600  15.569  1.8099 -2.9439  0.7267
  214MPD1    N1 3313   4.514   4.184  15.163 -0.4659  0.3279  0.3301
  214MPD1    H6 3314   4.502   4.250  15.086  1.3230 -0.4569 -0.6098
  214MPD1    H7 3315   4.455   4.102  15.146  0.7568 -0.7799  1.4791
  215MPD1     C 3316   3.740   1.249  11.169  0.0289 -0.2035 -0.3188
  215MPD1    C1 3317   3.747   1.279  11.302 -0.3279 -0.0314  0.6301
  215MPD1    C2 3318   3.831   1.388  11.329 -0.0667  0.3493  0.2034
  215MPD1    C3 3319   3.892   1.466  11.236  0.4348  0.0325  0.1419
  215MPD1    C4 3320   3.871   1.440  11.102 -0.2447  0.9043  0.7685
  215MPD1    C5 3321   3.803   1.324  11.073 -0.1218  0.1254 -0.6783
  215MPD1     H 3322   3.845   1.422  11.431 -1.4526  1.9215 -0.1171
  215MPD1    H1 3323   3.918   1.490  11.018  0.3626  0.3005  0.7520
  215MPD1    H2 3324   3.662   1.180  11.141  0.4290 -0.9771  0.4725
  215MPD1    H3 3325   3.790   1.301  10.967  0.2225  2.4130 -1.2118
  215MPD1     N 3326   3.971   1.572  11.281 -0.4547 -0.1711 -0.6214
  215MPD1    H5 3327   3.982   1.599  11.379 -3.6431  0.1145 -0.3424
  215MPD1    N1 3328   3.688   1.204  11.398  0.1042 -0.3923 -0.3315
  215MPD1    H6 3329   3.624   1.130  11.369 -1.6879  1.1247 -0.2622
  215MPD1    H7 3330   3.639   1.261  11.467  2.0534  1.0316 -0.1548
  216MPD1     C 3331   1.926   3.920  17.353 -0.1132  0.3671  0.5582
  216MPD1    C1 3332   1.907   3.789  17.316 -0.4261  1.3702 -0.0209
  216MPD1    C2 3333   1.952   3.690  17.401 -0.2507 -0.2891  0.5688
  216MPD1    C3 3334   2.025   3.719  17.519 -0.2612 -0.0684 -0.3058
  216MPD1    C4 3335   2.048   3.853  17.546  0.5988  0.2818 -0.2785
  216MPD1    C5 3336   1.997   3.947  17.467 -0.2159  0.6209  0.0571
  216MPD1     H 3337   1.952   3.585  17.374  4.2030 -0.0486 -0.3862
  216MPD1    H1 3338   2.107   3.890  17.630 -2.0887  1.3417  1.1610
  216MPD1    H2 3339   1.901   3.997  17.281 -1.1799  1.0354  1.6614
  216MPD1    H3 3340   2.014   4.049  17.498  0.7031 -0.8277  4.3354
  216MPD1     N 3341   2.078   3.607  17.596 -0.2226 -0.2773  0.3409
  216MPD1    H5 3342   2.059   3.517  17.553 -1.5902  0.3889 -0.4673
  216MPD1    N1 3343   1.847   3.757  17.193 -0.1442  0.4667  0.2671
  216MPD1    H6 3344   1.796   3.834  17.150 -0.7150  0.6494  1.2575
  216MPD1    H7 3345   1.773   3.689  17.208  0.7881 -0.2251  1.7448
  217MPD1     C 3346   2.480   0.172   8.917  0.1878  0.4774 -0.0581
  217MPD1    C1 3347   2.400   0.259   8.987  0.5324 -0.8238  0.7012
  217MPD1    C2 3348   2.437   0.312   9.115 -0.0111  0.1799 -0.2995
  217MPD1    C3 3349   2.567   0.293   9.161 -0.3953  0.4944 -0.5454
  217MPD1    C4 3350   2.649   0.222   9.074 -0.0249 -0.2454  0.0633
  217MPD1    C5 3351   2.605   0.160   8.956  0.1685 -0.4408  0.9168
  217MPD1     H 3352   2.372   0.375   9.175 -1.6998 -1.2238 -0.6696
  217MPD1    H1 3353   2.757   0.215   9.084 -0.0945 -2.1676 -0.4741
  217MPD1    H2 3354   2.455   0.123   8.824 -1.3329  0.3624  0.4032
  217MPD1    H3 3355   2.678   0.108   8.895 -0.1947 -0.3093  0.3765
  217MPD1     N 3356   2.623   0.352   9.280  0.0352 -0.1108 -0.1560
  217MPD1    H5 3357   2.723   0.344   9.295  0.3957  0.9155 -2.0099
  217MPD1    N1 3358   2.277   0.282   8.929 -0.0649 -0.5360 -0.1203
  217MPD1    H6 3359   2.289   0.280   8.828 -2.1584 -0.5226 -0.3624
  217MPD1    H7 3360   2.233   0.371   8.953  0.8868  0.4672 -2.0786
  218MPD1     C 3361   3.354   1.343  13.098 -0.0478  0.0398  0.5251
  218MPD1    C1 3362   3.462   1.340  13.185 -0.1453 -0.6163 -0.1400
  218MPD1    C2 3363   3.583   1.353  13.126 -0.1066 -0.0947  0.9499
  218MPD1    C3 3364   3.598   1.366  12.986  0.6152  0.0626 -0.0428
  218MPD1    C4 3365   3.488   1.383  12.905 -0.1560 -0.0342 -0.3037
  218MPD1    C5 3366   3.365   1.366  12.963  0.4333  0.1384  0.1988
  218MPD1     H 3367   3.672   1.346  13.188  0.2703 -0.0219  0.4069
  218MPD1    H1 3368   3.490   1.399  12.798  0.6253  1.0459 -0.1390
  218MPD1    H2 3369   3.251   1.327  13.128  1.1017 -0.6426  4.1189
  218MPD1    H3 3370   3.269   1.385  12.914  0.5064 -2.1712 -0.8330
  218MPD1     N 3371   3.727   1.363  12.925  0.5315  0.0079  0.9091
  218MPD1    H5 3372   3.806   1.341  12.985  0.2575 -2.1542  0.4959
  218MPD1    N1 3373   3.444   1.314  13.320 -0.6081 -0.4866  0.0992
  218MPD1    H6 3374   3.348   1.329  13.350 -1.0111 -1.7744 -0.5155
  218MPD1    H7 3375   3.511   1.366  13.375  0.3951 -1.2519 -0.4119
  219MPD1     C 3376   4.532   1.720  12.321  0.0597 -0.3165  0.2692
  219MPD1    C1 3377   4.402   1.770  12.321 -0.2514  0.4204 -0.2942
  219MPD1    C2 3378   4.298   1.686  12.357 -1.0246 -0.5628 -0.0386
  219MPD1    C3 3379   4.324   1.565  12.410 -0.0418 -0.0691  0.5669
  219MPD1    C4 3380   4.449   1.509  12.396 -0.0504  0.1654  0.6493
  219MPD1    C5 3381   4.550   1.585  12.356  0.2573 -0.1211  0.1135
  219MPD1     H 3382   4.197   1.725  12.357 -0.6408  0.4448 -1.2180
  219MPD1    H1 3383   4.474   1.408  12.429 -0.4472 -0.9653 -2.5151
  219MPD1    H2 3384   4.618   1.779  12.292  1.5805 -1.5904  2.2052
  219MPD1    H3 3385   4.653   1.550  12.364  1.1261  1.7820 -2.7932
  219MPD1     N 3386   4.226   1.480  12.461  1.0616 -0.3716 -0.4219
  219MPD1    H5 3387   4.267   1.388  12.475  1.8476  0.4319  2.5847
  219MPD1    N1 3388   4.393   1.895  12.259  0.5856  0.1075  0.1338
  219MPD1    H6 3389   4.311   1.950  12.282 -0.7466 -1.4794 -0.7724
  219MPD1    H7 3390   4.477   1.951  12.272  1.3940 -0.3196 -3.4124
  220MPD1     C 3391   3.507   2.578   9.982 -0.3069 -0.3800  0.7487
  220MPD1    C1 3392   3.494   2.442  10.014  0.1824  0.0274 -0.0467
  220MPD1    C2 3393   3.600   2.387  10.085  0.4532  0.2003  0.6655
  220MPD1    C3 3394   3.706   2.470  10.131 -0.2640  0.1099  0.3601
  220MPD1    C4 3395   3.712   2.601  10.099 -0.4843  0.4281 -0.5498
  220MPD1    C5 3396   3.606   2.660  10.034 -0.6814 -0.7680  0.7206
  220MPD1     H 3397   3.612   2.281  10.101 -0.3199 -0.1139 -0.8658
  220MPD1    H1 3398   3.796   2.663  10.127 -2.2109  2.2407  0.6115
  220MPD1    H2 3399   3.436   2.632   9.921  0.8550  0.9023  0.5380
  220MPD1    H3 3400   3.612   2.762   9.997 -1.6448 -1.4180 -1.2556
  220MPD1     N 3401   3.800   2.399  10.204  0.2071  0.1678 -0.2514
  220MPD1    H5 3402   3.780   2.301  10.220  0.0704  0.4718  1.3553
  220MPD1    N1 3403   3.382   2.363   9.970  0.9366  0.1887  0.0743
  220MPD1    H6 3404   3.299   2.419   9.951  0.4942 -0.0506  1.3043
  220MPD1    H7 3405   3.363   2.272  10.012  1.3726  0.7060  1.3580
  221MPD1     C 3406   2.653   2.088  17.007 -0.0697  0.2884  0.2223
  221MPD1    C1 3407   2.618   1.986  17.086  0.0332  0.0262 -0.1651
  221MPD1    C2 3408   2.637   1.857  17.036  0.3028  0.1090  0.1343
  221MPD1    C3 3409   2.685   1.840  16.901  0.5338 -0.3355 -0.3317
  221MPD1    C4 3410   2.721   1.951  16.825  0.4942  0.0803  0.0494
  221MPD1    C5 3411   2.694   2.071  16.878  0.3251  1.1244  0.3932
  221MPD1     H 3412   2.634   1.769  17.100 -0.1262  1.4642  1.9623
  221MPD1    H1 3413   2.757   1.929  16.725  0.3532 -1.7181  0.3880
  221MPD1    H2 3414   2.651   2.189  17.046 -2.1265  0.1442  0.4905
  221MPD1    H3 3415   2.721   2.162  16.825 -3.1935  1.7110 -0.3961
  221MPD1     N 3416   2.723   1.713  16.849  0.1192 -0.3236 -0.0041
  221MPD1    H5 3417   2.766   1.726  16.758  1.1527  0.9507  0.6627
  221MPD1    N1 3418   2.602   2.012  17.222 -0.4040  0.2411 -0.7900
  221MPD1    H6 3419   2.555   1.932  17.264 -0.3844  1.6162  1.8176
  221MPD1    H7 3420   2.552   2.099  17.240  1.4674  1.1910 -0.0949
  222MPD1     C 3421   2.428   0.120  16.762  0.1823 -0.2097  1.0250
  222MPD1    C1 3422   2.495   0.046  16.860  0.5423 -0.1476  0.0237
  222MPD1    C2 3423   2.410   4.734  16.959  0.5571  0.6230 -0.0560
  222MPD1    C3 3424   2.279   0.029  16.984  0.0933  0.5436 -0.5082
  222MPD1    C4 3425   2.235   0.134  16.908 -0.1269  0.2591 -0.3643
  222MPD1    C5 3426   2.308   0.176  16.799  0.3713 -0.3989 -0.1825
  222MPD1     H 3427   2.462   4.673  17.032 -0.0324  1.1728  0.8249
  222MPD1    H1 3428   2.144   0.183  16.944 -1.1006 -1.3097 -0.7179
  222MPD1    H2 3429   2.483   0.151  16.673 -0.3247  0.7556  1.0420
  222MPD1    H3 3430   2.257   0.247  16.735  0.4461 -0.4947 -0.3480
  222MPD1     N 3431   2.202   0.000  17.098  0.3460  0.1345  0.3615
  222MPD1    H5 3432   2.116   0.051  17.111  0.0764 -0.3392  0.4054
  222MPD1    N1 3433   2.628   4.732  16.842 -0.0472  0.2926  0.3792
  222MPD1    H6 3434   2.679   0.062  16.786  0.3947 -0.3318  0.0291
  222MPD1    H7 3435   2.679   4.715  16.929 -0.2915  1.5129  0.7548
  223MPD1     C 3436   1.844   4.083   0.156  0.0017  0.2350 -0.8259
  223MPD1    C1 3437   1.750   4.181   0.127  0.5449 -0.4161 -0.4213
  223MPD1    C2 3438   1.779   4.271   0.026  0.1621  0.3809 -0.1644
  223MPD1    C3 3439   1.904   4.261  17.705 -0.5672  0.6244 -0.0213
  223MPD1    C4 3440   1.990   4.160  17.731 -0.4452 -0.0547 -0.2152
  223MPD1    C5 3441   1.959   4.070   0.090  0.4735 -0.3429 -0.0553
  223MPD1     H 3442   1.714   4.353   0.001  1.1720  1.4329  0.6854
  223MPD1    H1 3443   2.084   4.150  17.678 -0.4629 -1.5494  0.0249
  223MPD1    H2 3444   1.830   4.023   0.245 -0.3476  0.7495 -0.5301
  223MPD1    H3 3445   2.021   3.983   0.109 -1.2309 -1.4437  0.4467
  223MPD1     N 3446   1.932   4.360  17.611 -0.3966  0.2224 -0.5348
  223MPD1    H5 3447   1.854   4.420  17.586  0.1380  1.3604  0.4801
  223MPD1    N1 3448   1.643   4.189   0.221  0.0907 -0.5207  0.5572
  223MPD1    H6 3449   1.580   4.268   0.205  0.0936 -0.4395  0.9584
  223MPD1    H7 3450   1.609   4.101   0.257  1.9743 -1.9727 -1.2202
  224MPD1     C 3451   2.211   1.596  10.604  0.6229 -0.5557  0.4189
  224MPD1    C1 3452   2.316   1.520  10.553 -0.2147  0.5457  0.6187
  224MPD1    C2 3453   2.388   1.565  10.450  0.2129 -0.0586  0.6956
  224MPD1    C3 3454   2.391   1.698  10.421  0.0598  0.0804 -0.5736
  224MPD1    C4 3455   2.295   1.780  10.481 -0.0875 -0.4579  0.6137
  224MPD1    C5 3456   2.209   1.729  10.574 -0.0844 -0.9980  0.1836
  224MPD1     H 3457   2.462   1.500  10.405 -1.6843 -1.7065 -0.0709
  224MPD1    H1 3458   2.298   1.886  10.457  1.5576 -0.1725  2.1239
  224MPD1    H2 3459   2.149   1.564  10.687  0.9682 -2.7731 -0.1729
  224MPD1    H3 3460   2.135   1.791  10.623 -1.0018 -1.9974  0.0616
  224MPD1     N 3461   2.476   1.762  10.328 -0.1244  0.1532 -0.0470
  224MPD1    H5 3462   2.451   1.857  10.300 -0.7474 -0.6787 -2.3240
  224MPD1    N1 3463   2.313   1.383  10.592  0.7159 -0.2412 -0.3821
  224MPD1    H6 3464   2.277   1.363  10.685 -1.9239  0.6004 -1.2172
  224MPD1    H7 3465   2.402   1.333  10.591 -1.4256 -3.9770 -2.6228
  225MPD1     C 3466   4.167   2.635  12.426  0.2624 -0.1745 -0.4138
  225MPD1    C1 3467   4.163   2.512  12.351  0.1676 -0.2245  0.0058
  225MPD1    C2 3468   4.052   2.434  12.366  0.3628 -0.7870 -0.1177
  225MPD1    C3 3469   3.949   2.466  12.460  0.0774  0.2567  0.3595
  225MPD1    C4 3470   3.969   2.580  12.540  0.2816  0.5111 -0.0821
  225MPD1    C5 3471   4.076   2.661  12.518 -0.6625 -0.5235  0.2612
  225MPD1     H 3472   4.046   2.348  12.300 -2.0098 -0.9749  0.3499
  225MPD1    H1 3473   3.901   2.606  12.621 -1.0649 -2.0737 -0.3756
  225MPD1    H2 3474   4.252   2.701  12.417 -0.4085  0.7786  0.2371
  225MPD1    H3 3475   4.098   2.746  12.582 -0.1498 -0.3575 -0.1337
  225MPD1     N 3476   3.850   2.373  12.494 -0.2295  0.1680 -0.0802
  225MPD1    H5 3477   3.774   2.401  12.555 -0.4869  2.9796 -1.6797
  225MPD1    N1 3478   4.249   2.495  12.242  0.5858  0.4662  0.1447
  225MPD1    H6 3479   4.296   2.405  12.238  0.1751  0.2859 -0.6955
  225MPD1    H7 3480   4.324   2.564  12.244  0.4256  0.5958  1.6119
  226MPD1     C 3481   2.243   1.792  10.086 -0.1301 -0.5876  0.1357
  226MPD1    C1 3482   2.335   1.811   9.989  0.4722  0.5617  0.3190
  226MPD1    C2 3483   2.393   1.934   9.979  0.4258  0.2647 -0.2213
  226MPD1    C3 3484   2.373   2.034  10.067 -0.0011  0.0609  0.4837
  226MPD1    C4 3485   2.281   2.014  10.170  0.1978 -0.2893  0.4876
  226MPD1    C5 3486   2.212   1.898  10.166  0.1425  0.2716  0.4378
  226MPD1     H 3487   2.457   1.949   9.893 -0.6564  1.6561 -0.7817
  226MPD1    H1 3488   2.249   2.088  10.243  0.3993 -2.7851  3.1430
  226MPD1    H2 3489   2.197   1.695  10.097  0.1394 -0.5496  1.4992
  226MPD1    H3 3490   2.129   1.900  10.235 -1.1319  1.2083 -1.1056
  226MPD1     N 3491   2.442   2.152  10.044  0.0029 -0.2679 -0.3926
  226MPD1    H5 3492   2.512   2.150   9.970 -0.7789 -2.0725 -1.0893
  226MPD1    N1 3493   2.348   1.716   9.890  0.2803  0.6555 -0.0938
  226MPD1    H6 3494   2.436   1.714   9.839 -0.1038  4.2346 -0.8990
  226MPD1    H7 3495   2.346   1.620   9.924 -0.9861  1.2508  1.5091
  227MPD1     C 3496   2.389   2.995  10.604 -0.0197 -0.2235  0.2106
  227MPD1    C1 3497   2.361   2.862  10.629  0.5105 -0.0944 -0.2370
  227MPD1    C2 3498   2.377   2.779  10.517  0.1039  0.4629  0.0223
  227MPD1    C3 3499   2.440   2.819  10.397 -0.8364 -0.0213 -0.6054
  227MPD1    C4 3500   2.488   2.951  10.391 -0.4324 -0.2218 -0.0000
  227MPD1    C5 3501   2.465   3.034  10.493 -0.0369 -0.4297  0.1527
  227MPD1     H 3502   2.356   2.673  10.521  0.4025  0.4146  0.3627
  227MPD1    H1 3503   2.542   2.985  10.303 -1.1753 -0.6846 -0.6381
  227MPD1    H2 3504   2.365   3.066  10.682  1.1692 -0.1313  0.4919
  227MPD1    H3 3505   2.501   3.137  10.488 -3.1069  0.6537  0.1894
  227MPD1     N 3506   2.458   2.720  10.300 -0.1230 -0.1672 -0.0932
  227MPD1    H5 3507   2.410   2.632  10.314 -0.4620  0.2234  1.1608
  227MPD1    N1 3508   2.270   2.829  10.732 -0.0709 -0.6934  0.1160
  227MPD1    H6 3509   2.270   2.883  10.818  0.7999  1.5556 -1.3001
  227MPD1    H7 3510   2.297   2.734  10.759 -0.7493 -1.1068 -0.6722
  228MPD1     C 3511   1.223   4.612  12.496  0.1730 -0.6501  0.1653
  228MPD1    C1 3512   1.109   4.663  12.440 -0.3094  0.1106 -0.2277
  228MPD1    C2 3513   0.991   4.621  12.491 -0.4539 -0.4082 -0.2890
  228MPD1    C3 3514   0.980   4.538  12.599 -0.2401  0.1567  0.5325
  228MPD1    C4 3515   1.097   4.492  12.655  0.1851  0.4266 -0.4548
  228MPD1    C5 3516   1.217   4.530  12.606 -0.0032  0.0982 -0.1283
  228MPD1     H 3517   0.900   4.647  12.438 -0.7747  0.3812  0.6339
  228MPD1    H1 3518   1.101   4.435  12.747  0.1246  0.2895 -0.5379
  228MPD1    H2 3519   1.323   4.643  12.469  0.1731 -1.2815 -0.5683
  228MPD1    H3 3520   1.310   4.493  12.646 -0.1293  1.3954  1.3531
  228MPD1     N 3521   0.851   4.507  12.646  0.6929 -0.4280 -0.1289
  228MPD1    H5 3522   0.777   4.568  12.613 -0.3906 -0.8765  1.5022
  228MPD1    N1 3523   1.113   0.016  12.334 -0.1465 -0.0365  0.1603
  228MPD1    H6 3524   1.031   0.076  12.320 -0.6193 -0.4645  1.1047
  228MPD1    H7 3525   1.196   0.075  12.332  1.5791 -2.4594  0.0238
  229MPD1     C 3526   1.174   3.239  14.410 -0.6018 -0.1799  1.1387
  229MPD1    C1 3527   1.241   3.146  14.491 -0.2700 -0.3497  0.1102
  229MPD1    C2 3528   1.168   3.112  14.602 -0.5371 -0.2981 -0.0962
  229MPD1    C3 3529   1.034   3.141  14.620 -0.0674  0.0348  0.0392
  229MPD1    C4 3530   0.973   3.226  14.533  0.6689  0.0176 -0.1300
  229MPD1    C5 3531   1.047   3.276  14.428 -0.6448 -0.0943  0.4319
  229MPD1     H 3532   1.226   3.067  14.683 -1.2106 -0.0602  0.5237
  229MPD1    H1 3533   0.871   3.261  14.545 -0.0069 -1.5082 -1.2276
  229MPD1    H2 3534   1.224   3.288  14.327 -0.1831 -2.7285 -0.1211
  229MPD1    H3 3535   1.003   3.355  14.368 -0.2159 -0.9853 -1.0542
  229MPD1     N 3536   0.959   3.094  14.734 -0.0799 -0.1750 -0.5945
  229MPD1    H5 3537   0.864   3.126  14.744 -0.0170 -0.2282  0.1288
  229MPD1    N1 3538   1.378   3.135  14.480  0.3214 -0.3536 -0.4514
  229MPD1    H6 3539   1.431   3.058  14.521 -1.8686 -0.7765  1.5430
  229MPD1    H7 3540   1.388   3.126  14.379  2.3838 -0.3459 -0.2454
  230MPD1     C 3541   0.407   3.452  15.459  0.0502  0.0459  0.2011
  230MPD1    C1 3542   0.522   3.398  15.516 -0.9475  0.3731 -0.3242
  230MPD1    C2 3543   0.592   3.308  15.435  0.0262 -0.4776 -0.4729
  230MPD1    C3 3544   0.568   3.280  15.309  0.2661 -0.2553  0.2891
  230MPD1    C4 3545   0.462   3.342  15.249  0.6982  0.2736  0.4183
  230MPD1    C5 3546   0.384   3.422  15.327  0.3869  0.2467  0.2906
  230MPD1     H 3547   0.674   3.256  15.482  1.1781  2.7870  1.1424
  230MPD1    H1 3548   0.448   3.329  15.143 -3.9553  0.6103  1.0064
  230MPD1    H2 3549   0.340   3.511  15.520  0.2669  0.1245  0.3612
  230MPD1    H3 3550   0.302   3.478  15.282 -0.8819 -0.3402  1.8980
  230MPD1     N 3551   0.660   3.199  15.246 -0.5796  0.7717  0.0604
  230MPD1    H5 3552   0.728   3.155  15.307 -1.5654 -1.2928 -0.3211
  230MPD1    N1 3553   0.548   3.420  15.650  0.0367 -0.1878 -0.5076
  230MPD1    H6 3554   0.648   3.424  15.668  0.1271 -0.0572 -1.0319
  230MPD1    H7 3555   0.498   3.492  15.702  0.6473  0.0936 -0.3153
  231MPD1     C 3556   3.942   4.181  15.276  1.2530 -0.0598  0.3585
  231MPD1    C1 3557   3.894   4.230  15.163  0.5127 -0.1434  0.6250
  231MPD1    C2 3558   3.956   4.349  15.127  0.5788 -0.4289 -0.0822
  231MPD1    C3 3559   4.061   4.413  15.194  0.4029 -0.3429 -0.1973
  231MPD1    C4 3560   4.108   4.356  15.314 -0.2385 -0.1043 -0.0118
  231MPD1    C5 3561   4.050   4.234  15.345 -1.4193  0.7272  0.2105
  231MPD1     H 3562   3.918   4.395  15.036 -0.4137  0.6023  0.8540
  231MPD1    H1 3563   4.191   4.397  15.370 -0.6405 -0.5731  0.9251
  231MPD1    H2 3564   3.885   4.100  15.321  0.5468  0.1326 -0.1842
  231MPD1    H3 3565   4.073   4.184  15.438 -0.5773  1.3788  0.3507
  231MPD1     N 3566   4.106   4.540  15.146 -0.5127  0.5422 -0.3494
  231MPD1    H5 3567   4.074   4.569  15.054 -0.2298 -1.6076 -1.1285
  231MPD1    N1 3568   3.776   4.189  15.099 -0.2011  0.3535 -0.3920
  231MPD1    H6 3569   3.776   4.087  15.097 -0.2057  0.3796 -2.2311
  231MPD1    H7 3570   3.760   4.228  15.006 -2.9919  1.5168  0.5881
  232MPD1     C 3571   0.659   1.176   0.341  0.2223 -0.5206 -0.0984
  232MPD1    C1 3572   0.599   1.258   0.432 -0.2865  0.3829 -0.2244
  232MPD1    C2 3573   0.565   1.386   0.405  0.1906 -0.1952  0.2188
  232MPD1    C3 3574   0.588   1.438   0.277  0.3824  0.2884  0.4135
  232MPD1    C4 3575   0.635   1.348   0.180 -0.3916 -0.3674  0.2715
  232MPD1    C5 3576   0.671   1.220   0.210  0.6208 -0.0701 -0.4815
  232MPD1     H 3577   0.522   1.459   0.474  0.8080  0.1132  0.2720
  232MPD1    H1 3578   0.653   1.369   0.075  1.1250  3.6411  1.3256
  232MPD1    H2 3579   0.682   1.071   0.357 -1.0743 -0.4130  2.5338
  232MPD1    H3 3580   0.712   1.155   0.133 -0.7992 -2.1502  0.4902
  232MPD1     N 3581   0.555   1.570   0.248  0.4234  0.0855 -0.8764
  232MPD1    H5 3582   0.514   1.622   0.324  1.0792  1.1197 -1.2195
  232MPD1    N1 3583   0.599   1.219   0.570 -0.1315  0.4075  0.4348
  232MPD1    H6 3584   0.573   1.121   0.577  2.0373 -0.1170  0.9185
  232MPD1    H7 3585   0.523   1.265   0.621 -1.4455 -0.9626 -0.2827
  233MPD1     C 3586   2.755   1.769   0.569 -0.9872 -0.0175  0.2637
  233MPD1    C1 3587   2.710   1.667   0.492 -0.2505  0.1629 -0.0776
  233MPD1    C2 3588   2.714   1.534   0.543  0.0063  0.2595 -0.1534
  233MPD1    C3 3589   2.768   1.515   0.670  0.3127  1.0572 -0.9660
  233MPD1    C4 3590   2.822   1.620   0.738 -0.2647 -0.7301  0.8203
  233MPD1    C5 3591   2.812   1.750   0.689 -0.4263  0.4673 -0.3670
  233MPD1     H 3592   2.674   1.449   0.488  1.4698 -0.0177 -0.7869
  233MPD1    H1 3593   2.864   1.599   0.835 -0.3772 -0.1278  0.9957
  233MPD1    H2 3594   2.737   1.872   0.537 -1.3166 -0.5453 -1.2567
  233MPD1    H3 3595   2.853   1.828   0.752  0.5934 -0.0979 -0.3318
  233MPD1     N 3596   2.762   1.388   0.728  0.1086  0.3399 -0.3308
  233MPD1    H5 3597   2.826   1.364   0.803  0.5341  0.6549 -0.5957
  233MPD1    N1 3598   2.625   1.706   0.380  0.7964 -0.0901 -0.4880
  233MPD1    H6 3599   2.665   1.774   0.316 -2.1167  2.6495  0.6228
  233MPD1    H7 3600   2.598   1.632   0.315  0.2988 -0.2683 -0.0769
  234MPD1     C 3601   4.016   1.150   8.929  0.3546  0.5124  0.0342
  234MPD1    C1 3602   3.882   1.135   8.909 -0.1583 -0.5669  0.3354
  234MPD1    C2 3603   3.789   1.154   9.011 -1.2087  0.3624  0.6341
  234MPD1    C3 3604   3.831   1.190   9.135 -0.4181  0.5194 -0.3851
  234MPD1    C4 3605   3.964   1.195   9.156 -0.1187  0.6845  0.2322
  234MPD1    C5 3606   4.051   1.190   9.061  0.6552 -0.3408 -0.3960
  234MPD1     H 3607   3.681   1.146   9.002 -1.2565 -0.9433  2.2952
  234MPD1    H1 3608   4.018   1.212   9.249  1.5980  0.9381 -0.8109
  234MPD1    H2 3609   4.089   1.137   8.850 -1.0676 -0.1464 -1.1751
  234MPD1    H3 3610   4.156   1.186   9.087  0.3248 -1.0164  0.7970
  234MPD1     N 3611   3.728   1.204   9.231  0.2673  0.0019 -0.0009
  234MPD1    H5 3612   3.635   1.176   9.204 -0.0917  0.6537  0.5688
  234MPD1    N1 3613   3.840   1.122   8.779 -0.1002  0.0667 -0.2832
  234MPD1    H6 3614   3.756   1.064   8.774 -0.4716  0.4142  1.8063
  234MPD1    H7 3615   3.911   1.091   8.713  0.4444  0.0464  0.3116
  235MPD1     C 3616   4.255   3.106  10.284 -0.3202 -0.2015 -0.2011
  235MPD1    C1 3617   4.243   3.210  10.192  0.5497  0.0351  0.0582
  235MPD1    C2 3618   4.352   3.257  10.126 -0.0480  0.1120  0.3847
  235MPD1    C3 3619   4.481   3.214  10.155 -0.4319 -1.0059  0.8288
  235MPD1    C4 3620   4.494   3.106  10.251  0.1291 -0.3733 -0.0714
  235MPD1    C5 3621   4.379   3.060  10.314  0.2434  0.9249 -0.4132
  235MPD1     H 3622   4.346   3.338  10.055  3.0166  1.5209  1.7465
  235MPD1    H1 3623   4.586   3.053  10.272  0.1825 -0.3633 -0.2741
  235MPD1    H2 3624   4.174   3.056  10.337 -1.1726 -0.9047 -2.1681
  235MPD1    H3 3625   4.398   2.979  10.383  0.4102 -2.8257 -4.8224
  235MPD1     N 3626   4.584   3.268  10.075  0.0894 -0.4201  0.2137
  235MPD1    H5 3627   4.561   3.340  10.007 -1.0206  1.2572  2.3406
  235MPD1    N1 3628   4.118   3.263  10.161  0.0931 -0.2640 -0.1751
  235MPD1    H6 3629   4.051   3.190  10.186 -0.0028  0.9247  3.0142
  235MPD1    H7 3630   4.112   3.269  10.060  1.3466  0.0772 -0.2270
  236MPD1     C 3631   4.175   4.131  10.115 -0.3388 -0.0855  0.9505
  236MPD1    C1 3632   4.268   4.226  10.080  0.6259 -0.5863  1.2056
  236MPD1    C2 3633   4.396   4.221  10.133  0.4803  0.2152  0.8356
  236MPD1    C3 3634   4.423   4.131  10.235  0.2744 -0.8184  0.0767
  236MPD1    C4 3635   4.322   4.051  10.285  0.1409  0.5344 -0.7377
  236MPD1    C5 3636   4.200   4.054  10.225 -0.0566  0.0718  0.4809
  236MPD1     H 3637   4.466   4.298  10.102 -0.5932  2.0440  2.9796
  236MPD1    H1 3638   4.335   3.997  10.378 -0.2420 -1.2569 -1.7246
  236MPD1    H2 3639   4.075   4.131  10.072  0.1683  0.3455 -0.1962
  236MPD1    H3 3640   4.117   3.995  10.262  0.0712 -0.2334  0.2829
  236MPD1     N 3641   4.549   4.111  10.303 -0.5653  0.0095 -0.0815
  236MPD1    H5 3642   4.554   4.039  10.373 -0.7338  0.1017  0.0246
  236MPD1    N1 3643   4.239   4.305   9.970 -0.2849 -0.1762  0.2782
  236MPD1    H6 3644   4.295   4.388   9.984  1.2399 -1.3436  1.1128
  236MPD1    H7 3645   4.138   4.318   9.965 -0.5336 -1.9080  0.5734
  237MPD1     C 3646   0.099   2.279  14.961 -0.4522  0.7597  0.0380
  237MPD1    C1 3647   0.098   2.159  15.032  0.8701 -0.4955 -1.1737
  237MPD1    C2 3648   4.709   2.113  15.070  0.0239  0.2427  0.1078
  237MPD1    C3 3649   4.588   2.170  15.029 -0.2500  0.0323  0.3947
  237MPD1    C4 3650   4.600   2.283  14.958  0.3060 -0.0056 -0.4135
  237MPD1    C5 3651   4.716   2.334  14.922  0.4507  0.4737  0.5455
  237MPD1     H 3652   4.722   2.030  15.138 -0.9460  0.3317  0.3977
  237MPD1    H1 3653   4.509   2.330  14.922  0.3842 -0.9551 -1.8445
  237MPD1    H2 3654   0.193   2.318  14.923  1.3234 -2.8848  0.6386
  237MPD1    H3 3655   4.717   2.420  14.856 -1.4910 -1.1401 -1.5623
  237MPD1     N 3656   4.460   2.119  15.057 -0.1328  0.0312  0.2217
  237MPD1    H5 3657   4.376   2.146  15.008  0.6954  0.4220 -0.9798
  237MPD1    N1 3658   0.216   2.082  15.044  0.1123  0.1903  0.4378
  237MPD1    H6 3659   0.213   2.026  15.129 -0.6896  0.6866  0.7327
  237MPD1    H7 3660   0.299   2.140  15.041 -1.5450  2.4749 -1.1859
  238MPD1     C 3661   1.641   0.344  15.030  0.5345 -0.1528 -0.2319
  238MPD1    C1 3662   1.604   0.457  14.969  0.5924 -0.3536  0.4934
  238MPD1    C2 3663   1.485   0.466  14.903 -0.2232  0.2460 -0.3189
  238MPD1    C3 3664   1.390   0.362  14.911 -0.3116  0.1218 -0.1446
  238MPD1    C4 3665   1.431   0.240  14.981 -0.0308  0.2990  0.3594
  238MPD1    C5 3666   1.562   0.239  15.024  0.1693  0.0204  0.2101
  238MPD1     H 3667   1.454   0.564  14.870 -0.7236  0.3066  0.3229
  238MPD1    H1 3668   1.377   0.147  14.995 -1.6975  1.1152 -0.5700
  238MPD1    H2 3669   1.741   0.328  15.068 -0.8271 -1.1456  2.8617
  238MPD1    H3 3670   1.585   0.149  15.079  0.0882  0.3278  0.7522
  238MPD1     N 3671   1.262   0.363  14.849  0.9133 -0.3601 -0.2199
  238MPD1    H5 3672   1.204   0.280  14.854  0.4089  0.0208  0.2987
  238MPD1    N1 3673   1.680   0.575  14.986  0.0739 -0.2751 -0.2432
  238MPD1    H6 3674   1.665   0.645  14.914 -3.6486 -1.1151 -0.2770
  238MPD1    H7 3675   1.778   0.550  14.982  0.7800  2.2421  1.1382
  239MPD1     C 3676   0.673   0.682  13.876  0.7063 -0.5216  0.1183
  239MPD1    C1 3677   0.686   0.698  14.012  1.6531  0.5451  0.3167
  239MPD1    C2 3678   0.705   0.828  14.057 -0.2905  0.6592 -0.2219
  239MPD1    C3 3679   0.720   0.931  13.970  0.0842  0.0531 -0.4707
  239MPD1    C4 3680   0.720   0.911  13.835 -0.1507 -0.1921  0.1420
  239MPD1    C5 3681   0.694   0.786  13.788  0.0034  0.4304  0.0844
  239MPD1     H 3682   0.704   0.839  14.165  1.2903  2.9926 -0.4563
  239MPD1    H1 3683   0.738   0.984  13.757 -0.9018  0.0937  0.2359
  239MPD1    H2 3684   0.645   0.587  13.831 -1.0199  0.4500 -0.8809
  239MPD1    H3 3685   0.696   0.774  13.680  1.8005  1.3535  0.0083
  239MPD1     N 3686   0.731   1.066  14.008  0.0464  0.2573  0.3089
  239MPD1    H5 3687   0.742   1.126  13.927  0.4505 -1.9429 -1.2523
  239MPD1    N1 3688   0.652   0.595  14.097 -0.6016 -0.4493  0.6190
  239MPD1    H6 3689   0.694   0.505  14.073  1.0859  0.4095  0.3694
  239MPD1    H7 3690   0.695   0.613  14.187 -1.7873 -0.1212  1.1145
  240MPD1     C 3691   4.390   1.349  13.302 -0.0936 -0.1999 -0.6873
  240MPD1    C1 3692   4.426   1.219  13.334 -0.5527  0.6248 -0.0899
  240MPD1    C2 3693   4.546   1.193  13.402 -0.4822 -0.9794  1.0300
  240MPD1    C3 3694   4.620   1.299  13.446 -0.5484  0.1314  0.3471
  240MPD1    C4 3695   4.586   1.434  13.414  0.3124  0.2070 -0.4453
  240MPD1    C5 3696   4.457   1.451  13.359 -0.1514  0.0550 -0.1711
  240MPD1     H 3697   4.571   1.090  13.425  0.0889 -1.3097 -1.0761
  240MPD1    H1 3698   4.623   1.524  13.461  2.0772 -1.7177  1.8494
  240MPD1    H2 3699   4.300   1.367  13.245 -0.1117  1.3163 -0.1624
  240MPD1    H3 3700   4.426   1.551  13.334  1.4458  0.5066 -0.3382
  240MPD1     N 3701   4.736   1.273  13.526 -0.0044  0.7438  0.6505
  240MPD1    H5 3702   0.020   1.178  13.556 -1.6064  0.1124 -0.2234
  240MPD1    N1 3703   4.336   1.113  13.322  0.0027 -0.2159 -0.4798
  240MPD1    H6 3704   4.378   1.024  13.294 -0.5196 -0.3807 -0.7297
  240MPD1    H7 3705   4.266   1.136  13.252 -0.7278 -1.1878 -0.0649
  241MPD1     C 3706   0.589   1.928  13.980  0.1714 -0.9177 -0.2505
  241MPD1    C1 3707   0.677   1.829  13.949  0.6827 -0.6778  0.3636
  241MPD1    C2 3708   0.631   1.728  13.870 -0.1457 -0.3453  0.6616
  241MPD1    C3 3709   0.495   1.712  13.871 -0.3627  0.2167 -0.2003
  241MPD1    C4 3710   0.411   1.809  13.913 -0.3990 -0.5375  0.3443
  241MPD1    C5 3711   0.455   1.926  13.956  0.7815 -0.3571  0.1864
  241MPD1     H 3712   0.696   1.653  13.825  1.2229  2.1647 -1.5439
  241MPD1    H1 3713   0.304   1.801  13.894 -0.3173  0.4136 -0.4817
  241MPD1    H2 3714   0.625   2.022  14.022  1.3637 -1.9632  1.0955
  241MPD1    H3 3715   0.397   2.018  13.954 -0.7974 -1.3765 -0.1385
  241MPD1     N 3716   0.426   1.600  13.820 -0.5749  0.6138 -0.4174
  241MPD1    H5 3717   0.324   1.600  13.814 -0.7393  1.0505  2.4869
  241MPD1    N1 3718   0.812   1.854  13.960 -0.7582  0.7999 -0.0141
  241MPD1    H6 3719   0.863   1.766  13.960  0.9946  1.8013 -1.3759
  241MPD1    H7 3720   0.828   1.903  14.047  1.9997  0.2946 -0.2582
  242MPD1     C 3721   0.541   4.428  15.365 -0.1120 -0.1857 -0.9381
  242MPD1    C1 3722   0.553   4.326  15.457 -0.3091 -0.7345  0.2251
  242MPD1    C2 3723   0.524   4.196  15.417 -1.0436  0.3112 -0.3096
  242MPD1    C3 3724   0.512   4.163  15.283 -0.0817  0.3036  0.3989
  242MPD1    C4 3725   0.498   4.262  15.189  0.6298 -0.5138  0.5217
  242MPD1    C5 3726   0.517   4.394  15.236 -0.3477 -0.6756  0.5116
  242MPD1     H 3727   0.537   4.117  15.491  1.5551  1.4820  0.4858
  242MPD1    H1 3728   0.482   4.251  15.082 -1.1215 -0.0716  0.7319
  242MPD1    H2 3729   0.548   4.534  15.388  2.8626 -0.6014  0.1155
  242MPD1    H3 3730   0.534   4.471  15.161 -0.7713 -0.4160  0.6827
  242MPD1     N 3731   0.503   4.032  15.235 -0.4432 -0.0925  0.1744
  242MPD1    H5 3732   0.495   4.031  15.133  1.0767  0.3522  0.0525
  242MPD1    N1 3733   0.571   4.353  15.585  0.1761  0.0868 -0.4713
  242MPD1    H6 3734   0.620   4.278  15.634  0.4741  0.0977 -0.7516
  242MPD1    H7 3735   0.619   4.443  15.591  1.3168 -0.4220 -2.0846
  243MPD1     C 3736   1.300   2.522   0.073 -0.6805 -0.0821 -0.4280
  243MPD1    C1 3737   1.364   2.404   0.103 -1.0977  0.2704  0.7511
  243MPD1    C2 3738   1.491   2.387   0.041  0.0603  0.2130 -1.0969
  243MPD1    C3 3739   1.558   2.486  17.715 -0.1715  0.1230 -0.8767
  243MPD1    C4 3740   1.493   2.604  17.696  0.4825 -0.6452  0.3070
  243MPD1    C5 3741   1.366   2.611  17.739  0.0308 -0.2098  0.3493
  243MPD1     H 3742   1.535   2.289   0.052 -1.0394 -0.2403 -0.7840
  243MPD1    H1 3743   1.533   2.687  17.638 -3.1419  1.3667  0.6982
  243MPD1    H2 3744   1.197   2.541   0.101 -0.0713 -1.0248  2.4756
  243MPD1    H3 3745   1.320   2.700  17.697  1.3370  0.2901 -0.0141
  243MPD1     N 3746   1.677   2.448  17.652 -0.1045 -0.1240  0.3631
  243MPD1    H5 3747   1.708   2.353  17.673  0.3091 -0.0775 -0.0194
  243MPD1    N1 3748   1.292   2.300   0.152  0.5269  0.2949  0.7005
  243MPD1    H6 3749   1.349   2.227   0.193  0.2877 -0.3494 -0.1322
  243MPD1    H7 3750   1.219   2.330   0.217 -1.0973  0.7172 -1.3261
  244MPD1     C 3751   2.255   1.829   0.267 -0.5550  0.2469  0.1537
  244MPD1    C1 3752   2.319   1.949   0.273 -0.3374 -0.3092  0.4398
  244MPD1    C2 3753   2.272   2.056   0.205  0.3682  0.5050  0.3274
  244MPD1    C3 3754   2.173   2.045   0.105 -0.7723 -0.2204 -0.4274
  244MPD1    C4 3755   2.113   1.919   0.090  0.2219 -0.3277 -0.6618
  244MPD1    C5 3756   2.148   1.814   0.180  0.5556  0.2269  0.6750
  244MPD1     H 3757   2.317   2.152   0.230 -0.7159  0.6004  1.9057
  244MPD1    H1 3758   2.042   1.898   0.011  1.2505 -1.4880 -1.2836
  244MPD1    H2 3759   2.284   1.746   0.330  1.1385  0.8555  0.1800
  244MPD1    H3 3760   2.103   1.716   0.171 -0.6639  0.8676 -0.1551
  244MPD1     N 3761   2.148   2.158   0.019 -0.3260  0.6888 -0.1733
  244MPD1    H5 3762   2.205   2.241   0.032 -2.7111  2.1769  0.7628
  244MPD1    N1 3763   2.410   1.967   0.377 -0.3005  0.1338 -0.6701
  244MPD1    H6 3764   2.489   2.029   0.357 -0.9625 -0.1126 -3.9995
  244MPD1    H7 3765   2.462   1.880   0.389  1.4688  1.4184  1.0648
  245MPD1     C 3766   3.867   2.944  13.171 -0.9955 -0.1060  0.1611
  245MPD1    C1 3767   3.855   3.066  13.108  0.0375  0.4057 -0.3162
  245MPD1    C2 3768   3.860   3.178  13.187  0.3072 -0.6417 -0.6245
  245MPD1    C3 3769   3.854   3.174  13.315  0.0555 -0.3464  0.1440
  245MPD1    C4 3770   3.862   3.059  13.378  1.0275 -0.1005 -0.1227
  245MPD1    C5 3771   3.881   2.945  13.305  0.2606  1.0430  0.3099
  245MPD1     H 3772   3.858   3.276  13.141 -0.1089 -0.5077 -0.3151
  245MPD1    H1 3773   3.859   3.059  13.486  0.3401 -1.3130 -0.1357
  245MPD1    H2 3774   3.871   2.848  13.121  0.8780  0.1190 -0.1202
  245MPD1    H3 3775   3.894   2.848  13.351 -0.2030  1.2479  0.8766
  245MPD1     N 3776   3.858   3.295  13.387  0.2529  0.1882  0.0183
  245MPD1    H5 3777   3.866   3.376  13.326  4.5798  0.1616  0.4966
  245MPD1    N1 3778   3.878   3.076  12.970 -0.1304 -0.8607 -0.0541
  245MPD1    H6 3779   3.848   3.165  12.931  0.5012 -1.0662 -0.9967
  245MPD1    H7 3780   3.830   3.003  12.917 -0.3674  0.9510 -2.3677
  246MPD1     C 3781   4.219   2.695   9.671 -0.1506 -0.2231  0.3374
  246MPD1    C1 3782   4.173   2.776   9.567 -0.8259  0.4162 -0.0595
  246MPD1    C2 3783   4.268   2.842   9.492  0.4715 -0.1653  0.6398
  246MPD1    C3 3784   4.412   2.828   9.524  0.0984 -0.0939  0.8874
  246MPD1    C4 3785   4.450   2.736   9.623 -0.1590 -0.2179  0.7697
  246MPD1    C5 3786   4.357   2.669   9.692  0.3114 -0.1544 -0.2009
  246MPD1     H 3787   4.236   2.913   9.416  0.7267 -1.3547 -0.5854
  246MPD1    H1 3788   4.555   2.732   9.652 -0.3383  1.8402  1.6997
  246MPD1    H2 3789   4.154   2.636   9.734 -0.8104  0.7111  0.5400
  246MPD1    H3 3790   4.390   2.604   9.773  0.8338  2.2441  1.5006
  246MPD1     N 3791   4.503   2.902   9.441 -0.2964 -0.6998 -0.3459
  246MPD1    H5 3792   4.455   2.953   9.367  1.5204 -0.7916 -1.5843
  246MPD1    N1 3793   4.038   2.794   9.535  0.0949  0.6755 -0.1916
  246MPD1    H6 3794   3.967   2.778   9.605  1.0727 -1.0765  0.3995
  246MPD1    H7 3795   4.023   2.890   9.503 -0.5264  0.6611  0.0656
  247MPD1     C 3796   3.305   4.065  16.995  0.7200 -0.4904 -0.0956
  247MPD1    C1 3797   3.236   3.956  17.035  0.5062  0.3594  0.0871
  247MPD1    C2 3798   3.210   3.858  16.945  0.6026 -1.0509  0.0983
  247MPD1    C3 3799   3.249   3.865  16.814  1.0049 -0.5572  0.4902
  247MPD1    C4 3800   3.329   3.969  16.778  0.3289  0.0524  0.0800
  247MPD1    C5 3801   3.355   4.067  16.865 -0.3916 -0.1457  0.4208
  247MPD1     H 3802   3.164   3.769  16.987 -0.7427 -0.4086 -0.0505
  247MPD1    H1 3803   3.374   3.968  16.679  0.1840  0.6710  0.0100
  247MPD1    H2 3804   3.334   4.147  17.060 -2.2107 -0.8643  1.6532
  247MPD1    H3 3805   3.405   4.156  16.828  0.7849  0.1180  2.6398
  247MPD1     N 3806   3.234   3.762  16.716  0.3864  0.4463  0.2230
  247MPD1    H5 3807   3.261   3.781  16.620 -0.2371  1.8962  0.3443
  247MPD1    N1 3808   3.179   3.945  17.161  0.3286  0.5760  0.1688
  247MPD1    H6 3809   3.220   4.003  17.233  1.1040  0.0286  0.1604
  247MPD1    H7 3810   3.145   3.854  17.193  2.8703 -0.4395 -0.0646
  248MPD1     C 3811   4.398   3.215  17.029  0.0646  0.1719  0.3139
  248MPD1    C1 3812   4.383   3.090  17.089  0.0874  0.6125  0.2057
  248MPD1    C2 3813   4.372   3.087  17.227 -0.9997  0.5257 -0.6752
  248MPD1    C3 3814   4.372   3.206  17.305 -0.2181  0.3840 -0.0978
  248MPD1    C4 3815   4.371   3.333  17.233 -0.0228  0.6283  0.1508
  248MPD1    C5 3816   4.387   3.333  17.098  0.0423 -0.2466  0.2330
  248MPD1     H 3817   4.369   2.992  17.279  0.7376 -0.1382 -1.7638
  248MPD1    H1 3818   4.366   3.428  17.285  1.0878 -0.2573  1.8598
  248MPD1    H2 3819   4.415   3.216  16.922  0.3482  1.6774  0.3712
  248MPD1    H3 3820   4.409   3.427  17.051 -3.2313  0.7734  0.7020
  248MPD1     N 3821   4.365   3.208  17.443  0.4392  0.3000  0.2582
  248MPD1    H5 3822   4.348   3.114  17.477 -0.1240  0.7591  1.2391
  248MPD1    N1 3823   4.377   2.975  17.013  0.5762  0.6666  0.1634
  248MPD1    H6 3824   4.427   2.983  16.925 -0.1190  1.0552 -0.1929
  248MPD1    H7 3825   4.420   2.897  17.062  1.9041  0.9988 -0.4679
  249MPD1     C 3826   0.429   1.916  10.455 -0.3525 -0.2356 -0.1205
  249MPD1    C1 3827   0.435   2.035  10.525 -0.2718  0.6386  0.3109
  249MPD1    C2 3828   0.365   2.148  10.481 -0.1519 -0.2369  0.4421
  249MPD1    C3 3829   0.279   2.134  10.377 -0.4250  0.7502  0.4381
  249MPD1    C4 3830   0.260   2.005  10.325  0.0571 -0.1518 -0.6759
  249MPD1    C5 3831   0.336   1.897  10.358 -0.0257 -0.4989  0.3498
  249MPD1     H 3832   0.390   2.233  10.543  1.3194 -0.7798  0.5917
  249MPD1    H1 3833   0.197   1.985  10.238 -0.3126 -0.8548 -0.2485
  249MPD1    H2 3834   0.504   1.842  10.479 -0.8313 -0.5728  0.3409
  249MPD1    H3 3835   0.324   1.812  10.291 -3.6733  0.8002 -0.6725
  249MPD1     N 3836   0.217   2.247  10.327  0.6131 -0.7956  0.1265
  249MPD1    H5 3837   0.234   2.337  10.370  0.7296 -0.5865 -0.3589
  249MPD1    N1 3838   0.540   2.043  10.615 -0.4291 -0.4749  0.0339
  249MPD1    H6 3839   0.570   1.954  10.655 -0.8426  0.1157  1.6505
  249MPD1    H7 3840   0.528   2.121  10.679  1.2299 -1.0632  1.0873
  250MPD2     C 3841   1.675   2.076  12.769 -0.4472  0.6743 -0.2153
  250MPD2    C1 3842   1.684   2.034  12.900  0.5386  0.1805 -0.2012
  250MPD2    C2 3843   1.590   1.947  12.946 -0.2233  0.1410  0.1645
  250MPD2    C3 3844   1.491   1.887  12.867 -0.2773  0.1722 -0.5059
  250MPD2    C4 3845   1.475   1.938  12.740 -0.1396 -0.1847  0.2740
  250MPD2    C5 3846   1.563   2.040  12.695 -0.1286 -0.1121  0.3871
  250MPD2     H 3847   1.584   1.911  13.048  2.0391  1.3539  0.7132
  250MPD2    H1 3848   1.395   1.898  12.680  0.3759 -1.4994  0.4646
  250MPD2    H2 3849   1.745   2.149  12.731 -1.2524  1.4301 -0.2312
  250MPD2    H3 3850   1.546   2.091  12.601 -0.3512  1.3624  1.2236
  250MPD2     N 3851   1.414   1.775  12.904 -0.4733  0.8274  0.5749
  250MPD2    H5 3852   1.352   1.743  12.831  0.8191 -1.0910  0.3331
  250MPD2    N1 3853   1.790   2.080  12.979  0.0336 -0.8705  0.1618
  250MPD2    H7 3854   1.854   2.135  12.923  0.3315 -1.6045 -0.2343
  251TMC3    C1 3855   1.891   2.169  13.161  0.2622  0.6335  0.6607
  251TMC3    C2 3856   1.870   2.231  13.289  0.2952 -0.2247 -0.5636
  251TMC3    C3 3857   1.973   2.307  13.337  0.4505 -0.6531 -0.5150
  251TMC3    C4 3858   2.010   2.194  13.091  0.0835 -0.4601 -0.3522
  251TMC3    C5 3859   2.091   2.289  13.134 -0.0534  0.2782  0.5788
  251TMC3    C6 3860   2.074   2.345  13.255  0.2722 -0.6274 -0.2038
  251TMC3     C 3861   1.790   2.081  13.118 -0.1290 -0.0005  0.7669
  251TMC3     O 3862   1.714   2.039  13.207 -0.3040 -0.1718 -0.1092
  251TMC3     H 3863   1.783   2.227  13.353  1.5779  0.6872  1.2250
  251TMC3    H1 3864   2.031   2.144  12.997  1.1220 -0.3300 -0.1906
  251TMC3    H2 3865   2.148   2.413  13.296 -0.3253  0.1056 -0.3443
  251TMC3    C7 3866   2.226   2.292  13.092 -0.4662  0.8216 -0.3903
  251TMC3    C8 3867   1.914   2.410  13.424 -0.5322 -0.2089 -0.5275
  251TMC3    O1 3868   2.285   2.191  13.128 -0.8574 -0.0465 -0.0358
  251TMC3    O2 3869   1.876   2.371  13.535  0.2398  0.3288  0.5825
  252TMC3    C1 3870   2.180   4.032   9.539 -0.5330  0.1342  0.3133
  252TMC3    C2 3871   2.282   3.940   9.547 -0.9453 -0.4958  0.0976
  252TMC3    C3 3872   2.307   3.891   9.668 -0.6998  1.0266 -0.0401
  252TMC3    C4 3873   2.094   4.055   9.639  0.1718  0.4211 -0.2335
  252TMC3    C5 3874   2.117   3.994   9.760 -0.0777 -0.1277 -0.1722
  252TMC3    C6 3875   2.223   3.903   9.772  0.4704 -0.2244 -0.0742
  252TMC3     C 3876   2.172   4.119   9.417 -0.6421  0.0405  0.0023
  252TMC3     O 3877   2.082   4.200   9.412 -0.4933 -0.2116 -0.1082
  252TMC3     H 3878   2.349   3.925   9.463 -0.9920  0.7984 -0.1638
  252TMC3    H1 3879   2.014   4.129   9.638 -0.3550 -0.1471 -0.1891
  252TMC3    H2 3880   2.254   3.877   9.873  1.4025 -0.8529 -0.5289
  252TMC3    C7 3881   2.026   4.023   9.867 -0.2239  0.2150 -0.0072
  252TMC3    C8 3882   2.451   3.872   9.684  0.1421  0.1358  0.5943
  252TMC3    O1 3883   1.970   4.133   9.877 -0.1546  0.7136 -0.4553
  252TMC3    O2 3884   2.518   3.842   9.589  0.4299 -0.3325 -0.0183
  253MPD2     C 3885   4.031   2.293  15.079 -0.4557 -0.5343 -0.4051
  253MPD2    C1 3886   3.895   2.264  15.073  0.6281 -0.5970  0.3793
  253MPD2    C2 3887   3.835   2.214  15.191  0.4141 -0.1742  0.5175
  253MPD2    C3 3888   3.905   2.214  15.313 -0.2584 -0.1043 -0.3126
  253MPD2    C4 3889   4.041   2.241  15.313 -0.6007  0.1559 -0.3413
  253MPD2    C5 3890   4.100   2.296  15.195  0.1323 -0.2445  0.2075
  253MPD2     H 3891   3.728   2.194  15.192  0.6162 -1.4309 -3.2327
  253MPD2    H1 3892   4.094   2.229  15.406 -0.3873 -3.1259 -0.8909
  253MPD2    H2 3893   4.076   2.337  14.990 -0.6112  1.4309  0.4914
  253MPD2    H3 3894   4.206   2.320  15.190  0.7302 -2.6032  1.9092
  253MPD2     N 3895   3.846   2.170  15.431  0.3701 -0.1757  0.2411
  253MPD2    H5 3896   3.909   2.144  15.506  0.5567  2.9036  1.1547
  253MPD2    N1 3897   3.811   2.278  14.958  0.3326  0.0940 -0.4027
  253MPD2    H7 3898   3.715   2.249  14.975 -0.0556  1.4500 -0.3144
  254TMC3    C1 3899   3.660   2.123  15.586 -0.5686  0.2658 -0.4842
  254TMC3    C2 3900   3.528   2.148  15.621 -0.4961  0.0811 -0.1143
  254TMC3    C3 3901   3.470   2.067  15.716 -0.6736  0.0102 -0.4320
  254TMC3    C4 3902   3.734   2.030  15.655 -0.3711 -0.0574  1.0191
  254TMC3    C5 3903   3.666   1.964  15.759  0.1367 -0.5870 -0.2545
  254TMC3    C6 3904   3.532   1.968  15.781 -0.0545 -0.2793 -0.2910
  254TMC3     C 3905   3.705   2.173  15.451  1.0682 -0.1242 -0.0697
  254TMC3     O 3906   3.623   2.229  15.379 -0.1339  0.2160  0.5055
  254TMC3     H 3907   3.480   2.227  15.566  1.4569  0.0026 -1.9464
  254TMC3    H1 3908   3.830   1.995  15.620 -0.9024  0.3585 -0.8557
  254TMC3    H2 3909   3.480   1.917  15.862  0.1380  1.5689  0.9850
  254TMC3    C7 3910   3.745   1.906  15.871 -1.3345 -0.3250  0.1668
  254TMC3    C8 3911   3.330   2.078  15.741  0.5522 -0.6151 -0.6826
  254TMC3    O1 3912   3.670   1.826  15.928  0.7023  0.3002  0.6243
  254TMC3    O2 3913   3.273   2.001  15.815  0.5104 -0.0446  0.6077
  255MPD2     C 3914   1.241   4.544  10.620  0.1249 -0.1322 -0.4394
  255MPD2    C1 3915   1.331   4.607  10.698 -0.7083  0.5114 -0.3861
  255MPD2    C2 3916   1.457   4.616  10.644 -0.1903  0.3576  0.0003
  255MPD2    C3 3917   1.504   4.556  10.530  0.1738 -0.0167 -0.5940
  255MPD2    C4 3918   1.418   4.471  10.467  0.4895  1.0511 -0.4004
  255MPD2    C5 3919   1.290   4.484  10.509 -0.2364  0.4499 -0.2328
  255MPD2     H 3920   1.530   4.672  10.702  1.3980 -0.8095 -0.8875
  255MPD2    H1 3921   1.440   4.407  10.382  0.6596  0.2127  0.2800
  255MPD2    H2 3922   1.135   4.532  10.640  0.0361  0.8841 -0.3085
  255MPD2    H3 3923   1.209   4.438  10.453 -0.1512 -0.0435  0.0533
  255MPD2     N 3924   1.635   4.586  10.484  0.1229  0.1743  0.8976
  255MPD2    H5 3925   1.681   4.665  10.527  2.7498 -1.0097  0.3107
  255MPD2    N1 3926   1.284   4.658  10.820  0.0759 -0.5992  0.1956
  255MPD2    H7 3927   1.191   4.629  10.849  0.6139 -1.5686  0.9493
  256TMC3    C1 3928   1.257   0.078  10.993 -0.1132  0.3901 -0.6106
  256TMC3    C2 3929   1.332   0.178  11.054 -0.2697 -0.4509 -0.3297
  256TMC3    C3 3930   1.284   0.302  11.034 -0.1574 -0.2264 -0.4473
  256TMC3    C4 3931   1.131   0.100  10.948 -0.0463 -0.1049 -0.3979
  256TMC3    C5 3932   1.100   0.233  10.917 -0.2855 -0.0048 -0.4749
  256TMC3    C6 3933   1.173   0.337  10.963 -0.8158  0.7046 -0.0147
  256TMC3     C 3934   1.349   0.010  10.904  0.5692  0.6696  0.2434
  256TMC3     O 3935   1.460   0.063  10.894 -0.2883  0.0510 -0.0799
  256TMC3     H 3936   1.430   0.151  11.093  1.3735  2.1255 -2.7320
  256TMC3    H1 3937   1.065   0.017  10.926  1.1299 -1.3675  0.7956
  256TMC3    H2 3938   1.149   0.443  10.953 -0.8389  0.4834 -2.1298
  256TMC3    C7 3939   1.071   0.258  10.781  0.7279 -0.7625 -0.0313
  256TMC3    C8 3940   1.372   0.417  11.040  0.0144  1.0797 -0.5057
  256TMC3    O1 3941   1.143   0.336  10.717  0.3956 -0.6703  0.3122
  256TMC3    O2 3942   1.340   0.514  11.100 -0.4887 -0.0864  0.3704
  257MPD2     C 3943   0.561   1.752  13.403 -0.4174  0.2605  0.4503
  257MPD2    C1 3944   0.608   1.735  13.277 -0.4619  0.1649  0.5379
  257MPD2    C2 3945   0.690   1.625  13.250  0.2276 -0.2530 -0.8118
  257MPD2    C3 3946   0.718   1.531  13.347 -0.1668  0.0611  0.3921
  257MPD2    C4 3947   0.667   1.543  13.476  0.2013 -0.6890 -0.6339
  257MPD2    C5 3948   0.586   1.652  13.503 -0.3729  0.2525  0.2194
  257MPD2     H 3949   0.737   1.614  13.153  1.8817 -2.1458  0.2133
  257MPD2    H1 3950   0.705   1.471  13.548 -0.6013 -0.4085  0.0643
  257MPD2    H2 3951   0.503   1.840  13.425  0.8938  0.6172  2.5108
  257MPD2    H3 3952   0.536   1.678  13.596 -0.4829  0.5667  0.0718
  257MPD2     N 3953   0.805   1.427  13.308  1.0036 -0.5304 -0.3336
  257MPD2    H5 3954   0.841   1.423  13.213 -1.5684  1.1135 -1.4050
  257MPD2    N1 3955   0.567   1.827  13.174 -0.1698  0.5613 -0.6224
  257MPD2    H7 3956   0.485   1.883  13.191 -0.1041  0.4111  0.1961
  258TMC3    C1 3957   0.931   1.242  13.309 -0.3647  0.9102 -0.0561
  258TMC3    C2 3958   0.885   1.202  13.185  0.4466 -0.7090  0.1251
  258TMC3    C3 3959   0.937   1.086  13.134 -0.2356 -0.5823  0.2227
  258TMC3    C4 3960   1.030   1.177  13.377  0.2433 -0.1280  0.1271
  258TMC3    C5 3961   1.090   1.069  13.315  0.0082 -0.1979  0.0291
  258TMC3    C6 3962   1.042   1.022  13.192  0.0276  0.7957  0.2476
  258TMC3     C 3963   0.846   1.325  13.385  0.6474 -0.1666 -0.4116
  258TMC3     O 3964   0.822   1.295  13.504  0.2706  0.4503  0.1812
  258TMC3     H 3965   0.790   1.234  13.144  0.1686 -0.8372  0.6714
  258TMC3    H1 3966   1.043   1.189  13.484 -0.7909  3.0112 -0.1113
  258TMC3    H2 3967   1.087   0.937  13.142  0.7829  0.6144  1.2409
  258TMC3    C7 3968   1.187   0.979  13.369 -0.1089  0.4714  0.5310
  258TMC3    C8 3969   0.868   1.023  13.025 -0.1792  0.2224  0.3399
  258TMC3    O1 3970   1.205   0.869  13.321 -0.0404 -0.1805  0.9639
  258TMC3    O2 3971   0.777   1.086  12.970  0.1279  0.3755 -0.8797
  259MPD2     C 3972   0.326   3.508  17.637 -0.2183  0.9311 -0.6105
  259MPD2    C1 3973   0.346   3.424  17.744  0.0468 -0.8389 -0.2551
  259MPD2    C2 3974   0.391   3.296  17.727  0.2172  0.5643  0.2747
  259MPD2    C3 3975   0.428   3.257  17.601  0.5476 -0.1319 -0.1465
  259MPD2    C4 3976   0.407   3.337  17.494 -0.5321 -0.4079  0.0722
  259MPD2    C5 3977   0.357   3.463  17.514 -0.5924 -0.0276  1.1431
  259MPD2     H 3978   0.419   3.235   0.064 -2.9317  0.3600  1.1581
  259MPD2    H1 3979   0.431   3.314  17.391  0.1300 -3.0528  0.8107
  259MPD2    H2 3980   0.291   3.609  17.654  0.0694  0.7986  0.7962
  259MPD2    H3 3981   0.355   3.533  17.431  0.5167 -1.2022  0.1451
  259MPD2     N 3982   0.499   3.137  17.595 -0.0071 -0.0205 -0.2069
  259MPD2    H5 3983   0.523   3.085  17.679 -2.8817 -3.2009 -1.3222
  259MPD2    N1 3984   0.315   3.477   0.116  0.4606 -0.7766 -0.1660
  259MPD2    H7 3985   0.299   3.578   0.115  1.3609 -0.6164  0.9611
  260TMC3    C1 3986   0.626   2.961  17.517 -0.6138 -0.2169  0.1118
  260TMC3    C2 3987   0.639   2.860  17.425 -0.2793  0.6929  0.3537
  260TMC3    C3 3988   0.718   2.752  17.468  0.9273  0.2682 -0.0763
  260TMC3    C4 3989   0.712   2.976  17.624  0.2342  0.6258  0.0107
  260TMC3    C5 3990   0.796   2.871  17.657 -0.0490 -0.0641  0.4267
  260TMC3    C6 3991   0.804   2.760  17.581 -0.0764  0.6921  0.3107
  260TMC3     C 3992   0.550   3.081  17.480  0.1419  0.6220 -0.1345
  260TMC3     O 3993   0.529   3.095  17.360  0.9224  0.0342  0.0844
  260TMC3     H 3994   0.571   2.843  17.343 -0.4326  0.3198  0.5607
  260TMC3    H1 3995   0.712   3.067  17.682 -0.0518  0.9613 -0.5106
  260TMC3    H2 3996   0.841   2.672  17.631 -0.0089  0.6584  0.2017
  260TMC3    C7 3997   0.835   2.859   0.047 -0.3406  0.2669 -0.7068
  260TMC3    C8 3998   0.704   2.629  17.397  0.0209  0.5835 -0.4240
  260TMC3    O1 3999   0.951   2.817   0.063  0.0487  0.1096 -0.3420
  260TMC3    O2 4000   0.679   2.629  17.277  0.2964  0.1909  0.1435
  261MPD2     C 4001   0.884   1.401  12.582 -0.1258 -0.2879 -0.1718
  261MPD2    C1 4002   1.006   1.462  12.585  0.0908  0.1896 -0.3447
  261MPD2    C2 4003   1.048   1.528  12.473 -0.3052 -0.3381  0.4852
  261MPD2    C3 4004   0.959   1.542  12.366 -0.1426 -0.1775 -0.3724
  261MPD2    C4 4005   0.836   1.488  12.365 -0.5908  0.1813  0.2777
  261MPD2    C5 4006   0.800   1.410  12.472  0.4694 -0.2768 -0.3821
  261MPD2     H 4007   1.138   1.587  12.474 -0.7345  0.3292 -0.3027
  261MPD2    H1 4008   0.767   1.502  12.283 -0.7865 -0.2587  0.3695
  261MPD2    H2 4009   0.853   1.343  12.668  0.3968  0.7172  0.6909
  261MPD2    H3 4010   0.707   1.355  12.469  0.4743 -0.2905 -0.2781
  261MPD2     N 4011   1.004   1.631  12.262 -0.7273  0.1052 -0.0797
  261MPD2    H5 4012   1.093   1.678  12.275 -0.0081 -1.2786 -0.1035
  261MPD2    N1 4013   1.096   1.466  12.689  0.0933  0.4539 -0.0987
  261MPD2    H7 4014   1.180   1.520  12.672  0.3597  0.5451  1.4756
  262TMC3    C1 4015   1.003   1.798  12.105  0.4548  0.6062 -0.3589
  262TMC3    C2 4016   0.925   1.910  12.072  0.0505  1.2053  0.6931
  262TMC3    C3 4017   0.993   2.027  12.044 -0.4481 -0.3897 -0.0026
  262TMC3    C4 4018   1.138   1.797  12.110  0.4188 -0.0248 -0.1522
  262TMC3    C5 4019   1.195   1.918  12.098 -1.2777  0.0943  0.0156
  262TMC3    C6 4020   1.130   2.029  12.052  0.4045 -0.0265 -0.2235
  262TMC3     C 4021   0.930   1.686  12.160 -0.1838 -0.8081 -0.3372
  262TMC3     O 4022   0.814   1.678  12.137  0.8112  0.3274 -0.1154
  262TMC3     H 4023   0.817   1.913  12.067 -0.1449 -1.6480  2.9190
  262TMC3    H1 4024   1.197   1.707  12.121  1.4085  0.9407  2.5635
  262TMC3    H2 4025   1.189   2.118  12.033  1.4472 -0.6308  0.2367
  262TMC3    C7 4026   1.337   1.916  12.080  0.1726 -0.4855 -1.1497
  262TMC3    C8 4027   0.922   2.148  12.004  0.1765 -0.4319  0.1799
  262TMC3    O1 4028   1.408   1.864  12.162 -0.1065 -0.2120  0.1280
  262TMC3    O2 4029   0.991   2.249  12.012 -0.2868  0.2775 -0.0295
  263MPD2     C 4030   2.472   1.165  11.466 -1.1390  0.4368 -0.1370
  263MPD2    C1 4031   2.611   1.146  11.452  0.6392  0.0225 -0.0824
  263MPD2    C2 4032   2.687   1.234  11.375 -0.3034 -0.2037 -0.6071
  263MPD2    C3 4033   2.624   1.333  11.306  0.0833 -0.0303  0.5726
  263MPD2    C4 4034   2.488   1.348  11.316  0.2865  0.2339 -0.1689
  263MPD2    C5 4035   2.411   1.267  11.398 -0.2807 -0.4367 -0.1020
  263MPD2     H 4036   2.794   1.221  11.387 -0.4611 -0.6912  0.3267
  263MPD2    H1 4037   2.436   1.423  11.257 -0.3875 -0.1237 -0.0320
  263MPD2    H2 4038   2.408   1.096  11.519  0.8173 -0.7249  0.7349
  263MPD2    H3 4039   2.306   1.284  11.417 -0.0852  1.7519 -0.9890
  263MPD2     N 4040   2.710   1.416  11.230  0.0242 -0.3628  0.6458
  263MPD2    H5 4041   2.806   1.390  11.214 -0.3600 -1.7565  0.5938
  263MPD2    N1 4042   2.658   1.024  11.506  0.2760  0.7523 -0.0957
  263MPD2    H7 4043   2.584   0.975  11.556  1.4549 -2.2860 -1.3956
  264TMC3    C1 4044   2.789   1.609  11.129  0.2951  0.2714 -0.3415
  264TMC3    C2 4045   2.794   1.750  11.160  0.5152  0.2203  0.0524
  264TMC3    C3 4046   2.906   1.817  11.114 -0.3485 -0.1381  0.0627
  264TMC3    C4 4047   2.883   1.542  11.053 -0.5117 -0.0621 -0.4533
  264TMC3    C5 4048   2.981   1.621  10.999 -0.1196  0.4118 -0.8770
  264TMC3    C6 4049   2.999   1.751  11.040  0.2367  0.3227 -0.0768
  264TMC3     C 4050   2.680   1.539  11.174  0.5627  0.4106  0.7855
  264TMC3     O 4051   2.577   1.601  11.180  0.4215  0.1338  0.6745
  264TMC3     H 4052   2.713   1.804  11.208  0.0764  0.1838 -0.6630
  264TMC3    H1 4053   2.873   1.438  11.023  1.4904 -0.3651 -0.0822
  264TMC3    H2 4054   3.089   1.801  11.005  0.4891  1.7255  2.5732
  264TMC3    C7 4055   3.067   1.559  10.899 -0.1509 -0.2510 -0.1920
  264TMC3    C8 4056   2.954   1.931  11.196  0.5073 -0.2429  0.1800
  264TMC3    O1 4057   3.114   1.643  10.827 -0.6339 -0.8020  0.2409
  264TMC3    O2 4058   3.044   2.007  11.154 -0.3236  0.2039 -0.1064
  265MPD2     C 4059   4.451   1.325  15.520 -0.5265 -0.3098 -0.5123
  265MPD2    C1 4060   4.543   1.429  15.502 -0.2482 -0.6121 -0.9479
  265MPD2    C2 4061   4.636   1.406  15.403  0.1819  0.0388 -0.2861
  265MPD2    C3 4062   4.668   1.281  15.353 -0.0558  0.8097 -0.7855
  265MPD2    C4 4063   4.577   1.185  15.375  0.3530 -0.5983  0.3463
  265MPD2    C5 4064   4.466   1.202  15.453  0.7120  0.3487 -0.6390
  265MPD2     H 4065   4.706   1.482  15.374 -0.4081  0.3250 -0.9498
  265MPD2    H1 4066   4.575   1.088  15.326 -2.6892  0.1748 -1.0180
  265MPD2    H2 4067   4.366   1.330  15.586  0.9895 -1.3686  1.5372
  265MPD2    H3 4068   4.394   1.122  15.455 -0.8090  1.7786  1.2025
  265MPD2     N 4069   0.053   1.245  15.285  0.1757 -0.0957 -0.6602
  265MPD2    H5 4070   0.059   1.149  15.250  0.6508 -0.4192  0.3085
  265MPD2    N1 4071   4.533   1.550  15.580  0.4218  0.1915  0.7154
  265MPD2    H7 4072   4.585   1.631  15.546  0.9032 -0.7329 -0.7984
  266TMC3    C1 4073   4.479   1.679  15.760  0.2806 -0.2781 -0.4817
  266TMC3    C2 4074   4.494   1.696  15.894  0.0971 -0.0517  0.1708
  266TMC3    C3 4075   4.479   1.822  15.953 -0.5805 -0.4910 -0.5603
  266TMC3    C4 4076   4.435   1.788  15.673  0.5815 -0.0809  0.3326
  266TMC3    C5 4077   4.412   1.908  15.741 -0.2894  0.2629 -0.0929
  266TMC3    C6 4078   4.431   1.925  15.880  0.7305  0.1826  0.9495
  266TMC3     C 4079   4.484   1.547  15.705  0.5137  0.3654  0.2112
  266TMC3     O 4080   4.471   1.448  15.772  0.0834  0.3040 -0.0401
  266TMC3     H 4081   4.494   1.611  15.962  1.1836  0.0436  0.2958
  266TMC3    H1 4082   4.418   1.771  15.567 -1.3862  0.4727  0.5639
  266TMC3    H2 4083   4.417   2.018  15.935  0.5911  0.6091  0.1911
  266TMC3    C7 4084   4.423   2.024  15.651  0.7429 -0.4996 -0.1939
  266TMC3    C8 4085   4.482   1.815  16.096 -0.0401 -0.1338 -0.3857
  266TMC3    O1 4086   4.477   1.995  15.543 -0.2738  0.1245  0.0028
  266TMC3    O2 4087   4.480   1.707  16.156 -0.1342 -0.4712 -0.3279
  267MPD2     C 4088   2.829   2.890   0.148  0.1827  0.8946  0.3897
  267MPD2    C1 4089   2.853   3.021   0.139  0.2842 -0.2021  0.1154
  267MPD2    C2 4090   2.752   3.109   0.095 -0.1714  0.1613  0.2178
  267MPD2    C3 4091   2.627   3.058   0.070 -0.0190  0.2677  0.7281
  267MPD2    C4 4092   2.613   2.917   0.074 -1.0008 -0.3289  0.5347
  267MPD2    C5 4093   2.708   2.830   0.111  0.2875 -0.0699  0.4328
  267MPD2     H 4094   2.761   3.217   0.092 -1.3710  0.2018 -1.6288
  267MPD2    H1 4095   2.519   2.874   0.040 -0.0087 -1.8719 -0.2626
  267MPD2    H2 4096   2.909   2.818   0.160 -1.5205 -1.3147 -1.5813
  267MPD2    H3 4097   2.691   2.724   0.102  0.0225  0.0316 -0.2243
  267MPD2     N 4098   2.508   3.132   0.049 -0.5477 -0.3138 -0.1736
  267MPD2    H5 4099   2.422   3.079   0.037 -1.6206  1.4353 -0.0553
  267MPD2    N1 4100   2.981   3.072   0.178 -1.0692 -0.1697 -0.2198
  267MPD2    H7 4101   3.042   3.018   0.237 -1.1270 -0.7529 -0.6897
  268TMC3    C1 4102   3.117   3.241   0.257 -0.2667 -0.3661 -0.6713
  268TMC3    C2 4103   3.209   3.342   0.223 -0.0376 -0.7532 -0.1881
  268TMC3    C3 4104   3.291   3.389   0.323  1.1445 -0.6697  0.4043
  268TMC3    C4 4105   3.099   3.206   0.387 -0.4653  0.5363  0.9362
  268TMC3    C5 4106   3.172   3.272   0.483  0.6191  0.1198  0.1971
  268TMC3    C6 4107   3.273   3.357   0.455 -0.6554 -0.4977  0.2350
  268TMC3     C 4108   3.023   3.197   0.158 -0.3987 -1.0760 -0.0213
  268TMC3     O 4109   2.985   3.278   0.074  0.1555 -0.6420  0.0475
  268TMC3     H 4110   3.207   3.369   0.118 -1.6170 -0.3213 -0.0501
  268TMC3    H1 4111   3.023   3.136   0.422  1.5477 -1.8648  0.5546
  268TMC3    H2 4112   3.329   3.409   0.532  0.0990  0.0009 -0.6487
  268TMC3    C7 4113   3.146   3.228   0.617 -0.4920  0.4271  1.2832
  268TMC3    C8 4114   3.384   3.501   0.295 -0.4093 -0.4615  0.2717
  268TMC3    O1 4115   3.234   3.208   0.696 -0.3651  0.2660  0.0372
  268TMC3    O2 4116   3.458   3.528   0.383  0.9511 -0.1646  0.3785
  269MPD2     C 4117   3.269   2.127  15.310  0.6528 -0.1598  0.2541
  269MPD2    C1 4118   3.140   2.133  15.353 -0.3407 -0.2788 -0.0176
  269MPD2    C2 4119   3.056   2.241  15.322  0.7403 -0.6437  0.1894
  269MPD2    C3 4120   3.110   2.341  15.245 -0.6184  0.1983  0.1565
  269MPD2    C4 4121   3.246   2.340  15.199  0.7684  0.1118  0.1595
  269MPD2    C5 4122   3.324   2.234  15.241 -0.7454 -0.8035  0.2378
  269MPD2     H 4123   2.953   2.250  15.354  0.6254 -0.9526 -0.1018
  269MPD2    H1 4124   3.291   2.427  15.153 -1.2641  0.6032 -0.9450
  269MPD2    H2 4125   3.341   2.048  15.329 -2.3331 -3.3091 -1.6649
  269MPD2    H3 4126   3.431   2.230  15.227 -0.8470  0.7164 -1.0487
  269MPD2     N 4127   3.027   2.455  15.223 -0.6155  0.4588  0.5781
  269MPD2    H5 4128   2.936   2.454  15.269 -1.0001 -0.3592 -0.1988
  269MPD2    N1 4129   3.090   2.017  15.411  1.0283  0.3144  0.1599
  269MPD2    H7 4130   3.162   1.949  15.435  1.1916  0.3369 -0.2762
  270TMC3    C1 4131   2.940   1.838  15.464 -0.4287  0.2830  0.6859
  270TMC3    C2 4132   2.810   1.803  15.477 -0.0857  0.3870  0.4467
  270TMC3    C3 4133   2.762   1.692  15.418  0.6102 -0.5113 -0.2178
  270TMC3    C4 4134   3.027   1.753  15.403 -1.0037 -0.6228  0.3790
  270TMC3    C5 4135   2.980   1.637  15.354 -0.0243  0.4551 -0.1444
  270TMC3    C6 4136   2.845   1.605  15.354  0.4392 -0.6314  0.2538
  270TMC3     C 4137   2.958   1.975  15.425 -0.1608 -0.3000 -0.5900
  270TMC3     O 4138   2.860   2.047  15.413 -0.7821  0.5377  0.0251
  270TMC3     H 4139   2.738   1.875  15.514 -1.6349 -1.0720  0.2269
  270TMC3    H1 4140   3.129   1.784  15.381 -1.4392  0.5417  0.0601
  270TMC3    H2 4141   2.807   1.505  15.338  0.0546 -0.6630  1.3753
  270TMC3    C7 4142   3.066   1.541  15.301 -0.1556 -0.5925 -0.0561
  270TMC3    C8 4143   2.623   1.694  15.382  0.7497  0.9718 -0.3034
  270TMC3    O1 4144   3.180   1.565  15.340 -0.0467  0.4951 -0.6518
  270TMC3    O2 4145   2.539   1.754  15.452  0.4097 -0.6898 -0.0284
  271MPD2     C 4146   1.527   1.744  13.824 -0.0578 -0.1617  0.0672
  271MPD2    C1 4147   1.554   1.864  13.894 -0.1332 -0.1363 -0.0929
  271MPD2    C2 4148   1.463   1.965  13.891 -1.0214 -0.8809 -0.2672
  271MPD2    C3 4149   1.358   1.959  13.805  0.0007  0.1227 -0.0010
  271MPD2    C4 4150   1.339   1.849  13.730 -0.2675  0.0088  0.3234
  271MPD2    C5 4151   1.419   1.741  13.745 -0.2699  0.4670 -0.7134
  271MPD2     H 4152   1.477   2.056  13.948 -0.1187 -0.3264 -1.3840
  271MPD2    H1 4153   1.254   1.838  13.663 -0.5048 -0.3895  0.6889
  271MPD2    H2 4154   1.593   1.659  13.828 -0.6276 -0.5724  0.7111
  271MPD2    H3 4155   1.402   1.658  13.678  0.4264  0.1364 -0.4722
  271MPD2     N 4156   1.270   2.062  13.769  0.4456  0.0198 -0.0006
  271MPD2    H5 4157   1.207   2.036  13.694  0.7660 -0.8616  0.0317
  271MPD2    N1 4158   1.660   1.868  13.988 -0.2035  0.0923 -0.2029
  271MPD2    H7 4159   1.657   1.946  14.053 -2.1742 -0.6865  0.6362
  272TMC3    C1 4160   1.862   1.831  14.097 -0.1462 -0.0852 -0.5994
  272TMC3    C2 4161   1.991   1.789  14.060 -0.5939  0.2420  0.5319
  272TMC3    C3 4162   2.078   1.759  14.164  0.1763 -0.5107  0.2146
  272TMC3    C4 4163   1.823   1.846  14.227 -0.2669  0.5761 -0.0327
  272TMC3    C5 4164   1.911   1.830  14.327  0.0208  0.2672  0.4456
  272TMC3    C6 4165   2.045   1.788  14.294 -0.3183  0.3032 -0.2765
  272TMC3     C 4166   1.766   1.785  14.002  0.0353 -0.0577  0.5037
  272TMC3     O 4167   1.806   1.700  13.924  0.9156 -0.2927 -0.6016
  272TMC3     H 4168   2.007   1.771  13.954  0.9558  0.5262  0.7134
  272TMC3    H1 4169   1.729   1.891  14.255 -0.0419 -1.6691  4.2900
  272TMC3    H2 4170   2.110   1.743  14.368 -2.3653 -2.0850  0.0670
  272TMC3    C7 4171   1.868   1.853  14.464  0.1397 -0.1730  0.2485
  272TMC3    C8 4172   2.210   1.712  14.131  0.9403  0.6970  0.1587
  272TMC3    O1 4173   1.750   1.844  14.485 -0.7273  0.2076  0.5615
  272TMC3    O2 4174   2.246   1.727  14.017 -0.4266  0.6753 -0.5170
  273MPD2     C 4175   2.684   0.055  11.759  0.0046  0.0427  0.2264
  273MPD2    C1 4176   2.795   0.012  11.686 -0.3826  0.6316 -0.0762
  273MPD2    C2 4177   2.780   4.655  11.587  0.1828 -0.2544 -1.1794
  273MPD2    C3 4178   2.660   4.601  11.556 -0.1149 -0.0155 -0.4232
  273MPD2    C4 4179   2.546   4.658  11.618  0.4545  0.3131 -0.9063
  273MPD2    C5 4180   2.564   0.005  11.723 -0.1556  0.6522 -0.1461
  273MPD2     H 4181   2.859   4.637  11.515  0.1846 -2.6591 -0.5849
  273MPD2    H1 4182   2.445   4.625  11.595  0.8172 -1.2519 -0.2677
  273MPD2    H2 4183   2.682   0.126  11.841  0.7264 -0.6816  0.8675
  273MPD2    H3 4184   2.476   0.036  11.778  0.2421 -1.1470  1.5013
  273MPD2     N 4185   2.630   4.537  11.436 -0.2001 -0.3500 -0.3058
  273MPD2    H5 4186   2.540   4.535  11.390  0.3302  0.7249 -1.3883
  273MPD2    N1 4187   2.917   0.086  11.711 -0.1248  0.0043  0.1249
  273MPD2    H7 4188   2.916   0.153  11.788 -1.0023 -0.7188  0.7464
  274TMC3    C1 4189   2.700   4.488  11.216 -0.3903  0.1091 -0.5256
  274TMC3    C2 4190   2.588   4.543  11.178 -0.3982  0.1110 -0.2896
  274TMC3    C3 4191   2.587   4.650  11.095  0.8315 -0.0909 -1.1054
  274TMC3    C4 4192   2.820   4.546  11.164  0.2650  0.3941  0.0140
  274TMC3    C5 4193   2.811   4.669  11.116 -0.1065  0.2029  0.2690
  274TMC3    C6 4194   2.693   0.002  11.092  0.1533  0.0272  0.1564
  274TMC3     C 4195   2.727   4.475  11.361  0.3549 -0.4433  0.4864
  274TMC3     O 4196   2.843   4.457  11.393 -0.5504 -0.2390 -0.5419
  274TMC3     H 4197   2.500   4.482  11.197 -1.6126  1.6397 -1.0916
  274TMC3    H1 4198   2.914   4.504  11.196 -1.1689 -1.5667  1.6408
  274TMC3    H2 4199   2.680   0.088  11.027 -0.0193  0.3992  0.6866
  274TMC3    C7 4200   2.931   0.004  11.148  0.1428  0.0875 -0.4130
  274TMC3    C8 4201   2.461   4.717  11.093  0.1134 -0.1398  0.0390
  274TMC3    O1 4202   3.034   4.702  11.093  0.0869 -0.2791  0.7697
  274TMC3    O2 4203   2.361   4.645  11.083  0.1857  0.4493  0.0079
  275MPD2     C 4204   3.185   3.230  14.213 -0.2553  0.4147  0.8421
  275MPD2    C1 4205   3.179   3.150  14.326 -0.1773 -0.2273  0.5619
  275MPD2    C2 4206   3.095   3.041  14.329  0.0739  0.4793 -0.9060
  275MPD2    C3 4207   3.014   3.007  14.220  0.4285 -0.0355 -0.5483
  275MPD2    C4 4208   3.028   3.087  14.111  0.2456 -0.5483 -0.1249
  275MPD2    C5 4209   3.108   3.196  14.106 -0.4119 -0.0362 -0.2424
  275MPD2     H 4210   3.094   2.985  14.422 -2.4157  0.5758 -0.8723
  275MPD2    H1 4211   2.982   3.080  14.013  1.2580 -2.6503 -0.4637
  275MPD2    H2 4212   3.258   3.308  14.194  0.1016  0.1273  1.0419
  275MPD2    H3 4213   3.122   3.245  14.010 -0.4531  0.9513  0.2515
  275MPD2     N 4214   2.937   2.887  14.212  0.9493  0.3742 -0.3884
  275MPD2    H5 4215   2.875   2.883  14.131  0.8676  2.8937 -0.4550
  275MPD2    N1 4216   3.244   3.172  14.452  0.1203  0.7636 -0.0487
  275MPD2    H7 4217   3.232   3.101  14.523 -3.4128  1.6134  0.2189
  276TMC3    C1 4218   3.349   3.282  14.631 -0.7583  0.2715  0.3666
  276TMC3    C2 4219   3.257   3.228  14.715 -0.4709  0.4341  0.1917
  276TMC3    C3 4220   3.247   3.284  14.839  0.5562  0.0117  0.4544
  276TMC3    C4 4221   3.434   3.385  14.669  0.6941 -0.5184 -0.2612
  276TMC3    C5 4222   3.406   3.454  14.785 -0.2478  0.0886 -0.0500
  276TMC3    C6 4223   3.314   3.400  14.870 -0.2500 -0.1904  0.1505
  276TMC3     C 4224   3.322   3.278  14.487 -0.2256  0.0418  0.3566
  276TMC3     O 4225   3.367   3.363  14.409 -0.2358  0.1581 -0.2384
  276TMC3     H 4226   3.181   3.162  14.675  0.7259 -0.2402 -1.0106
  276TMC3    H1 4227   3.519   3.409  14.606 -1.0871  0.1236 -2.4015
  276TMC3    H2 4228   3.313   3.435  14.972 -1.4938  0.3059 -0.0253
  276TMC3    C7 4229   3.515   3.516  14.853  0.3142  0.0279 -0.4811
  276TMC3    C8 4230   3.242   3.200  14.956  0.0173 -0.1994 -0.5424
  276TMC3    O1 4231   3.481   3.587  14.944 -0.1352  0.0417  0.2649
  276TMC3    O2 4232   3.211   3.245  15.067  0.3216  0.2829  0.2545
  277MPD2     C 4233   4.580   1.958  13.072  0.2571  0.3466  0.5641
  277MPD2    C1 4234   4.444   1.966  13.094  0.0541  0.3680  0.2669
  277MPD2    C2 4235   4.392   1.911  13.216 -0.2203  0.1209 -0.6205
  277MPD2    C3 4236   4.473   1.851  13.305  0.1334 -0.7341  0.1188
  277MPD2    C4 4237   4.605   1.831  13.268  0.4411 -0.6326 -0.5039
  277MPD2    C5 4238   4.652   1.876  13.148 -0.0663 -0.2616  0.1632
  277MPD2     H 4239   4.289   1.921  13.247 -0.7097 -0.7607 -1.9778
  277MPD2    H1 4240   4.671   1.767  13.326  0.5253  1.5603  1.7748
  277MPD2    H2 4241   4.629   1.997  12.983 -0.6007 -2.8238 -1.2937
  277MPD2    H3 4242   0.021   1.879  13.125 -0.0788  2.3825  0.4647
  277MPD2     N 4243   4.425   1.807  13.433 -0.5507  0.3690 -0.6191
  277MPD2    H5 4244   4.324   1.804  13.440 -0.4393  1.4453  1.7193
  277MPD2    N1 4245   4.373   2.036  13.001  0.3612  0.2174  0.6203
  277MPD2    H7 4246   4.434   2.082  12.935  2.0586 -1.7797  0.8224
  278TMC3    C1 4247   4.427   1.729  13.658  0.4728 -0.0384  0.0025
  278TMC3    C2 4248   4.509   1.658  13.741  0.8620  0.2579  0.8992
  278TMC3    C3 4249   4.450   1.553  13.807 -0.6581 -0.3476 -0.1251
  278TMC3    C4 4250   4.290   1.716  13.653 -0.2141 -0.3355  0.0917
  278TMC3    C5 4251   4.244   1.607  13.734 -0.5484  0.4865 -0.1512
  278TMC3    C6 4252   4.315   1.530  13.816  0.1234 -0.0905  1.1767
  278TMC3     C 4253   4.502   1.785  13.547  0.1880  0.0580  0.1869
  278TMC3     O 4254   4.620   1.783  13.564 -0.4832 -0.6091  0.3649
  278TMC3     H 4255   4.617   1.658  13.740  0.8593 -0.9875 -0.2082
  278TMC3    H1 4256   4.229   1.767  13.580 -1.8940 -3.0851 -0.4152
  278TMC3    H2 4257   4.268   1.454  13.878  1.6832 -1.6714  0.4331
  278TMC3    C7 4258   4.102   1.574  13.715 -0.0118  0.2989 -0.9043
  278TMC3    C8 4259   4.539   1.454  13.843 -0.4692  0.0523  0.0683
  278TMC3    O1 4260   4.020   1.665  13.691  0.4085  0.2861  0.2536
  278TMC3    O2 4261   4.652   1.484  13.875 -0.1263 -0.0741 -0.2645
  279MPD2     C 4262   4.312   1.322  17.717  0.4100  0.0694  0.3286
  279MPD2    C1 4263   4.235   1.368   0.074 -0.3790 -0.4202  0.5395
  279MPD2    C2 4264   4.194   1.498   0.069  0.2018  0.9737  0.1815
  279MPD2    C3 4265   4.196   1.570  17.694 -0.2225 -0.0314  0.2627
  279MPD2    C4 4266   4.265   1.516  17.589 -0.4374 -0.0632 -0.3646
  279MPD2    C5 4267   4.320   1.392  17.605 -0.0393  0.1260 -0.4305
  279MPD2     H 4268   4.135   1.536   0.151 -1.0622  1.7468 -1.0781
  279MPD2    H1 4269   4.278   1.570  17.496  4.0780 -0.6004 -0.0336
  279MPD2    H2 4270   4.344   1.219  17.709 -2.6083 -0.8035 -0.4188
  279MPD2    H3 4271   4.379   1.357  17.521  1.3754  1.0313  0.1807
  279MPD2     N 4272   4.135   1.701  17.670 -0.1622 -1.0635  0.0693
  279MPD2    H5 4273   4.127   1.730  17.573  0.5207 -0.3333  0.2324
  279MPD2    N1 4274   4.205   1.284   0.177  0.1550  0.2417 -0.0391
  279MPD2    H7 4275   4.275   1.211   0.179 -0.7368 -0.5873  0.9717
  280TMC3    C1 4276   4.002   1.381   0.242 -1.0096 -1.1867  0.2846
  280TMC3    C2 4277   3.936   1.344   0.129  0.0011 -0.2657 -0.5685
  280TMC3    C3 4278   3.828   1.415   0.083 -0.6224 -0.0764 -0.6528
  280TMC3    C4 4279   3.953   1.480   0.322 -0.4403  0.2993  0.2153
  280TMC3    C5 4280   3.841   1.548   0.278 -0.3217  0.8024 -0.2684
  280TMC3    C6 4281   3.774   1.520   0.158 -0.5838 -0.1979 -1.1557
  280TMC3     C 4282   4.120   1.317   0.280 -0.0326  0.0385  0.0537
  280TMC3     O 4283   4.105   1.269   0.391  0.6573 -0.2447  0.2722
  280TMC3     H 4284   3.962   1.249   0.085  1.1582  0.2571 -1.0232
  280TMC3    H1 4285   4.004   1.511   0.412  0.8782 -0.9740 -0.1046
  280TMC3    H2 4286   3.687   1.575   0.127 -0.9168  0.0877  0.2642
  280TMC3    C7 4287   3.811   1.668   0.351  0.7902  0.0486 -0.0846
  280TMC3    C8 4288   3.835   1.449  17.686 -1.2383 -0.3719 -0.5238
  280TMC3    O1 4289   3.873   1.690   0.453 -0.0576 -0.4333  0.1599
  280TMC3    O2 4290   3.802   1.560  17.658 -0.3796  0.2415 -0.4004
  281TMC3    C1 4291   2.504   2.075  13.350 -0.2055  0.5296 -0.0628
  281TMC3    C2 4292   2.589   2.165  13.292 -0.6846 -0.7266  0.0116
  281TMC3    C3 4293   2.646   2.115  13.175 -0.3463 -0.8189  0.8892
  281TMC3    C4 4294   2.482   1.947  13.310  0.6680 -0.9176 -0.0194
  281TMC3    C5 4295   2.544   1.912  13.194 -0.2714  0.7534  0.9632
  281TMC3    C6 4296   2.631   1.990  13.126  0.7938  0.0888 -0.1437
  281TMC3     C 4297   2.445   2.122  13.477 -0.5025 -0.2486 -0.1638
  281TMC3     O 4298   2.433   2.048  13.574 -0.4532 -0.4446 -0.6233
  281TMC3     H 4299   2.614   2.255  13.347  1.3791 -1.1500 -0.2169
  281TMC3    H1 4300   2.427   1.882  13.377  1.0451 -1.2505 -0.0295
  281TMC3    H2 4301   2.694   1.954  13.045  1.1295 -0.5868  0.4176
  281TMC3    C7 4302   2.531   1.775  13.151 -0.7239  0.1311 -0.5990
  281TMC3    C8 4303   2.766   2.200  13.139 -0.0658  1.1473 -0.2749
  281TMC3    O1 4304   2.628   1.711  13.114  0.2984 -0.1797 -0.2929
  281TMC3    O2 4305   2.862   2.128  13.131  0.0886 -0.5239  0.1580
  282MPD2     C 4306   0.087   3.488  15.040 -0.1860  0.2071  1.3089
  282MPD2    C1 4307   4.688   3.493  15.080 -0.3985 -0.3936 -0.2326
  282MPD2    C2 4308   4.591   3.453  14.993  0.0839  0.4284  0.3129
  282MPD2    C3 4309   4.615   3.386  14.874 -0.4881 -1.2221 -0.9141
  282MPD2    C4 4310   0.012   3.371  14.838  0.0405 -0.0864 -0.4836
  282MPD2    C5 4311   0.109   3.426  14.919 -0.5758  0.4059 -1.2851
  282MPD2     H 4312   4.490   3.469  15.029  0.4325  0.5928  1.2138
  282MPD2    H1 4313   0.048   3.325  14.746  1.1493 -0.2272  0.0209
  282MPD2    H2 4314   0.164   3.521  15.109  0.8857 -0.3561  0.3873
  282MPD2    H3 4315   0.212   3.411  14.891 -0.2526  2.1103 -1.0318
  282MPD2     N 4316   4.509   3.369  14.779 -0.0024  0.3976  0.3430
  282MPD2    H5 4317   4.417   3.393  14.814  0.3613  1.7420  0.3881
  282MPD2    N1 4318   4.643   3.531  15.210 -0.4561  0.4282 -0.6359
  282MPD2    H7 4319   4.545   3.516  15.230  0.0247 -0.7764  0.7773
  283TMC3    C1 4320   4.653   3.616  15.431 -0.2099 -0.3099  0.6468
  283TMC3    C2 4321   4.702   3.723  15.507  0.1060 -0.3400 -0.1421
  283TMC3    C3 4322   4.644   3.736  15.629  0.3236  0.8644  0.8855
  283TMC3    C4 4323   4.561   3.521  15.477  0.7265 -0.5793  0.2058
  283TMC3    C5 4324   4.515   3.535  15.598  0.4082 -0.4713  0.3862
  283TMC3    C6 4325   4.545   3.646  15.671  0.4628  0.5867 -0.1101
  283TMC3     C 4326   4.727   3.580  15.308 -0.1155  0.1275 -0.1545
  283TMC3     O 4327   0.105   3.624  15.300 -0.0306 -0.2900  0.1999
  283TMC3     H 4328   0.047   3.781  15.465 -1.2653  2.0490  0.4934
  283TMC3    H1 4329   4.556   3.427  15.424 -0.3486  0.1275 -0.9168
  283TMC3    H2 4330   4.491   3.666  15.763 -0.4326  1.1547 -0.7664
  283TMC3    C7 4331   4.402   3.456  15.650 -0.7564 -0.1399  0.3362
  283TMC3    C8 4332   4.643   3.867  15.694 -0.1940 -1.1910  0.3404
  283TMC3    O1 4333   4.332   3.507  15.739 -0.0219  0.0479  0.6760
  283TMC3    O2 4334   4.589   3.876  15.807 -0.2368 -0.0708 -0.2977
  284MPD2     C 4335   2.364   2.432  12.253  0.0411 -0.6114 -0.5187
  284MPD2    C1 4336   2.475   2.512  12.260 -0.0273  0.7450 -0.6714
  284MPD2    C2 4337   2.594   2.465  12.310 -0.4734 -0.3566  0.0844
  284MPD2    C3 4338   2.608   2.335  12.358  0.1781  0.1901  0.4391
  284MPD2    C4 4339   2.498   2.249  12.358  0.9691  0.0774  0.0091
  284MPD2    C5 4340   2.382   2.305  12.302  0.2033 -0.2614 -0.4100
  284MPD2     H 4341   2.683   2.527  12.301  0.5300 -1.8751 -0.4599
  284MPD2    H1 4342   2.499   2.146  12.392  1.6983  0.5739  1.4883
  284MPD2    H2 4343   2.269   2.456  12.208 -0.2023  0.8651  0.7797
  284MPD2    H3 4344   2.296   2.238  12.301 -1.5914  2.0341 -0.8184
  284MPD2     N 4345   2.730   2.276  12.388  0.0601 -0.4853  0.8024
  284MPD2    H5 4346   2.751   2.188  12.344 -0.6001  0.0298 -0.5258
  284MPD2    N1 4347   2.474   2.651  12.231 -0.0697 -0.4430  0.5973
  284MPD2    H7 4348   2.562   2.701  12.229  0.3534 -1.2565 -1.7914
  285TMC3    C1 4349   2.414   2.858  12.141  0.0618 -0.1775 -0.0771
  285TMC3    C2 4350   2.534   2.872  12.071  0.0534 -0.0584 -0.7317
  285TMC3    C3 4351   2.563   2.985  12.004  0.0026  0.1212 -0.1175
  285TMC3    C4 4352   2.317   2.960  12.139 -0.2511 -0.2043  0.9418
  285TMC3    C5 4353   2.359   3.079  12.080  0.1129 -0.4473 -0.6386
  285TMC3    C6 4354   2.472   3.090  12.004 -0.1302  0.1316  0.2956
  285TMC3     C 4355   2.371   2.726  12.179  0.2665  0.1383  0.1063
  285TMC3     O 4356   2.253   2.698  12.176  0.4081 -0.0449  0.1719
  285TMC3     H 4357   2.609   2.793  12.068  1.3865  1.1405  1.2111
  285TMC3    H1 4358   2.224   2.952  12.195  0.2987  1.9941  2.1669
  285TMC3    H2 4359   2.495   3.166  11.930 -0.3481 -0.6792 -0.6013
  285TMC3    C7 4360   2.266   3.188  12.068  0.2341  0.1311 -0.3936
  285TMC3    C8 4361   2.670   2.975  11.903 -0.6078 -0.1053 -0.4067
  285TMC3    O1 4362   2.320   3.275  12.000  0.7195  0.4017 -0.0638
  285TMC3    O2 4363   2.725   2.867  11.896  1.0227  0.2670  0.0358
  286MPD2     C 4364   3.311   1.103   1.677 -0.5617 -0.5131  0.5637
  286MPD2    C1 4365   3.304   1.018   1.573 -0.1435  0.1736 -0.1784
  286MPD2    C2 4366   3.376   0.905   1.560 -0.0009  0.0848 -0.0364
  286MPD2    C3 4367   3.473   0.872   1.657 -0.0369  0.1262  0.0315
  286MPD2    C4 4368   3.489   0.965   1.767  0.5439 -0.1135 -0.5793
  286MPD2    C5 4369   3.406   1.078   1.775 -0.2646 -0.5844  0.0187
  286MPD2     H 4370   3.382   0.848   1.468  0.1168  1.4008 -0.8421
  286MPD2    H1 4371   3.569   0.952   1.839  0.5146 -3.6436 -1.1600
  286MPD2    H2 4372   3.246   1.189   1.682  0.9374  0.6861 -0.3073
  286MPD2    H3 4373   3.426   1.155   1.848 -0.4439 -1.2028  0.7171
  286MPD2     N 4374   3.570   0.766   1.648 -0.3956  0.0024  0.9953
  286MPD2    H5 4375   3.646   0.775   1.716  0.7840  0.7245 -0.4150
  286MPD2    N1 4376   3.231   1.060   1.461  0.1323 -0.2112  0.1367
  286MPD2    H7 4377   3.245   1.005   1.377  0.0883  0.3629 -0.2452
  287TMC3    C1 4378   3.720   0.651   1.525  0.4521 -0.6421  0.4477
  287TMC3    C2 4379   3.743   0.563   1.422  0.6568  0.2250  0.0075
  287TMC3    C3 4380   3.870   0.563   1.366 -0.5620  0.2507  0.2600
  287TMC3    C4 4381   3.815   0.742   1.561 -0.0085  0.6057  0.2090
  287TMC3    C5 4382   3.940   0.735   1.507 -0.5935 -0.1154  0.4615
  287TMC3    C6 4383   3.971   0.649   1.406  0.7595  0.2515  0.5960
  287TMC3     C 4384   3.580   0.687   1.538 -0.0907 -0.7012 -0.8455
  287TMC3     O 4385   3.500   0.655   1.452 -0.3011 -0.0213  0.5366
  287TMC3     H 4386   3.661   0.498   1.392 -1.3254  1.0388  3.7502
  287TMC3    H1 4387   3.802   0.818   1.637  0.7724 -0.6133  1.5650
  287TMC3    H2 4388   4.067   0.646   1.355 -0.6452 -0.6744 -2.0039
  287TMC3    C7 4389   4.044   0.838   1.549  0.1528  0.1894  0.0859
  287TMC3    C8 4390   3.884   0.496   1.237 -0.0333 -0.0196 -0.2586
  287TMC3    O1 4391   4.000   0.933   1.611  0.1520 -0.0348  0.5782
  287TMC3    O2 4392   3.805   0.405   1.219  0.2201  0.0236  0.0107
  288TMC3    C1 4393   0.154   0.906  14.749 -0.3238 -0.1539 -0.3635
  288TMC3    C2 4394   0.079   0.859  14.861 -0.0038 -0.0302 -0.1730
  288TMC3    C3 4395   0.048   0.955  14.948  0.3950 -0.4319 -0.0154
  288TMC3    C4 4396   0.199   1.032  14.740 -0.2712 -0.0495 -0.0828
  288TMC3    C5 4397   0.167   1.125  14.835  0.3126  0.1036 -0.7644
  288TMC3    C6 4398   0.083   1.081  14.939 -0.1300  0.1344 -0.8070
  288TMC3     C 4399   0.229   0.787  14.707 -0.0450  0.4213  0.1594
  288TMC3     O 4400   0.167   0.688  14.671 -0.2353  0.0061  0.2507
  288TMC3     H 4401   0.062   0.752  14.865 -0.7416  0.1303  1.2045
  288TMC3    H1 4402   0.254   1.053  14.649  1.2209  0.5437  0.9496
  288TMC3    H2 4403   0.043   1.150  15.012 -1.3420 -2.1040  0.6641
  288TMC3    C7 4404   0.130   1.259  14.790 -0.0100  0.0647 -0.7630
  288TMC3    C8 4405   4.725   0.915  15.071 -0.1492  0.0375 -0.4284
  288TMC3    O1 4406   0.131   1.348  14.873  0.6128 -0.5078 -0.3136
  288TMC3    O2 4407   0.014   0.978  15.175 -0.0216 -0.1883  0.0955
  289MPD2     C 4408   0.403   0.969  14.198  0.2824 -0.2283  0.9714
  289MPD2    C1 4409   0.336   0.954  14.076 -0.5776  0.3438 -0.7065
  289MPD2    C2 4410   0.256   0.838  14.072  0.1417  0.4002 -0.6061
  289MPD2    C3 4411   0.243   0.755  14.179  0.0629 -0.8390  0.2530
  289MPD2    C4 4412   0.313   0.776  14.299  0.1368  0.3046 -0.2121
  289MPD2    C5 4413   0.402   0.882  14.302  0.1047 -0.0205 -0.4509
  289MPD2     H 4414   0.187   0.836  13.988 -0.7657  2.5163  0.0953
  289MPD2    H1 4415   0.302   0.714  14.387  0.9310  0.0253 -0.3120
  289MPD2    H2 4416   0.462   1.059  14.207  0.9876 -0.7276  1.3219
  289MPD2    H3 4417   0.444   0.924  14.392 -2.0030 -1.6559  1.3030
  289MPD2     N 4418   0.138   0.653  14.178  0.0400 -0.2147 -0.6815
  289MPD2    H5 4419   0.110   0.609  14.265  1.8380  1.4296  0.7347
  289MPD2    N1 4420   0.344   1.053  13.977 -0.3015 -0.0777 -1.1577
  289MPD2    H7 4421   0.403   1.134  13.995 -0.0731 -0.1018 -1.7976
  290TMC3    C1 4422   4.675   0.551  14.102  0.5861  0.2054  0.3397
  290TMC3    C2 4423   4.588   0.636  14.166 -0.8342 -0.5745  0.4492
  290TMC3    C3 4424   4.455   0.639  14.130 -0.0004 -0.3197 -0.2208
  290TMC3    C4 4425   4.615   0.452  14.030  0.2212  0.2340  0.1164
  290TMC3    C5 4426   4.480   0.446  14.001  0.0258  0.8014 -0.5238
  290TMC3    C6 4427   4.398   0.541  14.045 -0.4920  0.4038 -0.0442
  290TMC3     C 4428   0.067   0.609  14.069  0.3265 -0.7354  0.4843
  290TMC3     O 4429   0.104   0.605  13.952 -0.1043 -0.0760 -0.0438
  290TMC3     H 4430   4.630   0.716  14.227  0.1336 -1.2245  0.6304
  290TMC3    H1 4431   4.678   0.372  13.992 -0.5934 -0.6908  0.7281
  290TMC3    H2 4432   4.292   0.550  14.026 -0.4195  1.5681  0.0893
  290TMC3    C7 4433   4.419   0.331  13.939  0.3761 -1.1648 -0.6767
  290TMC3    C8 4434   4.375   0.755  14.153 -0.1773  0.1798  0.0976
  290TMC3    O1 4435   4.308   0.350  13.891  0.8883 -0.0702  0.1738
  290TMC3    O2 4436   4.288   0.780  14.070  0.2372  0.0553  0.4860
  291MPD2     C 4437   4.250   0.571   0.090 -0.0320 -0.0212  0.3734
  291MPD2    C1 4438   4.375   0.525   0.090  0.6324 -0.2942  0.0256
  291MPD2    C2 4439   4.480   0.606   0.047 -0.2527  0.3594 -0.8679
  291MPD2    C3 4440   4.455   0.734   0.008 -0.3596  0.7230  0.6023
  291MPD2    C4 4441   4.322   0.779   0.002 -0.8974  0.5719 -0.0083
  291MPD2    C5 4442   4.223   0.702   0.053  0.4872 -0.4857  0.1942
  291MPD2     H 4443   4.574   0.553   0.060  0.5753  1.7086 -1.3565
  291MPD2    H1 4444   4.298   0.879  17.714 -0.4584  0.8846  0.5720
  291MPD2    H2 4445   4.174   0.503   0.126 -2.0600  2.2485  0.4244
  291MPD2    H3 4446   4.120   0.735   0.055 -0.5304 -3.7178  0.0181
  291MPD2     N 4447   4.557   0.817  17.701 -0.8428 -0.1311  0.0172
  291MPD2    H5 4448   4.521   0.907  17.669 -2.1467 -0.6763 -0.0595
  291MPD2    N1 4449   4.414   0.399   0.139 -0.4770  0.2889  0.5640
  291MPD2    H7 4450   4.513   0.380   0.142 -0.6154 -0.2308  1.5526
  292TMC3    C1 4451   4.399   0.188   0.220 -0.3074 -0.1346 -0.3160
  292TMC3    C2 4452   4.483   0.212   0.321  0.6488  0.4285  0.2140
  292TMC3    C3 4453   4.508   0.109   0.409  0.3231 -0.3782  0.2235
  292TMC3    C4 4454   4.354   0.065   0.187 -0.3890 -0.4879 -0.0765
  292TMC3    C5 4455   4.385   4.707   0.278 -0.2926 -0.5352  0.3959
  292TMC3    C6 4456   4.453   4.726   0.395 -0.6713  0.5176 -0.1610
  292TMC3     C 4457   4.329   0.297   0.151 -0.0429 -0.3096 -0.5957
  292TMC3     O 4458   4.220   0.276   0.098 -0.8334  0.1023  0.1517
  292TMC3     H 4459   4.538   0.304   0.342  1.9682 -0.2515 -0.2804
  292TMC3    H1 4460   4.284   0.063   0.105 -0.3384 -1.0781 -0.1076
  292TMC3    H2 4461   4.472   4.639   0.455  0.2577 -0.3364 -1.6830
  292TMC3    C7 4462   4.317   4.584   0.251 -0.4954 -0.6207 -0.2976
  292TMC3    C8 4463   4.565   0.157   0.536  0.1630 -0.1351 -0.3132
  292TMC3    O1 4464   4.288   4.558   0.137 -0.0637  0.2509 -0.9361
  292TMC3    O2 4465   4.626   0.262   0.531  0.0623  0.5615  0.2903
  293MPD2     C 4466   0.875   1.886  12.439  0.3874 -0.2593 -0.1724
  293MPD2    C1 4467   0.785   1.841  12.525  0.1133 -0.7499 -0.1176
  293MPD2    C2 4468   0.824   1.822  12.653  0.6105 -0.4255 -0.2157
  293MPD2    C3 4469   0.948   1.853  12.702  0.0372  0.1682  0.6843
  293MPD2    C4 4470   1.043   1.889  12.606  0.7381  0.5290  1.4022
  293MPD2    C5 4471   1.007   1.910  12.478 -0.4801  0.2609 -0.0515
  293MPD2     H 4472   0.759   1.786  12.731 -0.3237 -0.1971 -0.8942
  293MPD2    H1 4473   1.145   1.905  12.636  0.9343 -0.7354  1.4321
  293MPD2    H2 4474   0.845   1.924  12.342 -1.8258 -0.9033  0.2691
  293MPD2    H3 4475   1.084   1.958  12.418 -0.6771  1.6126  0.7788
  293MPD2     N 4476   0.974   1.851  12.843  0.1288  0.1717  0.1414
  293MPD2    H5 4477   0.900   1.822  12.906 -0.1426 -0.5019 -0.4956
  293MPD2    N1 4478   0.654   1.817  12.480  0.1272 -0.6526  0.1245
  293MPD2    H7 4479   0.625   1.841  12.386 -1.9494  0.0477  0.9413
  294TMC3    C1 4480   0.424   1.757  12.480 -0.5631  0.3781  0.0475
  294TMC3    C2 4481   0.321   1.696  12.548 -0.4840  0.0403  0.1720
  294TMC3    C3 4482   0.203   1.685  12.482 -0.2677 -0.3197 -0.2216
  294TMC3    C4 4483   0.415   1.792  12.350  1.7722 -0.6506  0.5445
  294TMC3    C5 4484   0.295   1.774  12.291  0.2268 -0.0474 -0.0008
  294TMC3    C6 4485   0.195   1.719  12.352  0.2188 -0.6377 -0.0416
  294TMC3     C 4486   0.544   1.788  12.562 -0.8493  0.5828 -0.0888
  294TMC3     O 4487   0.542   1.764  12.683  0.5751 -0.3491 -0.1505
  294TMC3     H 4488   0.335   1.657  12.647 -1.0366 -0.2325  0.1439
  294TMC3    H1 4489   0.496   1.851  12.308 -2.6862  3.0758 -2.6816
  294TMC3    H2 4490   0.101   1.702  12.301  0.5271 -1.0106 -0.4877
  294TMC3    C7 4491   0.272   1.831  12.160  0.1045 -0.2510 -0.5805
  294TMC3    C8 4492   0.131   1.567  12.526 -0.3645 -0.2503  0.7351
  294TMC3    O1 4493   0.170   1.899  12.147 -0.1004  0.0385 -0.0330
  294TMC3    O2 4494   0.092   1.558  12.643  0.0222  0.4674 -0.0191
  295MPD2     C 4495   1.586   0.699   0.692  0.6240  0.5199 -0.2468
  295MPD2    C1 4496   1.667   0.603   0.633 -0.6955 -0.5650  0.1379
  295MPD2    C2 4497   1.686   0.493   0.712  1.1966  0.6818  1.3199
  295MPD2    C3 4498   1.638   0.477   0.839  0.3393  0.3678  0.4743
  295MPD2    C4 4499   1.564   0.579   0.900 -1.1121 -0.5533 -0.3963
  295MPD2    C5 4500   1.540   0.692   0.824 -0.0175  0.0673  0.1738
  295MPD2     H 4501   1.748   0.420   0.662  0.1164  0.3611  0.4396
  295MPD2    H1 4502   1.525   0.569   1.000 -0.6469  2.1489  0.0426
  295MPD2    H2 4503   1.553   0.789   0.641 -0.4223  0.1509 -0.2195
  295MPD2    H3 4504   1.472   0.764   0.869  1.0430  2.4347 -2.0664
  295MPD2     N 4505   1.675   0.371   0.921 -0.3159 -0.1338 -0.4403
  295MPD2    H5 4506   1.634   0.371   1.014  3.2196 -0.9265  1.1505
  295MPD2    N1 4507   1.718   0.608   0.503  0.5483 -0.3396 -0.2559
  295MPD2    H7 4508   1.759   0.525   0.462 -1.2641 -1.0416 -0.6309
  296TMC3    C1 4509   1.763   0.169   1.005  0.3678 -0.2551 -0.7191
  296TMC3    C2 4510   1.654   0.169   1.094  0.1024  0.7453 -0.2535
  296TMC3    C3 4511   1.679   0.098   1.209 -0.3649  0.7742 -0.2402
  296TMC3    C4 4512   1.871   0.095   1.013  0.3692 -0.0391  0.1850
  296TMC3    C5 4513   1.890   0.031   1.130 -0.0242 -0.3510 -0.1128
  296TMC3    C6 4514   1.795   0.031   1.230  0.8345 -0.2981  0.2325
  296TMC3     C 4515   1.754   0.263   0.896  0.0970  0.1830  0.1242
  296TMC3     O 4516   1.821   0.238   0.795 -0.9648 -0.1453  0.2029
  296TMC3     H 4517   1.563   0.228   1.087 -0.6267 -0.4912 -1.1515
  296TMC3    H1 4518   1.944   0.089   0.934 -1.1021 -0.1003 -1.1838
  296TMC3    H2 4519   1.806   4.729   1.330  0.0233 -4.0289 -1.1214
  296TMC3    C7 4520   2.018   4.701   1.161 -0.1131 -0.3388  0.1357
  296TMC3    C8 4521   1.581   0.100   1.317 -0.3702 -0.3489 -0.3614
  296TMC3    O1 4522   2.110   4.730   1.083 -0.1080 -0.1744  0.1260
  296TMC3    O2 4523   1.581   4.733   1.379  0.4002  0.3130 -0.3294
  297MPD2     C 4524   4.052   2.141  16.635  0.0550  0.0607  0.2964
  297MPD2    C1 4525   4.010   2.222  16.530 -0.6711 -0.0234 -0.5875
  297MPD2    C2 4526   4.081   2.337  16.501  1.0408  0.1728 -0.6650
  297MPD2    C3 4527   4.180   2.376  16.583 -0.0837 -0.3895 -0.3799
  297MPD2    C4 4528   4.209   2.305  16.701 -0.0782 -0.5005  0.3502
  297MPD2    C5 4529   4.149   2.187  16.718  0.1089  0.1042  1.0572
  297MPD2     H 4530   4.041   2.404  16.425 -1.5744  0.0462  0.5793
  297MPD2    H1 4531   4.280   2.339  16.776  0.0094 -1.0614  0.5163
  297MPD2    H2 4532   4.005   2.045  16.656  0.5023 -0.3697 -0.6855
  297MPD2    H3 4533   4.175   2.126  16.804 -0.5545 -0.5920  0.7651
  297MPD2     N 4534   4.250   2.500  16.553 -0.0644  0.7782  0.0282
  297MPD2    H5 4535   4.233   2.530  16.457  0.7355  0.0176 -0.3519
  297MPD2    N1 4536   3.889   2.196  16.457  0.6459 -0.5475 -0.0850
  297MPD2    H7 4537   3.864   2.268  16.390 -0.0840  0.7423  1.5590
  298TMC3    C1 4538   3.694   2.103  16.383 -0.5306  1.4409 -0.2817
  298TMC3    C2 4539   3.721   2.126  16.250 -0.4886  0.8562 -0.3069
  298TMC3    C3 4540   3.611   2.163  16.167 -0.2115 -0.0165  0.0952
  298TMC3    C4 4541   3.568   2.100  16.422 -0.0223 -1.0738  0.4649
  298TMC3    C5 4542   3.461   2.133  16.345  0.3513 -0.2126  0.2856
  298TMC3    C6 4543   3.483   2.160  16.214  0.1659 -0.3551  0.2335
  298TMC3     C 4544   3.797   2.096  16.483  0.6547  0.2786  0.4189
  298TMC3     O 4545   3.783   2.009  16.568  0.2254  0.6008 -0.2392
  298TMC3     H 4546   3.825   2.139  16.219 -0.3842 -2.0712 -1.2017
  298TMC3    H1 4547   3.548   2.076  16.526  0.6240 -2.9294  0.1649
  298TMC3    H2 4548   3.409   2.169  16.135 -1.3985  1.3649  1.9006
  298TMC3    C7 4549   3.366   2.227  16.411  0.8220 -0.5432  0.4703
  298TMC3    C8 4550   3.623   2.244  16.044 -0.3298 -0.4427  0.3965
  298TMC3    O1 4551   3.368   2.253  16.529 -0.8945  0.2746  0.3530
  298TMC3    O2 4552   3.526   2.275  15.974 -0.5576  0.2968 -0.5665
  299MPD2     C 4553   3.878   2.241  10.723 -0.0892 -0.3285 -0.9385
  299MPD2    C1 4554   3.926   2.371  10.733  0.3847  0.2681  0.7416
  299MPD2    C2 4555   3.866   2.463  10.648 -0.9351  1.2649  0.0910
  299MPD2    C3 4556   3.759   2.432  10.565 -0.2874 -0.0227 -0.0362
  299MPD2    C4 4557   3.706   2.312  10.576 -0.2646 -0.2652  0.2328
  299MPD2    C5 4558   3.770   2.212  10.649  0.5870  0.0726 -0.1691
  299MPD2     H 4559   3.903   2.565  10.649 -1.5029  1.4291  3.6218
  299MPD2    H1 4560   3.623   2.283  10.513  0.7815 -1.7265 -0.4893
  299MPD2    H2 4561   3.926   2.168  10.786  4.2099  0.3849 -3.3216
  299MPD2    H3 4562   3.731   2.111  10.643  2.2371 -0.5363 -0.6151
  299MPD2     N 4563   3.688   2.536  10.497 -0.5092  0.5012 -0.0655
  299MPD2    H5 4564   3.600   2.504  10.458  0.7798 -1.2123 -1.5949
  299MPD2    N1 4565   4.034   2.394  10.821 -0.3380 -0.4599 -0.0253
  299MPD2    H7 4566   4.073   2.322  10.882 -0.0067 -0.2753 -0.0204
  300TMC3    C1 4567   3.624   2.744  10.394  1.3229  0.5928 -0.1575
  300TMC3    C2 4568   3.659   2.878  10.389 -0.1400  0.4315 -0.2573
  300TMC3    C3 4569   3.556   2.965  10.406 -0.0150 -0.0630 -0.0811
  300TMC3    C4 4570   3.498   2.698  10.401  0.0925 -0.3708 -0.0765
  300TMC3    C5 4571   3.402   2.784  10.411  0.3536 -0.9361  0.4144
  300TMC3    C6 4572   3.425   2.924  10.420 -0.0044  0.4487 -0.0676
  300TMC3     C 4573   3.720   2.670  10.472  0.5038 -0.4239  0.2278
  300TMC3     O 4574   3.817   2.726  10.519 -0.2028 -0.1937  0.1748
  300TMC3     H 4575   3.764   2.901  10.374  0.0978 -0.9872 -0.8375
  300TMC3    H1 4576   3.460   2.600  10.427  2.4615 -1.2663  0.0876
  300TMC3    H2 4577   3.353   3.000  10.449  0.8387  0.6889  1.3745
  300TMC3    C7 4578   3.278   2.731  10.458 -0.3466  0.3063 -0.0800
  300TMC3    C8 4579   3.594   3.100  10.443  0.3947  0.6380 -0.4596
  300TMC3    O1 4580   3.223   2.652  10.383 -0.1747  0.0300 -0.6378
  300TMC3    O2 4581   3.698   3.098  10.511  0.0476 -0.7639  0.3833
  301MPD2     C 4582   2.420   3.223   0.976  0.5368  0.7727  0.2096
  301MPD2    C1 4583   2.360   3.214   0.855  0.2012  0.2738 -0.2805
  301MPD2    C2 4584   2.324   3.091   0.801  0.1957 -0.0911 -0.0835
  301MPD2    C3 4585   2.357   2.981   0.875  0.0913  0.0790 -0.4070
  301MPD2    C4 4586   2.432   2.986   0.991  0.7048  0.0722 -0.1750
  301MPD2    C5 4587   2.463   3.111   1.040  0.0604 -0.1064  0.8627
  301MPD2     H 4588   2.268   3.091   0.709 -0.9726  0.5119  0.6265
  301MPD2    H1 4589   2.470   2.896   1.037  1.9218  0.2112 -0.9267
  301MPD2    H2 4590   2.428   3.324   1.016  0.8677  1.2762 -1.1397
  301MPD2    H3 4591   2.525   3.129   1.127  1.3047  2.8665 -0.6289
  301MPD2     N 4592   2.316   2.847   0.838  0.0280  0.4618  0.0162
  301MPD2    H5 4593   2.334   2.772   0.903  0.3752  1.5604  1.1840
  301MPD2    N1 4594   2.312   3.323   0.782 -0.4717 -0.2524  0.0744
  301MPD2    H7 4595   2.249   3.303   0.705  0.8179 -0.4697 -0.9192
  302TMC3    C1 4596   2.212   2.665   0.729  0.3728 -0.0221  0.3737
  302TMC3    C2 4597   2.221   2.593   0.844 -0.3015 -0.2042  0.3811
  302TMC3    C3 4598   2.132   2.491   0.862 -0.0529 -0.2378 -0.0649
  302TMC3    C4 4599   2.109   2.639   0.638  0.5381  0.1627  0.2136
  302TMC3    C5 4600   2.017   2.541   0.664  0.1404  0.1495 -0.7537
  302TMC3    C6 4601   2.035   2.460   0.771  0.0862  0.2135  0.3479
  302TMC3     C 4602   2.250   2.811   0.723 -0.0582 -0.4071 -0.4470
  302TMC3     O 4603   2.206   2.876   0.629 -0.1223 -0.2567  0.8894
  302TMC3     H 4604   2.310   2.610   0.905  0.2672  3.1259 -1.3771
  302TMC3    H1 4605   2.094   2.695   0.547  1.6198  0.1007 -0.0101
  302TMC3    H2 4606   1.964   2.381   0.794  0.1647 -0.4828 -1.7976
  302TMC3    C7 4607   1.906   2.507   0.578  0.5082 -0.4426 -0.2462
  302TMC3    C8 4608   2.140   2.424   0.992  0.0660  0.2430  0.5885
  302TMC3    O1 4609   1.885   2.389   0.569 -0.4938  0.3049 -0.6838
  302TMC3    O2 4610   2.232   2.454   1.066  0.6975  0.5641  0.2544
  303MPD2     C 4611   0.779   2.605  10.862  0.2285 -0.9461 -0.0840
  303MPD2    C1 4612   0.708   2.501  10.807 -0.6818  0.2571  0.1801
  303MPD2    C2 4613   0.658   2.519  10.682 -0.5457  0.3547 -0.3255
  303MPD2    C3 4614   0.668   2.640  10.605 -0.0076  0.1871  0.0817
  303MPD2    C4 4615   0.737   2.743  10.666 -0.2078  0.1414 -0.7210
  303MPD2    C5 4616   0.795   2.719  10.786  0.7351 -0.3034 -0.6869
  303MPD2     H 4617   0.602   2.435  10.642  1.4303 -0.3904 -1.5504
  303MPD2    H1 4618   0.747   2.839  10.617  0.1624  0.1459 -0.6385
  303MPD2    H2 4619   0.825   2.599  10.960  1.1996  1.1423 -0.4138
  303MPD2    H3 4620   0.848   2.802  10.833  0.9063 -1.4987  1.2483
  303MPD2     N 4621   0.619   2.645  10.468  0.3637 -0.3522 -0.2421
  303MPD2    H5 4622   0.560   2.568  10.439  1.8501 -0.9434 -1.6732
  303MPD2    N1 4623   0.690   2.394  10.898  0.2700  0.4123  0.9727
  303MPD2    H7 4624   0.749   2.391  10.981  2.1742 -4.3936 -0.4930
  304TMC3    C1 4625   0.627   2.188  10.974 -0.6967 -0.0053 -0.2087
  304TMC3    C2 4626   0.523   2.112  11.025 -0.5020 -0.5869 -0.3259
  304TMC3    C3 4627   0.539   1.981  11.048 -0.5379 -0.4606  0.0814
  304TMC3    C4 4628   0.754   2.128  10.953  0.3787 -0.4214  0.2240
  304TMC3    C5 4629   0.761   1.997  10.977  0.1898  0.7472 -0.0814
  304TMC3    C6 4630   0.661   1.923  11.039  0.0734  0.3559 -1.0274
  304TMC3     C 4631   0.605   2.287  10.876  0.7652 -0.1770 -0.7984
  304TMC3     O 4632   0.520   2.268  10.791 -0.2193 -0.3809  0.7452
  304TMC3     H 4633   0.420   2.143  11.009 -0.5813 -0.3330  0.6428
  304TMC3    H1 4634   0.826   2.189  10.899 -1.0928  1.0082 -0.1509
  304TMC3    H2 4635   0.668   1.815  11.041 -1.6468  0.2791  0.5024
  304TMC3    C7 4636   0.812   1.911  10.866  0.3232 -0.0677  0.7691
  304TMC3    C8 4637   0.432   1.911  10.980 -0.2421 -0.5065  0.0159
  304TMC3    O1 4638   0.729   1.845  10.810 -0.0606  0.9820  0.2686
  304TMC3    O2 4639   0.320   1.932  11.015  0.0506  0.3526 -0.1214
  305MPD2     C 4640   4.331   3.756  13.794 -0.1680  0.1529  0.1924
  305MPD2    C1 4641   4.409   3.637  13.815  0.6443  0.2286 -0.6168
  305MPD2    C2 4642   4.409   3.555  13.704  0.7462 -0.3931 -0.1100
  305MPD2    C3 4643   4.343   3.575  13.582 -0.3127  0.2099  0.4745
  305MPD2    C4 4644   4.267   3.688  13.568 -0.2483  0.0023 -0.0040
  305MPD2    C5 4645   4.268   3.775  13.672 -0.1908 -0.4310  0.3601
  305MPD2     H 4646   4.468   3.465  13.716  1.1228 -0.1029  0.2415
  305MPD2    H1 4647   4.202   3.709  13.483 -0.6239 -1.6894 -0.1221
  305MPD2    H2 4648   4.330   3.832  13.872 -0.8574 -2.0752  2.3775
  305MPD2    H3 4649   4.199   3.858  13.661  0.4724 -0.0581 -0.9341
  305MPD2     N 4650   4.345   3.488  13.464  0.3104 -0.8464 -0.0459
  305MPD2    H5 4651   4.277   3.525  13.397 -1.4111 -2.0924  1.0312
  305MPD2    N1 4652   4.479   3.613  13.940  0.4448 -0.0654  0.1098
  305MPD2    H7 4653   4.503   3.686  14.007 -1.7143 -0.5060  1.3479
  306TMC3    C1 4654   4.611   3.489  14.089 -0.7285  0.4771 -0.5604
  306TMC3    C2 4655   4.699   3.381  14.110 -0.0819 -0.8029  0.2761
  306TMC3    C3 4656   0.011   3.366  14.240 -0.5177 -0.3033  0.1692
  306TMC3    C4 4657   4.591   3.584  14.189  0.0560  0.5015 -0.1523
  306TMC3    C5 4658   4.661   3.566  14.306  0.1421 -0.1593  0.5178
  306TMC3    C6 4659   4.721   3.454  14.340 -0.2980 -0.2899  0.2737
  306TMC3     C 4660   4.538   3.495  13.970 -0.0585 -0.0383 -0.0506
  306TMC3     O 4661   4.524   3.383  13.918  0.3748  0.1928  0.6878
  306TMC3     H 4662   4.724   3.321  14.023  0.1278  1.8176 -1.4653
  306TMC3    H1 4663   4.526   3.671  14.181 -1.1608 -0.4024 -0.1398
  306TMC3    H2 4664   0.028   3.441  14.438  2.6749 -0.0261 -1.0167
  306TMC3    C7 4665   4.646   3.666  14.400 -0.0985 -0.0530 -0.0333
  306TMC3    C8 4666   0.124   3.273  14.265  0.4176  0.4492  0.4681
  306TMC3    O1 4667   4.540   3.729  14.399 -0.8941 -0.2798  0.0613
  306TMC3    O2 4668   0.193   3.253  14.167 -0.3996 -0.0829  0.1406
  307MPD2     C 4669   3.142   1.607   1.192  1.1091  0.1927  0.7246
  307MPD2    C1 4670   3.098   1.676   1.084  0.1743  0.0346  0.1300
  307MPD2    C2 4671   2.974   1.738   1.093  0.5750  0.2698  0.6017
  307MPD2    C3 4672   2.900   1.726   1.204 -0.0051  0.5769 -0.1481
  307MPD2    C4 4673   2.941   1.662   1.315  0.4821 -0.6062  0.2457
  307MPD2    C5 4674   3.070   1.611   1.305  0.2441 -0.2890 -0.6492
  307MPD2     H 4675   2.926   1.786   1.008  1.0281  1.3751  0.9655
  307MPD2    H1 4676   2.885   1.652   1.407 -1.2291 -0.6847 -0.8088
  307MPD2    H2 4677   3.237   1.555   1.188  0.7218 -0.4038 -0.7373
  307MPD2    H3 4678   3.113   1.565   1.394 -0.1590  1.2285  0.3388
  307MPD2     N 4679   2.763   1.775   1.189 -0.0649  0.4202 -0.4577
  307MPD2    H5 4680   2.746   1.807   1.094  0.2819  0.2909 -0.5636
  307MPD2    N1 4681   3.171   1.672   0.963 -0.2105 -0.2317 -0.0988
  307MPD2    H7 4682   3.256   1.617   0.956  0.5861  1.2358 -1.8901
  308TMC3    C1 4683   2.311   1.878   1.271 -0.3299  0.8394 -0.2335
  308TMC3    C2 4684   2.325   2.004   1.222 -0.1499  0.3563  0.3329
  308TMC3    C3 4685   2.453   2.037   1.182 -0.3870 -0.3554  0.2125
  308TMC3    C4 4686   2.423   1.802   1.287  0.4330  0.4537 -0.1121
  308TMC3    C5 4687   2.547   1.842   1.251  0.3519  0.2280 -0.1726
  308TMC3    C6 4688   2.562   1.959   1.182  0.4101  0.4761 -0.1401
  308TMC3     C 4689   2.189   1.811   1.279  0.2574 -0.2824 -0.6049
  308TMC3     O 4690   2.186   1.696   1.312 -0.7758 -0.2000 -0.0840
  308TMC3     H 4691   2.248   2.080   1.215  1.6439  2.0745 -0.4970
  308TMC3    H1 4692   2.417   1.700   1.324 -1.0094  1.0162  1.2033
  308TMC3    H2 4693   2.660   2.005   1.174  0.3391  0.7810  0.7230
  308TMC3    C7 4694   2.661   1.764   1.285 -0.4570  0.7273 -0.0147
  308TMC3    C8 4695   2.477   2.179   1.184 -0.2906 -0.4775 -0.3268
  308TMC3    O1 4696   2.654   1.698   1.388  0.2020 -0.3710 -0.0126
  308TMC3    O2 4697   2.429   2.238   1.281  0.2231  0.1572 -0.3534
  309MPD2     C 4698   2.209   2.131  17.187  0.0644 -1.4173 -0.3753
  309MPD2    C1 4699   2.122   2.217  17.118 -0.4331 -0.1012  0.6359
  309MPD2    C2 4700   1.998   2.236  17.178 -0.1099  0.0169  0.8392
  309MPD2    C3 4701   1.967   2.175  17.299 -0.1946 -0.3728 -0.4524
  309MPD2    C4 4702   2.066   2.096  17.355 -0.3812  0.2381  0.5598
  309MPD2    C5 4703   2.187   2.075  17.305 -0.0568  0.1106  0.0114
  309MPD2     H 4704   1.913   2.285  17.132  0.2403 -0.9802 -0.8557
  309MPD2    H1 4705   2.051   2.047  17.451  1.3833  1.1669  1.3156
  309MPD2    H2 4706   2.311   2.131  17.151 -0.0412 -1.5435 -0.6742
  309MPD2    H3 4707   2.252   2.009  17.362  1.9600  0.0276 -2.3834
  309MPD2     N 4708   1.839   2.174  17.355 -0.1602 -0.4862  0.2995
  309MPD2    H5 4709   1.822   2.099  17.420 -0.5688 -3.0986 -2.8151
  309MPD2    N1 4710   2.160   2.269  16.992 -0.2791  0.6965 -0.2475
  309MPD2    H7 4711   2.080   2.299  16.937 -0.4802  0.3896 -0.1200
  310TMC3    C1 4712   2.298   2.320  16.799 -0.9192  0.1700  0.9958
  310TMC3    C2 4713   2.186   2.381  16.741  0.0036  0.5498 -0.1519
  310TMC3    C3 4714   2.206   2.427  16.615 -0.8117 -0.5264 -0.8448
  310TMC3    C4 4715   2.410   2.289  16.729 -0.5437 -0.1949  0.4657
  310TMC3    C5 4716   2.424   2.342  16.606 -0.0711 -0.0610 -0.0558
  310TMC3    C6 4717   2.319   2.409  16.544 -1.0249 -0.0762  0.1948
  310TMC3     C 4718   2.287   2.275  16.940 -0.5416  0.0844  0.2914
  310TMC3     O 4719   2.394   2.264  16.995  0.4078 -0.1045  0.3362
  310TMC3     H 4720   2.099   2.405  16.802 -0.0302  0.7360 -0.2728
  310TMC3    H1 4721   2.488   2.229  16.774 -0.4633 -0.8734 -0.5792
  310TMC3    H2 4722   2.318   2.414  16.436 -0.2896 -2.3653  0.0879
  310TMC3    C7 4723   2.526   2.268  16.524 -0.8948  0.1117  0.3798
  310TMC3    C8 4724   2.083   2.453  16.545 -0.1136 -0.7422 -0.2453
  310TMC3    O1 4725   2.570   2.160  16.564 -0.5819 -0.3108  0.1073
  310TMC3    O2 4726   1.982   2.414  16.604 -0.0591  0.5101  0.1642
  311MPD2     C 4727   3.280   3.621  12.386  0.0622 -0.5723 -0.8552
  311MPD2    C1 4728   3.368   3.582  12.489  0.1356  0.2559  0.7496
  311MPD2    C2 4729   3.317   3.526  12.602  0.4754 -0.2679  0.2772
  311MPD2    C3 4730   3.184   3.488  12.609 -0.2963 -0.1084 -0.0601
  311MPD2    C4 4731   3.100   3.526  12.509 -0.2677  0.4945  0.0256
  311MPD2    C5 4732   3.146   3.593  12.399 -0.2399 -0.2593 -0.3421
  311MPD2     H 4733   3.384   3.515  12.685 -2.7056 -2.2451  2.5970
  311MPD2    H1 4734   2.998   3.490  12.505  0.0583 -0.0892 -2.8603
  311MPD2    H2 4735   3.328   3.665  12.299 -0.6359  1.0253 -0.4218
  311MPD2    H3 4736   3.081   3.619  12.317  0.3452  1.7082 -0.1961
  311MPD2     N 4737   3.139   3.416  12.722 -0.2981 -0.0371  0.5400
  311MPD2    H5 4738   3.211   3.387  12.788  0.7558 -2.2596 -1.5615
  311MPD2    N1 4739   3.502   3.603  12.475  0.5417 -0.2883 -0.4668
  311MPD2    H7 4740   3.553   3.616  12.561 -0.5496  0.2916  0.0957
  312TMC3    C1 4741   2.979   3.310  12.858  0.2911 -0.2129  0.3863
  312TMC3    C2 4742   2.845   3.275  12.856  0.1317 -0.3610  0.0954
  312TMC3    C3 4743   2.809   3.141  12.877 -0.9433 -0.0815 -0.5457
  312TMC3    C4 4744   3.072   3.217  12.888 -0.3319  1.0269  0.3733
  312TMC3    C5 4745   3.035   3.088  12.919 -0.3772 -0.1407  0.5518
  312TMC3    C6 4746   2.905   3.047  12.914  0.0477  0.9101 -0.1811
  312TMC3     C 4747   3.012   3.409  12.762  0.6515 -0.4517  0.1417
  312TMC3     O 4748   2.917   3.464  12.717  0.3345 -0.4066  0.4875
  312TMC3     H 4749   2.765   3.348  12.852  0.7867  0.3459 -0.1963
  312TMC3    H1 4750   3.173   3.245  12.916 -0.0859  1.0990 -0.6119
  312TMC3    H2 4751   2.874   2.945  12.933  1.3986  0.8544  1.7021
  312TMC3    C7 4752   3.126   2.984  12.958 -0.3657 -0.0877  0.2276
  312TMC3    C8 4753   2.673   3.100  12.830  0.2661 -0.1712  0.3400
  312TMC3    O1 4754   3.088   2.871  12.951  0.6159  0.0748  0.1691
  312TMC3    O2 4755   2.630   2.989  12.856  0.3291 -0.0554 -0.3144
  313MPD2     C 4756   2.439   3.458  11.603  0.0988 -0.1742 -0.9583
  313MPD2    C1 4757   2.543   3.503  11.529  0.1614  0.5061 -0.6389
  313MPD2    C2 4758   2.625   3.414  11.463 -0.3042 -0.5030 -0.2199
  313MPD2    C3 4759   2.610   3.273  11.477  0.1417 -0.2124  0.6448
  313MPD2    C4 4760   2.510   3.232  11.559 -0.1356  0.2890  0.4387
  313MPD2    C5 4761   2.428   3.324  11.619  0.3339  0.0867  0.6444
  313MPD2     H 4762   2.709   3.462  11.414  1.1211 -2.8905 -0.0660
  313MPD2    H1 4763   2.489   3.129  11.585 -0.3336  0.3122  0.3712
  313MPD2    H2 4764   2.379   3.530  11.658  3.1481  0.6117  1.3414
  313MPD2    H3 4765   2.342   3.287  11.673 -0.5166  3.0358  1.3091
  313MPD2     N 4766   2.694   3.190  11.405  0.2104  0.1296  0.1454
  313MPD2    H5 4767   2.759   3.243  11.347 -0.2880 -0.9824 -1.4252
  313MPD2    N1 4768   2.560   3.642  11.527  0.3538 -0.4876 -1.2541
  313MPD2    H7 4769   2.643   3.680  11.484  1.9804 -0.7358  1.6419
  314TMC3    C1 4770   2.539   3.862  11.559  0.5836 -1.2498 -0.2584
  314TMC3    C2 4771   2.668   3.881  11.596  0.9487  0.3823 -0.5099
  314TMC3    C3 4772   2.724   4.002  11.553 -0.0842 -0.0653  0.2074
  314TMC3    C4 4773   2.464   3.953  11.490 -0.1439  0.2343  0.1559
  314TMC3    C5 4774   2.514   4.070  11.464 -1.1530  0.2941  0.3725
  314TMC3    C6 4775   2.648   4.089  11.480 -0.2131  0.4260  0.1508
  314TMC3     C 4776   2.481   3.735  11.586  0.1712  0.1160 -0.9497
  314TMC3     O 4777   2.358   3.738  11.593 -0.0488 -0.0575 -0.3450
  314TMC3     H 4778   2.715   3.801  11.653 -2.1654 -1.1632 -0.0790
  314TMC3    H1 4779   2.367   3.925  11.451  0.0914  1.3513 -1.2231
  314TMC3    H2 4780   2.681   4.192  11.470  3.5288 -0.5638  1.9975
  314TMC3    C7 4781   2.459   4.133  11.346 -0.0628  0.0727 -0.1843
  314TMC3    C8 4782   2.862   4.012  11.532 -0.0193  0.0410  0.7186
  314TMC3    O1 4783   2.344   4.161  11.367  0.2242 -0.2404  0.4719
  314TMC3    O2 4784   2.895   4.123  11.485  0.4124 -0.0256  0.0039
  315MPD2     C 4785   3.171   1.446  17.425 -0.3727  0.1805  0.0074
  315MPD2    C1 4786   3.119   1.461  17.556 -0.3340 -0.1319  0.0646
  315MPD2    C2 4787   3.073   1.583  17.612  0.0260  0.5244  0.5844
  315MPD2    C3 4788   3.094   1.693  17.534  0.0338  0.6524 -0.3571
  315MPD2    C4 4789   3.145   1.682  17.400  1.0705 -0.1309  0.6521
  315MPD2    C5 4790   3.177   1.560  17.349  0.1257  0.7837 -0.3192
  315MPD2     H 4791   3.037   1.603  17.712 -2.3382 -3.6983  0.5965
  315MPD2    H1 4792   3.158   1.775  17.346  0.1216 -0.1055  0.4661
  315MPD2    H2 4793   3.219   1.362  17.375 -0.6977 -0.4898  0.8197
  315MPD2    H3 4794   3.199   1.548  17.243  0.1156  1.6463 -0.4233
  315MPD2     N 4795   3.091   1.817  17.603 -0.3128  0.3089 -0.1271
  315MPD2    H5 4796   3.094   1.813  17.705 -0.1514 -2.1772 -0.2232
  315MPD2    N1 4797   3.133   1.361  17.647 -0.1132 -0.2166  0.6035
  315MPD2    H7 4798   3.127   1.393  17.743  2.1638 -0.6930  0.8996
  316TMC3    C1 4799   3.103   2.050  17.640  0.3174 -0.5814 -0.4783
  316TMC3    C2 4800   3.148   2.022   0.018  0.3813  0.5724 -0.3313
  316TMC3    C3 4801   3.154   2.127   0.107  1.2128 -0.6937  0.5296
  316TMC3    C4 4802   3.070   2.170  17.590  0.7367 -0.3680  0.6623
  316TMC3    C5 4803   3.087   2.268  17.683 -0.0926 -0.3149  0.3504
  316TMC3    C6 4804   3.136   2.256   0.064 -0.4662 -0.9825  0.3884
  316TMC3     C 4805   3.081   1.942  17.547 -0.0938 -0.2782 -0.9271
  316TMC3     O 4806   3.060   1.965  17.428 -0.1581 -0.0314 -0.3366
  316TMC3     H 4807   3.169   1.924   0.058  1.2453  0.5116 -0.9170
  316TMC3    H1 4808   3.029   2.191  17.492  2.4953 -3.4322 -0.7425
  316TMC3    H2 4809   3.149   2.342   0.129  1.2362 -0.7349 -0.2907
  316TMC3    C7 4810   3.035   2.398  17.659 -0.2204 -0.2176 -0.1151
  316TMC3    C8 4811   3.247   2.124   0.219 -0.3044  0.0015  0.5081
  316TMC3    O1 4812   3.004   2.463   0.010  0.4450  0.2017 -0.0882
  316TMC3    O2 4813   3.257   2.220   0.296  0.0460 -0.1441 -0.8545
  317MPD2     C 4814   4.519   0.346  13.070  0.2361 -0.0714  0.2878
  317MPD2    C1 4815   4.520   0.217  13.017  0.5630  0.1061  0.4865
  317MPD2    C2 4816   4.610   0.129  13.073  0.4712  0.3377  0.3804
  317MPD2    C3 4817   4.692   0.160  13.180 -0.0569  0.7261  0.2895
  317MPD2    C4 4818   4.671   0.282  13.241 -0.1891 -0.7283  0.1725
  317MPD2    C5 4819   4.589   0.373  13.184 -0.2660  0.2810 -1.0629
  317MPD2     H 4820   4.624   0.030  13.031  0.0227  0.4831 -0.1133
  317MPD2    H1 4821   4.712   0.308  13.338  0.3773 -0.5599 -0.1144
  317MPD2    H2 4822   4.452   0.420  13.029  0.2518 -1.3644 -2.0918
  317MPD2    H3 4823   4.576   0.467  13.236 -1.9723 -0.9087  0.6559
  317MPD2     N 4824   0.039   0.059  13.224 -0.0295 -0.3489  0.4898
  317MPD2    H5 4825   0.048   4.712  13.169 -0.1070 -0.2151  0.2752
  317MPD2    N1 4826   4.454   0.176  12.896 -0.6056  0.2853  0.4715
  317MPD2    H7 4827   4.487   0.086  12.864 -1.3961 -0.2786  1.2555
  318TMC3    C1 4828   0.192   4.683  13.351 -0.0509 -1.4357  0.0339
  318TMC3    C2 4829   0.122   4.563  13.343 -0.3546  0.1364 -0.4292
  318TMC3    C3 4830   0.189   4.445  13.366 -0.0272 -0.2010  0.2550
  318TMC3    C4 4831   0.329   4.682  13.358 -0.1156  0.5965  0.1911
  318TMC3    C5 4832   0.394   4.566  13.376  0.2144  0.8919  0.7684
  318TMC3    C6 4833   0.326   4.443  13.388 -0.4425 -0.7081 -0.9816
  318TMC3     C 4834   0.128   0.071  13.328  1.2428 -0.1778  0.1014
  318TMC3     O 4835   0.139   0.158  13.416 -0.0223 -0.2110  0.4004
  318TMC3     H 4836   0.014   4.561  13.348 -0.2319 -2.2135  1.1681
  318TMC3    H1 4837   0.374   0.043  13.363 -1.3446  1.2988 -2.7468
  318TMC3    H2 4838   0.369   4.349  13.421  0.4786 -0.0360 -0.2789
  318TMC3    C7 4839   0.541   4.574  13.357 -0.1845  0.6514 -0.1770
  318TMC3    C8 4840   0.120   4.322  13.369  0.4252 -0.1661  0.1552
  318TMC3    O1 4841   0.585   4.681  13.319 -0.0487  0.6784  0.1458
  318TMC3    O2 4842   0.187   4.243  13.431  0.7015  0.3563  0.0452
  319MPD2     C 4843   1.241   2.178  16.415  0.0919 -0.9454  0.3292
  319MPD2    C1 4844   1.288   2.051  16.370 -0.0993 -0.5336  0.4269
  319MPD2    C2 4845   1.202   1.970  16.307 -0.3022  0.3088  0.5013
  319MPD2    C3 4846   1.066   2.001  16.296 -0.0185  0.4142 -0.5395
  319MPD2    C4 4847   1.021   2.121  16.347 -0.1353  0.9622 -0.2842
  319MPD2    C5 4848   1.103   2.207  16.406 -0.4227  0.0841  0.3046
  319MPD2     H 4849   1.238   1.879  16.261 -0.8951  1.6630 -2.6641
  319MPD2    H1 4850   0.917   2.147  16.335 -0.6319 -0.8135  0.2405
  319MPD2    H2 4851   1.311   2.253  16.450 -0.1051 -1.1846  1.2269
  319MPD2    H3 4852   1.062   2.302  16.440  2.2740  1.3441  0.0126
  319MPD2     N 4853   0.966   1.916  16.242 -0.0216 -0.7807 -0.3419
  319MPD2    H5 4854   0.874   1.958  16.249  0.4460 -0.2456  2.6323
  319MPD2    N1 4855   1.419   2.002  16.391  0.5093 -0.2750  0.0993
  319MPD2    H7 4856   1.448   1.918  16.343 -0.1655  1.3975 -3.2445
  320TMC3    C1 4857   0.866   1.723  16.138 -0.3063 -0.2322  0.2831
  320TMC3    C2 4858   0.782   1.786  16.054  0.2281 -0.1638 -0.6666
  320TMC3    C3 4859   0.698   1.713  15.972 -0.5035  0.1255  0.1105
  320TMC3    C4 4860   0.859   1.583  16.143 -0.3140  0.3629 -0.4201
  320TMC3    C5 4861   0.781   1.514  16.060  0.5118  0.4952 -0.1512
  320TMC3    C6 4862   0.700   1.577  15.969 -0.2015  0.1191 -0.5837
  320TMC3     C 4863   0.986   1.787  16.198  0.5826  0.6072  0.4635
  320TMC3     O 4864   1.080   1.710  16.217 -0.0771  0.8063  0.6515
  320TMC3     H 4865   0.779   1.894  16.047 -1.1984 -0.0903  1.0189
  320TMC3    H1 4866   0.924   1.536  16.216 -0.5322 -0.2792 -0.6490
  320TMC3    H2 4867   0.656   1.519  15.888 -1.0968 -1.6550  1.1622
  320TMC3    C7 4868   0.742   1.374  16.082  0.1298 -0.8492  0.0791
  320TMC3    C8 4869   0.601   1.793  15.896 -0.3091 -0.6215 -0.2603
  320TMC3    O1 4870   0.721   1.299  15.984  0.6350 -0.6146 -0.0725
  320TMC3    O2 4871   0.617   1.919  15.884 -0.3250  0.6073  0.1948
  321TMC3    C1 4872   1.649   2.010  16.445  0.2747 -0.5475 -0.0115
  321TMC3    C2 4873   1.658   1.869  16.443  0.6931  0.5051  0.4982
  321TMC3    C3 4874   1.785   1.812  16.434  0.7558 -0.0600 -0.1406
  321TMC3    C4 4875   1.761   2.086  16.477 -0.0064 -0.1342 -0.6909
  321TMC3    C5 4876   1.874   2.025  16.488  0.1928  0.2385  0.5222
  321TMC3    C6 4877   1.900   1.897  16.453  0.1197 -0.0246 -0.1381
  321TMC3     C 4878   1.520   2.073  16.452  0.2880 -0.1800  0.1742
  321TMC3     O 4879   1.517   2.179  16.516 -0.2760  0.1351  0.5698
  321TMC3     H 4880   1.569   1.807  16.446  1.4712 -0.6448 -0.4761
  321TMC3    H1 4881   1.753   2.194  16.486 -0.4104 -0.2728  0.6636
  321TMC3    H2 4882   1.999   1.854  16.447 -0.3288 -1.4681  2.3856
  321TMC3    C7 4883   1.938   2.063  16.615  0.7704 -0.0037  0.4150
  321TMC3    C8 4884   1.807   1.677  16.486  0.6530  0.7178  0.8185
  321TMC3    O1 4885   1.879   2.101  16.716  0.1792 -0.2777  0.3482
  321TMC3    O2 4886   1.923   1.656  16.520 -0.0554 -0.0418  0.4095
  322MPD2     C 4887   4.411   2.881  13.237 -0.9511 -1.0106  0.0100
  322MPD2    C1 4888   4.422   2.810  13.358  0.9733 -0.0627  0.1165
  322MPD2    C2 4889   4.469   2.677  13.355 -0.1591 -0.2317  0.0097
  322MPD2    C3 4890   4.502   2.624  13.232  0.0915 -0.1562  0.2077
  322MPD2    C4 4891   4.486   2.697  13.118  0.1922  0.5313  0.2526
  322MPD2    C5 4892   4.431   2.820  13.117 -0.1101 -0.4257 -0.1122
  322MPD2     H 4893   4.487   2.633  13.452  0.6894 -0.0497 -0.0579
  322MPD2    H1 4894   4.511   2.651  13.024  1.2009  1.5636  0.0188
  322MPD2    H2 4895   4.379   2.984  13.224  1.5016 -0.1413  0.6904
  322MPD2    H3 4896   4.423   2.874  13.023  0.4420 -1.0412 -0.5124
  322MPD2     N 4897   4.563   2.494  13.238  0.1880  0.0630  0.1023
  322MPD2    H5 4898   4.558   2.459  13.333  0.4551 -2.0723 -0.6786
  322MPD2    N1 4899   4.400   2.872  13.488 -0.3300  0.0592  0.5670
  322MPD2    H7 4900   4.366   2.968  13.487 -1.0529 -0.1779  2.3173
  323TMC3    C1 4901   4.422   2.902  13.717 -0.2620  0.4624  0.9358
  323TMC3    C2 4902   4.510   3.010  13.693  0.5806 -1.0319  0.0457
  323TMC3    C3 4903   4.561   3.077  13.803 -0.2787 -0.1258  0.1777
  323TMC3    C4 4904   4.406   2.849  13.847  0.1639 -0.1433 -0.1748
  323TMC3    C5 4905   4.454   2.918  13.955  0.1304 -0.6759 -0.3868
  323TMC3    C6 4906   4.533   3.036  13.935  0.8790  0.2490  0.3775
  323TMC3     C 4907   4.409   2.812  13.607  0.0012  0.1888  0.0615
  323TMC3     O 4908   4.403   2.698  13.648 -0.2429  0.4967  0.2396
  323TMC3     H 4909   4.554   3.026  13.595 -1.4011  2.0065 -0.3741
  323TMC3    H1 4910   4.348   2.758  13.857 -0.3064  0.0519 -1.2120
  323TMC3    H2 4911   4.577   3.090  14.018 -1.1344  3.3230 -0.6067
  323TMC3    C7 4912   4.491   2.830  14.061 -0.6058  0.2913  0.3586
  323TMC3    C8 4913   4.690   3.134  13.783 -0.0814  0.5798  0.3981
  323TMC3    O1 4914   4.492   2.709  14.038  0.2019 -0.3170 -0.0843
  323TMC3    O2 4915   0.036   3.111  13.870 -0.0396  0.3613  0.5812
  324MPD2     C 4916   1.641   3.868  14.289 -0.0013  0.0884  0.4126
  324MPD2    C1 4917   1.664   3.918  14.168 -0.6165 -0.3009 -0.4177
  324MPD2    C2 4918   1.568   3.909  14.065 -0.3394 -0.1636  0.0557
  324MPD2    C3 4919   1.446   3.852  14.094 -0.3774  1.8326  0.3239
  324MPD2    C4 4920   1.415   3.814  14.227 -0.2964  0.3084 -1.0695
  324MPD2    C5 4921   1.517   3.822  14.327  0.3392 -0.0126  0.1338
  324MPD2     H 4922   1.596   3.966  13.977 -0.0194 -1.0206 -0.3985
  324MPD2    H1 4923   1.321   3.763  14.246 -0.1538  1.4164  2.5765
  324MPD2    H2 4924   1.711   3.875  14.371  2.3973 -1.1372 -1.5451
  324MPD2    H3 4925   1.486   3.799  14.428 -0.5036  2.2623  0.4025
  324MPD2     N 4926   1.340   3.860  14.000 -0.1415  0.2604 -0.1537
  324MPD2    H5 4927   1.248   3.837  14.036  1.3454 -2.2071  2.1212
  324MPD2    N1 4928   1.783   3.997  14.145  1.6043 -0.4381 -0.1234
  324MPD2    H7 4929   1.792   4.039  14.054  1.5778 -2.1699 -0.9280
  325TMC3    C1 4930   1.233   3.865  13.791  0.4364 -0.0067 -0.2439
  325TMC3    C2 4931   1.199   3.759  13.712  0.3918  0.1817 -0.2446
  325TMC3    C3 4932   1.077   3.756  13.656  0.2943 -0.0289 -0.8151
  325TMC3    C4 4933   1.144   3.970  13.811 -0.1500  0.9450 -0.2485
  325TMC3    C5 4934   1.020   3.961  13.743  0.4658 -0.1431 -0.3789
  325TMC3    C6 4935   0.996   3.861  13.652  0.3026 -0.1320  0.6720
  325TMC3     C 4936   1.354   3.862  13.868  0.5192 -0.9346 -0.3456
  325TMC3     O 4937   1.461   3.845  13.809  0.5224 -0.8816 -0.0417
  325TMC3     H 4938   1.272   3.680  13.698  2.5812  2.1243  0.1245
  325TMC3    H1 4939   1.166   4.049  13.883 -1.1903  2.0247 -1.1078
  325TMC3    H2 4940   0.910   3.869  13.587  1.2321 -0.7401 -0.6277
  325TMC3    C7 4941   0.954   4.084  13.720  0.3333 -0.4887  0.3066
  325TMC3    C8 4942   1.046   3.638  13.580 -0.0554 -0.7908 -0.2882
  325TMC3    O1 4943   0.893   4.099  13.611 -0.0768 -0.2824 -0.5055
  325TMC3    O2 4944   1.132   3.550  13.580  0.7409 -0.1132  0.1187
  326MPD2     C 4945   2.846   0.432  11.023  0.3626  0.4408 -0.7574
  326MPD2    C1 4946   2.894   0.557  11.065 -0.2871  0.2520  1.0689
  326MPD2    C2 4947   3.015   0.599  11.018 -0.0819  0.1760 -0.8729
  326MPD2    C3 4948   3.088   0.527  10.922  0.0553 -0.3797 -0.4675
  326MPD2    C4 4949   3.025   0.412  10.874 -0.0365  0.1929 -1.0736
  326MPD2    C5 4950   2.912   0.362  10.923 -0.4465  1.2072  0.2720
  326MPD2     H 4951   3.055   0.687  11.068 -0.7445  1.8057 -3.1781
  326MPD2    H1 4952   3.067   0.351  10.794  1.0580 -0.4080 -0.0387
  326MPD2    H2 4953   2.767   0.380  11.076  0.1088 -0.1019 -1.6705
  326MPD2    H3 4954   2.868   0.279  10.869  1.5817 -0.2835  0.8760
  326MPD2     N 4955   3.217   0.560  10.881  0.7516  0.4642 -0.3555
  326MPD2    H5 4956   3.241   0.540  10.784 -1.4486 -1.2510 -0.5436
  326MPD2    N1 4957   2.823   0.650  11.141 -0.2290 -0.1922  0.4161
  326MPD2    H7 4958   2.856   0.745  11.154 -0.4530 -0.2446  1.4341
  327TMC3    C1 4959   2.627   0.738  11.248  0.2070 -0.1937  0.5159
  327TMC3    C2 4960   2.615   0.843  11.154 -0.1362  0.3223 -0.8639
  327TMC3    C3 4961   2.499   0.913  11.162  0.3453  0.3658  0.0026
  327TMC3    C4 4962   2.528   0.706  11.335  0.0312 -0.0641  0.1813
  327TMC3    C5 4963   2.406   0.765  11.323  0.1139 -0.4599 -0.8485
  327TMC3    C6 4964   2.396   0.875  11.243 -0.0831  0.7420  0.2708
  327TMC3     C 4965   2.718   0.623  11.218 -0.4053  0.3351 -0.0118
  327TMC3     O 4966   2.676   0.515  11.251  0.4067  0.0502  0.6978
  327TMC3     H 4967   2.697   0.871  11.089  1.0075  0.2495  0.5588
  327TMC3    H1 4968   2.541   0.626  11.406  0.5543  0.3902  0.5995
  327TMC3    H2 4969   2.295   0.906  11.220  0.1004  2.2422  1.5315
  327TMC3    C7 4970   2.304   0.663  11.281 -0.3115 -0.4909 -0.1263
  327TMC3    C8 4971   2.491   1.031  11.071  0.1712 -0.0012 -0.3852
  327TMC3    O1 4972   2.189   0.700  11.253 -0.4334 -0.0328  0.3179
  327TMC3    O2 4973   2.594   1.063  11.012 -0.1208  0.1875  0.4163
  328MPD2     C 4974   0.832   0.489  16.788 -0.3422 -0.2807  0.5333
  328MPD2    C1 4975   0.743   0.399  16.846 -0.0898  0.3935  0.0260
  328MPD2    C2 4976   0.623   0.374  16.786  0.6059 -0.0581  0.2168
  328MPD2    C3 4977   0.583   0.447  16.672 -0.5603 -0.4070  0.4897
  328MPD2    C4 4978   0.670   0.529  16.611  0.1020 -0.3523 -0.6828
  328MPD2    C5 4979   0.794   0.556  16.672 -0.2835 -0.4572  0.1261
  328MPD2     H 4980   0.554   0.311  16.841  0.1424 -0.5300 -0.9154
  328MPD2    H1 4981   0.636   0.591  16.529 -0.8816 -0.1403 -0.1173
  328MPD2    H2 4982   0.928   0.505  16.835 -0.9076 -3.7105  2.9552
  328MPD2    H3 4983   0.855   0.642  16.646  1.0062 -1.0309  1.2587
  328MPD2     N 4984   0.454   0.439  16.610 -0.4862  0.4121 -0.2667
  328MPD2    H5 4985   0.444   0.517  16.545  0.5169  2.7013  2.3135
  328MPD2    N1 4986   0.788   0.336  16.966 -0.3597 -0.0167  0.0482
  328MPD2    H7 4987   0.869   0.367  17.018 -1.3723 -0.2631  1.7567
  329TMC3    C1 4988   0.777   0.199  17.155  0.8923  0.6020 -0.7687
  329TMC3    C2 4989   0.807   0.303  17.244 -0.6494 -0.0189  0.0778
  329TMC3    C3 4990   0.834   0.267  17.371 -0.7960 -0.9228  0.1776
  329TMC3    C4 4991   0.787   0.065  17.188 -0.4090 -0.0472 -0.3332
  329TMC3    C5 4992   0.838   0.033  17.318 -0.1512  0.4480  0.0048
  329TMC3    C6 4993   0.861   0.136  17.413  0.6204 -1.0031 -0.3116
  329TMC3     C 4994   0.734   0.220  17.015  0.0117  0.2636  0.5272
  329TMC3     O 4995   0.665   0.133  16.958 -0.1838 -0.0969 -0.3263
  329TMC3     H 4996   0.787   0.406  17.213 -0.7948 -0.2639 -0.6515
  329TMC3    H1 4997   0.774   4.726  17.112 -1.2795  0.7049 -0.9232
  329TMC3    H2 4998   0.872   0.122  17.520  2.1924  0.0932 -0.3151
  329TMC3    C7 4999   0.868   4.633  17.348 -0.1532  0.2393  0.4993
  329TMC3    C8 5000   0.825   0.371  17.473  0.1071 -0.3178 -0.0900
  329TMC3    O1 5001   0.895   4.558  17.258  0.4349 -0.2505  0.3386
  329TMC3    O2 5002   0.892   0.361  17.572 -0.9886  0.1850  0.2166
  330TMC3    C1 5003   3.149   4.300   9.002 -0.3684 -0.5708 -0.5818
  330TMC3    C2 5004   3.023   4.315   9.029  0.0130 -0.0758 -0.3105
  330TMC3    C3 5005   3.003   4.351   9.158 -0.4220  0.1654 -0.0821
  330TMC3    C4 5006   3.251   4.310   9.087 -0.8928  0.0744 -0.8947
  330TMC3    C5 5007   3.222   4.344   9.213 -0.0126 -0.1257  0.2612
  330TMC3    C6 5008   3.097   4.381   9.254 -0.0796 -1.1348 -0.1832
  330TMC3     C 5009   3.176   4.292   8.855 -0.5460 -0.1767  0.4075
  330TMC3     O 5010   3.288   4.256   8.821  0.3542 -0.2326 -0.1893
  330TMC3     H 5011   2.941   4.289   8.963 -0.5340  0.9806 -0.0363
  330TMC3    H1 5012   3.351   4.314   9.045 -0.3896 -1.8664  0.1254
  330TMC3    H2 5013   3.079   4.431   9.349 -0.2121 -1.4422 -0.0457
  330TMC3    C7 5014   3.331   4.393   9.298  0.4696 -0.3674 -0.4652
  330TMC3    C8 5015   2.861   4.369   9.191 -0.3360 -0.0838  0.1285
  330TMC3    O1 5016   3.441   4.414   9.250 -0.1275 -0.1936  1.0284
  330TMC3    O2 5017   2.791   4.397   9.097  0.5997  0.5849 -0.7464
  331MPD2     C 5018   1.429   3.611  12.231  0.1654 -0.7472 -0.0689
  331MPD2    C1 5019   1.297   3.639  12.202  0.2091 -0.3743 -0.4321
  331MPD2    C2 5020   1.196   3.543  12.214  0.8647  0.0977 -0.0108
  331MPD2    C3 5021   1.223   3.421  12.272 -0.1384  0.0892 -0.2854
  331MPD2    C4 5022   1.358   3.400  12.308  0.0198  0.1668  0.2125
  331MPD2    C5 5023   1.462   3.487  12.291 -0.1665  0.1742 -0.1397
  331MPD2     H 5024   1.094   3.561  12.182  0.9077  1.3209  0.5336
  331MPD2    H1 5025   1.383   3.305  12.355 -2.7749 -0.2968  0.7509
  331MPD2    H2 5026   1.508   3.684  12.218 -0.1282 -0.2260  1.0607
  331MPD2    H3 5027   1.561   3.449  12.315 -0.4176 -0.0069  0.6040
  331MPD2     N 5028   1.125   3.328  12.306 -0.1370 -0.3641  0.1875
  331MPD2    H5 5029   1.028   3.353  12.320 -0.0871  0.2327 -0.5305
  331MPD2    N1 5030   1.271   3.773  12.155  0.2360 -1.4651  0.3092
  331MPD2    H7 5031   1.351   3.833  12.136 -1.3053  0.2396 -0.7831
  332TMC3    C1 5032   1.036   3.137  12.407 -0.2290  0.3651 -0.2668
  332TMC3    C2 5033   0.910   3.173  12.372  0.3746  0.1455  0.0185
  332TMC3    C3 5034   0.808   3.119  12.445  0.4256  0.3056 -0.0708
  332TMC3    C4 5035   1.063   3.048  12.510 -0.6031 -0.2370  0.0600
  332TMC3    C5 5036   0.951   2.988  12.574  0.7998  0.0225  0.9894
  332TMC3    C6 5037   0.822   3.023  12.542  0.4571 -0.3481  0.3930
  332TMC3     C 5038   1.153   3.195  12.348 -0.5396  0.1892 -0.1597
  332TMC3     O 5039   1.258   3.128  12.361 -0.0205 -0.0777 -0.3676
  332TMC3     H 5040   0.901   3.250  12.296 -0.0287  2.2852  2.2451
  332TMC3    H1 5041   1.166   3.026  12.535 -0.3209  2.8984  1.7307
  332TMC3    H2 5042   0.743   2.990  12.609  0.4128  1.9298  1.4402
  332TMC3    C7 5043   0.970   2.916  12.694  0.1450  1.1608 -0.0488
  332TMC3    C8 5044   0.694   3.201  12.428 -0.0093 -0.8122  0.5513
  332TMC3    O1 5045   0.871   2.886  12.761  0.3290 -0.3846  0.3731
  332TMC3    O2 5046   0.699   3.260  12.318 -0.8182  0.7093 -0.3026
  333MPD2     C 5047   1.035   4.210  11.229 -0.2782  0.0038  0.3914
  333MPD2    C1 5048   1.136   4.142  11.152  0.3700 -0.3493 -0.2183
  333MPD2    C2 5049   1.130   4.002  11.151  0.2669  0.0426  0.4885
  333MPD2    C3 5050   1.027   3.931  11.215 -0.5516  0.8858  0.0912
  333MPD2    C4 5051   0.923   4.004  11.276 -0.0679  0.6811 -1.0859
  333MPD2    C5 5052   0.932   4.145  11.284  0.8205 -0.4251 -0.4036
  333MPD2     H 5053   1.203   3.949  11.090  0.2217  0.3647  0.1538
  333MPD2    H1 5054   0.833   3.961  11.320  1.1465 -0.8777 -0.1647
  333MPD2    H2 5055   1.040   4.318  11.239 -1.7015  0.2769 -1.9421
  333MPD2    H3 5056   0.858   4.202  11.339  0.8928  0.1030 -0.8525
  333MPD2     N 5057   1.020   3.789  11.198 -0.0432 -0.2826  0.3386
  333MPD2    H5 5058   1.108   3.753  11.162  1.0939  1.4327  1.4192
  333MPD2    N1 5059   1.241   4.221  11.097 -0.3130  0.0390  0.3152
  333MPD2    H7 5060   1.236   4.321  11.112 -0.0064  0.9572 -5.8195
  334TMC3    C1 5061   1.444   4.272  10.991 -0.6910  0.1998 -0.0226
  334TMC3    C2 5062   1.528   4.239  10.885  0.0379 -0.3008 -0.0284
  334TMC3    C3 5063   1.641   4.313  10.861 -1.0261 -0.1720  0.0386
  334TMC3    C4 5064   1.475   4.376  11.073 -0.5189 -0.2356 -0.1778
  334TMC3    C5 5065   1.586   4.453  11.050 -0.0250 -0.3598  0.3097
  334TMC3    C6 5066   1.674   4.425  10.942 -0.8309  0.3364 -1.0931
  334TMC3     C 5067   1.350   4.170  11.030  0.4725  0.1971  0.5431
  334TMC3     O 5068   1.376   4.055  10.997 -0.0461  0.0060 -0.0230
  334TMC3     H 5069   1.510   4.142  10.839  1.7715 -1.3158  1.4115
  334TMC3    H1 5070   1.414   4.395  11.161  1.2330  1.1132  0.7464
  334TMC3    H2 5071   1.765   4.481  10.927  0.1536 -0.8947  0.3077
  334TMC3    C7 5072   1.630   4.551  11.147  0.4284 -0.0105  0.0236
  334TMC3    C8 5073   1.729   4.262  10.757 -0.1645 -0.1570  0.7368
  334TMC3    O1 5074   1.729   4.612  11.113 -0.2052 -0.1182  0.5122
  334TMC3    O2 5075   1.689   4.166  10.696  0.1689  0.2640 -0.1379
  335TMC3    C1 5076   1.503   4.603  17.097  0.0055  0.6240 -0.6989
  335TMC3    C2 5077   1.417   4.637  16.994  0.1412  0.0733  0.2849
  335TMC3    C3 5078   1.452   4.595  16.866  0.0074  0.1618  0.0113
  335TMC3    C4 5079   1.622   4.547  17.078 -0.3044  0.5945  0.1267
  335TMC3    C5 5080   1.651   4.503  16.952  0.3150 -0.0466  0.1536
  335TMC3    C6 5081   1.568   4.531  16.845 -0.2816 -0.3623  0.2290
  335TMC3     C 5082   1.504   4.683  17.218  0.4372  0.3711  0.1371
  335TMC3     O 5083   1.606   4.717  17.269 -0.6236  0.0034 -0.2677
  335TMC3     H 5084   1.319   4.677  17.020 -0.4593 -1.3467  0.1868
  335TMC3    H1 5085   1.691   4.532  17.161 -2.1357 -1.1631  1.3296
  335TMC3    H2 5086   1.602   4.504  16.746 -1.8458  1.0950 -0.6983
  335TMC3    C7 5087   1.783   4.452  16.931 -0.3394 -0.2046 -0.1392
  335TMC3    C8 5088   1.352   4.613  16.762  0.3010 -1.2336  0.5529
  335TMC3    O1 5089   1.836   4.483  16.825  0.0252 -0.0574 -0.2054
  335TMC3    O2 5090   1.400   4.580  16.656  0.6128  0.1296  0.5404
  336MPD2     C 5091   0.583   2.970  16.571  0.3516  0.4877  0.3398
  336MPD2    C1 5092   0.621   2.963  16.437  0.0021  0.1284 -0.3081
  336MPD2    C2 5093   0.660   2.839  16.383  0.0137  0.1484  0.1686
  336MPD2    C3 5094   0.652   2.728  16.461  0.1586  0.5501 -0.7341
  336MPD2    C4 5095   0.613   2.735  16.592  0.3708  0.4971 -0.0221
  336MPD2    C5 5096   0.576   2.853  16.649 -0.2985  0.1458  0.2008
  336MPD2     H 5097   0.692   2.834  16.279  0.3992 -0.2431  0.3118
  336MPD2    H1 5098   0.619   2.651  16.661  0.5525  0.2541 -0.3352
  336MPD2    H2 5099   0.543   3.064  16.607 -0.1981 -0.2474  1.6543
  336MPD2    H3 5100   0.552   2.851  16.755  1.2465  1.6878  0.5863
  336MPD2     N 5101   0.682   2.601  16.407 -0.1053 -0.3726  0.2165
  336MPD2    H5 5102   0.648   2.522  16.462 -0.0270  0.1935  1.0821
  336MPD2    N1 5103   0.620   3.071  16.349  0.4677  0.3486  0.2085
  336MPD2    H7 5104   0.642   3.051  16.252 -0.9276  0.1186 -0.0594
  337TMC3    C1 5105   0.599   3.261  16.250  0.2668 -0.1716  0.1577
  337TMC3    C2 5106   0.489   3.330  16.204 -0.9803  0.0293 -0.6555
  337TMC3    C3 5107   0.465   3.332  16.070  1.0169 -0.3241 -0.6573
  337TMC3    C4 5108   0.693   3.224  16.164 -0.0137  0.4249 -0.0295
  337TMC3    C5 5109   0.679   3.252  16.034 -0.1435  0.0879 -0.6526
  337TMC3    C6 5110   0.566   3.307  15.984 -0.8320  0.2390 -0.0797
  337TMC3     C 5111   0.594   3.201  16.378 -0.0259 -0.0533  0.5646
  337TMC3     O 5112   0.518   3.240  16.465 -0.7393  0.1068  0.0582
  337TMC3     H 5113   0.413   3.340  16.280 -0.1735 -4.1492  0.6748
  337TMC3    H1 5114   0.785   3.180  16.201 -0.8732  0.7656  2.4942
  337TMC3    H2 5115   0.548   3.299  15.877  0.9865 -2.2986 -0.2077
  337TMC3    C7 5116   0.796   3.239  15.937 -0.4724 -0.2905  0.3239
  337TMC3    C8 5117   0.326   3.314  16.028 -0.0398  0.1923  0.0143
  337TMC3    O1 5118   0.784   3.289  15.826 -0.7318 -0.6111  0.5771
  337TMC3    O2 5119   0.246   3.330  16.118 -0.0817  0.3695 -0.0330
  338MPD2     C 5120   1.507   2.636   0.748  0.8380 -0.8553 -0.2416
  338MPD2    C1 5121   1.419   2.548   0.688  0.0646 -0.7637 -0.5023
  338MPD2    C2 5122   1.302   2.604   0.640 -0.1757  0.0501 -0.7620
  338MPD2    C3 5123   1.270   2.738   0.645  0.3093 -0.0863  0.8298
  338MPD2    C4 5124   1.358   2.821   0.719 -0.3764  0.1648 -0.4472
  338MPD2    C5 5125   1.474   2.772   0.767 -0.1984 -0.5003 -0.9278
  338MPD2     H 5126   1.228   2.547   0.585  1.2815 -0.8212 -1.8084
  338MPD2    H1 5127   1.349   2.926   0.746  0.3793  0.5897 -1.8887
  338MPD2    H2 5128   1.598   2.601   0.796  1.0810  1.7963  1.2387
  338MPD2    H3 5129   1.539   2.844   0.815  1.3900 -1.0795 -2.2554
  338MPD2     N 5130   1.136   2.767   0.606  0.6890  0.5901  0.0463
  338MPD2    H5 5131   1.083   2.689   0.567  1.3840 -0.1257  0.5357
  338MPD2    N1 5132   1.437   2.411   0.679 -0.2263  0.0776  0.1652
  338MPD2    H7 5133   1.370   2.358   0.624  1.1792 -1.3587 -0.1741
  339TMC3    C1 5134   0.925   2.872   0.648 -0.0361  0.0130 -0.1864
  339TMC3    C2 5135   0.876   2.939   0.756  0.6907 -0.0676  0.0706
  339TMC3    C3 5136   0.742   2.907   0.780 -0.5413 -0.1310 -1.1250
  339TMC3    C4 5137   0.857   2.778   0.566  0.9913 -0.1817  0.0278
  339TMC3    C5 5138   0.730   2.754   0.604 -0.8861 -0.1766  0.1565
  339TMC3    C6 5139   0.670   2.815   0.713 -0.3276 -0.4230 -0.7256
  339TMC3     C 5140   1.072   2.887   0.645  0.4868 -0.6863  0.4754
  339TMC3     O 5141   1.120   2.982   0.697 -0.2343 -0.2534  0.5745
  339TMC3     H 5142   0.929   3.020   0.805  0.5614  1.0721 -1.6328
  339TMC3    H1 5143   0.911   2.740   0.481  0.7145  0.4547 -0.4326
  339TMC3    H2 5144   0.562   2.813   0.728 -0.2939 -2.5395 -0.7152
  339TMC3    C7 5145   0.675   2.623   0.561 -0.2026 -0.8179  0.3106
  339TMC3    C8 5146   0.694   2.976   0.899 -0.5067 -0.0821  0.5580
  339TMC3    O1 5147   0.720   2.592   0.451 -0.2900 -0.3658  0.6825
  339TMC3    O2 5148   0.761   3.073   0.935  0.3104  0.3805  0.0380
  340MPD2     C 5149   1.041   4.722  10.360  0.8654  0.3123  0.4054
  340MPD2    C1 5150   1.155   0.048  10.410 -0.3751 -0.5487 -0.2263
  340MPD2    C2 5151   1.136   0.108  10.538 -0.3950  0.4575 -0.4838
  340MPD2    C3 5152   1.006   0.112  10.597  0.5890  0.9811  0.0929
  340MPD2    C4 5153   0.904   0.034  10.546 -0.8186 -0.8741  0.1720
  340MPD2    C5 5154   0.921   4.713  10.428  0.6445 -0.0635 -0.0040
  340MPD2     H 5155   1.219   0.147  10.595  0.5739 -1.9524 -0.2456
  340MPD2    H1 5156   0.816   0.027  10.608  0.0200 -0.6125  1.4140
  340MPD2    H2 5157   1.049   4.661  10.270  0.5499 -1.7536  1.7825
  340MPD2    H3 5158   0.842   4.650  10.390  0.2124  0.7016 -0.3755
  340MPD2     N 5159   0.991   0.154  10.729 -0.2036 -0.0528 -0.3974
  340MPD2    H5 5160   0.906   0.147  10.784 -0.4899 -0.1059 -0.8470
  340MPD2    N1 5161   1.273   0.042  10.335 -0.0482 -0.2566 -0.2058
  340MPD2    H7 5162   1.259   4.736  10.245 -1.3345  0.3657 -0.3133
  341TMC3    C1 5163   1.487   0.068  10.260 -0.7303 -0.3237  0.6128
  341TMC3    C2 5164   1.484   4.689  10.187 -0.7236 -0.2904  0.0107
  341TMC3    C3 5165   1.561   4.672  10.071  0.0899  0.0216 -0.4096
  341TMC3    C4 5166   1.581   0.162  10.229  0.0236 -0.7833 -0.0391
  341TMC3    C5 5167   1.637   0.156  10.104  0.1345 -0.3596  0.5686
  341TMC3    C6 5168   1.631   0.044  10.022  0.4770  0.1533 -0.1163
  341TMC3     C 5169   1.394   0.092  10.370 -0.4673 -0.3185 -1.4106
  341TMC3     O 5170   1.436   0.161  10.462  0.2730  0.4880 -0.2192
  341TMC3     H 5171   1.427   4.606  10.226 -0.7395 -0.5645 -0.6051
  341TMC3    H1 5172   1.581   0.250  10.294  0.1733 -1.2347  0.5700
  341TMC3    H2 5173   1.690   0.035   9.931 -0.6506  0.3954 -0.8692
  341TMC3    C7 5174   1.697   0.282  10.065 -0.0842  0.1264 -0.1727
  341TMC3    C8 5175   1.536   4.555   9.981 -0.7596  0.0723  0.2342
  341TMC3    O1 5176   1.784   0.272   9.976 -0.1579  0.0046  0.4603
  341TMC3    O2 5177   1.499   4.583   9.868  0.0096 -0.0980  0.3029
  342MPD2     C 5178   3.735   3.153   0.125 -0.0044  0.2478  0.3220
  342MPD2    C1 5179   3.844   3.167   0.044 -0.5715  0.5616 -0.3053
  342MPD2    C2 5180   3.899   3.297   0.018  0.5913  0.5865  0.1248
  342MPD2    C3 5181   3.839   3.410   0.070  1.2008  0.3149 -0.0134
  342MPD2    C4 5182   3.734   3.394   0.155 -0.2734 -0.3960  0.4604
  342MPD2    C5 5183   3.682   3.271   0.172  0.2597  0.4885 -0.7839
  342MPD2     H 5184   3.991   3.292  17.709  0.3819 -1.4519 -0.0231
  342MPD2    H1 5185   3.698   3.483   0.206  0.7972  1.6489 -2.3458
  342MPD2    H2 5186   3.691   3.061   0.161  0.0551 -0.5825 -1.7691
  342MPD2    H3 5187   3.600   3.260   0.243 -1.4228 -1.0862 -2.9580
  342MPD2     N 5188   3.890   3.542   0.053 -0.0615  0.1786 -0.3654
  342MPD2    H5 5189   3.829   3.612   0.094 -1.9525 -1.7269  0.0877
  342MPD2    N1 5190   3.907   3.062  17.725 -0.5072  0.1248 -0.8050
  342MPD2    H7 5191   3.977   3.091  17.657  1.8824 -0.7797  1.2818
  343TMC3    C1 5192   3.944   2.841  17.650 -0.1855 -0.1363  0.4566
  343TMC3    C2 5193   4.068   2.873  17.595 -0.2857 -0.1708  0.7234
  343TMC3    C3 5194   4.122   2.784  17.511  0.2061  0.2271 -0.1899
  343TMC3    C4 5195   3.875   2.734  17.603  0.3491 -0.3602  0.0541
  343TMC3    C5 5196   3.933   2.649  17.516  0.0789  0.0264  0.0676
  343TMC3    C6 5197   4.056   2.673  17.462 -0.0124  0.4948  0.1414
  343TMC3     C 5198   3.873   2.924  17.743  0.8616 -0.5872 -0.0112
  343TMC3     O 5199   3.774   2.878   0.045  0.1820  0.6309 -0.0533
  343TMC3     H 5200   4.118   2.968  17.608 -0.3634  0.2984 -2.2584
  343TMC3    H1 5201   3.779   2.705  17.643 -0.3985 -2.2762 -3.0975
  343TMC3    H2 5202   4.096   2.597  17.397  1.8653  1.0311  0.6533
  343TMC3    C7 5203   3.877   2.513  17.519 -0.8752  0.6056 -0.5829
  343TMC3    C8 5204   4.258   2.810  17.473 -0.0935  0.5003 -0.3860
  343TMC3    O1 5205   3.892   2.446  17.417  0.0407 -0.2561  0.3428
  343TMC3    O2 5206   4.308   2.913  17.514 -0.4023 -0.0156  0.0133
  344MPD2     C 5207   4.603   3.010  11.088 -0.1488  0.3909 -1.1550
  344MPD2    C1 5208   4.576   2.933  10.971 -0.2990 -0.2294 -0.0887
  344MPD2    C2 5209   4.637   2.974  10.856  0.0429  0.4222 -0.0679
  344MPD2    C3 5210   4.726   3.082  10.856 -0.3947 -0.6390  0.0705
  344MPD2    C4 5211   0.021   3.148  10.977 -0.0987 -0.4662  0.2958
  344MPD2    C5 5212   4.692   3.108  11.087  0.2993  1.1326 -0.3030
  344MPD2     H 5213   4.615   2.910  10.771 -0.4727 -0.2591  0.5815
  344MPD2    H1 5214   0.097   3.222  11.002  1.3127 -1.5256 -0.8843
  344MPD2    H2 5215   4.585   2.959  11.182  1.5167  0.9588 -0.5144
  344MPD2    H3 5216   4.729   3.158  11.175  2.4567  0.8387 -1.0358
  344MPD2     N 5217   0.054   3.122  10.742 -0.7614 -0.1439  0.2783
  344MPD2    H5 5218   0.130   3.189  10.753 -1.7124  1.0923 -0.7810
  344MPD2    N1 5219   4.495   2.819  10.971  0.6902  0.5572 -0.1148
  344MPD2    H7 5220   4.482   2.770  10.883  0.4466  0.1479  0.1460
  345TMC3    C1 5221   0.127   3.159  10.525 -0.6283 -0.4891 -0.2841
  345TMC3    C2 5222   0.246   3.188  10.577  0.5429 -0.4488 -0.5282
  345TMC3    C3 5223   0.297   3.316  10.562 -0.3441  0.6782  0.4109
  345TMC3    C4 5224   0.061   3.252  10.445 -0.2577 -0.5958  0.3543
  345TMC3    C5 5225   0.122   3.374  10.431  0.4230  0.2508  0.7470
  345TMC3    C6 5226   0.238   3.411  10.491  0.4072 -0.2919  0.0650
  345TMC3     C 5227   0.045   3.077  10.609  0.0401 -0.3109  0.0478
  345TMC3     O 5228   4.684   3.030  10.556  0.5095  0.0273 -0.2994
  345TMC3     H 5229   0.287   3.114  10.645 -2.4592 -2.7835 -1.2523
  345TMC3    H1 5230   4.698   3.236  10.409 -0.2430  0.4684 -0.1673
  345TMC3    H2 5231   0.280   3.509  10.472  1.5171 -0.5320  1.2294
  345TMC3    C7 5232   0.079   3.459  10.320  0.0164 -0.0544  0.3339
  345TMC3    C8 5233   0.441   3.336  10.570  0.2437 -0.2976 -0.7498
  345TMC3    O1 5234   0.176   3.524  10.278 -0.5616 -0.1618 -0.4415
  345TMC3    O2 5235   0.499   3.432  10.515 -0.6125 -0.1960 -0.1640
  346MPD2     C 5236   0.102   3.975  14.306 -0.2158  0.4284  0.2395
  346MPD2    C1 5237   0.178   4.002  14.202  0.2989 -0.6864  0.5143
  346MPD2    C2 5238   0.294   4.073  14.224 -0.5829  0.4778 -0.2239
  346MPD2    C3 5239   0.332   4.118  14.347 -0.2997  0.1106 -0.2642
  346MPD2    C4 5240   0.250   4.088  14.450 -0.4075  0.0196  0.0926
  346MPD2    C5 5241   0.132   4.026  14.428  0.5851 -0.5410  0.1085
  346MPD2     H 5242   0.361   4.089  14.141 -0.2354  0.8148  0.1258
  346MPD2    H1 5243   0.258   4.134  14.548  1.5808  0.5737 -0.3078
  346MPD2    H2 5244   0.007   3.928  14.283  0.0974 -0.9506  1.7900
  346MPD2    H3 5245   0.068   4.006  14.513 -0.4517  0.6576 -0.3799
  346MPD2     N 5246   0.455   4.197  14.359 -0.3544  0.3319 -0.1289
  346MPD2    H5 5247   0.509   4.207  14.273  1.1646 -1.4926  0.6211
  346MPD2    N1 5248   0.158   3.964  14.070  0.0381  0.3031 -0.1100
  346MPD2    H7 5249   0.228   3.978  13.999 -0.0230  0.6445 -0.1016
  347TMC3    C1 5250   0.643   4.294  14.481 -0.0943 -0.5154  0.0009
  347TMC3    C2 5251   0.684   4.369  14.373 -0.3240  0.0386  0.0735
  347TMC3    C3 5252   0.810   4.405  14.372  0.4314  0.0762 -0.6790
  347TMC3    C4 5253   0.729   4.253  14.586  0.3346 -0.0228 -0.3553
  347TMC3    C5 5254   0.858   4.291  14.583 -0.0693 -0.9136 -0.1895
  347TMC3    C6 5255   0.899   4.371  14.474 -0.6019 -0.1756 -0.7978
  347TMC3     C 5256   0.508   4.243  14.482  0.0093  0.7068  0.3324
  347TMC3     O 5257   0.467   4.228  14.596  0.4740 -0.0283  0.5190
  347TMC3     H 5258   0.611   4.399  14.299  1.6816 -1.7253 -2.6264
  347TMC3    H1 5259   0.697   4.180  14.660 -0.3329 -0.3385 -0.9522
  347TMC3    H2 5260   1.000   4.409  14.470  0.3439 -2.6325  0.2169
  347TMC3    C7 5261   0.950   4.206  14.654 -0.3303 -0.2840 -0.5244
  347TMC3    C8 5262   0.884   4.432  14.245 -0.3663  0.3826 -0.2022
  347TMC3    O1 5263   0.896   4.118  14.717 -0.0077  0.1371  0.6197
  347TMC3    O2 5264   0.997   4.392  14.240  0.7433  0.1772  0.3879
  348MPD2     C 5265   3.412   4.440  11.838  0.9111  0.4625  0.1074
  348MPD2    C1 5266   3.312   4.399  11.754  0.7294 -0.5761  0.4041
  348MPD2    C2 5267   3.296   4.465  11.638  0.4058 -0.0456 -0.0801
  348MPD2    C3 5268   3.391   4.558  11.595 -0.4985  0.8153 -0.1284
  348MPD2    C4 5269   3.491   4.599  11.686 -0.3820  0.2771  0.1384
  348MPD2    C5 5270   3.504   4.529  11.800 -0.4679 -0.3255  0.1959
  348MPD2     H 5271   3.220   4.432  11.568  0.0838 -1.8247  1.0985
  348MPD2    H1 5272   3.576   4.664  11.668  0.3812 -1.3703 -2.2604
  348MPD2    H2 5273   3.432   4.387  11.931 -0.3464  1.5612  0.9947
  348MPD2    H3 5274   3.589   4.546  11.865 -1.8899 -2.9911  2.7556
  348MPD2     N 5275   3.371   4.614  11.464 -0.4142 -0.0898  0.1100
  348MPD2    H5 5276   3.281   4.598  11.420 -0.4787  0.8298 -0.0981
  348MPD2    N1 5277   3.218   4.298  11.786 -0.1679 -1.5402  0.1543
  348MPD2    H7 5278   3.139   4.289  11.724 -1.1537 -0.2591  1.2221
  349TMC3    C1 5279   3.139   4.101  11.900  0.2609  0.5109  0.7803
  349TMC3    C2 5280   3.185   3.993  11.965 -0.5053 -0.4248 -0.1845
  349TMC3    C3 5281   3.099   3.882  11.973 -0.2957 -0.4335 -0.4967
  349TMC3    C4 5282   3.005   4.121  11.868  0.3240  0.0697  0.3077
  349TMC3    C5 5283   2.922   4.018  11.917  0.9267  0.4531  0.2733
  349TMC3    C6 5284   2.965   3.902  11.971 -0.5740  0.1761  0.1739
  349TMC3     C 5285   3.232   4.216  11.894  0.9445 -1.0564 -0.0317
  349TMC3     O 5286   3.318   4.208  11.978  0.2418  0.1190 -0.5147
  349TMC3     H 5287   3.290   3.970  11.954 -0.0940  0.2173  2.3101
  349TMC3    H1 5288   2.971   4.220  11.838  1.5432  0.6885  0.9693
  349TMC3    H2 5289   2.892   3.824  11.989 -0.3876 -0.7116 -2.7912
  349TMC3    C7 5290   2.776   4.026  11.899  0.6825 -0.2572 -0.4288
  349TMC3    C8 5291   3.153   3.762  12.031 -0.0303 -0.6584  0.0855
  349TMC3    O1 5292   2.719   3.919  11.884  0.2118 -0.5625 -1.0290
  349TMC3    O2 5293   3.258   3.771  12.097  0.4537 -0.4869  0.3721
  350MPD2     C 5294   3.186   3.217  10.577 -0.2305  0.2773 -0.4392
  350MPD2    C1 5295   3.084   3.121  10.557 -0.0448 -0.7374 -0.4275
  350MPD2    C2 5296   3.001   3.082  10.661  0.5233 -0.2508  0.3064
  350MPD2    C3 5297   3.029   3.141  10.782 -0.1559  0.4023 -0.1122
  350MPD2    C4 5298   3.122   3.242  10.797  0.3641  0.3832  0.0256
  350MPD2    C5 5299   3.211   3.271  10.696 -0.0565  0.3605 -0.0274
  350MPD2     H 5300   2.930   3.001  10.649 -1.6520  1.7609 -0.1749
  350MPD2    H1 5301   3.146   3.294  10.888  0.6118 -0.9835  0.7363
  350MPD2    H2 5302   3.264   3.229  10.502 -0.0118 -1.0105 -0.4269
  350MPD2    H3 5303   3.303   3.327  10.703 -0.0297  0.2410  0.5449
  350MPD2     N 5304   2.941   3.106  10.885 -0.3628 -0.1050  0.5160
  350MPD2    H5 5305   2.859   3.047  10.869 -1.0337  1.0020 -0.1226
  350MPD2    N1 5306   3.052   3.062  10.433 -0.3525 -0.4427  0.3847
  350MPD2    H7 5307   2.971   3.001  10.429  0.3655 -1.4992  1.9283
  351TMC3    C1 5308   3.089   2.972  10.216  0.7483  0.0885  0.0552
  351TMC3    C2 5309   3.022   2.857  10.257 -0.8438  0.0973  0.1462
  351TMC3    C3 5310   2.999   2.766  10.156 -0.0930 -0.0662  0.3726
  351TMC3    C4 5311   3.149   2.988  10.100 -0.8912  1.2322  0.2262
  351TMC3    C5 5312   3.115   2.899  10.001  0.1450 -0.0529 -0.6936
  351TMC3    C6 5313   3.039   2.782  10.025  0.3189 -0.0651 -0.5948
  351TMC3     C 5314   3.118   3.076  10.313 -0.3260  0.2684 -1.0171
  351TMC3     O 5315   3.182   3.176  10.277 -0.0141  0.1758  0.5681
  351TMC3     H 5316   3.005   2.830  10.361  1.9432 -0.8757  0.3529
  351TMC3    H1 5317   3.205   3.077  10.073 -0.5156  1.2844  1.1890
  351TMC3    H2 5318   2.996   2.723   9.945 -2.0720  1.0949 -0.1794
  351TMC3    C7 5319   3.201   2.897   9.890  0.6677  0.4702 -0.4643
  351TMC3    C8 5320   2.943   2.640  10.185  0.1026  0.4731  0.8209
  351TMC3    O1 5321   3.249   3.005   9.859  0.0599  0.5360 -0.4484
  351TMC3    O2 5322   2.971   2.546  10.114  0.3563  0.7469 -0.3339
  352MPD2     C 5323   1.951   4.250   1.009  0.2007 -0.4524  0.0933
  352MPD2    C1 5324   1.866   4.174   0.928  0.1777 -0.6351  0.1101
  352MPD2    C2 5325   1.924   4.070   0.861 -0.1669  0.1487  0.4162
  352MPD2    C3 5326   2.054   4.034   0.885 -0.0772  0.2293  0.2071
  352MPD2    C4 5327   2.131   4.106   0.971  0.5512 -0.3721 -0.1520
  352MPD2    C5 5328   2.082   4.220   1.030 -0.3186  0.0081 -1.1196
  352MPD2     H 5329   1.870   4.018   0.782  0.6424  1.3868 -0.9648
  352MPD2    H1 5330   2.235   4.084   0.996  1.5229  3.0696 -1.1483
  352MPD2    H2 5331   1.911   4.339   1.055 -0.6853 -0.7284 -0.1481
  352MPD2    H3 5332   2.147   4.276   1.096 -0.4328 -1.7027  0.4582
  352MPD2     N 5333   2.108   3.917   0.826  0.0382  0.7426  0.3161
  352MPD2    H5 5334   2.206   3.909   0.853  0.2694  1.5624 -0.2857
  352MPD2    N1 5335   1.735   4.228   0.899 -0.5541  0.8119  0.0629
  352MPD2    H7 5336   1.718   4.312   0.954 -2.0042  1.1094 -0.8504
  353TMC3    C1 5337   2.136   3.730   0.681  0.1138 -0.5251 -0.9829
  353TMC3    C2 5338   2.207   3.659   0.763 -0.3954 -0.0066 -0.5915
  353TMC3    C3 5339   2.246   3.533   0.726  0.1714  1.1418  0.6774
  353TMC3    C4 5340   2.094   3.680   0.561 -0.0657 -0.0324 -0.2333
  353TMC3    C5 5341   2.143   3.564   0.517  0.2371 -0.3628 -0.6176
  353TMC3    C6 5342   2.219   3.486   0.600 -0.0931  0.6320 -0.6754
  353TMC3     C 5343   2.043   3.831   0.736  0.2696  0.3413 -0.5956
  353TMC3     O 5344   1.925   3.830   0.699 -0.3620  0.6786 -0.0319
  353TMC3     H 5345   2.230   3.694   0.863 -1.1681  2.1129 -1.1558
  353TMC3    H1 5346   2.035   3.746   0.498  1.1383  0.9094 -0.3799
  353TMC3    H2 5347   2.264   3.397   0.558  1.5667  0.3307  1.7615
  353TMC3    C7 5348   2.059   3.489   0.436 -0.6729  0.5557 -0.4128
  353TMC3    C8 5349   2.327   3.460   0.814 -0.4708 -0.1629  0.0917
  353TMC3    O1 5350   2.052   3.367   0.433  0.9383 -0.0356 -0.1463
  353TMC3    O2 5351   2.386   3.510   0.908 -0.2509  0.3250 -0.6182
  354TMC3    C1 5352   2.198   0.516  13.723 -0.4591  0.0841 -0.2832
  354TMC3    C2 5353   2.316   0.589  13.691  0.0383  0.4683 -0.0435
  354TMC3    C3 5354   2.307   0.675  13.584  0.3038 -0.7328  0.3094
  354TMC3    C4 5355   2.084   0.535  13.654 -0.9405  0.5004  0.1631
  354TMC3    C5 5356   2.080   0.646  13.572 -0.1337  0.7816  0.4026
  354TMC3    C6 5357   2.192   0.704  13.534 -0.0878  0.0903 -0.5886
  354TMC3     C 5358   2.203   0.393  13.809 -0.8639 -0.5415  0.3500
  354TMC3     O 5359   2.106   0.318  13.814 -0.1539 -0.7449  0.1392
  354TMC3     H 5360   2.412   0.563  13.734 -0.6026 -1.3196  0.3216
  354TMC3    H1 5361   1.992   0.480  13.672 -1.1828  1.2647  1.2736
  354TMC3    H2 5362   2.181   0.766  13.445 -5.4797 -0.7926 -0.5401
  354TMC3    C7 5363   2.005   0.617  13.449 -0.1353  0.0209 -0.2125
  354TMC3    C8 5364   2.433   0.691  13.515  0.5219 -0.3538  0.3332
  354TMC3    O1 5365   1.950   0.713  13.404  0.3558  0.1524 -0.1279
  354TMC3    O2 5366   2.535   0.675  13.584  0.5762 -0.3850 -0.4906
  355MPD2     C 5367   2.801   1.368  11.713  0.5370  0.2043 -0.1311
  355MPD2    C1 5368   2.917   1.346  11.641 -0.8048 -0.8494 -0.1935
  355MPD2    C2 5369   2.994   1.231  11.663  1.0181  0.5164 -0.0825
  355MPD2    C3 5370   2.953   1.141  11.762 -0.1667  0.0626 -0.6165
  355MPD2    C4 5371   2.830   1.160  11.829 -0.2998 -0.6618  0.0853
  355MPD2    C5 5372   2.755   1.272  11.804  0.5254  0.1731  0.0326
  355MPD2     H 5373   3.095   1.218  11.625  0.5071 -0.1835 -1.2025
  355MPD2    H1 5374   2.803   1.093  11.910 -0.8341  2.1836  2.2726
  355MPD2    H2 5375   2.737   1.455  11.696 -0.7820 -0.9677 -1.1748
  355MPD2    H3 5376   2.673   1.287  11.873  0.5555  0.4561  0.0063
  355MPD2     N 5377   3.044   1.040  11.813  0.4011  0.5089 -0.3977
  355MPD2    H5 5378   3.033   1.008  11.908  0.1510 -2.3552 -1.3931
  355MPD2    N1 5379   2.963   1.446  11.553 -0.3533  0.0241  0.1157
  355MPD2    H7 5380   2.920   1.538  11.552  1.5272  0.9132 -1.0524
  356TMC3    C1 5381   3.259   1.124  11.828  0.1196 -0.0057  0.1640
  356TMC3    C2 5382   3.365   1.160  11.759  0.1227 -0.0580 -0.0198
  356TMC3    C3 5383   3.420   1.284  11.790 -0.3291 -0.2467  0.2671
  356TMC3    C4 5384   3.212   1.198  11.936  0.4877  0.2029 -0.3527
  356TMC3    C5 5385   3.277   1.316  11.971 -0.5993  0.5623 -0.4548
  356TMC3    C6 5386   3.385   1.365  11.896  0.2208 -0.5306 -0.1888
  356TMC3     C 5387   3.174   1.030  11.768  0.2846  0.7768  0.0172
  356TMC3     O 5388   3.213   1.003  11.652 -0.0928 -0.8597 -0.0354
  356TMC3     H 5389   3.419   1.091  11.695 -0.0221  2.8107 -3.2400
  356TMC3    H1 5390   3.126   1.162  11.991 -1.5191 -1.2674 -4.4388
  356TMC3    H2 5391   3.440   1.454  11.925  3.6295 -3.0288  1.0534
  356TMC3    C7 5392   3.266   1.357  12.109  0.0794 -0.3147 -1.0360
  356TMC3    C8 5393   3.477   1.346  11.669 -0.6443  0.3496  0.4245
  356TMC3    O1 5394   3.214   1.270  12.181 -0.4024  0.0188  0.2277
  356TMC3    O2 5395   3.467   1.290  11.561 -0.0859  0.3915  0.0823
  357MPD2     C 5396   3.583   1.041   0.760 -0.0189  0.3084  0.4673
  357MPD2    C1 5397   3.519   0.988   0.868  0.8919 -0.0947  0.1190
  357MPD2    C2 5398   3.377   0.999   0.876  0.6752  0.2313 -0.0778
  357MPD2    C3 5399   3.308   1.065   0.774  0.3716  0.4642 -0.3096
  357MPD2    C4 5400   3.380   1.125   0.674  0.5121  0.1022 -0.7808
  357MPD2    C5 5401   3.512   1.110   0.664 -0.1389  1.1286 -0.4799
  357MPD2     H 5402   3.318   0.968   0.962  1.0375 -0.2924 -0.0186
  357MPD2    H1 5403   3.327   1.172   0.591  0.1905 -1.8418 -1.6802
  357MPD2    H2 5404   3.686   1.016   0.740 -0.3825  0.8084 -1.9538
  357MPD2    H3 5405   3.570   1.141   0.578 -0.1701 -0.7407 -1.1840
  357MPD2     N 5406   3.162   1.073   0.766  0.2050 -0.2706  0.5431
  357MPD2    H5 5407   3.125   1.117   0.683 -1.1200 -2.2725  0.0780
  357MPD2    N1 5408   3.584   0.896   0.960  0.3907 -0.3201 -0.2603
  357MPD2    H7 5409   3.677   0.862   0.938  0.9969  0.0228  1.7350
  358TMC3    C1 5410   3.540   0.686   1.060 -0.1447 -0.6075 -0.1116
  358TMC3    C2 5411   3.560   0.620   0.935 -0.3896 -0.1580 -0.1765
  358TMC3    C3 5412   3.507   0.501   0.914  0.4635  0.1771 -0.0298
  358TMC3    C4 5413   3.454   0.626   1.147  0.0716 -0.1181 -0.3891
  358TMC3    C5 5414   3.405   0.500   1.126  0.6952  0.1284  0.8854
  358TMC3    C6 5415   3.421   0.438   1.004  0.1845  0.5810  0.6348
  358TMC3     C 5416   3.518   0.833   1.065  0.6419 -0.3311 -0.5348
  358TMC3     O 5417   3.429   0.882   1.130  0.1870  0.4461  0.1149
  358TMC3     H 5418   3.610   0.671   0.853  0.2614 -0.4098  0.0650
  358TMC3    H1 5419   3.432   0.685   1.235  0.9224  0.4770 -0.5782
  358TMC3    H2 5420   3.401   0.331   1.000 -1.2589  0.8654  0.0100
  358TMC3    C7 5421   3.273   0.478   1.181 -0.4142  0.1745  0.2689
  358TMC3    C8 5422   3.498   0.461   0.777  0.3323  0.3799  0.1646
  358TMC3    O1 5423   3.187   0.417   1.118  0.2958 -0.8392 -0.5272
  358TMC3    O2 5424   3.576   0.505   0.690 -0.1261  0.7607 -0.1655
  359MPD2     C 5425   3.280   0.356  12.263  0.0879 -0.1667 -0.4670
  359MPD2    C1 5426   3.162   0.310  12.213 -0.5102  0.1240  0.4767
  359MPD2    C2 5427   3.068   0.271  12.300 -0.5967  1.3513 -0.4930
  359MPD2    C3 5428   3.091   0.279  12.432 -0.0660  0.4120  0.0048
  359MPD2    C4 5429   3.220   0.304  12.480  0.1446 -0.0074 -0.4321
  359MPD2    C5 5430   3.311   0.347  12.395 -0.1394  0.6476 -0.0123
  359MPD2     H 5431   2.974   0.228  12.267  0.2696  0.1585 -1.3458
  359MPD2    H1 5432   3.244   0.308  12.586  1.8431 -1.7102 -0.7566
  359MPD2    H2 5433   3.358   0.388  12.194  0.1583  0.4797 -0.0932
  359MPD2    H3 5434   3.403   0.378  12.445  0.7635 -1.0249 -0.6135
  359MPD2     N 5435   2.997   0.233  12.524 -0.3280 -0.0096  0.3364
  359MPD2    H5 5436   3.030   0.201  12.614  0.7719  2.0820  0.6935
  359MPD2    N1 5437   3.147   0.304  12.074 -0.5388  0.3997 -0.2599
  359MPD2    H7 5438   3.068   0.256  12.031  1.0444 -2.6837  0.2906
  360TMC3    C1 5439   3.183   0.354  11.843 -0.7530  1.5466  0.3019
  360TMC3    C2 5440   3.255   0.419  11.745  0.0431  0.2194 -0.0755
  360TMC3    C3 5441   3.262   0.355  11.626 -0.4033  0.0611 -1.0591
  360TMC3    C4 5442   3.111   0.239  11.817 -0.4968  0.4712 -0.0231
  360TMC3    C5 5443   3.114   0.191  11.688 -0.9292  0.1823  0.0355
  360TMC3    C6 5444   3.191   0.246  11.594 -0.0940 -0.6144 -0.0656
  360TMC3     C 5445   3.219   0.381  11.982  0.2665 -0.4948  0.3538
  360TMC3     O 5446   3.291   0.479  11.998  0.1706 -0.5592 -0.3262
  360TMC3     H 5447   3.316   0.504  11.775 -2.1490  1.0668  1.9567
  360TMC3    H1 5448   3.034   0.205  11.885 -0.0020  2.4341  1.5077
  360TMC3    H2 5449   3.210   0.203  11.496  0.8375  0.3021 -0.2956
  360TMC3    C7 5450   3.026   0.089  11.638  0.4581 -0.1357 -0.3449
  360TMC3    C8 5451   3.388   0.373  11.553 -0.4992  0.4908  0.2035
  360TMC3    O1 5452   3.050   0.033  11.531  0.2614 -0.8559 -0.0670
  360TMC3    O2 5453   3.435   0.269  11.502 -0.2022 -0.3999  0.0330
  361MPD2     C 5454   0.937   3.396  16.385 -0.5332  0.5063  0.7522
  361MPD2    C1 5455   0.844   3.391  16.487  0.1326  0.2727  0.0388
  361MPD2    C2 5456   0.847   3.302  16.591  0.6186 -0.0434  0.1235
  361MPD2    C3 5457   0.952   3.218  16.609  0.9902 -0.0797  0.4747
  361MPD2    C4 5458   1.051   3.220  16.509 -0.3094 -0.3189  0.2069
  361MPD2    C5 5459   1.043   3.296  16.398  0.8199 -0.0584  0.3876
  361MPD2     H 5460   0.776   3.315  16.671  0.9502 -3.0535  0.9175
  361MPD2    H1 5461   1.134   3.153  16.525 -1.1552 -0.7337  2.8620
  361MPD2    H2 5462   0.933   3.469  16.306 -1.3530  1.7696  1.9703
  361MPD2    H3 5463   1.116   3.289  16.318  0.4938 -1.5023  0.2098
  361MPD2     N 5464   0.976   3.137  16.726 -0.2004 -0.0007 -0.6730
  361MPD2    H5 5465   1.042   3.061  16.717 -0.5463 -0.3598 -0.2050
  361MPD2    N1 5466   0.734   3.478  16.496  1.3329 -0.5511  0.1774
  361MPD2    H7 5467   0.671   3.446  16.569  0.4819  3.0051  0.9977
  362TMC3    C1 5468   0.567   3.626  16.444  0.2097 -0.1742  0.0477
  362TMC3    C2 5469   0.543   3.605  16.578  0.1076  0.2233 -0.2774
  362TMC3    C3 5470   0.414   3.606  16.616  0.0163  0.2986 -0.2804
  362TMC3    C4 5471   0.463   3.617  16.358  0.1562  0.0732 -0.4489
  362TMC3    C5 5472   0.334   3.597  16.393 -0.0894 -0.1773 -0.4050
  362TMC3    C6 5473   0.308   3.601  16.526 -0.6531  0.2462 -0.4081
  362TMC3     C 5474   0.695   3.572  16.403  0.2716  0.1423 -0.1844
  362TMC3     O 5475   0.732   3.592  16.289 -0.4890 -0.3607  0.6422
  362TMC3     H 5476   0.617   3.611  16.657 -0.6797  0.1102  0.4837
  362TMC3    H1 5477   0.494   3.618  16.254 -1.4874 -0.7787 -0.9451
  362TMC3    H2 5478   0.205   3.603  16.559 -0.6834  0.9402 -0.5511
  362TMC3    C7 5479   0.232   3.655  16.310  0.6737  0.5108  0.8468
  362TMC3    C8 5480   0.389   3.633  16.761  0.5430  0.1012 -0.2892
  362TMC3    O1 5481   0.228   3.777  16.316  0.0017 -0.0672 -0.3985
  362TMC3    O2 5482   0.454   3.574  16.850  0.2283 -0.2794  0.3584
  363TMC3    C1 5483   3.417   1.787   9.623  0.1306 -0.3704 -0.2455
  363TMC3    C2 5484   3.530   1.793   9.687 -0.0900  0.0274  1.1354
  363TMC3    C3 5485   3.547   1.868   9.799 -0.4486  0.3506  0.1620
  363TMC3    C4 5486   3.306   1.858   9.662 -0.8333  0.0159 -0.0067
  363TMC3    C5 5487   3.326   1.926   9.788 -0.4234  0.1663  0.3699
  363TMC3    C6 5488   3.444   1.948   9.851  0.1960 -0.6985 -0.2102
  363TMC3     C 5489   3.410   1.684   9.516  0.0048  0.4638 -0.5433
  363TMC3     O 5490   3.516   1.644   9.464 -0.5752  0.6870  0.4660
  363TMC3     H 5491   3.609   1.730   9.648 -1.2303 -0.2659 -0.7183
  363TMC3    H1 5492   3.208   1.850   9.619 -1.0365 -1.1423  0.6726
  363TMC3    H2 5493   3.463   1.996   9.947  0.0645 -0.9294 -0.0708
  363TMC3    C7 5494   3.231   2.031   9.820  0.6962 -0.1789 -0.1418
  363TMC3    C8 5495   3.664   1.845   9.878 -0.4602 -0.6656 -0.1021
  363TMC3    O1 5496   3.206   2.070   9.936  0.1006  0.2728 -0.0482
  363TMC3    O2 5497   3.690   1.936   9.952  0.0949 -0.2639 -0.2961
  364MPD2     C 5498   2.254   1.473  10.974  0.0157  0.1813 -0.3095
  364MPD2    C1 5499   2.378   1.435  10.930 -0.2283 -0.6624  0.9038
  364MPD2    C2 5500   2.414   1.309  10.959 -0.6078  0.0115 -0.5085
  364MPD2    C3 5501   2.328   1.215  11.017 -0.3529 -0.7324  1.4162
  364MPD2    C4 5502   2.198   1.264  11.039 -0.3889  0.2778 -0.2796
  364MPD2    C5 5503   2.165   1.387  11.029 -0.1043 -0.3266 -0.0086
  364MPD2     H 5504   2.515   1.272  10.942 -0.5993  0.8050 -2.2537
  364MPD2    H1 5505   2.128   1.196  11.086  1.6372 -0.2614  1.9782
  364MPD2    H2 5506   2.231   1.577  10.956 -0.0017  0.4272  1.1269
  364MPD2    H3 5507   2.068   1.430  11.047 -0.3740 -2.1645  2.9201
  364MPD2     N 5508   2.363   1.084  11.073  0.5116  0.4892 -0.0172
  364MPD2    H5 5509   2.292   1.034  11.126  0.4871 -0.6813 -1.1485
  364MPD2    N1 5510   2.467   1.527  10.860  0.4941 -0.5362  0.6342
  364MPD2    H7 5511   2.423   1.615  10.835 -1.2509 -1.4749  0.4430
  365TMC3    C1 5512   2.655   1.592  10.726  0.2185 -0.5866  0.3520
  365TMC3    C2 5513   2.772   1.556  10.658  0.6754  0.0826  0.0472
  365TMC3    C3 5514   2.828   1.655  10.581 -0.2789  0.8413  0.3057
  365TMC3    C4 5515   2.597   1.719  10.708 -0.4028  0.2411 -0.2443
  365TMC3    C5 5516   2.666   1.813  10.640  0.2638  0.3574 -1.0175
  365TMC3    C6 5517   2.781   1.786  10.571  0.4417 -0.1710  0.3952
  365TMC3     C 5518   2.598   1.496  10.810 -0.3836 -0.1378  0.3609
  365TMC3     O 5519   2.666   1.394  10.820 -0.0258  0.4120 -0.3918
  365TMC3     H 5520   2.813   1.456  10.663  0.0182 -0.1036  1.6347
  365TMC3    H1 5521   2.494   1.731  10.739  0.2678  1.5690  1.4355
  365TMC3    H2 5522   2.834   1.862  10.516 -1.1234  0.6443  0.0103
  365TMC3    C7 5523   2.598   1.935  10.599 -0.0945  0.2963  0.3744
  365TMC3    C8 5524   2.896   1.614  10.462  0.0591 -0.5371  0.1368
  365TMC3    O1 5525   2.625   1.971  10.484 -0.3947 -0.5776 -0.3306
  365TMC3    O2 5526   2.959   1.697  10.399 -0.1615  0.0126 -0.0564
  366MPD2     C 5527   0.293   1.856  15.391 -0.3521 -0.3731  0.3904
  366MPD2    C1 5528   0.421   1.854  15.424 -0.1584 -0.9197  0.2962
  366MPD2    C2 5529   0.478   1.736  15.455 -0.7758  0.6178 -0.4188
  366MPD2    C3 5530   0.414   1.617  15.460  0.6007 -0.0400 -0.5343
  366MPD2    C4 5531   0.280   1.626  15.449 -0.0557 -0.6018 -0.9641
  366MPD2    C5 5532   0.224   1.738  15.401  0.0583 -0.4855 -0.2149
  366MPD2     H 5533   0.585   1.732  15.472 -1.1384 -0.7451  1.5895
  366MPD2    H1 5534   0.225   1.533  15.452  0.3359 -0.7362  2.9150
  366MPD2    H2 5535   0.229   1.935  15.355  0.2972 -1.0799 -2.3292
  366MPD2    H3 5536   0.122   1.736  15.367 -0.2270  0.0047  0.6097
  366MPD2     N 5537   0.458   1.491  15.488  0.0984  0.1235  0.1608
  366MPD2    H5 5538   0.385   1.430  15.523  0.9794 -0.1931  1.4634
  366MPD2    N1 5539   0.498   1.970  15.409 -0.1781 -0.4327  0.3745
  366MPD2    H7 5540   0.597   1.960  15.431  0.3383 -0.0177 -1.7303
  367TMC3    C1 5541   0.566   2.183  15.356 -0.2868  0.0804  0.2840
  367TMC3    C2 5542   0.618   2.219  15.477  0.1250 -0.5265 -0.8262
  367TMC3    C3 5543   0.698   2.333  15.479 -0.2935 -0.2924 -0.2189
  367TMC3    C4 5544   0.604   2.245  15.241  0.6533  0.0296  0.2889
  367TMC3    C5 5545   0.691   2.349  15.243 -0.3924  0.2533  0.5195
  367TMC3    C6 5546   0.729   2.403  15.362 -0.3585 -0.4088  0.1603
  367TMC3     C 5547   0.458   2.089  15.355 -0.5614 -0.1253  0.0899
  367TMC3     O 5548   0.357   2.123  15.294  0.0048 -0.5390 -0.6117
  367TMC3     H 5549   0.579   2.185  15.573  1.6636 -1.8983 -0.6870
  367TMC3    H1 5550   0.558   2.210  15.149 -0.3401 -0.4729  0.9856
  367TMC3    H2 5551   0.790   2.493  15.356 -2.7004  1.2124  0.9152
  367TMC3    C7 5552   0.681   2.434  15.124  0.5823 -0.0984 -0.1656
  367TMC3    C8 5553   0.733   2.385  15.609  1.0964 -0.6429 -0.2544
  367TMC3    O1 5554   0.679   2.373  15.016  0.1708  0.8832 -0.3925
  367TMC3    O2 5555   0.714   2.307  15.698 -1.1864 -0.1072  0.2732
  368MPD2     C 5556   2.232   3.731  13.009 -0.4885  0.3906 -0.0419
  368MPD2    C1 5557   2.140   3.813  12.944 -0.7248  0.8197  0.1000
  368MPD2    C2 5558   2.177   3.854  12.816 -1.1716  0.0549  0.1972
  368MPD2    C3 5559   2.292   3.808  12.754  0.0748 -0.1564 -0.7691
  368MPD2    C4 5560   2.369   3.716  12.822 -0.2387 -0.6350  0.1023
  368MPD2    C5 5561   2.344   3.688  12.951  0.1091 -0.2874  0.7392
  368MPD2     H 5562   2.118   3.931  12.767 -1.7408 -0.5442 -0.0488
  368MPD2    H1 5563   2.454   3.676  12.767 -0.5876  1.6380 -2.0869
  368MPD2    H2 5564   2.208   3.689  13.106  1.7910  0.5380  0.5754
  368MPD2    H3 5565   2.407   3.618  13.004  0.5224 -0.3354  0.1819
  368MPD2     N 5566   2.342   3.852  12.624 -0.2710 -0.3356  0.2914
  368MPD2    H5 5567   2.425   3.806  12.587  1.0034  2.3601 -0.1926
  368MPD2    N1 5568   2.026   3.848  13.013  0.5418  0.2008  0.2924
  368MPD2    H7 5569   2.018   3.810  13.107 -2.5363  0.8370  0.3014
  369TMC3    C1 5570   1.825   3.947  13.055  0.9432  0.2273 -0.3029
  369TMC3    C2 5571   1.770   4.066  13.019  0.4716  0.1697 -0.3001
  369TMC3    C3 5572   1.643   4.082  12.979  0.4823  0.3060  0.4930
  369TMC3    C4 5573   1.746   3.840  13.041 -1.2079 -0.2536 -0.4387
  369TMC3    C5 5574   1.610   3.850  13.014 -0.0097 -0.9068  0.2691
  369TMC3    C6 5575   1.559   3.974  12.969  0.5073 -0.2951 -0.2930
  369TMC3     C 5576   1.934   3.932  12.963 -0.7421 -1.0641 -0.3261
  369TMC3     O 5577   1.935   4.012  12.871 -0.8371 -0.0410  1.1999
  369TMC3     H 5578   1.836   4.151  13.028  0.8703 -0.3457  1.6968
  369TMC3    H1 5579   1.794   3.744  13.045 -1.4820 -0.2634  2.4962
  369TMC3    H2 5580   1.462   3.981  12.922  1.7151 -3.1744 -3.1717
  369TMC3    C7 5581   1.526   3.727  12.989  0.7677  0.2112 -0.5333
  369TMC3    C8 5582   1.625   4.200  12.897 -0.8782 -0.1891 -0.8040
  369TMC3    O1 5583   1.551   3.622  13.051  0.1481  0.4645 -0.3374
  369TMC3    O2 5584   1.516   4.254  12.897  0.0800 -0.6410  0.1701
  370TMC3    C1 5585   1.744   4.247  15.748  0.5095 -0.8060  0.2759
  370TMC3    C2 5586   1.625   4.271  15.819 -0.3193 -0.2053 -0.1424
  370TMC3    C3 5587   1.523   4.176  15.799 -0.4478  0.2166  0.3256
  370TMC3    C4 5588   1.760   4.145  15.656  0.2116 -0.1473  0.2600
  370TMC3    C5 5589   1.660   4.048  15.651  0.3010  0.0486  0.0763
  370TMC3    C6 5590   1.539   4.069  15.714 -0.3484  1.0638  0.1198
  370TMC3     C 5591   1.848   4.347  15.769 -0.2787 -0.1903  0.9609
  370TMC3     O 5592   1.957   4.322  15.715  0.4899 -0.2125 -0.2894
  370TMC3     H 5593   1.610   4.335  15.905  1.0115 -0.7371  0.4668
  370TMC3    H1 5594   1.848   4.131  15.595  0.9523  0.3386  1.2147
  370TMC3    H2 5595   1.465   3.991  15.706  0.0656  0.4917  1.7876
  370TMC3    C7 5596   1.695   3.912  15.620 -0.1738 -0.3859 -0.6532
  370TMC3    C8 5597   1.418   4.163  15.887 -0.4364 -0.1300 -0.0028
  370TMC3    O1 5598   1.656   3.820  15.690 -0.7304 -0.5247  0.1432
  370TMC3    O2 5599   1.388   4.049  15.915 -0.1221  0.0981  0.2997
  371TMC3    C1 5600   2.981   2.674  15.176 -0.0845  0.0769  0.2297
  371TMC3    C2 5601   2.928   2.693  15.304  0.3448  0.0482  0.2042
  371TMC3    C3 5602   2.896   2.818  15.345  0.4493 -0.1428  0.1961
  371TMC3    C4 5603   2.995   2.782  15.090  0.2559  0.7790 -0.2767
  371TMC3    C5 5604   2.959   2.910  15.132 -0.5288  0.7941 -0.7147
  371TMC3    C6 5605   2.908   2.924  15.259  0.3380  0.2661 -0.1555
  371TMC3     C 5606   3.062   2.563  15.147 -0.2388  0.1682 -0.3626
  371TMC3     O 5607   3.138   2.582  15.054  0.3789 -0.1798  0.2299
  371TMC3     H 5608   2.941   2.616  15.378 -2.4220  0.2051  0.8585
  371TMC3    H1 5609   3.033   2.767  14.990  0.4505 -2.2019  0.2588
  371TMC3    H2 5610   2.899   3.023  15.302 -1.5698  0.4537 -0.9463
  371TMC3    C7 5611   2.972   3.027  15.052 -0.0976  0.5161 -0.5783
  371TMC3    C8 5612   2.906   2.848  15.485 -0.1892 -0.3378 -0.0442
  371TMC3    O1 5613   2.934   3.132  15.104  0.9458  0.5812 -0.3272
  371TMC3    O2 5614   2.980   2.776  15.551 -0.7151  0.0608 -0.2180
  372MPD2     C 5615   1.964   4.229  13.238 -0.4762 -0.2116  0.1520
  372MPD2    C1 5616   2.067   4.143  13.271 -0.8851  0.2057  0.0742
  372MPD2    C2 5617   2.064   4.069  13.385  0.7741 -0.0569  0.7451
  372MPD2    C3 5618   1.947   4.064  13.456  0.3292 -0.0116 -0.0272
  372MPD2    C4 5619   1.838   4.137  13.411 -0.4852  0.3334 -0.2965
  372MPD2    C5 5620   1.845   4.228  13.306 -0.2035  0.5371 -0.1693
  372MPD2     H 5621   2.149   4.025  13.436  0.4548  0.4658  1.7278
  372MPD2    H1 5622   1.743   4.154  13.461 -0.4146 -1.0422  0.3187
  372MPD2    H2 5623   1.971   4.302  13.158 -1.6186 -1.9324 -1.5071
  372MPD2    H3 5624   1.763   4.296  13.285  1.0096  1.4870 -1.8063
  372MPD2     N 5625   1.942   3.991  13.578  0.6250  0.0250 -0.2222
  372MPD2    H5 5626   2.033   3.965  13.614  0.8321  1.5934  0.3644
  372MPD2    N1 5627   2.181   4.128  13.190  0.6370  0.2976  0.0614
  372MPD2    H7 5628   2.257   4.067  13.219  0.6666  1.2313  1.9312
  373TMC3    C1 5629   1.853   3.894  13.760  0.0901 -0.3073 -0.3065
  373TMC3    C2 5630   1.960   3.924  13.833  0.1518  0.3170  0.0331
  373TMC3    C3 5631   1.994   3.833  13.934 -1.0061 -0.3973 -0.0071
  373TMC3    C4 5632   1.780   3.776  13.780 -0.2992 -0.5091  0.4718
  373TMC3    C5 5633   1.812   3.697  13.886  1.4425  0.1058 -0.0005
  373TMC3    C6 5634   1.913   3.726  13.973  0.0246 -0.1625  0.4643
  373TMC3     C 5635   1.825   3.956  13.635 -0.3594 -0.2950 -0.1121
  373TMC3     O 5636   1.714   3.951  13.583 -0.3739  0.1832 -0.2124
  373TMC3     H 5637   2.019   4.014  13.819 -2.2711  1.8739 -0.2100
  373TMC3    H1 5638   1.693   3.739  13.727 -0.8450 -1.0977  1.7774
  373TMC3    H2 5639   1.941   3.666  14.059 -3.1998 -0.9234  0.9881
  373TMC3    C7 5640   1.809   3.555  13.858  0.3741  0.4141 -0.3510
  373TMC3    C8 5641   2.131   3.850  13.991  0.1507 -0.4729 -0.6480
  373TMC3    O1 5642   1.781   3.525  13.743 -0.3332  0.2450  0.3462
  373TMC3    O2 5643   2.198   3.930  13.933 -0.0526  0.4942 -0.0965
  374TMC3    C1 5644   2.543   4.687   9.580  0.7952  0.0589 -0.1967
  374TMC3    C2 5645   2.672   4.661   9.538  0.3258 -0.2998  0.1801
  374TMC3    C3 5646   2.698   4.688   9.403 -0.1744 -0.1290 -0.0322
  374TMC3    C4 5647   2.445   4.718   9.495 -0.3721  0.2783  0.2170
  374TMC3    C5 5648   2.475   4.733   9.364 -0.2695  0.5582 -0.7984
  374TMC3    C6 5649   2.602   4.721   9.311 -0.5327 -0.2637  1.2788
  374TMC3     C 5650   2.505   4.662   9.723 -0.6222  0.0084  0.0547
  374TMC3     O 5651   2.388   4.627   9.750  0.1574 -0.4250  0.3581
  374TMC3     H 5652   2.741   4.621   9.611 -0.6940  0.3713  1.5122
  374TMC3    H1 5653   2.340   4.718   9.521 -0.7227  0.9245 -1.2222
  374TMC3    H2 5654   2.628   0.012   9.210  1.1145  2.6644  2.5396
  374TMC3    C7 5655   2.369   0.017   9.273 -0.6622  0.2834 -0.7478
  374TMC3    C8 5656   2.838   4.687   9.358 -0.0085  0.4609 -0.2655
  374TMC3    O1 5657   2.265   0.067   9.321 -0.2613 -0.5033  0.2511
  374TMC3    O2 5658   2.864   4.710   9.239  0.1446 -0.1989  0.0746
  375MPD2     C 5659   3.118   4.592  16.812 -0.3630  0.0637  0.0736
  375MPD2    C1 5660   3.056   4.584  16.688  0.0881 -0.0711 -0.0899
  375MPD2    C2 5661   3.129   4.620  16.573  0.7168 -0.3704  0.4223
  375MPD2    C3 5662   3.255   4.672  16.579 -0.7232 -0.8919 -0.3852
  375MPD2    C4 5663   3.318   4.692  16.703  0.1131  0.0564  0.4846
  375MPD2    C5 5664   3.247   4.654  16.818  0.5119 -0.3295  0.0173
  375MPD2     H 5665   3.076   4.617  16.479  1.5389 -0.3304 -0.0342
  375MPD2    H1 5666   3.424   4.709  16.714 -0.1862  1.9956  0.4513
  375MPD2    H2 5667   3.067   4.558  16.901  0.5611 -0.0272  0.5699
  375MPD2    H3 5668   3.301   4.664  16.912  2.1276  0.7210 -1.0322
  375MPD2     N 5669   3.325   4.692  16.462 -0.6500  0.1890  0.1338
  375MPD2    H5 5670   3.415   4.737  16.474 -1.4546  1.8661 -0.0946
  375MPD2    N1 5671   2.923   4.523  16.673  0.4843  0.1787  0.1628
  375MPD2    H7 5672   2.885   4.508  16.580  0.9374  3.7913 -0.5884
  376TMC3    C1 5673   3.355   4.686  16.223 -0.4282 -1.0176 -0.5255
  376TMC3    C2 5674   3.434   0.058  16.229 -0.2793 -0.2299 -0.4274
  376TMC3    C3 5675   3.457   0.134  16.115  0.5102 -0.5536 -0.2636
  376TMC3    C4 5676   3.294   4.650  16.105 -0.2815  0.4490 -0.0258
  376TMC3    C5 5677   3.313   4.732  15.994 -0.3101  0.0040 -0.3156
  376TMC3    C6 5678   3.395   0.107  15.998  0.1313  0.8782  0.1604
  376TMC3     C 5679   3.304   4.622  16.348 -0.5030  0.1921  0.0354
  376TMC3     O 5680   3.227   4.530  16.332  0.4755 -0.1674 -0.1837
  376TMC3     H 5681   3.477   0.075  16.327  0.4547 -0.8089 -0.6466
  376TMC3    H1 5682   3.219   4.571  16.110  0.5159 -0.2114  1.3124
  376TMC3    H2 5683   3.418   0.171  15.914 -0.6913  1.3248  0.2841
  376TMC3    C7 5684   3.221   0.002  15.880  0.1804  0.2878  0.2928
  376TMC3    C8 5685   3.568   0.227  16.119 -0.3459 -0.0543 -0.2797
  376TMC3    O1 5686   3.225   0.099  15.806  0.1115 -0.0242  0.1751
  376TMC3    O2 5687   3.575   0.311  16.026  0.1957 -0.0425  0.3248
  377MPD2     C 5688   0.447   4.197  12.479  0.4562 -0.2045  0.2912
  377MPD2    C1 5689   0.576   4.166  12.475 -0.2747 -0.0257  0.0524
  377MPD2    C2 5690   0.603   4.060  12.557  0.2918 -0.0325  0.1376
  377MPD2    C3 5691   0.512   3.993  12.634  0.0613  0.2114 -0.0123
  377MPD2    C4 5692   0.382   4.027  12.623 -0.7180  0.7313  0.4965
  377MPD2    C5 5693   0.352   4.142  12.553 -0.2701 -1.0818 -0.1957
  377MPD2     H 5694   0.706   4.037  12.581 -0.2445 -1.8468  0.6916
  377MPD2    H1 5695   0.303   3.986  12.684 -0.4289  0.8491  0.9468
  377MPD2    H2 5696   0.419   4.281  12.417  0.8911 -0.7773 -0.6766
  377MPD2    H3 5697   0.250   4.171  12.529 -0.1411  1.2180  2.0362
  377MPD2     N 5698   0.548   3.891  12.731 -0.2912  0.1785  0.4199
  377MPD2    H5 5699   0.470   3.856  12.785 -1.7913  1.6188 -0.8035
  377MPD2    N1 5700   0.669   4.243  12.397 -0.1958 -0.2927  0.3538
  377MPD2    H7 5701   0.626   4.318  12.343 -0.8224  0.7946  2.3308
  378TMC3    C1 5702   0.895   4.519  12.184 -0.3374 -0.3952 -0.3115
  378TMC3    C2 5703   0.823   4.437  12.265  0.1867 -1.2853 -0.4758
  378TMC3    C3 5704   0.884   4.333  12.329 -0.3006 -0.0875  0.1751
  378TMC3    C4 5705   1.029   4.492  12.159  0.1542  0.4553  0.3940
  378TMC3    C5 5706   1.088   4.393  12.236 -0.1339  0.3446  0.2954
  378TMC3    C6 5707   1.016   4.311  12.316  0.2003 -0.3539 -0.6691
  378TMC3     C 5708   0.828   4.639  12.129  0.4881 -0.1155 -0.7809
  378TMC3     O 5709   0.719   4.654  12.178 -0.1876  0.7206  0.2258
  378TMC3     H 5710   0.721   4.458  12.292  0.1277 -1.4491 -0.5733
  378TMC3    H1 5711   1.074   4.545  12.076  0.0679  0.0737  0.1048
  378TMC3    H2 5712   1.068   4.250  12.389 -1.5007 -0.2140  0.6579
  378TMC3    C7 5713   1.234   4.390  12.258  0.6102 -0.7302  0.1407
  378TMC3    C8 5714   0.808   4.233  12.403 -0.5218 -0.3023 -0.0166
  378TMC3    O1 5715   1.272   4.307  12.340  0.2944  0.4249 -0.1775
  378TMC3    O2 5716   0.873   4.146  12.460  0.3297 -0.1301  0.1187
  379MPD2     C 5717   1.799   2.722  16.208  0.6297 -0.0851 -0.5805
  379MPD2    C1 5718   1.776   2.596  16.270  0.3883  0.6700  0.3459
  379MPD2    C2 5719   1.863   2.544  16.366  0.0921  0.1534 -0.2236
  379MPD2    C3 5720   1.989   2.612  16.377 -0.2305  0.4396  0.2483
  379MPD2    C4 5721   2.009   2.723  16.292 -0.1028  0.0699 -0.1846
  379MPD2    C5 5722   1.915   2.791  16.222  0.0701 -0.0219 -0.0167
  379MPD2     H 5723   1.843   2.455  16.425 -0.2358 -0.4580 -1.2535
  379MPD2    H1 5724   2.107   2.767  16.302 -1.1115  2.3288 -0.2854
  379MPD2    H2 5725   1.719   2.770  16.153 -1.5705 -2.3889  0.6152
  379MPD2    H3 5726   1.925   2.891  16.182 -1.0613  0.3869  0.7156
  379MPD2     N 5727   2.094   2.555  16.450  0.1355  0.0165  0.2424
  379MPD2    H5 5728   2.182   2.603  16.435  0.5429 -0.3842  1.3028
  379MPD2    N1 5729   1.662   2.532  16.227  0.9133 -0.4841 -0.1032
  379MPD2    H7 5730   1.599   2.591  16.174 -0.4530 -0.6726  1.2959
  380TMC3    C1 5731   1.518   2.351  16.186 -0.3344  0.9601 -0.3197
  380TMC3    C2 5732   1.520   2.228  16.123 -0.2805 -0.2291  0.4147
  380TMC3    C3 5733   1.413   2.192  16.036  0.2999 -0.0071  0.3436
  380TMC3    C4 5734   1.416   2.432  16.165  0.9729 -0.0065 -0.3940
  380TMC3    C5 5735   1.307   2.397  16.087  0.1176  0.2421 -0.0598
  380TMC3    C6 5736   1.311   2.279  16.015  0.4682 -0.8810  0.1747
  380TMC3     C 5737   1.644   2.397  16.248  0.1887 -0.1806 -0.1400
  380TMC3     O 5738   1.736   2.318  16.254  0.2933  0.3596  0.7116
  380TMC3     H 5739   1.609   2.167  16.130  0.9035  1.3169 -1.4602
  380TMC3    H1 5740   1.422   2.531  16.209 -4.5832  0.2492 -0.2244
  380TMC3    H2 5741   1.222   2.247  15.961  1.1059  0.1312 -1.4826
  380TMC3    C7 5742   1.220   2.513  16.036  0.1862  0.0407 -0.0561
  380TMC3    C8 5743   1.449   2.132  15.906 -0.2144 -0.0897 -0.3067
  380TMC3    O1 5744   1.242   2.623  16.081  0.4170 -0.1183 -0.2129
  380TMC3    O2 5745   1.393   2.197  15.815  0.0901 -0.1490 -0.2238
  381TMC3    C1 5746   1.204   3.777  16.055 -0.1015 -0.5756 -0.0171
  381TMC3    C2 5747   1.331   3.776  16.015  0.3804  0.0914 -0.5525
  381TMC3    C3 5748   1.428   3.721  16.100 -0.4976 -0.1212  0.6084
  381TMC3    C4 5749   1.160   3.727  16.167 -0.5120 -1.1318 -1.0708
  381TMC3    C5 5750   1.258   3.672  16.249 -0.4888 -0.4044 -0.2250
  381TMC3    C6 5751   1.392   3.669  16.221  0.3880 -0.3569 -0.5184
  381TMC3     C 5752   1.095   3.810  15.964  0.4440 -0.2103 -0.8212
  381TMC3     O 5753   0.989   3.750  15.967  0.6917  0.2062 -0.5759
  381TMC3     H 5754   1.362   3.810  15.917  0.9773  0.2833 -0.2947
  381TMC3    H1 5755   1.053   3.733  16.186 -0.3824 -0.1804 -0.6338
  381TMC3    H2 5756   1.462   3.623  16.289 -0.2112  1.1416  1.1226
  381TMC3    C7 5757   1.223   3.654  16.389 -0.1683 -0.5375  0.5281
  381TMC3    C8 5758   1.564   3.764  16.073 -0.8812 -0.5263  0.1290
  381TMC3    O1 5759   1.282   3.572  16.456 -0.4545  0.1390 -0.4244
  381TMC3    O2 5760   1.649   3.693  16.021 -0.1300 -0.0155 -0.5437
  382MPD2     C 5761   0.369   1.424  16.603  0.2149 -0.1616  0.1440
  382MPD2    C1 5762   0.437   1.399  16.720  0.0534 -0.0368  0.4833
  382MPD2    C2 5763   0.478   1.266  16.751 -0.6374 -0.0758 -0.2495
  382MPD2    C3 5764   0.436   1.158  16.657 -0.5122 -0.9214 -0.1773
  382MPD2    C4 5765   0.366   1.190  16.546 -0.4121 -0.2508 -0.4971
  382MPD2    C5 5766   0.332   1.316  16.521  0.2540  0.2836  0.1414
  382MPD2     H 5767   0.529   1.242  16.844 -1.0647  1.2532  0.3206
  382MPD2    H1 5768   0.324   1.123  16.471  1.0659 -2.1495  0.3854
  382MPD2    H2 5769   0.338   1.524  16.574  0.5297 -0.3011 -0.6832
  382MPD2    H3 5770   0.277   1.341  16.431  0.9286  1.9618  0.1917
  382MPD2     N 5771   0.458   1.025  16.681 -0.6026  0.1432 -0.7072
  382MPD2    H5 5772   0.429   0.962  16.607 -1.8768 -0.3627  0.2244
  382MPD2    N1 5773   0.482   1.491  16.824  0.2726  0.1972  0.4999
  382MPD2    H7 5774   0.539   1.454  16.899  0.8784  1.4508  0.6396
  383TMC3    C1 5775   0.538   0.829  16.791  0.4188 -0.3511  0.0135
  383TMC3    C2 5776   0.421   0.761  16.780  0.1244  0.0583 -0.0204
  383TMC3    C3 5777   0.401   0.650  16.862 -0.5881  0.3921  0.7233
  383TMC3    C4 5778   0.635   0.792  16.876 -0.0942 -0.1124  0.3914
  383TMC3    C5 5779   0.612   0.677  16.951  0.0000  0.0353  0.4417
  383TMC3    C6 5780   0.496   0.616  16.956  0.0042 -0.1804 -0.3823
  383TMC3     C 5781   0.520   0.976  16.793  0.0016  0.1547  0.4488
  383TMC3     O 5782   0.579   1.036  16.881  0.0991  1.0236 -0.3201
  383TMC3     H 5783   0.340   0.793  16.715  0.5242 -0.5805 -0.8437
  383TMC3    H1 5784   0.716   0.862  16.892 -0.3051  0.8654 -2.8800
  383TMC3    H2 5785   0.478   0.525  17.013 -0.5677 -0.2379 -0.6507
  383TMC3    C7 5786   0.700   0.654  17.072  0.3496 -0.1427  0.5358
  383TMC3    C8 5787   0.265   0.605  16.868  0.0647  0.2230  0.1583
  383TMC3    O1 5788   0.644   0.607  17.168  0.1765 -0.4140 -0.0718
  383TMC3    O2 5789   0.192   0.645  16.781  0.1573  0.6136 -0.2542
  384MPD2     C 5790   1.268   2.767  11.817 -0.2058  0.1390 -0.3924
  384MPD2    C1 5791   1.354   2.707  11.909 -0.1572 -0.3716 -0.0931
  384MPD2    C2 5792   1.466   2.772  11.947  0.1449  0.0296  0.2069
  384MPD2    C3 5793   1.511   2.876  11.867  0.6801  0.4382  0.0997
  384MPD2    C4 5794   1.429   2.932  11.767 -0.3946 -0.0943  0.0059
  384MPD2    C5 5795   1.302   2.886  11.753 -0.2183  0.3068 -0.5363
  384MPD2     H 5796   1.533   2.740  12.025 -0.2727 -1.0342  0.1267
  384MPD2    H1 5797   1.458   3.022  11.714  0.6948 -0.2882  0.2822
  384MPD2    H2 5798   1.169   2.725  11.800  0.0247 -0.6699  0.2410
  384MPD2    H3 5799   1.235   2.937  11.685  0.7131  0.7989 -1.0814
  384MPD2     N 5800   1.641   2.914  11.884 -0.6384  0.0351 -0.5172
  384MPD2    H5 5801   1.686   2.869  11.963  0.2780  2.1827  0.1796
  384MPD2    N1 5802   1.323   2.584  11.965 -0.0179  0.2620  0.6275
  384MPD2    H7 5803   1.243   2.535  11.928 -1.2599  2.4366  0.4590
  385TMC3    C1 5804   1.844   3.008  11.859 -0.4424  0.3174 -0.6546
  385TMC3    C2 5805   1.947   2.984  11.771 -0.3646  0.2435  0.4767
  385TMC3    C3 5806   2.055   2.914  11.825  0.2244 -0.6223 -0.1655
  385TMC3    C4 5807   1.861   2.979  11.995  0.1992 -0.5033  0.1964
  385TMC3    C5 5808   1.962   2.897  12.041  0.1659  0.2688 -0.1415
  385TMC3    C6 5809   2.056   2.860  11.950 -0.3755  0.8216 -0.1840
  385TMC3     C 5810   1.713   2.998  11.808  0.2082 -0.3680  0.5096
  385TMC3     O 5811   1.690   3.046  11.697 -0.2158 -0.0135 -0.0842
  385TMC3     H 5812   1.942   3.009  11.666  3.6786  1.1984  0.5469
  385TMC3    H1 5813   1.783   3.007  12.065 -1.4158 -0.9156 -1.4239
  385TMC3    H2 5814   2.141   2.799  11.977  0.9238  2.6479 -0.1390
  385TMC3    C7 5815   1.894   2.786  12.098 -0.7572  0.3925  0.2243
  385TMC3    C8 5816   2.154   2.866  11.739 -0.1719  0.3699  0.7606
  385TMC3    O1 5817   1.771   2.792  12.095  0.0193  0.3169  0.6208
  385TMC3    O2 5818   2.267   2.868  11.791 -0.0467 -0.1306  0.2537
  386TMC3    C1 5819   2.457   0.314  12.281  0.1325 -0.1278  0.5015
  386TMC3    C2 5820   2.520   0.422  12.219  0.2018 -0.0918  0.1857
  386TMC3    C3 5821   2.453   0.539  12.196  0.3234 -0.2935  0.0401
  386TMC3    C4 5822   2.324   0.327  12.312  0.0078 -0.0420 -0.4463
  386TMC3    C5 5823   2.264   0.446  12.292 -0.5894  0.7011  0.3806
  386TMC3    C6 5824   2.328   0.558  12.244  0.0595  0.9943  0.1044
  386TMC3     C 5825   2.495   0.186  12.223  0.7643 -0.1506  0.0208
  386TMC3     O 5826   2.610   0.163  12.187 -0.4987  0.5213  0.2806
  386TMC3     H 5827   2.614   0.398  12.171 -0.2996 -0.3171 -0.7012
  386TMC3    H1 5828   2.278   0.246  12.367 -1.4013  0.9420 -0.1675
  386TMC3    H2 5829   2.278   0.651  12.222  1.3600  1.4737 -0.8468
  386TMC3    C7 5830   2.118   0.443  12.304  0.8842 -0.2943 -0.0161
  386TMC3    C8 5831   2.467   0.594  12.060 -0.0318 -0.4711  0.2810
  386TMC3    O1 5832   2.068   0.338  12.344 -0.0447 -0.3818 -0.0230
  386TMC3    O2 5833   2.396   0.691  12.039 -0.0124 -0.8870  0.0729
  387MPD2     C 5834   0.045   0.115   9.639 -0.1117 -0.2646 -0.2423
  387MPD2    C1 5835   0.175   0.072   9.665 -0.1874 -0.4574 -0.0779
  387MPD2    C2 5836   0.200   4.674   9.670 -0.3613  0.2195 -0.4501
  387MPD2    C3 5837   0.097   4.584   9.649  0.0131 -0.1546 -0.5688
  387MPD2    C4 5838   4.717   4.631   9.616 -0.1857  0.1770 -0.2462
  387MPD2    C5 5839   4.692   0.025   9.605  0.4043 -1.6683  0.0750
  387MPD2     H 5840   0.300   4.637   9.690 -0.9500 -0.6194  0.9502
  387MPD2    H1 5841   4.641   4.560   9.583  0.6040 -0.8998  0.2417
  387MPD2    H2 5842   0.019   0.219   9.625  1.5626  0.1610 -0.2429
  387MPD2    H3 5843   4.599   0.062   9.564  0.4710 -1.4043  0.1609
  387MPD2     N 5844   0.129   4.448   9.665  0.3644  0.3115 -0.1776
  387MPD2    H5 5845   0.228   4.437   9.683  0.1618 -0.1954  0.6716
  387MPD2    N1 5846   0.286   0.153   9.694 -0.2934  0.3493 -0.2380
  387MPD2    H7 5847   0.380   0.116   9.685 -1.1171 -2.1724  1.3040
  388TMC3    C1 5848   0.401   0.324   9.771  0.3197  0.4294  0.3213
  388TMC3    C2 5849   0.398   0.452   9.803 -0.4005  0.2069  0.5588
  388TMC3    C3 5850   0.452   0.499   9.924 -0.0746  1.3087  0.2158
  388TMC3    C4 5851   0.458   0.236   9.863  0.8109 -0.7008  0.1849
  388TMC3    C5 5852   0.520   0.284   9.976 -0.7441  0.2310 -0.1163
  388TMC3    C6 5853   0.522   0.417  10.008 -0.2775  0.4585  0.4537
  388TMC3     C 5854   0.274   0.279   9.729  0.1808 -0.0869 -0.4024
  388TMC3     O 5855   0.184   0.357   9.730 -0.6027  0.2323 -0.2120
  388TMC3     H 5856   0.350   0.518   9.732  1.8370  1.6061  0.3682
  388TMC3    H1 5857   0.478   0.134   9.830 -1.7125 -0.7015 -1.2785
  388TMC3    H2 5858   0.552   0.446  10.108 -3.6390  2.4995  0.8770
  388TMC3    C7 5859   0.550   0.181  10.076  0.5490 -0.1473 -0.3579
  388TMC3    C8 5860   0.407   0.629   9.964  0.6108  0.0298 -0.2971
  388TMC3    O1 5861   0.649   0.190  10.146  0.1406  0.0643  0.1131
  388TMC3    O2 5862   0.314   0.682   9.903  0.2633 -0.2431 -0.1496
  389MPD2     C 5863   3.810   3.017  10.842  0.3335 -0.1531  0.4606
  389MPD2    C1 5864   3.813   3.084  10.962 -0.2599 -0.0940 -0.7858
  389MPD2    C2 5865   3.762   3.027  11.075 -0.5698 -0.3233 -0.2309
  389MPD2    C3 5866   3.712   2.903  11.067 -0.1146 -0.1328  0.7352
  389MPD2    C4 5867   3.726   2.825  10.955  0.3346 -0.9419 -0.8443
  389MPD2    C5 5868   3.770   2.885  10.842  0.6198 -0.3935 -0.0460
  389MPD2     H 5869   3.771   3.085  11.166 -1.9688  1.7597 -1.4292
  389MPD2    H1 5870   3.676   2.729  10.952  0.8969 -1.2567 -0.1005
  389MPD2    H2 5871   3.825   3.067  10.747  1.5594  0.1295  0.7941
  389MPD2    H3 5872   3.760   2.823  10.753  0.8297 -1.4960  0.7029
  389MPD2     N 5873   3.653   2.834  11.175 -0.1092  0.3134  0.2340
  389MPD2    H5 5874   3.629   2.737  11.162  2.3388 -0.3954  1.0747
  389MPD2    N1 5875   3.856   3.218  10.974  0.3287  0.1360  0.1638
  389MPD2    H7 5876   3.833   3.271  11.058 -0.2838  0.0823  0.0248
  390TMC3    C1 5877   3.583   2.801  11.399 -0.0730  0.2232 -1.3257
  390TMC3    C2 5878   3.555   2.670  11.369  0.3226  0.0275  0.2813
  390TMC3    C3 5879   3.474   2.608  11.462  0.0052 -0.1335  0.4333
  390TMC3    C4 5880   3.545   2.862  11.511 -0.5113 -0.2476  0.3373
  390TMC3    C5 5881   3.453   2.804  11.594  0.7541 -0.7736 -0.0814
  390TMC3    C6 5882   3.417   2.673  11.567  0.3250  0.0498  0.9478
  390TMC3     C 5883   3.648   2.887  11.300  0.6955 -0.2007  0.4649
  390TMC3     O 5884   3.642   3.009  11.329 -0.2720  0.0196  0.1004
  390TMC3     H 5885   3.605   2.619  11.287  1.3025 -2.8266  2.6810
  390TMC3    H1 5886   3.601   2.949  11.542  1.2164 -0.8589 -1.1060
  390TMC3    H2 5887   3.355   2.610  11.630 -1.3759 -0.7864 -1.5540
  390TMC3    C7 5888   3.419   2.857  11.727 -1.0384  0.3622  0.7939
  390TMC3    C8 5889   3.502   2.460  11.475 -1.0106  0.5380 -0.0817
  390TMC3    O1 5890   3.497   2.942  11.771 -0.3003 -0.5326  0.6158
  390TMC3    O2 5891   3.484   2.397  11.369  0.5552  0.4299  0.0629
  391MPD2     C 5892   3.041   0.019  10.778 -0.1180 -0.7549 -0.5339
  391MPD2    C1 5893   3.168   4.699  10.777 -0.7610 -1.2663 -0.6387
  391MPD2    C2 5894   3.230   4.689  10.649  0.3231  0.0073  0.0465
  391MPD2    C3 5895   3.153   4.699  10.532  0.1035  0.9266  0.0829
  391MPD2    C4 5896   3.028   0.003  10.544 -0.2743  0.1923  0.3366
  391MPD2    C5 5897   2.977   0.043  10.665  0.4554 -0.0259 -0.2282
  391MPD2     H 5898   3.322   4.631  10.647  0.2720 -0.0385 -1.2228
  391MPD2    H1 5899   2.967   0.022  10.456 -0.5467  2.8283  1.1088
  391MPD2    H2 5900   2.982   0.040  10.867 -1.3225 -0.0371 -1.4957
  391MPD2    H3 5901   2.877   0.084  10.677  2.3152  4.7024 -1.1337
  391MPD2     N 5902   3.224   4.679  10.407 -0.4443  0.1940  0.0855
  391MPD2    H5 5903   3.317   4.640  10.415  0.9395  3.2928 -0.8971
  391MPD2    N1 5904   3.226   4.683  10.902 -0.0164 -0.3974  0.5932
  391MPD2    H7 5905   3.175   4.711  10.985  1.1408  1.5851  0.6243
  392TMC3    C1 5906   3.279   4.701  10.190 -0.2432  0.3932  0.0622
  392TMC3    C2 5907   3.233   4.670  10.063 -0.8433  0.4257 -0.5582
  392TMC3    C3 5908   3.322   4.670   9.966  1.0216  0.2615 -0.3857
  392TMC3    C4 5909   3.408   0.001  10.214  0.0965 -0.2059  0.0635
  392TMC3    C5 5910   3.494   0.001  10.105  0.4012  0.2103  0.3351
  392TMC3    C6 5911   3.453   4.699   9.978 -0.1164 -0.3531 -0.5463
  392TMC3     C 5912   3.176   4.714  10.286 -0.3664 -0.6249  0.0112
  392TMC3     O 5913   3.066   0.011  10.249  0.2596  0.7099  0.0035
  392TMC3     H 5914   3.130   4.638  10.057 -0.2740 -2.0373  2.4464
  392TMC3    H1 5915   3.431   0.039  10.312  0.4438 -1.4651  0.4753
  392TMC3    H2 5916   3.522   4.701   9.895  0.4174 -1.8160 -0.1410
  392TMC3    C7 5917   3.614   0.082  10.131 -0.6041  1.0462  0.0668
  392TMC3    C8 5918   3.264   4.638   9.838  0.1610 -0.5270 -0.4329
  392TMC3    O1 5919   3.645   0.111  10.247  0.6455 -0.0611 -0.3444
  392TMC3    O2 5920   3.155   4.580   9.854  0.2118 -0.2047  0.5096
  393TMC3    C1 5921   1.837   2.776  10.988 -0.4455 -0.1929  0.0498
  393TMC3    C2 5922   1.760   2.710  11.083 -0.5774 -0.2367  0.1302
  393TMC3    C3 5923   1.729   2.573  11.061  0.9011 -0.5215  0.7337
  393TMC3    C4 5924   1.893   2.710  10.880 -0.4018  0.2027 -0.6771
  393TMC3    C5 5925   1.876   2.577  10.866 -0.2416 -0.5785  0.0885
  393TMC3    C6 5926   1.783   2.511  10.947 -0.7670  0.0625  0.5132
  393TMC3     C 5927   1.864   2.917  11.010 -0.4294  0.2901  0.2675
  393TMC3     O 5928   1.879   2.987  10.908  0.6135 -0.8355  0.1775
  393TMC3     H 5929   1.699   2.765  11.155  0.6613 -1.4517  2.1075
  393TMC3    H1 5930   1.971   2.750  10.817 -1.0309 -0.7460 -2.0740
  393TMC3    H2 5931   1.784   2.403  10.950 -1.4362 -0.0533 -3.7299
  393TMC3    C7 5932   2.003   2.510  10.851  0.0963 -0.2547  0.2307
  393TMC3    C8 5933   1.626   2.512  11.138 -0.0722 -0.9450 -0.4089
  393TMC3    O1 5934   2.007   2.404  10.795 -0.2685 -0.1715  0.4733
  393TMC3    O2 5935   1.555   2.580  11.213 -0.0250  0.4307 -0.4819
  394TMC3    C1 5936   3.957   3.410  10.892 -0.3196 -0.2486 -0.3665
  394TMC3    C2 5937   3.850   3.498  10.894  0.1766  0.4153  0.0652
  394TMC3    C3 5938   3.866   3.617  10.827 -0.3997  0.0975 -0.6294
  394TMC3    C4 5939   4.073   3.444  10.821 -0.0284  0.6399  0.0940
  394TMC3    C5 5940   4.085   3.566  10.771 -0.4336  0.2437 -0.2761
  394TMC3    C6 5941   3.985   3.662  10.785 -0.4936 -0.3114 -0.1930
  394TMC3     C 5942   3.925   3.278  10.871  0.5323  0.5438  0.8967
  394TMC3     O 5943   3.964   3.236  10.762  0.6501  0.2180  0.2381
  394TMC3     H 5944   3.753   3.473  10.935 -0.4288  1.9536 -0.4083
  394TMC3    H1 5945   4.155   3.373  10.814  0.4633  1.0902  1.3294
  394TMC3    H2 5946   3.990   3.753  10.727 -1.8872  0.1061  0.3264
  394TMC3    C7 5947   4.210   3.618  10.728 -0.0615 -0.1404 -0.4901
  394TMC3    C8 5948   3.770   3.636  10.718 -0.7551  0.0053 -0.0816
  394TMC3    O1 5949   4.222   3.739  10.712 -0.3344 -0.3494 -0.2478
  394TMC3    O2 5950   3.763   3.745  10.661 -0.2980 -0.0909  0.3093
  395TMC3    C1 5951   4.056   3.981  14.372  0.7475 -0.8564  0.5311
  395TMC3    C2 5952   3.976   4.008  14.260 -0.3500 -1.1902  0.6341
  395TMC3    C3 5953   3.998   4.124  14.190 -0.1671 -0.3316 -0.2945
  395TMC3    C4 5954   4.134   4.082  14.423  0.0232  0.6469  0.5847
  395TMC3    C5 5955   4.153   4.196  14.357 -0.3148  0.0750 -0.1125
  395TMC3    C6 5956   4.086   4.221  14.238 -0.4789 -0.2717 -0.0571
  395TMC3     C 5957   3.989   3.903  14.470  1.4728 -0.0170  0.7446
  395TMC3     O 5958   4.000   3.932  14.593  0.5097  0.5886  0.0680
  395TMC3     H 5959   3.910   3.936  14.214  0.4629 -0.1539 -2.1748
  395TMC3    H1 5960   4.177   4.078  14.522 -0.9205  0.3891  0.9831
  395TMC3    H2 5961   4.085   4.310  14.177  3.7533  1.5182  2.5660
  395TMC3    C7 5962   4.188   4.310  14.444  0.6630  0.5957  0.9470
  395TMC3    C8 5963   3.887   4.177  14.117  0.5585 -0.1473 -0.5821
  395TMC3    O1 5964   4.213   4.281  14.561 -0.4464  0.3595 -0.3327
  395TMC3    O2 5965   3.901   4.288  14.064 -0.1567  0.3667 -0.1723
  396MPD2     C 5966   3.730   0.862  16.814  0.3753 -0.4940 -0.0100
  396MPD2    C1 5967   3.784   0.949  16.915  0.1630 -0.7220  0.4202
  396MPD2    C2 5968   3.801   1.083  16.882 -0.0530  0.8024 -0.2296
  396MPD2    C3 5969   3.766   1.134  16.758  0.6491  0.2437 -0.1399
  396MPD2    C4 5970   3.739   1.051  16.650 -0.3835 -0.7411 -0.0824
  396MPD2    C5 5971   3.722   0.917  16.684  0.3549 -0.3371 -0.9726
  396MPD2     H 5972   3.822   1.152  16.963 -0.2783 -0.7676  1.1689
  396MPD2    H1 5973   3.727   1.088  16.549 -0.5061  0.4436  0.3691
  396MPD2    H2 5974   3.703   0.758  16.823  0.5405 -0.2940  2.6416
  396MPD2    H3 5975   3.703   0.840  16.610  1.2615  0.6784 -2.2514
  396MPD2     N 5976   3.782   1.268  16.744  0.6196 -0.0657  0.0056
  396MPD2    H5 5977   3.788   1.324  16.828  1.5272 -2.1677  1.3285
  396MPD2    N1 5978   3.820   0.895  17.042 -0.3129  0.2436  0.3426
  396MPD2    H7 5979   3.789   0.799  17.054 -0.2632  0.1474 -0.3529
  397TMC3    C1 5980   3.944   0.851  17.227 -0.1981  0.7177  0.1470
  397TMC3    C2 5981   4.043   0.765  17.181 -0.0827  0.0936 -0.1321
  397TMC3    C3 5982   4.033   0.631  17.204  0.4080  0.5316  0.5271
  397TMC3    C4 5983   3.838   0.797  17.291  0.0422  0.6192  0.2206
  397TMC3    C5 5984   3.840   0.668  17.324  0.6508  0.8799 -0.0691
  397TMC3    C6 5985   3.944   0.582  17.295  0.0866  0.0613  0.0745
  397TMC3     C 5986   3.901   0.961  17.141 -0.7511  0.1646  0.3981
  397TMC3     O 5987   3.958   1.070  17.134 -0.1382  0.3084 -0.7342
  397TMC3     H 5988   4.101   0.811  17.102  1.2856  2.9855  2.5340
  397TMC3    H1 5989   3.751   0.856  17.321  1.1856  2.1682  0.5144
  397TMC3    H2 5990   3.944   0.474  17.303  1.2527  0.0517 -0.1318
  397TMC3    C7 5991   3.721   0.607  17.384 -0.2341 -0.4609 -0.0664
  397TMC3    C8 5992   4.024   0.548  17.086 -0.3239  0.9723 -0.3531
  397TMC3    O1 5993   3.612   0.658  17.358  0.3903 -0.1183 -0.4029
  397TMC3    O2 5994   3.932   0.465  17.080  0.4910 -0.1826  0.5012
  398MPD2     C 5995   1.955   2.484   0.205 -0.4250 -0.2093  0.1466
  398MPD2    C1 5996   2.028   2.384   0.265 -0.1699 -0.6259 -0.1989
  398MPD2    C2 5997   2.149   2.408   0.328  0.3474  0.6986  0.5689
  398MPD2    C3 5998   2.203   2.538   0.318  0.5109 -0.5509 -0.0031
  398MPD2    C4 5999   2.141   2.638   0.248  0.4022  0.3928  0.4141
  398MPD2    C5 6000   2.018   2.605   0.192 -0.4107  0.6377  0.8192
  398MPD2     H 6001   2.203   2.324   0.370  0.2835  0.3851  0.0222
  398MPD2    H1 6002   2.176   2.739   0.233  0.5872  0.1435 -0.8664
  398MPD2    H2 6003   1.861   2.476   0.151 -0.0578  0.1718 -0.5438
  398MPD2    H3 6004   1.959   2.687   0.154 -0.7023 -0.3392 -0.8252
  398MPD2     N 6005   2.342   2.556   0.353  0.4029  0.0228 -0.1723
  398MPD2    H5 6006   2.381   2.468   0.385 -3.9815 -0.8474  2.7741
  398MPD2    N1 6007   1.970   2.254   0.283  0.0569 -0.1281  0.3131
  398MPD2    H7 6008   2.025   2.200   0.350 -0.0432  0.3644  0.7900
  399TMC3    C1 6009   1.818   2.079   0.267 -0.3428  0.7876  0.2292
  399TMC3    C2 6010   1.849   2.037   0.397 -0.0643 -0.2544 -0.2063
  399TMC3    C3 6011   1.843   1.906   0.423 -0.2685  0.3370 -0.4137
  399TMC3    C4 6012   1.782   1.997   0.169  0.2669  0.9102  0.4301
  399TMC3    C5 6013   1.782   1.862   0.203 -0.4524 -0.3854 -0.8284
  399TMC3    C6 6014   1.810   1.814   0.329 -0.3699 -0.8010 -0.3457
  399TMC3     C 6015   1.855   2.213   0.226 -0.5151 -0.8831 -0.3088
  399TMC3     O 6016   1.794   2.261   0.133  0.2615  0.4062 -0.4602
  399TMC3     H 6017   1.866   2.113   0.472 -1.4458  0.1098 -0.2703
  399TMC3    H1 6018   1.755   2.039   0.073  0.7184 -0.9293 -0.5023
  399TMC3    H2 6019   1.818   1.706   0.338  1.6810 -0.6697 -0.7264
  399TMC3    C7 6020   1.766   1.772   0.092  0.0575 -0.4502  0.6849
  399TMC3    C8 6021   1.905   1.867   0.544 -0.1259 -0.1743  0.6742
  399TMC3    O1 6022   1.740   1.657   0.126  0.5401 -0.4470 -0.3352
  399TMC3    O2 6023   1.965   1.948   0.616  0.6389 -0.0799  0.3537
  400TMC3    C1 6024   0.234   0.369  16.556  0.0489  1.0737  0.3124
  400TMC3    C2 6025   0.144   0.266  16.552 -0.6087  0.0273 -0.1553
  400TMC3    C3 6026   0.019   0.289  16.503 -0.1252  0.4633  0.1255
  400TMC3    C4 6027   0.198   0.493  16.514  0.8986 -0.3746  0.1273
  400TMC3    C5 6028   0.076   0.508  16.452  0.0436  0.6956  0.0856
  400TMC3    C6 6029   4.725   0.403  16.437 -0.0061  0.0174  0.2454
  400TMC3     C 6030   0.355   0.351  16.637 -0.0960  0.0215 -0.0577
  400TMC3     O 6031   0.346   0.253  16.710  0.2235  0.0798 -0.1222
  400TMC3     H 6032   0.173   0.173  16.599  1.1922  0.8692  0.3906
  400TMC3    H1 6033   0.262   0.580  16.528  0.7894 -0.2612 -0.0711
  400TMC3    H2 6034   4.630   0.408  16.386  0.2224 -1.9262 -0.3822
  400TMC3    C7 6035   0.034   0.646  16.431 -0.4185  0.1182 -0.3763
  400TMC3    C8 6036   4.672   0.175  16.503 -0.8146 -0.0875  0.2100
  400TMC3    O1 6037   4.711   0.671  16.333 -0.2317  0.4745 -0.3762
  400TMC3    O2 6038   4.592   0.168  16.410 -0.2396  0.4402 -0.1298
  401MPD2     C 6039   3.985   4.147   1.485 -0.2697 -0.2124  0.7551
  401MPD2    C1 6040   3.996   4.195   1.357 -0.1275 -0.0093 -1.1766
  401MPD2    C2 6041   3.966   4.117   1.249 -0.1224  0.4894  0.5877
  401MPD2    C3 6042   3.919   3.985   1.272 -0.1531 -0.4783 -0.6929
  401MPD2    C4 6043   3.894   3.940   1.403 -0.1852  0.0762  0.1777
  401MPD2    C5 6044   3.934   4.023   1.505  0.0651 -0.1223 -0.2837
  401MPD2     H 6045   3.977   4.152   1.147 -0.8003 -0.8563  0.0524
  401MPD2    H1 6046   3.856   3.842   1.429  1.5147 -0.4968  0.4984
  401MPD2    H2 6047   4.010   4.207   1.571  1.0370  2.7229 -1.6629
  401MPD2    H3 6048   3.920   4.000   1.610  0.7585  0.5207 -0.0482
  401MPD2     N 6049   3.897   3.910   1.157  0.2655  0.5515  0.2914
  401MPD2    H5 6050   3.895   3.965   1.071 -0.1551  1.3172  0.7917
  401MPD2    N1 6051   4.050   4.323   1.331  0.0152  0.3725 -0.2398
  401MPD2    H7 6052   4.082   4.352   1.239  0.3845  1.2841  0.1630
  402TMC3    C1 6053   3.855   3.724   0.999 -0.2704 -0.1510 -0.0634
  402TMC3    C2 6054   3.807   3.603   0.982  0.7632 -0.1706  0.3753
  402TMC3    C3 6055   3.804   3.555   0.858  0.4628 -0.2830 -0.2738
  402TMC3    C4 6056   3.916   3.788   0.897  0.1870  0.2658 -0.0870
  402TMC3    C5 6057   3.925   3.736   0.773 -0.1514 -0.0086  0.6247
  402TMC3    C6 6058   3.858   3.624   0.747 -0.0336  0.3041  0.3139
  402TMC3     C 6059   3.854   3.779   1.142  0.0974  0.3232  0.4021
  402TMC3     O 6060   3.841   3.704   1.237  0.7385 -0.3086 -0.6177
  402TMC3     H 6061   3.751   3.545   1.055  2.4349 -0.8045  1.1434
  402TMC3    H1 6062   3.969   3.881   0.917  1.2184 -0.2166 -0.6027
  402TMC3    H2 6063   3.868   3.573   0.652 -1.3990 -0.8853  0.7953
  402TMC3    C7 6064   4.024   3.790   0.679 -0.5437 -0.2327 -1.0125
  402TMC3    C8 6065   3.824   3.409   0.838 -0.2748 -0.1909  0.4579
  402TMC3    O1 6066   4.089   3.877   0.727 -0.1773 -0.2229  0.1580
  402TMC3    O2 6067   3.868   3.373   0.731 -0.8035 -0.5182  0.0539
  403MPD2     C 6068   1.302   2.434  13.362 -0.1055  0.1885  0.3598
  403MPD2    C1 6069   1.319   2.297  13.391  0.4810  0.1847  0.0345
  403MPD2    C2 6070   1.412   2.256  13.482 -0.0313  0.4346  0.0355
  403MPD2    C3 6071   1.481   2.358  13.553  0.0030  0.5250 -0.7949
  403MPD2    C4 6072   1.474   2.493  13.520  0.4332 -0.2208  0.4213
  403MPD2    C5 6073   1.381   2.523  13.422  0.4020  0.3201 -0.4671
  403MPD2     H 6074   1.419   2.153  13.517 -1.4909  0.2627 -0.1918
  403MPD2    H1 6075   1.542   2.568  13.558  0.5728 -0.8115  1.3422
  403MPD2    H2 6076   1.236   2.477  13.287  0.8477  1.3524  0.1870
  403MPD2    H3 6077   1.369   2.628  13.396  0.2409  0.9211  2.0697
  403MPD2     N 6078   1.583   2.322  13.644 -0.1289  0.4677  0.1483
  403MPD2    H5 6079   1.608   2.224  13.654  0.2071  0.4321 -1.0946
  403MPD2    N1 6080   1.251   2.206  13.311 -0.7105 -0.3508 -0.3904
  403MPD2    H7 6081   1.193   2.243  13.236 -0.8858  2.4905  1.1481
  404TMC3    C1 6082   1.154   1.984  13.258 -0.5035  0.1233 -0.3310
  404TMC3    C2 6083   1.093   1.889  13.326 -0.1044 -0.4411 -0.1934
  404TMC3    C3 6084   1.048   1.781  13.253 -0.3535 -0.0894  0.0869
  404TMC3    C4 6085   1.151   1.994  13.123  0.2768 -0.1579  0.6550
  404TMC3    C5 6086   1.090   1.899  13.052 -0.2035  0.0208 -0.1746
  404TMC3    C6 6087   1.040   1.786  13.116 -0.2935  0.1673 -0.0018
  404TMC3     C 6088   1.255   2.068  13.334 -0.1786 -0.1212  0.0111
  404TMC3     O 6089   1.318   2.003  13.417 -0.1347  0.2563  0.0926
  404TMC3     H 6090   1.107   1.886  13.433  0.3233 -1.8634 -0.2969
  404TMC3    H1 6091   1.191   2.076  13.064 -3.2639  1.2342  0.1604
  404TMC3    H2 6092   1.023   1.692  13.065  0.0973 -0.1299  0.4079
  404TMC3    C7 6093   1.078   1.913  12.908 -0.4889  0.1144 -0.0629
  404TMC3    C8 6094   1.088   1.648  13.302 -0.4430 -0.0656  0.4200
  404TMC3    O1 6095   1.151   1.998  12.854  0.4662 -0.6354  0.2914
  404TMC3    O2 6096   1.129   1.561  13.225  0.5192 -0.1067 -0.2129
  405MPD2     C 6097   2.135   3.142  15.092  0.4897  0.1787  0.1350
  405MPD2    C1 6098   2.189   3.018  15.096 -0.1286  0.4802 -0.8942
  405MPD2    C2 6099   2.146   2.919  15.008 -0.6256 -0.1406 -0.6400
  405MPD2    C3 6100   2.047   2.943  14.921  0.1207 -0.4613 -0.0135
  405MPD2    C4 6101   1.992   3.067  14.913 -1.5577 -0.5575  0.8332
  405MPD2    C5 6102   2.038   3.162  14.994 -0.0934  0.4387  0.2384
  405MPD2     H 6103   2.179   2.816  15.020 -0.6155 -0.2550 -1.6388
  405MPD2    H1 6104   1.911   3.084  14.843 -0.4407  3.2453  0.4398
  405MPD2    H2 6105   2.174   3.232  15.139  2.9865 -1.0248  0.3658
  405MPD2    H3 6106   2.001   3.261  14.970  0.3996  0.7527  0.7745
  405MPD2     N 6107   1.994   2.834  14.850 -0.3633 -0.4324 -0.1851
  405MPD2    H5 6108   2.039   2.746  14.874  1.4732  0.5052 -0.1847
  405MPD2    N1 6109   2.286   2.988  15.200  0.0062  0.0519  0.3488
  405MPD2    H7 6110   2.319   3.061  15.263  0.3412 -0.8467  1.1996
  406TMC3    C1 6111   1.785   2.550  14.575  0.6354 -0.7974 -0.5849
  406TMC3    C2 6112   1.868   2.453  14.625  0.0495  0.3520 -0.4633
  406TMC3    C3 6113   1.931   2.479  14.745 -0.5495 -0.5512  0.6152
  406TMC3    C4 6114   1.784   2.679  14.626  0.4292 -0.3744 -0.2775
  406TMC3    C5 6115   1.849   2.705  14.744 -0.6667 -0.7838  0.2752
  406TMC3    C6 6116   1.918   2.605  14.806 -0.3450 -0.3052 -0.1519
  406TMC3     C 6117   1.702   2.510  14.467 -0.3095  0.2477 -0.4206
  406TMC3     O 6118   1.740   2.418  14.394  0.2292  0.1700 -0.2332
  406TMC3     H 6119   1.870   2.349  14.595  1.9736  0.2578  0.0025
  406TMC3    H1 6120   1.736   2.752  14.562  0.0584 -0.1003  0.3122
  406TMC3    H2 6121   1.944   2.611  14.911 -0.8346  0.3994 -0.0707
  406TMC3    C7 6122   1.886   2.838  14.767 -0.7335 -0.5683  0.4501
  406TMC3    C8 6123   2.012   2.385  14.815 -0.2882 -0.0518  0.8315
  406TMC3    O1 6124   1.833   2.938  14.711  0.6166  0.6989 -0.0383
  406TMC3    O2 6125   1.992   2.267  14.797  0.9932 -0.3974 -0.1241
  407MPD2     C 6126   4.175   4.473   9.675  0.0775  0.1546 -0.1420
  407MPD2    C1 6127   4.304   4.442   9.693 -0.8163 -0.0601 -0.6694
  407MPD2    C2 6128   4.384   4.521   9.784 -0.3495 -1.0239  0.6403
  407MPD2    C3 6129   4.328   4.635   9.834  0.2915 -0.2924 -0.6304
  407MPD2    C4 6130   4.206   4.668   9.808  0.1589  0.8252 -0.2401
  407MPD2    C5 6131   4.126   4.580   9.739 -0.1716  0.0406  0.7758
  407MPD2     H 6132   4.487   4.495   9.805 -0.2369 -1.5644 -0.5603
  407MPD2    H1 6133   4.156   0.016   9.853  0.6072  1.6131 -1.2433
  407MPD2    H2 6134   4.108   4.410   9.616 -0.2393  0.8779 -0.5549
  407MPD2    H3 6135   4.021   4.603   9.722  0.1590 -0.2234 -1.6410
  407MPD2     N 6136   4.407   4.730   9.904  0.5261  0.6427 -0.0460
  407MPD2    H5 6137   4.366   0.085   9.907  0.8512  0.7754  0.2799
  407MPD2    N1 6138   4.369   4.342   9.620  0.4860 -0.1730 -0.0048
  407MPD2    H7 6139   4.469   4.337   9.638  0.6240 -0.1362 -0.7663
  408TMC3    C1 6140   4.417   4.171   9.469 -0.7157  0.3388 -0.1783
  408TMC3    C2 6141   4.532   4.238   9.433 -0.2989 -0.5033  0.5388
  408TMC3    C3 6142   4.630   4.173   9.366 -0.0754 -0.0373 -0.2266
  408TMC3    C4 6143   4.387   4.045   9.430  0.5672  0.1055  0.1423
  408TMC3    C5 6144   4.494   3.985   9.363  0.6655  0.1163  0.2303
  408TMC3    C6 6145   4.615   4.043   9.339 -0.0710 -1.0956  0.1229
  408TMC3     C 6146   4.316   4.249   9.535 -0.3836  0.1845  0.0134
  408TMC3     O 6147   4.196   4.232   9.514  0.4803  0.2783 -0.5785
  408TMC3     H 6148   4.533   4.347   9.439 -0.8009 -0.3524 -1.9914
  408TMC3    H1 6149   4.291   3.999   9.449 -0.0137  0.5735 -1.6648
  408TMC3    H2 6150   4.697   3.991   9.291 -0.1985 -0.0641 -1.2063
  408TMC3    C7 6151   4.492   3.842   9.343  0.2712  0.1645  0.3994
  408TMC3    C8 6152   0.021   4.237   9.331 -0.4005 -0.0188  0.6514
  408TMC3    O1 6153   4.593   3.784   9.380  0.7466  0.1067 -0.1806
  408TMC3    O2 6154   0.103   4.155   9.299 -0.4344 -0.3341 -0.2555
  409MPD2     C 6155   4.157   4.368  16.460  0.7719 -0.1147  0.5519
  409MPD2    C1 6156   4.221   4.425  16.568  0.6368  1.0271  0.0953
  409MPD2    C2 6157   4.257   4.556  16.573 -0.0402 -0.4759 -0.4750
  409MPD2    C3 6158   4.224   4.640  16.467 -0.0842  0.7475 -0.3090
  409MPD2    C4 6159   4.171   4.585  16.351 -0.4534  0.5074  0.2789
  409MPD2    C5 6160   4.138   4.449  16.351 -0.1157 -0.0953  0.8216
  409MPD2     H 6161   4.305   4.589  16.664  0.0785 -0.3857 -0.5712
  409MPD2    H1 6162   4.146   4.652  16.269  0.3863 -0.0348 -0.4226
  409MPD2    H2 6163   4.131   4.263  16.465 -0.4365  0.1757  0.2072
  409MPD2    H3 6164   4.089   4.401  16.268 -0.0593  0.6104  0.3741
  409MPD2     N 6165   4.249   0.042  16.466  0.0486 -0.7430  0.2003
  409MPD2    H5 6166   4.244   0.088  16.376 -1.1384 -1.1874  0.0445
  409MPD2    N1 6167   4.254   4.346  16.686  0.2633  0.2580  0.0631
  409MPD2    H7 6168   4.308   4.395  16.756 -1.0366 -0.7057  1.7616
  410TMC3    C1 6169   4.303   0.257  16.555  0.4624 -0.1179  0.0467
  410TMC3    C2 6170   4.345   0.326  16.667  0.1534  0.5274  0.2268
  410TMC3    C3 6171   4.392   0.451  16.656 -0.0837  0.6920  0.3076
  410TMC3    C4 6172   4.320   0.306  16.428 -0.3460 -0.1048 -1.0217
  410TMC3    C5 6173   4.366   0.433  16.417 -0.7727 -0.2115  0.4541
  410TMC3    C6 6174   4.404   0.503  16.527  0.2482  0.1400 -0.4787
  410TMC3     C 6175   4.274   0.114  16.577  0.3801 -0.1307  0.7288
  410TMC3     O 6176   4.251   0.078  16.690  0.5098 -0.8684 -0.3854
  410TMC3     H 6177   4.326   0.283  16.765  0.8275  0.8563  0.5025
  410TMC3    H1 6178   4.289   0.256  16.337  1.3359  1.1597 -2.3031
  410TMC3    H2 6179   4.440   0.605  16.515 -0.3566  0.1029 -2.5834
  410TMC3    C7 6180   4.374   0.488  16.279  0.3321 -0.3507  0.1756
  410TMC3    C8 6181   4.500   0.489  16.745 -0.3243 -0.6041 -0.8376
  410TMC3    O1 6182   4.358   0.408  16.189 -0.0840 -0.1718 -0.0507
  410TMC3    O2 6183   4.569   0.586  16.707  0.7901  0.4270 -0.4077
  411MPD2     C 6184   3.935   0.012  13.751  0.1284 -0.6050 -0.4911
  411MPD2    C1 6185   3.940   0.082  13.872 -0.0644 -0.7416  0.1230
  411MPD2    C2 6186   3.936   0.015  13.993 -0.3850  0.3115 -0.0663
  411MPD2    C3 6187   3.916   4.611  13.996  0.3930  0.4555 -0.8736
  411MPD2    C4 6188   3.910   4.538  13.873 -0.1788 -0.6667 -0.6394
  411MPD2    C5 6189   3.924   4.608  13.752  0.2549 -0.2935  0.0668
  411MPD2     H 6190   3.946   0.070  14.086  3.2005  0.5957 -0.6475
  411MPD2    H1 6191   3.886   4.432  13.877  1.4819 -1.0413 -0.2913
  411MPD2    H2 6192   3.950   0.054  13.652 -0.4888 -0.0960 -0.3660
  411MPD2    H3 6193   3.928   4.558  13.656 -2.1062  1.1199 -0.7500
  411MPD2     N 6194   3.913   4.536  14.118  0.1537  0.6510 -0.3592
  411MPD2    H5 6195   3.888   4.438  14.107  0.3360  0.5035  0.5185
  411MPD2    N1 6196   3.945   0.220  13.848  0.2260 -0.2226  0.1090
  411MPD2    H7 6197   3.941   0.256  13.753  0.7954  1.1681  0.6196
  412TMC3    C1 6198   3.857   4.512  14.348 -0.3532 -0.4047  0.1996
  412TMC3    C2 6199   3.858   4.580  14.471 -0.3748  0.6015  0.0961
  412TMC3    C3 6200   3.736   4.596  14.534 -0.0675  0.4504 -0.3680
  412TMC3    C4 6201   3.744   4.443  14.311  0.2521  0.1031  0.0152
  412TMC3    C5 6202   3.626   4.441  14.384 -0.1985  0.1279 -0.6120
  412TMC3    C6 6203   3.621   4.525  14.486  0.1514 -0.1891  0.7561
  412TMC3     C 6204   3.919   4.592  14.246  0.5197 -0.1732  1.0622
  412TMC3     O 6205   3.954   4.703  14.277  0.1514 -0.9398 -0.1409
  412TMC3     H 6206   3.939   4.646  14.498  1.6196 -1.5772 -0.5748
  412TMC3    H1 6207   3.734   4.400  14.212 -1.5810 -1.6956  0.9891
  412TMC3    H2 6208   3.525   4.531  14.536  0.1172  2.8372  0.3315
  412TMC3    C7 6209   3.523   4.476  14.291 -0.6184  0.2728  0.8302
  412TMC3    C8 6210   3.704   0.003  14.546  0.3212  0.1800  0.1083
  412TMC3    O1 6211   3.545   4.569  14.218 -0.6482 -0.5021  0.0581
  412TMC3    O2 6212   3.774   0.075  14.615  0.7531 -0.4985 -0.2137
  413MPD2     C 6213   0.885   3.396  15.387 -0.7098  0.5670  0.0510
  413MPD2    C1 6214   0.881   3.432  15.251  0.0986  0.7551  0.1240
  413MPD2    C2 6215   0.959   3.364  15.159  0.0149  1.2006  0.2294
  413MPD2    C3 6216   1.034   3.259  15.194 -0.4745 -0.3812 -0.3490
  413MPD2    C4 6217   1.032   3.214  15.329  0.3083  0.5439  1.4810
  413MPD2    C5 6218   0.959   3.286  15.423 -0.0209 -0.3930 -0.4382
  413MPD2     H 6219   0.954   3.387  15.054 -2.2418  2.8834  0.7071
  413MPD2    H1 6220   1.088   3.130  15.370  0.6088  0.4360  0.8510
  413MPD2    H2 6221   0.825   3.438  15.467  1.3114  1.1673  1.2503
  413MPD2    H3 6222   0.960   3.251  15.526  2.0777 -0.3317 -0.4446
  413MPD2     N 6223   1.138   3.209  15.111  0.0101 -0.5250  0.0940
  413MPD2    H5 6224   1.184   3.125  15.145  0.5549  0.0818  0.8594
  413MPD2    N1 6225   0.791   3.536  15.216 -0.0979 -0.4262  0.1304
  413MPD2    H7 6226   0.735   3.583  15.286  0.8755 -0.4099  0.8970
  414TMC3    C1 6227   1.319   3.224  14.952 -0.0666  0.7324  0.8658
  414TMC3    C2 6228   1.358   3.091  14.963 -0.1777  0.7914 -0.2219
  414TMC3    C3 6229   1.488   3.058  14.938 -0.2886  1.1678  0.1976
  414TMC3    C4 6230   1.412   3.316  14.918 -1.1204 -0.1386 -0.1873
  414TMC3    C5 6231   1.546   3.273  14.894 -0.1926 -0.3189 -0.1812
  414TMC3    C6 6232   1.592   3.146  14.913  0.5128 -0.1271 -0.1559
  414TMC3     C 6233   1.187   3.274  14.999  0.4051 -0.1663 -0.4238
  414TMC3     O 6234   1.163   3.386  14.958  0.8592  0.0404  0.4847
  414TMC3     H 6235   1.294   3.009  14.994  0.3451  1.3500  2.3333
  414TMC3    H1 6236   1.385   3.420  14.901  0.9024  0.4923  0.4250
  414TMC3    H2 6237   1.692   3.114  14.888  0.5281 -0.2049  0.0029
  414TMC3    C7 6238   1.645   3.362  14.839  0.2114  0.1270  0.1381
  414TMC3    C8 6239   1.526   2.918  14.961 -0.5188 -0.3258  0.1186
  414TMC3    O1 6240   1.760   3.333  14.869  0.1065 -0.2994 -0.1213
  414TMC3    O2 6241   1.452   2.833  14.908 -0.6277 -0.1756  0.1316
  415TMC3    C1 6242   0.604   2.711  10.246  0.6177  0.2699 -0.3832
  415TMC3    C2 6243   0.639   2.809  10.158  0.3666 -0.4582 -0.7984
  415TMC3    C3 6244   0.606   2.790  10.027 -0.6698 -0.2584  0.0612
  415TMC3    C4 6245   0.536   2.597  10.212 -0.1933  0.0442  0.3041
  415TMC3    C5 6246   0.507   2.584  10.077 -0.1926  0.2278 -0.2430
  415TMC3    C6 6247   0.531   2.682   9.984  0.0565  0.2231 -0.5314
  415TMC3     C 6248   0.660   2.733  10.374  0.7605  0.3607  0.0352
  415TMC3     O 6249   0.738   2.824  10.392  0.1507 -0.4693 -0.9168
  415TMC3     H 6250   0.684   2.903  10.189  0.5498 -0.2771 -1.6146
  415TMC3    H1 6251   0.493   2.533  10.289  1.8482 -3.0268 -1.1099
  415TMC3    H2 6252   0.513   2.656   9.880 -1.7225  3.7379 -1.1007
  415TMC3    C7 6253   0.441   2.467  10.018 -0.1847  0.1717  0.3376
  415TMC3    C8 6254   0.676   2.862   9.918  0.1725 -0.9113 -0.4444
  415TMC3    O1 6255   0.375   2.487   9.917  0.8282 -0.3933  0.1190
  415TMC3    O2 6256   0.635   2.844   9.802 -0.3101 -0.1959  0.7731
  416MPD2     C 6257   3.169   0.438  11.267 -0.4719 -0.2552 -0.5103
  416MPD2    C1 6258   3.050   0.439  11.338  0.0799 -0.1324 -0.4790
  416MPD2    C2 6259   2.967   0.328  11.324  0.7420  0.1882  0.0416
  416MPD2    C3 6260   3.004   0.220  11.239 -0.2472 -0.6051 -0.5312
  416MPD2    C4 6261   3.131   0.222  11.182 -0.5501 -0.8111 -0.2811
  416MPD2    C5 6262   3.205   0.338  11.187  0.3414  1.0155  0.3680
  416MPD2     H 6263   2.881   0.326  11.390  1.0793 -0.5504  0.4527
  416MPD2    H1 6264   3.156   0.153  11.102 -1.6661  2.1849 -3.2242
  416MPD2    H2 6265   3.236   0.523  11.270 -0.7738 -0.0315 -0.1702
  416MPD2    H3 6266   3.299   0.336  11.132 -0.0334  0.0817 -0.2479
  416MPD2     N 6267   2.907   0.122  11.215  0.3709 -0.2956 -0.0352
  416MPD2    H5 6268   2.812   0.133  11.249  0.9862  0.5459  1.3907
  416MPD2    N1 6269   3.018   0.542  11.425 -0.8380  0.2218 -0.5260
  416MPD2    H7 6270   3.057   0.634  11.406 -2.4514  1.0462  0.2098
  417TMC3    C1 6271   2.920   0.657  11.593  0.4103 -0.8343 -0.1076
  417TMC3    C2 6272   2.877   0.655  11.723 -0.3305 -0.7344 -0.2685
  417TMC3    C3 6273   2.798   0.756  11.768  0.0736 -0.1797  0.0999
  417TMC3    C4 6274   2.894   0.766  11.514 -0.0029  0.0701  0.3696
  417TMC3    C5 6275   2.815   0.864  11.571  0.0027  0.7765  0.0332
  417TMC3    C6 6276   2.757   0.860  11.692 -0.1434  0.2247 -0.2502
  417TMC3     C 6277   2.941   0.533  11.537 -0.3933  0.1297 -0.3707
  417TMC3     O 6278   2.897   0.437  11.599  0.0147 -0.0298 -0.6269
  417TMC3     H 6279   2.888   0.572  11.792 -0.4050 -0.7573 -0.2845
  417TMC3    H1 6280   2.925   0.786  11.412  0.6077  0.8144  0.7024
  417TMC3    H2 6281   2.695   0.940  11.730 -2.2443 -1.6825  0.2955
  417TMC3    C7 6282   2.782   0.975  11.487 -0.1992  0.0918  0.5281
  417TMC3    C8 6283   2.770   0.778  11.913 -0.1667 -0.4486  0.2992
  417TMC3    O1 6284   2.865   1.005  11.401  0.3456 -0.0742  0.0297
  417TMC3    O2 6285   2.686   0.863  11.943  0.5459  0.5025 -0.0052
  418TMC3    C1 6286   2.695   2.452   0.298 -0.5681 -0.3201 -0.2260
  418TMC3    C2 6287   2.607   2.553   0.258  0.1370 -0.4295  0.2403
  418TMC3    C3 6288   2.559   2.632   0.360  0.2334  0.1157  0.5704
  418TMC3    C4 6289   2.738   2.447   0.425  0.5688 -0.0467 -0.4942
  418TMC3    C5 6290   2.691   2.535   0.517  0.3478  0.0648  0.1636
  418TMC3    C6 6291   2.592   2.627   0.488 -0.4945  0.0032  0.1421
  418TMC3     C 6292   2.695   2.332   0.218 -0.4880  0.3515  0.1322
  418TMC3     O 6293   2.607   2.327   0.130  0.0427  0.1620  0.2891
  418TMC3     H 6294   2.561   2.547   0.160 -0.2146 -0.0730  0.3849
  418TMC3    H1 6295   2.819   2.386   0.465  2.5003  2.9348  0.1271
  418TMC3    H2 6296   2.531   2.686   0.557  0.4927  2.7772 -1.3403
  418TMC3    C7 6297   2.684   2.478   0.649 -1.1164 -0.0289  1.0951
  418TMC3    C8 6298   2.422   2.673   0.348 -0.2639 -0.0188 -0.4317
  418TMC3    O1 6299   2.677   2.355   0.651  0.4886  0.1870 -0.2372
  418TMC3    O2 6300   2.402   2.793   0.331 -0.6155  0.3461  0.1516
  419MPD2     C 6301   0.249   0.356  12.268  0.1907  0.3479 -0.4013
  419MPD2    C1 6302   0.167   0.462  12.261 -0.0344 -0.4727 -0.5421
  419MPD2    C2 6303   0.056   0.475  12.352  0.1737  0.3327  0.3143
  419MPD2    C3 6304   0.046   0.392  12.463 -1.1599 -0.1470 -0.5997
  419MPD2    C4 6305   0.142   0.295  12.470 -0.6447  0.0502 -0.3796
  419MPD2    C5 6306   0.234   0.271  12.373 -0.3720 -0.7793 -0.0772
  419MPD2     H 6307   4.725   0.559  12.349 -1.4609 -0.9558  0.9406
  419MPD2    H1 6308   0.150   0.221  12.549 -4.6084  0.2341  0.1812
  419MPD2    H2 6309   0.340   0.344  12.211 -0.3701 -0.0896 -1.1835
  419MPD2    H3 6310   0.303   0.193  12.402  1.8833  0.7037 -1.4339
  419MPD2     N 6311   4.702   0.429  12.572 -0.1126 -0.3195 -0.4466
  419MPD2    H5 6312   4.670   0.525  12.568 -2.3429 -1.1380 -2.7205
  419MPD2    N1 6313   0.186   0.567  12.174  0.1318  0.2018 -0.5386
  419MPD2    H7 6314   0.133   0.651  12.194  1.5593  1.0013 -0.0732
  420TMC3    C1 6315   4.647   0.436  12.787 -0.1698  0.6874 -0.0975
  420TMC3    C2 6316   4.549   0.531  12.764 -0.6902 -0.6423  0.5719
  420TMC3    C3 6317   4.551   0.636  12.853  1.1435  0.3187  0.3016
  420TMC3    C4 6318   0.003   0.444  12.886  0.1318  0.5154  0.2203
  420TMC3    C5 6319   0.005   0.554  12.965 -0.0036  0.2497  0.3693
  420TMC3    C6 6320   4.640   0.646  12.962 -0.2774 -0.7189 -0.6813
  420TMC3     C 6321   4.691   0.348  12.680  1.1012 -0.1924 -0.2453
  420TMC3     O 6322   4.718   0.232  12.703 -0.2743  0.3551  0.0478
  420TMC3     H 6323   4.489   0.529  12.673  0.0180  2.0650  0.0376
  420TMC3    H1 6324   0.083   0.372  12.875  0.7870  1.3768 -0.6699
  420TMC3    H2 6325   4.617   0.720  13.038  1.2694 -1.1959  0.2557
  420TMC3    C7 6326   0.115   0.553  13.057 -0.1972 -0.1642 -0.2839
  420TMC3    C8 6327   4.426   0.708  12.869  0.0141 -0.2080 -0.0657
  420TMC3    O1 6328   0.184   0.449  13.063 -0.2597 -0.4755 -0.2888
  420TMC3    O2 6329   4.437   0.825  12.901 -0.1599 -0.3772 -0.1844
  421TMC3    C1 6330   1.751   2.346  13.820 -0.8047  0.1891  0.6335
  421TMC3    C2 6331   1.793   2.409  13.929  0.5609  0.2401  0.3526
  421TMC3    C3 6332   1.879   2.337  14.011  0.1902 -0.0777 -0.5811
  421TMC3    C4 6333   1.812   2.239  13.773  0.9826 -0.1618 -0.0802
  421TMC3    C5 6334   1.893   2.173  13.854 -0.2747 -0.6763 -0.4562
  421TMC3    C6 6335   1.929   2.218  13.977 -0.1768  0.4499 -0.5934
  421TMC3     C 6336   1.639   2.405  13.740  0.1642 -0.1338 -0.8836
  421TMC3     O 6337   1.602   2.519  13.764  0.0632  0.0229  0.3230
  421TMC3     H 6338   1.758   2.509  13.952  3.6708  1.7668 -1.5444
  421TMC3    H1 6339   1.794   2.197  13.675 -0.5090  0.8686 -0.2528
  421TMC3    H2 6340   1.991   2.161  14.045  0.1999 -2.0267 -3.0143
  421TMC3    C7 6341   1.982   2.069  13.816  0.4722 -0.6461 -0.8626
  421TMC3    C8 6342   1.945   2.411  14.119  0.2047 -0.5759 -0.6029
  421TMC3    O1 6343   2.083   2.059  13.887 -0.3063  0.8434  0.3784
  421TMC3    O2 6344   1.943   2.532  14.118 -0.2676 -0.3213 -0.1699
  422TMC3    C1 6345   3.922   3.604  12.278  0.0987  0.6142 -0.0739
  422TMC3    C2 6346   3.967   3.667  12.392 -0.4538  0.2757  0.5874
  422TMC3    C3 6347   3.886   3.704  12.490  0.4269 -0.3108  0.3027
  422TMC3    C4 6348   3.792   3.594  12.260 -0.0753 -0.0256  0.8713
  422TMC3    C5 6349   3.711   3.646  12.358 -0.2516  0.5523 -0.6033
  422TMC3    C6 6350   3.753   3.705  12.466  0.4443  0.3570  0.6416
  422TMC3     C 6351   4.017   3.610  12.170 -0.2014 -0.2860  0.2213
  422TMC3     O 6352   4.134   3.594  12.206  0.1705  0.8556 -0.0990
  422TMC3     H 6353   4.074   3.676  12.401 -0.0587 -1.6362 -2.3450
  422TMC3    H1 6354   3.769   3.545  12.167 -0.4256 -2.2760  2.1338
  422TMC3    H2 6355   3.685   3.748  12.539 -1.0203 -1.0699  0.1242
  422TMC3    C7 6356   3.570   3.606  12.353  0.4910 -0.1919 -0.5393
  422TMC3    C8 6357   3.929   3.808  12.579 -0.2704  0.1994 -0.3494
  422TMC3    O1 6358   3.528   3.554  12.252  0.4763  0.4982 -0.5124
  422TMC3    O2 6359   3.929   3.791  12.699  0.8569  0.0616  0.2700
  423MPD2     C 6360   1.441   4.532   0.207 -0.6285 -0.8612  0.0280
  423MPD2    C1 6361   1.385   4.421   0.271 -0.7189  0.4827  0.9157
  423MPD2    C2 6362   1.331   4.318   0.197  0.6576  0.6762 -0.7559
  423MPD2    C3 6363   1.314   4.323   0.060 -0.5779 -0.6625 -0.5270
  423MPD2    C4 6364   1.366   4.432  17.744  0.4173  0.0398 -0.0482
  423MPD2    C5 6365   1.426   4.534   0.068  0.0211  0.5647 -0.3189
  423MPD2     H 6366   1.302   4.226   0.246  0.3074  0.3173 -1.6365
  423MPD2    H1 6367   1.342   4.447  17.639  2.1777  0.6741 -0.3597
  423MPD2    H2 6368   1.484   4.615   0.261  2.5905 -1.9756 -0.8397
  423MPD2    H3 6369   1.459   4.619   0.009  1.7580 -1.0064 -1.6100
  423MPD2     N 6370   1.260   4.221  17.722 -0.4513  0.1532  0.4388
  423MPD2    H5 6371   1.261   4.238  17.622  0.8853 -1.0582  0.2524
  423MPD2    N1 6372   1.396   4.395   0.407  0.0791  0.3395 -0.6662
  423MPD2    H7 6373   1.364   4.306   0.444  0.0002  0.5383 -0.2596
  424TMC3    C1 6374   1.440   4.431   0.635  0.2845 -0.0137 -0.6234
  424TMC3    C2 6375   1.532   4.336   0.653 -0.1588 -0.5693  0.7007
  424TMC3    C3 6376   1.561   4.299   0.781 -0.0938 -0.2396 -0.3354
  424TMC3    C4 6377   1.383   4.501   0.739 -0.2376 -0.3597 -0.0306
  424TMC3    C5 6378   1.411   4.463   0.863  0.4081 -0.4705 -0.7816
  424TMC3    C6 6379   1.507   4.361   0.887 -0.4727  0.0035  0.4866
  424TMC3     C 6380   1.429   4.491   0.502 -0.0180  0.2791  0.5827
  424TMC3     O 6381   1.422   4.617   0.496 -0.3934  0.4106 -0.2145
  424TMC3     H 6382   1.577   4.293   0.564 -1.4365 -0.7058  0.1271
  424TMC3    H1 6383   1.317   4.584   0.718 -0.6017 -1.3158 -2.6881
  424TMC3    H2 6384   1.522   4.328   0.989 -2.8573  0.0876  0.8751
  424TMC3    C7 6385   1.382   4.543   0.975  0.4928 -0.2561 -0.6018
  424TMC3    C8 6386   1.648   4.189   0.799  0.0685 -0.3292  0.1648
  424TMC3    O1 6387   1.473   4.557   1.053  0.3043  0.2196 -0.3493
  424TMC3    O2 6388   1.665   4.110   0.708  0.0986  0.7376  0.0228
  425MPD2     C 6389   4.494   3.754  17.121 -0.4478  0.7032  0.1704
  425MPD2    C1 6390   4.548   3.710  17.238  0.0666 -0.6545 -0.6981
  425MPD2    C2 6391   4.494   3.745  17.361  0.2447 -0.5126 -0.5827
  425MPD2    C3 6392   4.386   3.832  17.363  0.7370 -0.0972 -0.3231
  425MPD2    C4 6393   4.345   3.887  17.248  0.7470 -0.2595  0.5184
  425MPD2    C5 6394   4.392   3.846  17.124 -0.0812 -0.4861  0.0624
  425MPD2     H 6395   4.532   3.704  17.454  0.2282  0.3914 -0.1782
  425MPD2    H1 6396   4.259   3.952  17.236 -0.7551 -1.9380  2.1688
  425MPD2    H2 6397   4.528   3.723  17.023  1.0641 -0.8820  1.1792
  425MPD2    H3 6398   4.357   3.887  17.030 -0.0385  0.3819  0.4234
  425MPD2     N 6399   4.312   3.844  17.484 -0.7147 -0.5235 -0.1941
  425MPD2    H5 6400   4.336   3.791  17.567 -1.7979 -0.7540 -0.0403
  425MPD2    N1 6401   4.645   3.608  17.228  0.1333  0.2008 -0.3669
  425MPD2    H7 6402   4.654   3.565  17.137  0.7100 -1.6425  0.5703
  426TMC3    C1 6403   0.047   3.440  17.307 -0.3995 -0.4032 -0.1044
  426TMC3    C2 6404   0.024   3.367  17.189  0.7129 -0.5705  0.4128
  426TMC3    C3 6405   0.020   3.234  17.202  0.5719  0.3758 -0.7136
  426TMC3    C4 6406   0.079   3.374  17.425  0.5661  0.2905  0.5481
  426TMC3    C5 6407   0.086   3.238  17.426 -1.0117 -0.7894  0.2236
  426TMC3    C6 6408   0.067   3.162  17.311 -0.3363 -0.3333  0.1231
  426TMC3     C 6409   4.721   3.567  17.330 -0.6526 -0.3620 -0.0400
  426TMC3     O 6410   0.008   3.624  17.436  0.0282  0.2801  0.5978
  426TMC3     H 6411   4.729   3.408  17.094  1.1845 -0.7732  0.1643
  426TMC3    H1 6412   0.081   3.441  17.510  0.4348  1.1078 -0.0890
  426TMC3    H2 6413   0.073   3.053  17.315 -0.0465 -0.3776 -1.5820
  426TMC3    C7 6414   0.073   3.173  17.553 -0.1448 -0.2318  0.3841
  426TMC3    C8 6415   0.037   3.153  17.076  0.1761 -0.4180 -0.3742
  426TMC3    O1 6416   0.084   3.051  17.559 -0.1132  0.3562 -0.2100
  426TMC3    O2 6417   0.003   3.037  17.079  0.1387  0.1182 -0.0485
  427MPD2     C 6418   2.829   0.464  14.245 -1.1114 -0.2990  0.1437
  427MPD2    C1 6419   2.906   0.494  14.353  0.4672 -0.0399  0.2719
  427MPD2    C2 6420   2.878   0.612  14.417  0.3302  0.5945 -0.3340
  427MPD2    C3 6421   2.781   0.702  14.373  0.0836  0.0910  0.2431
  427MPD2    C4 6422   2.703   0.666  14.266 -0.1334  0.2317 -0.0746
  427MPD2    C5 6423   2.730   0.543  14.203 -0.6870  0.5513  0.6221
  427MPD2     H 6424   2.941   0.634  14.503  0.7841  2.8578 -1.2741
  427MPD2    H1 6425   2.616   0.722  14.234  0.9933  1.4996 -0.9082
  427MPD2    H2 6426   2.840   0.369  14.194 -2.5907  0.3472 -1.3703
  427MPD2    H3 6427   2.669   0.508  14.120  1.6282  1.0445 -1.2604
  427MPD2     N 6428   2.751   0.835  14.433  0.1283  0.5438  0.0760
  427MPD2    H5 6429   2.668   0.880  14.394  0.8470  1.1852 -0.7014
  427MPD2    N1 6430   3.002   0.410  14.392 -0.0038  0.4538 -0.1342
  427MPD2    H7 6431   3.046   0.442  14.478 -1.3697 -2.8834  1.8261
  428TMC3    C1 6432   3.141   0.219  14.419 -0.3513 -0.2079  0.6483
  428TMC3    C2 6433   3.119   0.084  14.438 -0.4785  0.3336  0.6899
  428TMC3    C3 6434   3.196   0.033  14.527  0.2464  0.1115 -0.1564
  428TMC3    C4 6435   3.206   0.291  14.512  0.5495  0.1812  0.9296
  428TMC3    C5 6436   3.272   0.230  14.609 -0.2906  0.0556  0.3745
  428TMC3    C6 6437   3.280   0.096  14.607 -0.4461 -0.8927 -0.5693
  428TMC3     C 6438   3.040   0.286  14.338  0.2488  0.1342 -0.2763
  428TMC3     O 6439   2.994   0.215  14.247  0.2020  0.5656  0.0390
  428TMC3     H 6440   3.045   0.029  14.381  0.5150 -1.0341  0.7261
  428TMC3    H1 6441   3.210   0.399  14.515 -2.1152  0.3317 -0.2537
  428TMC3    H2 6442   3.340   0.052  14.686  0.7364  0.7877 -0.5253
  428TMC3    C7 6443   3.340   0.303  14.710  1.0704  0.1310  0.1711
  428TMC3    C8 6444   3.167   4.644  14.578  0.1419  0.7713 -0.2779
  428TMC3    O1 6445   3.351   0.425  14.686  0.0115 -0.4191  0.1140
  428TMC3    O2 6446   3.260   4.572  14.619 -0.4185 -0.4767  0.4912
  429MPD2     C 6447   4.302   0.857  17.392  0.3963 -0.1847  0.0059
  429MPD2    C1 6448   4.423   0.804  17.358 -0.7651  0.2085  0.3769
  429MPD2    C2 6449   4.514   0.888  17.304  0.0329 -0.1481 -0.6746
  429MPD2    C3 6450   4.496   1.023  17.295  0.4913  0.2305 -0.5002
  429MPD2    C4 6451   4.374   1.081  17.331 -0.0937  0.2559 -0.1028
  429MPD2    C5 6452   4.279   0.993  17.380  0.5905  0.4762 -0.2617
  429MPD2     H 6453   4.608   0.855  17.263 -0.2986  1.2855 -2.5536
  429MPD2    H1 6454   4.353   1.186  17.316 -0.2343  0.3903  1.1058
  429MPD2    H2 6455   4.221   0.800  17.436  0.0617 -0.6273 -1.2110
  429MPD2    H3 6456   4.188   1.035  17.422 -0.3796 -2.8724  0.9983
  429MPD2     N 6457   4.595   1.094  17.234 -0.9999  0.8141  0.0333
  429MPD2    H5 6458   4.665   1.028  17.203 -1.0089  1.3931 -1.2047
  429MPD2    N1 6459   4.461   0.669  17.370 -0.0633  0.0731  0.3447
  429MPD2    H7 6460   4.558   0.646  17.349 -0.0110  1.9132 -1.5220
  430TMC3    C1 6461   4.706   1.272  17.123  0.3241 -0.7340  0.0833
  430TMC3    C2 6462   4.707   1.401  17.072 -0.5901 -0.0982 -0.2910
  430TMC3    C3 6463   0.060   1.429  16.973  0.0470  0.1613  0.8249
  430TMC3    C4 6464   0.060   1.180  17.075 -0.4006  0.6801  0.0686
  430TMC3    C5 6465   0.155   1.215  16.986  0.0699 -0.0803  0.3297
  430TMC3    C6 6466   0.159   1.343  16.935  0.8040  0.1653  0.2877
  430TMC3     C 6467   4.601   1.233  17.217 -0.1493 -0.3763  0.3577
  430TMC3     O 6468   4.520   1.319  17.243  0.1874 -0.1937 -1.1358
  430TMC3     H 6469   4.653   1.481  17.122  0.2850  0.5898 -0.4503
  430TMC3    H1 6470   0.077   1.084  17.123 -0.2844  0.8513  0.3699
  430TMC3    H2 6471   0.235   1.388  16.873  2.1396 -1.6722  0.5813
  430TMC3    C7 6472   0.168   1.114  16.883 -0.4374  0.8160 -0.3269
  430TMC3    C8 6473   4.733   1.476  16.849  0.7333  0.0892  0.1398
  430TMC3    O1 6474   0.178   1.001  16.928 -0.1455  0.2990 -0.1585
  430TMC3    O2 6475   0.032   1.428  16.744  0.1405  0.1230 -0.0565
  431MPD2     C 6476   4.735   1.291  12.531  0.2419 -0.4009  0.2244
  431MPD2    C1 6477   0.088   1.337  12.436  0.1885  0.0599  0.0668
  431MPD2    C2 6478   0.135   1.249  12.339  0.1895  0.1639  0.0047
  431MPD2    C3 6479   0.095   1.114  12.342 -0.1921  0.0401 -0.2775
  431MPD2    C4 6480   0.008   1.068  12.438 -0.1079 -0.0402  0.3401
  431MPD2    C5 6481   4.703   1.158  12.532  0.5620  0.0496  0.2726
  431MPD2     H 6482   0.208   1.286  12.269 -2.3963 -0.6595 -3.1116
  431MPD2    H1 6483   4.714   0.965  12.449 -2.4555  0.7954  1.4934
  431MPD2    H2 6484   4.695   1.352  12.611  0.4848 -2.6247  2.0425
  431MPD2    H3 6485   4.637   1.111  12.604 -0.0915  0.1786 -0.2354
  431MPD2     N 6486   0.155   1.020  12.253  0.1433 -0.1074  0.3583
  431MPD2    H5 6487   0.112   0.929  12.257 -0.3272  0.0649 -0.9373
  431MPD2    N1 6488   0.136   1.468  12.427  0.5803 -0.0469 -0.6554
  431MPD2    H7 6489   0.180   1.493  12.339  0.6444  0.2841 -0.5322
  432TMC3    C1 6490   0.262   0.930  12.063 -0.0634 -0.3244 -0.6173
  432TMC3    C2 6491   0.302   0.957  11.941  0.4263  0.6146 -0.9315
  432TMC3    C3 6492   0.363   0.854  11.880 -0.0077  0.1927  0.5119
  432TMC3    C4 6493   0.252   0.803  12.115  0.2721  0.1589 -0.4018
  432TMC3    C5 6494   0.302   0.703  12.040 -0.0463  0.5712  0.2811
  432TMC3    C6 6495   0.366   0.723  11.927  0.4369 -0.3427 -0.3370
  432TMC3     C 6496   0.246   1.044  12.153  0.1888  0.6790 -0.5440
  432TMC3     O 6497   0.327   1.138  12.147 -0.5517 -0.3996 -0.8565
  432TMC3     H 6498   0.314   1.062  11.916  0.9902  1.3271  2.3433
  432TMC3    H1 6499   0.236   0.797  12.222  0.9181  0.2426 -0.3007
  432TMC3    H2 6500   0.409   0.645  11.865  0.6445  0.5438 -1.3024
  432TMC3    C7 6501   0.283   0.572  12.084  0.0329  0.0040  0.4581
  432TMC3    C8 6502   0.442   0.881  11.758  0.4500 -0.4729  0.5645
  432TMC3    O1 6503   0.361   0.495  12.033  0.2110 -0.5854  0.2350
  432TMC3    O2 6504   0.544   0.811  11.731  0.0754 -0.2104  0.5908
  433MPD2     C 6505   4.429   0.245  10.495 -0.6250  0.2978  0.1080
  433MPD2    C1 6506   4.389   0.123  10.535 -0.2529 -0.1948  0.0843
  433MPD2    C2 6507   4.334   0.104  10.661  0.2155 -0.0414  0.2345
  433MPD2    C3 6508   4.297   0.221  10.737 -0.2114  0.6640 -0.5670
  433MPD2    C4 6509   4.335   0.348  10.692  0.0517 -0.3870 -0.0926
  433MPD2    C5 6510   4.401   0.362  10.572 -0.1720  0.1368  0.1851
  433MPD2     H 6511   4.323   0.006  10.705 -3.5853  0.0172 -0.6086
  433MPD2    H1 6512   4.325   0.434  10.756 -0.8674 -0.5207 -0.0671
  433MPD2    H2 6513   4.477   0.258  10.398 -1.1307 -1.0325 -0.3230
  433MPD2    H3 6514   4.449   0.449  10.530 -1.3932  0.4607 -0.5399
  433MPD2     N 6515   4.245   0.193  10.863  0.9853 -0.0064  0.2962
  433MPD2    H5 6516   4.229   0.094  10.880 -1.1667  0.5122  1.2576
  433MPD2    N1 6517   4.430   0.009  10.467  0.0488  0.2623 -0.5664
  433MPD2    H7 6518   4.404   4.655  10.505  0.3701  0.2505 -0.3795
  434TMC3    C1 6519   4.501   4.602  10.307  0.3690 -0.0884  0.8293
  434TMC3    C2 6520   4.583   4.545  10.396  0.2577 -0.6260 -0.0528
  434TMC3    C3 6521   4.534   4.428  10.457  0.2583 -0.3919 -0.1529
  434TMC3    C4 6522   4.373   4.558  10.278  0.5032 -0.2552 -0.6123
  434TMC3    C5 6523   4.328   4.448  10.347  0.3561  0.1956 -0.1054
  434TMC3    C6 6524   4.404   4.380  10.438  0.1937  0.0051 -0.3050
  434TMC3     C 6525   4.488   4.737  10.340  0.7625 -1.1439 -0.1037
  434TMC3     O 6526   4.524   0.083  10.260 -0.0139 -0.9126  0.5495
  434TMC3     H 6527   4.662   4.607  10.436  0.8143 -1.9696  0.9306
  434TMC3    H1 6528   4.298   4.617  10.226 -0.3263  0.9822  1.9947
  434TMC3    H2 6529   4.375   4.283  10.476 -0.9064 -0.1435 -1.5201
  434TMC3    C7 6530   4.184   4.412  10.337 -0.0997 -0.1012 -0.0122
  434TMC3    C8 6531   4.610   4.365  10.558  0.2182 -0.4218  0.3103
  434TMC3    O1 6532   4.114   4.475  10.256  0.6283  0.5561 -0.5949
  434TMC3    O2 6533   4.551   4.270  10.615  0.3249  0.6619 -0.2045
  435MPD2     C 6534   1.919   4.467  15.163  0.4376  0.8136 -1.3352
  435MPD2    C1 6535   1.860   4.454  15.291  0.4637  0.2494 -0.1973
  435MPD2    C2 6536   1.925   4.382  15.394 -0.7294 -0.0067  0.5688
  435MPD2    C3 6537   2.036   4.309  15.362  0.0989 -0.1573  0.6001
  435MPD2    C4 6538   2.099   4.326  15.240 -0.4536  1.6814 -0.7586
  435MPD2    C5 6539   2.040   4.403  15.148  0.3853 -0.2937  0.1063
  435MPD2     H 6540   1.868   4.363  15.485 -3.4124 -1.0287 -1.2945
  435MPD2    H1 6541   2.196   4.280  15.226 -2.0297 -1.6000 -0.9280
  435MPD2    H2 6542   1.878   4.532  15.086  1.8818  0.3980 -2.4492
  435MPD2    H3 6543   2.087   4.407  15.051 -0.3887  0.6826 -0.2281
  435MPD2     N 6544   2.083   4.224  15.467  0.8940  0.4084  0.0941
  435MPD2    H5 6545   2.036   4.245  15.554 -0.7970  0.1571 -0.7389
  435MPD2    N1 6546   1.745   4.526  15.316 -0.0710  0.0866  0.4428
  435MPD2    H7 6547   1.710   4.518  15.411  2.5755 -0.9905  1.3251
  436TMC3    C1 6548   1.459   0.017  15.486 -0.3263  0.3052 -0.3228
  436TMC3    C2 6549   1.571   4.705  15.418 -0.2942  0.5597 -0.6167
  436TMC3    C3 6550   1.562   4.671  15.284  0.2639  0.0873  0.1698
  436TMC3    C4 6551   1.340   0.031  15.423  0.1521 -0.6859  0.2055
  436TMC3    C5 6552   1.336   0.012  15.287 -0.0981  0.3147  0.2693
  436TMC3    C6 6553   1.440   4.696  15.215 -0.6573  0.1141 -0.0889
  436TMC3     C 6554   1.485   0.087  15.617  1.0678 -0.1659 -0.0113
  436TMC3     O 6555   1.598   0.108  15.647  0.1321 -0.2600 -0.2781
  436TMC3     H 6556   1.666   4.716  15.469 -0.1237  1.0448 -1.0373
  436TMC3    H1 6557   1.278   0.111  15.460  2.0338  0.3295  1.1184
  436TMC3    H2 6558   1.437   4.678  15.108  1.7716 -1.0751  0.0462
  436TMC3    C7 6559   1.206   4.737  15.222 -0.3096  0.1346 -0.1992
  436TMC3    C8 6560   1.668   4.596  15.221 -0.2797  0.0931  0.1207
  436TMC3    O1 6561   1.207   4.709  15.103 -0.5522  0.5605 -0.7473
  436TMC3    O2 6562   1.675   4.592  15.098  0.3110 -0.4695 -0.3442
  437TMC3    C1 6563   4.329   1.485  12.911  0.0337  0.0209  0.1213
  437TMC3    C2 6564   4.206   1.489  12.973  0.8926  0.3896 -0.2534
  437TMC3    C3 6565   4.138   1.609  12.960 -0.5110 -0.2205  0.1174
  437TMC3    C4 6566   4.371   1.582  12.814 -0.3629  0.0366 -0.2501
  437TMC3    C5 6567   4.288   1.692  12.803 -0.4747  0.2417 -0.1008
  437TMC3    C6 6568   4.180   1.716  12.882 -0.0114 -0.2449  0.3239
  437TMC3     C 6569   4.400   1.359  12.913  0.6886  0.0324 -0.4694
  437TMC3     O 6570   4.323   1.264  12.920  0.5474 -0.1884 -0.1828
  437TMC3     H 6571   4.160   1.411  13.031 -1.4431  1.1777 -1.0596
  437TMC3    H1 6572   4.455   1.566  12.746 -0.5523 -1.8565 -0.0310
  437TMC3    H2 6573   4.119   1.797  12.843 -1.9599 -2.5095 -1.3748
  437TMC3    C7 6574   4.335   1.810  12.728  0.9878  0.1801 -0.6030
  437TMC3    C8 6575   4.005   1.622  13.025 -0.2822 -0.1045 -0.0271
  437TMC3    O1 6576   4.260   1.899  12.690  0.5907  0.5256  0.2357
  437TMC3    O2 6577   3.961   1.522  13.073  0.2586 -0.0027 -0.1457
  438MPD2     C 6578   2.705   2.665  16.689  0.2233  0.3637  0.1578
  438MPD2    C1 6579   2.752   2.543  16.734 -0.6189  0.6085 -0.4613
  438MPD2    C2 6580   2.755   2.521  16.870 -0.1100  0.1311  0.3421
  438MPD2    C3 6581   2.711   2.622  16.960 -0.5295 -0.2255 -0.9403
  438MPD2    C4 6582   2.677   2.744  16.913  0.0002 -0.3616  1.1173
  438MPD2    C5 6583   2.665   2.765  16.782 -0.2611 -0.0087  0.3273
  438MPD2     H 6584   2.783   2.422  16.904 -0.1915  0.2542  0.7638
  438MPD2    H1 6585   2.636   2.811  16.987 -1.4868  1.9517 -1.8250
  438MPD2    H2 6586   2.694   2.695  16.586 -0.5973 -1.6085 -0.3377
  438MPD2    H3 6587   2.620   2.857  16.745  1.6963  0.7004 -0.3030
  438MPD2     N 6588   2.713   2.607  17.101 -0.3059  0.2901 -0.1439
  438MPD2    H5 6589   2.668   2.677  17.159  1.6984  0.0340  1.7266
  438MPD2    N1 6590   2.818   2.446  16.649 -0.6247 -0.8222 -0.1301
  438MPD2    H7 6591   2.864   2.369  16.696  0.9842 -0.1777 -0.6589
  439TMC3    C1 6592   2.900   2.348  16.454  0.0849  0.4895 -0.0611
  439TMC3    C2 6593   2.901   2.322  16.321 -0.4501  0.0235 -0.4265
  439TMC3    C3 6594   2.952   2.205  16.266 -0.5521  0.5554  0.0688
  439TMC3    C4 6595   2.954   2.253  16.537 -0.1287  0.8080  0.3082
  439TMC3    C5 6596   3.006   2.140  16.483  0.0881 -0.0539  0.4981
  439TMC3    C6 6597   3.006   2.110  16.350  0.0740  0.1124  0.1350
  439TMC3     C 6598   2.832   2.459  16.512 -0.1534  0.1189 -0.1190
  439TMC3     O 6599   2.792   2.541  16.433  0.4573  0.1422  0.3711
  439TMC3     H 6600   2.860   2.397  16.255 -0.0609  2.0998  1.6615
  439TMC3    H1 6601   2.975   2.276  16.641  0.8703  1.6340 -0.0745
  439TMC3    H2 6602   3.044   2.020  16.303  1.1008  0.6978 -0.1561
  439TMC3    C7 6603   3.081   2.051  16.569  0.7240 -0.9641  0.5213
  439TMC3    C8 6604   3.012   2.205  16.136 -0.0549 -0.2677  0.0782
  439TMC3    O1 6605   3.055   2.048  16.687  0.1874  0.0043 -0.0362
  439TMC3    O2 6606   3.120   2.147  16.133 -0.0778 -0.5687 -0.2751
  440MPD2     C 6607   1.060   2.616  15.422  0.0529 -0.5545 -0.7074
  440MPD2    C1 6608   1.045   2.578  15.287 -0.6592  0.9244  0.1480
  440MPD2    C2 6609   1.103   2.468  15.236  0.2444 -0.1232 -0.4956
  440MPD2    C3 6610   1.186   2.388  15.318  0.3214  0.1536  0.2022
  440MPD2    C4 6611   1.204   2.427  15.453  0.5140 -0.3795  0.1254
  440MPD2    C5 6612   1.143   2.538  15.502 -0.3382  0.0767 -0.1580
  440MPD2     H 6613   1.096   2.454  15.129 -1.9070  2.1047 -0.6444
  440MPD2    H1 6614   1.266   2.367  15.519  2.0322 -1.3641 -2.2119
  440MPD2    H2 6615   1.012   2.703  15.467  0.4927 -0.9236  0.4778
  440MPD2    H3 6616   1.168   2.566  15.604  0.6176  1.3295 -0.7254
  440MPD2     N 6617   1.278   2.292  15.272 -0.3502 -0.2563 -0.8181
  440MPD2    H5 6618   1.327   2.245  15.347 -1.5941  0.4832  0.4385
  440MPD2    N1 6619   0.969   2.654  15.199 -0.1099  0.6142  0.3163
  440MPD2    H7 6620   0.976   2.638  15.099 -1.9604  4.2045 -0.3917
  441TMC3    C1 6621   1.410   2.178  15.116 -0.1025  0.6875 -0.7462
  441TMC3    C2 6622   1.497   2.238  15.035  0.3378 -0.0828 -0.4379
  441TMC3    C3 6623   1.621   2.190  15.039 -0.7797 -0.0826 -0.2626
  441TMC3    C4 6624   1.428   2.073  15.206 -0.5730  0.2756  0.4119
  441TMC3    C5 6625   1.549   2.015  15.186 -1.1826 -0.4967 -0.2943
  441TMC3    C6 6626   1.645   2.065  15.098  0.0115  0.1414  0.1935
  441TMC3     C 6627   1.299   2.264  15.138 -0.4719  0.1349 -0.6426
  441TMC3     O 6628   1.257   2.310  15.038  0.0631  0.5074 -0.3039
  441TMC3     H 6629   1.470   2.322  14.973 -0.3895 -0.4031 -0.5525
  441TMC3    H1 6630   1.356   2.040  15.280 -1.1573 -0.0890 -0.3323
  441TMC3    H2 6631   1.739   2.013  15.085 -1.1280 -2.2929  1.8480
  441TMC3    C7 6632   1.601   1.936  15.291 -0.7908  0.3386  0.6249
  441TMC3    C8 6633   1.726   2.287  15.075 -0.6326 -0.1078 -0.0562
  441TMC3    O1 6634   1.690   1.858  15.257  0.8238  0.2764  0.4087
  441TMC3    O2 6635   1.808   2.256  15.161  0.1551 -0.6229 -0.4747
  442MPD2     C 6636   4.597   3.527  16.640  0.9330 -0.2795  0.3555
  442MPD2    C1 6637   4.493   3.465  16.701  0.0711  0.4704 -0.3276
  442MPD2    C2 6638   4.482   3.333  16.685 -0.2729 -0.2047 -0.6511
  442MPD2    C3 6639   4.572   3.255  16.604 -0.1879 -0.2135 -0.0629
  442MPD2    C4 6640   4.670   3.322  16.533  0.7590  0.0028 -0.0667
  442MPD2    C5 6641   4.682   3.453  16.558  0.5113  0.2356  0.1148
  442MPD2     H 6642   4.392   3.284  16.721 -0.2290  0.4226  0.3223
  442MPD2    H1 6643   0.007   3.276  16.468  1.0012  1.2674 -0.6765
  442MPD2    H2 6644   4.618   3.633  16.652  2.3292 -0.6294  0.9912
  442MPD2    H3 6645   0.016   3.515  16.504 -1.4719  1.4630 -1.1092
  442MPD2     N 6646   4.559   3.111  16.585 -0.4339 -0.2199 -0.3517
  442MPD2    H5 6647   4.620   3.069  16.515  3.6099 -0.4621  3.2769
  442MPD2    N1 6648   4.380   3.530  16.760 -0.2546 -0.5317  0.7807
  442MPD2    H7 6649   4.302   3.472  16.787 -0.6045 -0.9828 -1.2096
  443TMC3    C1 6650   4.242   3.713  16.835  0.0920  0.2650  0.4290
  443TMC3    C2 6651   4.184   3.817  16.784 -0.2571  0.4646  0.1952
  443TMC3    C3 6652   4.058   3.848  16.831  0.2029 -0.0663  0.5676
  443TMC3    C4 6653   4.196   3.636  16.939  0.4837  0.1426 -0.1305
  443TMC3    C5 6654   4.079   3.678  16.989 -0.1690  0.2219  0.4790
  443TMC3    C6 6655   4.009   3.790  16.945  0.4869 -0.1736  0.2503
  443TMC3     C 6656   4.364   3.669  16.774 -0.5620 -0.2717  0.1117
  443TMC3     O 6657   4.440   3.756  16.734  0.2319  0.2522 -0.2742
  443TMC3     H 6658   4.215   3.854  16.687  3.1998  1.4933  1.6888
  443TMC3    H1 6659   4.261   3.559  16.978 -1.0654 -0.1472  1.8460
  443TMC3    H2 6660   3.908   3.813  16.978  0.5338  0.1101  0.1972
  443TMC3    C7 6661   4.003   3.582  17.063 -0.4869  0.6127  0.0750
  443TMC3    C8 6662   3.966   3.834  16.719  0.6007 -0.4723  0.1708
  443TMC3    O1 6663   4.014   3.466  17.020  0.3240 -0.6327 -0.2634
  443TMC3    O2 6664   3.874   3.756  16.736 -0.0258 -0.2857 -0.3509
  444MPD2     C 6665   4.543   2.781  17.401  0.0830 -1.1020  0.3704
  444MPD2    C1 6666   4.445   2.688  17.371 -0.2390  0.4136 -0.1968
  444MPD2    C2 6667   4.479   2.570  17.305  0.4305 -0.2883  0.8437
  444MPD2    C3 6668   4.612   2.532  17.285 -0.5530 -0.5838  0.3456
  444MPD2    C4 6669   4.704   2.629  17.330 -0.2816  0.9337 -0.5310
  444MPD2    C5 6670   4.669   2.759  17.367 -0.1251  0.3880  0.5879
  444MPD2     H 6671   4.399   2.510  17.262 -0.2782  2.3794 -1.5430
  444MPD2    H1 6672   0.075   2.619  17.330 -0.3336  0.3368 -0.7614
  444MPD2    H2 6673   4.529   2.884  17.429 -1.2840 -0.5003 -2.5602
  444MPD2    H3 6674   0.008   2.833  17.390  1.5992 -1.0664 -0.4575
  444MPD2     N 6675   4.642   2.418  17.201 -0.3315  0.4650  0.2226
  444MPD2    H5 6676   4.572   2.345  17.197  0.4868 -0.2782 -0.3733
  444MPD2    N1 6677   4.312   2.710  17.393  0.3217 -0.1722  0.5885
  444MPD2    H7 6678   4.243   2.645  17.355  2.0135  0.7605 -3.9737
  445TMC3    C1 6679   0.020   2.290  17.040  0.3287  0.1120  0.1652
  445TMC3    C2 6680   4.720   2.176  17.100 -0.2437  0.0743  0.0748
  445TMC3    C3 6681   0.009   2.059  17.034  0.1409 -0.5382  0.1788
  445TMC3    C4 6682   0.083   2.297  16.923 -0.1399 -0.0731  0.3350
  445TMC3    C5 6683   0.099   2.180  16.859 -0.4078  0.1521 -0.2283
  445TMC3    C6 6684   0.060   2.059  16.911  0.0993 -0.5093  0.7235
  445TMC3     C 6685   0.021   2.409  17.126 -0.2162  0.1370 -0.5852
  445TMC3     O 6686   0.100   2.499  17.093 -0.0699 -0.2985 -0.1180
  445TMC3     H 6687   4.682   2.177  17.201  1.3659  1.2770  0.6666
  445TMC3    H1 6688   0.105   2.395  16.881 -1.6426 -0.2622 -0.9014
  445TMC3    H2 6689   0.083   1.964  16.863 -0.0727 -0.9958  1.5975
  445TMC3    C7 6690   0.163   2.182  16.730 -0.6385  0.0626  0.2565
  445TMC3    C8 6691   4.680   1.943  17.080 -0.7495 -0.1402  0.2941
  445TMC3    O1 6692   0.225   2.285  16.707 -0.3453 -0.5495 -0.1251
  445TMC3    O2 6693   4.719   1.831  17.039 -0.2528 -1.1156 -0.1239
  446MPD2     C 6694   4.049   4.154  11.172 -0.2759  0.5615  0.2058
  446MPD2    C1 6695   4.009   4.284  11.146  0.7085 -0.0702 -0.2528
  446MPD2    C2 6696   4.099   4.379  11.088 -0.4143 -0.1819  0.0865
  446MPD2    C3 6697   4.227   4.339  11.054  0.6808  0.0305 -0.4433
  446MPD2    C4 6698   4.262   4.208  11.079 -0.5267  0.1857 -0.3344
  446MPD2    C5 6699   4.171   4.119  11.131 -0.1136 -0.0129 -0.1813
  446MPD2     H 6700   4.067   4.481  11.072 -3.2821 -1.1427 -0.3467
  446MPD2    H1 6701   4.362   4.169  11.065 -0.4405  0.6046 -0.8954
  446MPD2    H2 6702   3.984   4.081  11.219 -0.1889  1.7999  2.2423
  446MPD2    H3 6703   4.201   4.017  11.153 -0.0533 -0.5298 -2.6583
  446MPD2     N 6704   4.318   4.446  11.018  0.1381 -0.4846  0.1839
  446MPD2    H5 6705   4.290   4.541  11.040  3.7212  0.6192 -0.0917
  446MPD2    N1 6706   3.876   4.321  11.171  0.6428  0.5416  0.9048
  446MPD2    H7 6707   3.846   4.417  11.157  2.7031  0.8242 -1.4068
  447TMC3    C1 6708   4.518   4.539  10.970  0.1664  0.1044 -0.0121
  447TMC3    C2 6709   4.539   4.604  10.856 -0.1648 -0.2618  0.0142
  447TMC3    C3 6710   4.637   4.700  10.869 -0.0558 -0.1421  0.2462
  447TMC3    C4 6711   4.593   4.550  11.081  0.0630 -0.1695  0.0791
  447TMC3    C5 6712   4.678   4.658  11.092  0.2598  0.0619  0.0878
  447TMC3    C6 6713   4.697   0.002  10.987  0.2566  0.2450  0.1916
  447TMC3     C 6714   4.441   4.421  10.959 -0.9751  0.1798 -0.2436
  447TMC3     O 6715   4.491   4.314  10.935  0.1110 -0.3654 -0.4634
  447TMC3     H 6716   4.492   4.560  10.769 -1.1218 -0.4598  0.6163
  447TMC3    H1 6717   4.575   4.479  11.160  0.5562  0.8042  1.0723
  447TMC3    H2 6718   0.018   0.092  11.002  1.1399  0.3529 -3.7700
  447TMC3    C7 6719   0.066   4.628  11.155 -0.0272  0.8495  0.5744
  447TMC3    C8 6720   4.690   0.001  10.742 -0.0721  0.1332  0.7696
  447TMC3    O1 6721   0.167   4.672  11.101  0.0428  0.2606 -0.2049
  447TMC3    O2 6722   4.626   4.702  10.647  0.0538  0.1845 -0.2095
  448TMC3    C1 6723   3.625   3.942  17.087 -0.2851 -0.6160  0.6277
  448TMC3    C2 6724   3.577   3.827  17.033 -0.0382 -0.0442 -0.3374
  448TMC3    C3 6725   3.534   3.724  17.119 -0.1694 -0.2544 -0.2644
  448TMC3    C4 6726   3.624   3.963  17.226  0.8507  0.2059 -0.3824
  448TMC3    C5 6727   3.564   3.869  17.306 -0.8507 -0.5850  0.0389
  448TMC3    C6 6728   3.521   3.750  17.251 -0.4005  0.4586 -0.0701
  448TMC3     C 6729   3.701   4.037  17.011 -0.0089 -0.3748  0.6344
  448TMC3     O 6730   3.751   4.133  17.071  0.3902  0.4444 -0.5949
  448TMC3     H 6731   3.586   3.817  16.925  2.3884 -0.7899 -0.0577
  448TMC3    H1 6732   3.666   4.056  17.266 -0.1703  0.8018 -0.7106
  448TMC3    H2 6733   3.468   3.673  17.306  0.3115  1.4975  2.0517
  448TMC3    C7 6734   3.581   3.883  17.451 -1.0779 -0.1844  0.4595
  448TMC3    C8 6735   3.472   3.601  17.063 -0.5139 -0.3882  0.3461
  448TMC3    O1 6736   3.606   3.992  17.494  0.6471 -0.4560  0.0248
  448TMC3    O2 6737   3.385   3.551  17.134 -0.3490  0.3371  1.2273
  449MPD2     C 6738   3.790   2.532  13.092 -0.2576  0.1897 -0.8589
  449MPD2    C1 6739   3.744   2.448  13.197 -0.2044 -0.9627  0.1754
  449MPD2    C2 6740   3.830   2.375  13.273 -0.8295 -0.0655  0.2283
  449MPD2    C3 6741   3.959   2.359  13.233 -0.4603  0.3013  1.0187
  449MPD2    C4 6742   4.010   2.442  13.133 -0.4059 -0.2815  0.0260
  449MPD2    C5 6743   3.925   2.523  13.064  0.3709  0.1652  0.0420
  449MPD2     H 6744   3.786   2.322  13.357  0.4233 -0.7309  0.4523
  449MPD2    H1 6745   4.113   2.436  13.099 -0.6608 -0.7191 -0.6737
  449MPD2    H2 6746   3.728   2.605  13.042 -2.3881 -1.8590 -1.2203
  449MPD2    H3 6747   3.959   2.583  12.981  2.5356 -1.7910 -0.4738
  449MPD2     N 6748   4.038   2.259  13.300 -0.3210  0.3031 -0.0035
  449MPD2    H5 6749   3.978   2.201  13.357  1.1189 -1.1802  0.0157
  449MPD2    N1 6750   3.611   2.422  13.227  0.0549  0.5973  0.0506
  449MPD2    H7 6751   3.597   2.365  13.310 -2.6878 -0.4657 -1.1616
  450TMC3    C1 6752   3.382   2.406  13.215  0.1414  0.6124 -0.2821
  450TMC3    C2 6753   3.295   2.340  13.132 -0.0605  0.4129 -0.1000
  450TMC3    C3 6754   3.245   2.214  13.176 -0.4640 -0.0494 -0.7098
  450TMC3    C4 6755   3.400   2.362  13.342 -0.2150 -0.8468  0.5172
  450TMC3    C5 6756   3.354   2.240  13.381 -0.0801  0.2841 -0.5156
  450TMC3    C6 6757   3.272   2.166  13.301 -0.3054  0.3548 -0.4893
  450TMC3     C 6758   3.505   2.454  13.145 -0.4390  0.0189  0.9093
  450TMC3     O 6759   3.504   2.485  13.032 -0.0818  0.3451 -0.0821
  450TMC3     H 6760   3.287   2.375  13.029  1.0083  0.2889 -0.2239
  450TMC3    H1 6761   3.462   2.430  13.399 -1.2911  2.0555 -1.7414
  450TMC3    H2 6762   3.249   2.064  13.329  1.3585  0.1145 -0.0189
  450TMC3    C7 6763   3.456   2.175  13.458 -0.3731  0.0444 -0.4285
  450TMC3    C8 6764   3.270   2.103  13.084 -0.4822  0.6490 -0.1692
  450TMC3    O1 6765   3.564   2.230  13.449 -0.2266 -0.1437 -0.1705
  450TMC3    O2 6766   3.237   1.992  13.120 -0.1702  0.3025  0.2840
  451MPD2     C 6767   1.166   0.398   1.083 -0.3716  0.2851 -0.3230
  451MPD2    C1 6768   1.120   0.436   0.962  0.1689  0.0562 -0.8336
  451MPD2    C2 6769   1.181   0.398   0.841 -0.3916  0.1580  0.4375
  451MPD2    C3 6770   1.286   0.307   0.845  0.1476 -0.1153  1.0346
  451MPD2    C4 6771   1.311   0.246   0.963  0.3450  0.4685  0.2405
  451MPD2    C5 6772   1.263   0.297   1.078  0.2579  1.3673 -0.2811
  451MPD2     H 6773   1.147   0.435   0.745 -1.1629  0.3877  0.7978
  451MPD2    H1 6774   1.373   0.158   0.974  0.0555 -0.2655 -3.9514
  451MPD2    H2 6775   1.118   0.437   1.172  2.1827 -2.8455  2.4184
  451MPD2    H3 6776   1.297   0.252   1.171  0.0639  1.3237 -0.2291
  451MPD2     N 6777   1.356   0.270   0.729 -0.9061  0.0016 -0.6239
  451MPD2    H5 6778   1.426   0.196   0.733  0.0424  0.8633 -1.4154
  451MPD2    N1 6779   1.010   0.526   0.968  0.2870 -0.2631 -0.5935
  451MPD2    H7 6780   0.980   0.564   1.057 -0.7453 -1.1628 -0.5521
  452TMC3    C1 6781   1.424   0.269   0.503 -0.5226  0.2059 -0.3735
  452TMC3    C2 6782   1.352   0.160   0.456  0.6106  0.4033 -0.6506
  452TMC3    C3 6783   1.347   0.145   0.318 -0.1198  0.1297 -0.8947
  452TMC3    C4 6784   1.470   0.366   0.423 -0.2565  0.5817 -0.3946
  452TMC3    C5 6785   1.467   0.346   0.287 -0.2064 -0.1163  0.7193
  452TMC3    C6 6786   1.402   0.236   0.231 -0.2379  0.3732  0.2163
  452TMC3     C 6787   1.358   0.338   0.607 -0.8112  0.1156  0.3897
  452TMC3     O 6788   1.314   0.448   0.587 -0.6335  0.2677  0.2444
  452TMC3     H 6789   1.303   0.085   0.517  0.1926  0.8865 -0.3898
  452TMC3    H1 6790   1.524   0.452   0.459  1.4148 -0.0114 -1.4719
  452TMC3    H2 6791   1.390   0.238   0.123  2.2615  0.1803 -0.0559
  452TMC3    C7 6792   1.466   0.471   0.213 -0.8606 -0.1361  0.2618
  452TMC3    C8 6793   1.224   0.081   0.265  0.8542 -0.0848 -0.5112
  452TMC3    O1 6794   1.473   0.460   0.095 -0.3028 -0.3449 -0.9423
  452TMC3    O2 6795   1.164   0.137   0.174 -0.7135  0.0505  0.5985
  453TMC3    C1 6796   0.796   2.914  12.114  0.7526 -0.0833  0.4812
  453TMC3    C2 6797   0.721   2.804  12.082  0.3465 -0.0975  0.1924
  453TMC3    C3 6798   0.665   2.797  11.956  0.1655 -0.5323 -0.5206
  453TMC3    C4 6799   0.795   3.021  12.020 -0.0849  0.3276  0.7316
  453TMC3    C5 6800   0.712   3.025  11.914 -0.3215 -0.8474  0.5202
  453TMC3    C6 6801   0.653   2.910  11.877  0.4910 -0.2110  0.1067
  453TMC3     C 6802   0.927   2.887  12.176  0.8630  0.0186 -0.1889
  453TMC3     O 6803   1.020   2.958  12.144  0.0312 -0.2722 -0.2955
  453TMC3     H 6804   0.738   2.718  12.145 -2.6241  0.3397  1.5779
  453TMC3    H1 6805   0.866   3.101  12.040 -0.1994  1.2187 -2.5510
  453TMC3    H2 6806   0.589   2.906  11.790 -0.0690  0.8316  0.4723
  453TMC3    C7 6807   0.774   3.103  11.805  0.4651  0.2554  0.0672
  453TMC3    C8 6808   0.592   2.683  11.906  0.4124  0.5871  0.5525
  453TMC3    O1 6809   0.839   3.200  11.840  0.8644 -0.3483  0.1466
  453TMC3    O2 6810   0.488   2.695  11.839 -0.2929 -0.0646 -0.1248
  454MPD2     C 6811   0.494   2.609  15.894  0.2507  0.2983 -0.5178
  454MPD2    C1 6812   0.362   2.564  15.898 -0.1115 -0.1484  0.2321
  454MPD2    C2 6813   0.291   2.564  16.015 -0.2689 -0.2760  0.6605
  454MPD2    C3 6814   0.347   2.620  16.132 -0.4645  0.1805 -1.3687
  454MPD2    C4 6815   0.474   2.674  16.126  0.3622 -0.4374  0.4357
  454MPD2    C5 6816   0.546   2.667  16.008 -0.0611  0.7731  0.5490
  454MPD2     H 6817   0.189   2.526  16.015  0.2714 -1.7097  2.0295
  454MPD2    H1 6818   0.527   2.726  16.206 -0.3088  0.5220  0.2429
  454MPD2    H2 6819   0.557   2.597  15.806 -2.2621  2.1734 -2.5549
  454MPD2    H3 6820   0.650   2.697  16.003 -0.3547  1.7684  0.3425
  454MPD2     N 6821   0.274   2.617  16.252 -0.1137  0.1392 -0.3448
  454MPD2    H5 6822   0.301   2.672  16.332 -0.5879  1.7297 -1.2815
  454MPD2    N1 6823   0.289   2.508  15.793  0.4424 -0.7250 -0.4410
  454MPD2    H7 6824   0.203   2.458  15.812 -1.1628  1.7642 -1.1891
  455TMC3    C1 6825   0.127   2.533  16.408 -0.0676  0.6809 -0.1863
  455TMC3    C2 6826   0.118   2.653  16.478 -0.7530  0.3070 -0.3857
  455TMC3    C3 6827   0.031   2.662  16.582 -0.3272  0.1910 -0.2295
  455TMC3    C4 6828   0.042   2.429  16.436 -0.5461 -0.6481 -0.1468
  455TMC3    C5 6829   4.692   2.446  16.545  0.6743  0.3335  0.3087
  455TMC3    C6 6830   4.691   2.556  16.618  1.2458  0.8038 -0.2390
  455TMC3     C 6831   0.175   2.525  16.278  0.3352 -0.3797 -0.5616
  455TMC3     O 6832   0.131   2.432  16.213 -0.0885 -0.5491  0.2239
  455TMC3     H 6833   0.182   2.736  16.450 -1.4199  0.5010 -1.3513
  455TMC3    H1 6834   0.066   2.329  16.401 -0.8002 -0.9172  0.4477
  455TMC3    H2 6835   4.641   2.559  16.714 -1.7123 -1.1538 -1.7438
  455TMC3    C7 6836   4.611   2.333  16.573 -0.1695  0.4087  0.5328
  455TMC3    C8 6837   0.042   2.775  16.668  0.2757  0.1660 -0.7165
  455TMC3    O1 6838   4.568   2.314  16.688  0.0320 -0.0043 -0.5085
  455TMC3    O2 6839   4.715   2.785  16.775 -0.0510 -0.4413 -0.3028
  456MPD2     C 6840   3.200   2.482  16.212 -0.1416  0.8415 -0.6196
  456MPD2    C1 6841   3.240   2.428  16.335 -0.0638 -0.4500 -0.3570
  456MPD2    C2 6842   3.211   2.489  16.458 -0.1844 -0.8637  0.6187
  456MPD2    C3 6843   3.144   2.613  16.456 -0.8790 -0.3612  0.5023
  456MPD2    C4 6844   3.111   2.669  16.333 -0.0291 -0.1074  0.1198
  456MPD2    C5 6845   3.126   2.601  16.217  0.3853  0.0700 -0.1342
  456MPD2     H 6846   3.243   2.443  16.551 -0.4453 -0.1420  1.0642
  456MPD2    H1 6847   3.041   2.752  16.331  1.4283  1.1413  1.3721
  456MPD2    H2 6848   3.216   2.430  16.118  0.1909 -2.6719  1.3636
  456MPD2    H3 6849   3.092   2.646  16.124  2.1553  2.8045  0.5301
  456MPD2     N 6850   3.127   2.676  16.578 -0.0351 -0.5205  0.4221
  456MPD2    H5 6851   3.159   2.618  16.655  0.8608 -1.1036 -0.3901
  456MPD2    N1 6852   3.312   2.307  16.316 -0.0994  0.2360 -0.0188
  456MPD2    H7 6853   3.305   2.273  16.221  1.6589 -1.2257  0.3962
  457TMC3    C1 6854   3.082   2.838  16.741 -1.0549  0.6640 -0.2253
  457TMC3    C2 6855   3.108   2.972  16.758 -0.2814  0.0602  0.0420
  457TMC3    C3 6856   3.120   3.029  16.881 -0.1700 -0.0180 -0.2978
  457TMC3    C4 6857   3.077   2.754  16.847  0.4075 -0.1404 -0.1335
  457TMC3    C5 6858   3.082   2.805  16.969 -0.1457 -0.1716 -0.0429
  457TMC3    C6 6859   3.120   2.939  16.990 -0.0933  0.1029  0.2458
  457TMC3     C 6860   3.078   2.803  16.599 -0.6558  0.6030 -0.1953
  457TMC3     O 6861   3.054   2.894  16.516  0.5297 -0.1097 -0.1976
  457TMC3     H 6862   3.110   3.036  16.670  1.5868  1.8641  1.3881
  457TMC3    H1 6863   3.055   2.648  16.840  2.7695 -0.5725 -0.9021
  457TMC3    H2 6864   3.113   2.987  17.087  0.3987  0.2949  0.1896
  457TMC3    C7 6865   3.064   2.707  17.077 -0.3882 -0.7995  0.1205
  457TMC3    C8 6866   3.209   3.144  16.904  0.2323  0.0919  0.4514
  457TMC3    O1 6867   3.096   2.588  17.062  0.4901  0.6462  0.7930
  457TMC3    O2 6868   3.218   3.191  17.015  0.1624 -0.2328  0.5943
  458MPD2     C 6869   4.735   2.097  12.592  0.0444  0.6821 -0.2746
  458MPD2    C1 6870   0.044   2.000  12.679  0.1716  0.2297 -0.0299
  458MPD2    C2 6871   4.696   1.897  12.717  0.3558 -0.1438 -0.8951
  458MPD2    C3 6872   4.562   1.904  12.679 -0.2023  0.6632 -0.6600
  458MPD2    C4 6873   4.519   1.999  12.586  0.1817 -0.5179 -0.2704
  458MPD2    C5 6874   4.612   2.083  12.539 -0.1080 -0.5749 -0.0779
  458MPD2     H 6875   4.721   1.817  12.786  1.8460  1.6412  0.6333
  458MPD2    H1 6876   4.418   2.004  12.547 -0.3959  2.0539  1.6363
  458MPD2    H2 6877   0.055   2.181  12.556 -0.0837  0.6812 -0.4831
  458MPD2    H3 6878   4.574   2.146  12.459  0.4391  0.9261  0.8363
  458MPD2     N 6879   4.473   1.805  12.736  0.0441 -0.3248 -0.0941
  458MPD2    H5 6880   4.512   1.739  12.802 -0.2045 -0.8910 -0.5132
  458MPD2    N1 6881   0.171   2.021  12.736  0.2351  0.2915  0.6316
  458MPD2    H7 6882   0.230   2.085  12.683  1.1945 -0.0576  1.2643
  459TMC3    C1 6883   0.371   2.001  12.862 -0.0134  0.6460 -0.3238
  459TMC3    C2 6884   0.443   2.070  12.766  0.6813 -0.7079  0.0979
  459TMC3    C3 6885   0.579   2.072  12.778 -0.2665  0.6950 -0.4100
  459TMC3    C4 6886   0.434   1.939  12.972  0.2827  0.2821  0.2860
  459TMC3    C5 6887   0.574   1.932  12.967  0.7549 -0.2361 -0.0517
  459TMC3    C6 6888   0.643   1.988  12.872  0.3379  0.2133 -0.3253
  459TMC3     C 6889   0.228   1.972  12.849 -0.8537  1.0908 -0.3975
  459TMC3     O 6890   0.184   1.883  12.918  0.5071  0.2595  0.7206
  459TMC3     H 6891   0.403   2.119  12.678 -1.5463 -0.4662  1.2558
  459TMC3    H1 6892   0.377   1.862  13.021 -1.8839  0.1209 -2.5231
  459TMC3    H2 6893   0.752   1.988  12.872  0.3458 -0.9155 -0.6816
  459TMC3    C7 6894   0.637   1.841  13.058  0.0435 -0.2548 -0.1223
  459TMC3    C8 6895   0.676   2.143  12.695  0.1545 -0.7692  0.2514
  459TMC3    O1 6896   0.743   1.796  13.020 -0.0002  0.2231 -0.0086
  459TMC3    O2 6897   0.786   2.165  12.741  0.5471  0.2124 -0.2250
  460MPD2     C 6898   0.277   0.145  10.651  0.1758 -0.4334 -0.0181
  460MPD2    C1 6899   0.149   0.102  10.635  0.4045  0.2885  0.2765
  460MPD2    C2 6900   0.093   0.104  10.508  0.4605  0.0094  0.2781
  460MPD2    C3 6901   0.168   0.138  10.398  0.5382  0.6593  0.5013
  460MPD2    C4 6902   0.297   0.165  10.416  0.7258  0.6045  0.1386
  460MPD2    C5 6903   0.356   0.185  10.541  0.0341  0.0487 -0.1455
  460MPD2     H 6904   4.724   0.088  10.496  1.3125 -4.0205 -1.8976
  460MPD2    H1 6905   0.360   0.195  10.334  0.7429  0.6129  0.1548
  460MPD2    H2 6906   0.315   0.157  10.751 -0.2611  0.4622  0.0437
  460MPD2    H3 6907   0.454   0.228  10.553  0.5252 -0.7590 -1.2560
  460MPD2     N 6908   0.107   0.144  10.273 -0.5472  0.1130  0.0035
  460MPD2    H5 6909   0.008   0.120  10.271 -0.3689 -0.7172  0.7462
  460MPD2    N1 6910   0.075   0.066  10.751 -0.3099  0.1206  0.5066
  460MPD2    H7 6911   0.117   0.050  10.842 -0.7589  1.3619  0.9311
  461TMC3    C1 6912   0.063   0.207  10.042 -0.0406 -0.2027 -1.0940
  461TMC3    C2 6913   4.724   0.095  10.024  0.3408  0.7671 -0.3871
  461TMC3    C3 6914   4.605   0.104   9.963 -0.4019 -0.0023  0.1712
  461TMC3    C4 6915   0.034   0.330   9.975 -0.1169 -0.2688 -0.1524
  461TMC3    C5 6916   4.656   0.320   9.898  0.7895  0.3504  0.3586
  461TMC3    C6 6917   4.573   0.213   9.889  0.4910 -0.0232  0.6944
  461TMC3     C 6918   0.150   0.211  10.158 -0.7816  0.0386  0.2045
  461TMC3     O 6919   0.252   0.273  10.132 -0.1277 -0.3110  0.1816
  461TMC3     H 6920   0.017   0.007  10.079  1.0237  1.9977  1.2046
  461TMC3    H1 6921   0.086   0.422   9.998 -0.8056 -0.2918  1.5155
  461TMC3    H2 6922   4.480   0.219   9.834  0.9235  1.8738  0.1597
  461TMC3    C7 6923   4.607   0.449   9.853  0.1372  0.2943 -0.0907
  461TMC3    C8 6924   4.535   4.715   9.946  0.0921  0.3716 -0.3479
  461TMC3    O1 6925   4.484   0.467   9.863 -0.1683 -0.3498  0.2255
  461TMC3    O2 6926   4.594   4.614   9.976 -0.0101 -0.2839  0.0182
  462TMC3    C1 6927   0.066   1.104  17.582 -1.2555  0.2751 -0.8047
  462TMC3    C2 6928   0.205   1.097  17.576 -0.0040  0.4271  0.4670
  462TMC3    C3 6929   0.252   0.969  17.590 -0.5117  0.4007 -0.3172
  462TMC3    C4 6930   4.711   0.998  17.594 -0.0336 -0.0972 -0.4040
  462TMC3    C5 6931   0.030   0.877  17.618 -0.0933  0.4318 -0.3466
  462TMC3    C6 6932   0.165   0.864  17.613 -0.0363 -0.2720 -0.1242
  462TMC3     C 6933   0.002   1.228  17.544  0.4083 -0.2728 -0.4796
  462TMC3     O 6934   4.626   1.246  17.588 -0.0998  0.3281  0.2077
  462TMC3     H 6935   0.271   1.177  17.546 -0.8206  0.1128 -2.1650
  462TMC3    H1 6936   4.605   1.019  17.598 -0.0987 -0.3670 -0.6831
  462TMC3    H2 6937   0.209   0.774  17.653  0.1896  0.2573  0.8339
  462TMC3    C7 6938   4.681   0.776  17.683 -0.1797 -1.2493 -0.6649
  462TMC3    C8 6939   0.393   0.947  17.610  0.8856  0.3811 -0.4387
  462TMC3    O1 6940   0.005   0.677  17.715  0.0889 -0.0454  0.3300
  462TMC3    O2 6941   0.456   1.037  17.668 -0.8222  0.1693 -0.7702
  463MPD2     C 6942   1.930   3.374   0.821 -0.5345  0.2539 -0.3144
  463MPD2    C1 6943   1.886   3.504   0.844 -0.2416  0.4360  0.2089
  463MPD2    C2 6944   1.951   3.570   0.942  0.0295 -0.4807  0.2038
  463MPD2    C3 6945   2.040   3.512   1.029  0.2222  0.4659 -0.2273
  463MPD2    C4 6946   2.082   3.385   1.008 -0.4884 -0.8580  0.0184
  463MPD2    C5 6947   2.025   3.319   0.906 -0.1394  0.1459 -0.4676
  463MPD2     H 6948   1.937   3.678   0.938  1.4975 -0.2115  2.1495
  463MPD2    H1 6949   2.140   3.338   1.087  1.3419 -0.1875 -0.9346
  463MPD2    H2 6950   1.884   3.308   0.749 -0.2895  1.1244 -1.2663
  463MPD2    H3 6951   2.050   3.216   0.886  0.1688 -0.0836  1.1311
  463MPD2     N 6952   2.096   3.582   1.136 -0.5802  0.7600  0.2614
  463MPD2    H5 6953   2.175   3.541   1.184 -1.6908 -2.4841 -0.6965
  463MPD2    N1 6954   1.776   3.568   0.783  0.2093  0.7442 -0.3513
  463MPD2    H7 6955   1.752   3.659   0.818 -0.6230  0.3580  0.0601
  464TMC3    C1 6956   1.591   3.615   0.632 -0.0434  0.0529 -0.5115
  464TMC3    C2 6957   1.560   3.726   0.705 -0.8481  0.0623  0.7943
  464TMC3    C3 6958   1.429   3.770   0.704 -0.3863  0.2690 -0.2814
  464TMC3    C4 6959   1.505   3.558   0.542 -0.1329 -0.2841 -0.0514
  464TMC3    C5 6960   1.373   3.602   0.550 -0.1206 -0.1869 -0.7010
  464TMC3    C6 6961   1.335   3.712   0.624 -0.6688 -0.3023 -0.6190
  464TMC3     C 6962   1.702   3.527   0.672  0.4854 -0.6101 -0.5289
  464TMC3     O 6963   1.704   3.418   0.625  0.6011  0.1079 -0.5042
  464TMC3     H 6964   1.638   3.783   0.754  1.0714 -0.2252 -1.9574
  464TMC3    H1 6965   1.528   3.468   0.486 -0.0947 -1.3852  1.7464
  464TMC3    H2 6966   1.234   3.752   0.622 -0.7625 -0.5083  0.0512
  464TMC3    C7 6967   1.282   3.498   0.557  0.4395  0.1762 -0.0285
  464TMC3    C8 6968   1.390   3.895   0.776 -0.6069  0.0325  0.2357
  464TMC3    O1 6969   1.328   3.382   0.551 -0.9452 -0.7327 -0.6917
  464TMC3    O2 6970   1.290   3.950   0.731  0.5286  0.0918 -0.1027
  465MPD2     C 6971   2.323   2.563  17.105 -0.5233 -0.0610 -0.3363
  465MPD2    C1 6972   2.194   2.598  17.132  0.2435  0.0295  0.5055
  465MPD2    C2 6973   2.126   2.661  17.037 -0.8184 -0.1456 -0.1495
  465MPD2    C3 6974   2.170   2.699  16.910 -0.2028 -0.1583  0.4968
  465MPD2    C4 6975   2.299   2.663  16.886 -0.0794  0.0499 -0.2457
  465MPD2    C5 6976   2.370   2.597  16.984 -0.1242 -0.2628  0.5198
  465MPD2     H 6977   2.030   2.705  17.059 -0.2631 -0.9991  3.8948
  465MPD2    H1 6978   2.348   2.700  16.796 -0.6808  0.8715 -0.2424
  465MPD2    H2 6979   2.381   2.507  17.178  0.2551 -1.6243 -2.1514
  465MPD2    H3 6980   2.470   2.560  16.965 -0.5632 -1.3251  0.3034
  465MPD2     N 6981   2.069   2.771  16.827  0.5882 -0.1504  0.1595
  465MPD2    H5 6982   1.976   2.779  16.869  0.7071 -4.9150  1.4253
  465MPD2    N1 6983   2.131   2.551  17.249  0.9296 -0.4684  0.2543
  465MPD2    H7 6984   2.029   2.557  17.250  0.8092 -2.3391 -0.5719
  466TMC3    C1 6985   1.732   2.883  16.639  0.0786  0.1336 -0.3922
  466TMC3    C2 6986   1.732   2.986  16.552 -0.2015  0.2159  0.1335
  466TMC3    C3 6987   1.855   3.013  16.504 -0.1620  0.0295 -0.4291
  466TMC3    C4 6988   1.843   2.807  16.669  0.3179  0.3912  0.1544
  466TMC3    C5 6989   1.966   2.857  16.642  0.0920 -0.4477 -0.6613
  466TMC3    C6 6990   1.973   2.959  16.544  0.9518  0.3153  0.5684
  466TMC3     C 6991   1.598   2.848  16.691  0.0382 -0.3818 -0.4096
  466TMC3     O 6992   1.522   2.942  16.698  0.2839  0.6039 -0.9582
  466TMC3     H 6993   1.642   3.033  16.513 -1.3396 -1.6610  0.4658
  466TMC3    H1 6994   1.835   2.728  16.742 -0.9836 -0.1042 -0.5094
  466TMC3    H2 6995   2.065   3.004  16.510  0.9352  0.9498  1.3629
  466TMC3    C7 6996   2.089   2.801  16.692  0.4440  0.1189  0.0586
  466TMC3    C8 6997   1.868   3.129  16.418  0.5566 -0.6240 -0.1745
  466TMC3    O1 6998   2.194   2.801  16.627 -0.3599 -0.1222  0.3271
  466TMC3    O2 6999   1.947   3.120  16.325  0.0314  0.5361  0.0883
  467TMC3    C1 7000   2.874   1.018  13.281  0.0543 -0.1128 -0.0333
  467TMC3    C2 7001   2.798   1.107  13.205 -0.0158 -0.6571  0.2099
  467TMC3    C3 7002   2.666   1.109  13.238 -0.1743  0.0562 -0.4086
  467TMC3    C4 7003   2.829   0.966  13.399  0.5856  0.3692 -1.1620
  467TMC3    C5 7004   2.699   0.977  13.428  0.2220 -0.0789  0.4568
  467TMC3    C6 7005   2.616   1.052  13.349 -0.2588  0.0174  0.3433
  467TMC3     C 7006   3.007   0.974  13.241  0.7082  0.3894 -0.6638
  467TMC3     O 7007   3.087   0.924  13.316 -0.5295  0.0142 -0.2633
  467TMC3     H 7008   2.821   1.150  13.108 -0.2417  2.4972  1.5320
  467TMC3    H1 7009   2.901   0.912  13.459 -1.2244  1.1701  1.7295
  467TMC3    H2 7010   2.519   1.083  13.387 -0.4937  0.2827 -0.4641
  467TMC3    C7 7011   2.676   0.989  13.570 -0.0216  0.9083 -0.3830
  467TMC3    C8 7012   2.600   1.234  13.195  0.3885  0.2070  0.0982
  467TMC3    O1 7013   2.771   0.963  13.643  0.2506 -0.1108 -0.2743
  467TMC3    O2 7014   2.678   1.319  13.148  0.1299 -0.7000 -0.5789
  468MPD2     C 7015   1.452   0.216  11.402  0.5067  0.6810  0.0788
  468MPD2    C1 7016   1.573   0.200  11.342 -0.2266 -0.0610 -0.1126
  468MPD2    C2 7017   1.606   0.079  11.289 -0.1430  0.3017 -1.0203
  468MPD2    C3 7018   1.517   4.708  11.304 -0.3341 -0.3440  0.3705
  468MPD2    C4 7019   1.398   4.732  11.366  0.1667  0.3020 -0.1188
  468MPD2    C5 7020   1.368   0.112  11.419  0.1676  0.5222 -0.3785
  468MPD2     H 7021   1.706   0.069  11.247  0.5641 -1.2956  1.0600
  468MPD2    H1 7022   1.326   4.650  11.366  1.9965 -1.2929 -0.5853
  468MPD2    H2 7023   1.428   0.319  11.426  0.0871  0.7263 -0.5382
  468MPD2    H3 7024   1.266   0.124  11.455  0.5468 -0.6615  1.0932
  468MPD2     N 7025   1.534   4.580  11.239 -0.8339  0.5034 -0.2448
  468MPD2    H5 7026   1.463   4.511  11.262  0.9611 -1.3986 -0.3385
  468MPD2    N1 7027   1.661   0.313  11.339 -0.6266  0.2901 -0.1489
  468MPD2    H7 7028   1.649   0.388  11.406 -2.0804  1.2297 -1.4495
  469TMC3    C1 7029   1.855   0.419  11.342 -0.6800  0.3311 -0.0436
  469TMC3    C2 7030   1.975   0.375  11.401  0.6092 -0.0236  0.7093
  469TMC3    C3 7031   2.033   0.471  11.479  0.0206  0.4200  0.3329
  469TMC3    C4 7032   1.801   0.539  11.372 -0.0570  0.2678  0.0992
  469TMC3    C5 7033   1.867   0.628  11.443  0.9723  0.5079  0.5003
  469TMC3    C6 7034   1.982   0.590  11.505  0.2960 -0.1557  0.3059
  469TMC3     C 7035   1.781   0.318  11.275 -0.7761 -0.3642  0.0245
  469TMC3     O 7036   1.843   0.251  11.195  0.0202  0.4972 -0.1918
  469TMC3     H 7037   2.018   0.277  11.383  1.3032  0.2515  0.8815
  469TMC3    H1 7038   1.716   0.576  11.316 -0.8200 -1.1220  0.3604
  469TMC3    H2 7039   2.038   0.666  11.557  0.3281 -1.1340  1.7131
  469TMC3    C7 7040   1.825   0.773  11.433 -1.1918 -0.1257  1.0012
  469TMC3    C8 7041   2.162   0.430  11.522 -0.0589  1.0801 -0.3744
  469TMC3    O1 7042   1.794   0.814  11.323 -0.2210 -0.4781  0.2132
  469TMC3    O2 7043   2.205   0.328  11.471  0.0185 -0.2919 -0.2706
  470TMC3    C1 7044   4.157   0.162   0.787  0.0342  0.2224 -0.0367
  470TMC3    C2 7045   4.265   0.241   0.821 -0.4388  0.6675 -0.5768
  470TMC3    C3 7046   4.283   0.255   0.958  0.7547  0.7076  0.6226
  470TMC3    C4 7047   4.059   0.129   0.877 -1.3978  0.0178 -0.6984
  470TMC3    C5 7048   4.081   0.147   1.010  0.3293  0.9674  0.1468
  470TMC3    C6 7049   4.198   0.206   1.048  0.2418  0.1440 -0.1250
  470TMC3     C 7050   4.140   0.133   0.646 -0.6581  0.6620 -0.4141
  470TMC3     O 7051   4.211   0.198   0.569 -0.2974 -0.1924 -0.0141
  470TMC3     H 7052   4.337   0.276   0.747 -0.8454  2.4706 -0.1154
  470TMC3    H1 7053   3.958   0.093   0.856 -0.1875 -3.6221 -0.3642
  470TMC3    H2 7054   4.216   0.233   1.151  2.3190 -0.0557 -0.4426
  470TMC3    C7 7055   3.990   0.078   1.101  0.4491  0.0665  0.5105
  470TMC3    C8 7056   4.367   0.368   0.996  0.7418 -0.0210 -0.5867
  470TMC3    O1 7057   3.920   4.726   1.055 -0.0820 -0.2313  0.5503
  470TMC3    O2 7058   4.349   0.412   1.108 -0.2805 -0.3279 -0.0872
  471MPD2     C 7059   4.310   1.702  16.650  0.5981  0.0802 -0.4397
  471MPD2    C1 7060   4.380   1.591  16.611  0.4810  0.5422 -0.2554
  471MPD2    C2 7061   4.498   1.555  16.676 -0.0852  0.4390  0.2963
  471MPD2    C3 7062   4.546   1.631  16.779  0.2354  0.8710 -0.3038
  471MPD2    C4 7063   4.484   1.745  16.821  0.5339 -0.4532  0.4831
  471MPD2    C5 7064   4.361   1.776  16.758  0.0375 -0.2623  0.3050
  471MPD2     H 7065   4.552   1.469  16.636 -0.8710 -0.7093  1.7095
  471MPD2    H1 7066   4.518   1.809  16.901 -0.7426  0.1581  0.5268
  471MPD2    H2 7067   4.221   1.747  16.608  0.0623 -0.4117  0.1733
  471MPD2    H3 7068   4.305   1.866  16.783 -0.1409 -0.5549  0.9703
  471MPD2     N 7069   4.651   1.586  16.864 -0.7814  0.1192  0.2844
  471MPD2    H5 7070   4.672   1.642  16.946  0.3188  0.0928  0.0143
  471MPD2    N1 7071   4.347   1.514  16.505 -0.4549 -0.5434 -0.2600
  471MPD2    H7 7072   4.399   1.432  16.476 -1.9025 -1.6346  0.2201
  472TMC3    C1 7073   4.235   1.460  16.299 -0.2309 -0.1422 -0.5436
  472TMC3    C2 7074   4.108   1.448  16.252  0.6153 -0.0355 -0.9078
  472TMC3    C3 7075   4.090   1.345  16.170  1.0711 -0.0675 -0.4908
  472TMC3    C4 7076   4.341   1.368  16.278  0.0408 -0.4892 -0.8072
  472TMC3    C5 7077   4.310   1.257  16.204 -0.1215  0.2739  0.3366
  472TMC3    C6 7078   4.183   1.244  16.151  0.4515 -0.2867  0.8042
  472TMC3     C 7079   4.251   1.547  16.411  0.1743  0.0979  0.2708
  472TMC3     O 7080   4.166   1.634  16.423  0.1950  0.3371  0.8960
  472TMC3     H 7081   4.023   1.511  16.276  1.4443  0.0522  1.8270
  472TMC3    H1 7082   4.445   1.386  16.303 -0.6526 -1.0864  2.5192
  472TMC3    H2 7083   4.157   1.158  16.092  0.7711  1.7072 -2.2284
  472TMC3    C7 7084   4.373   1.131  16.209 -0.4626 -0.0782 -0.1330
  472TMC3    C8 7085   3.952   1.305  16.143 -0.2943 -0.2982  0.2132
  472TMC3    O1 7086   4.426   1.099  16.316 -0.3407  0.7255  0.2214
  472TMC3    O2 7087   3.881   1.400  16.119 -0.0066 -0.5723  0.4062
  473MPD2     C 7088   4.109   3.573  14.156 -0.3347 -0.0547  0.9601
  473MPD2    C1 7089   4.111   3.676  14.060  0.0956  0.9212  0.5117
  473MPD2    C2 7090   4.187   3.787  14.088  0.3067  0.1355  0.2474
  473MPD2    C3 7091   4.272   3.793  14.199 -0.5359 -0.7868  0.3957
  473MPD2    C4 7092   4.261   3.684  14.288  0.8799 -0.3362 -0.5189
  473MPD2    C5 7093   4.180   3.579  14.267 -0.4715  1.5233  0.8579
  473MPD2     H 7094   4.185   3.865  14.013  0.2739 -0.2198 -0.1186
  473MPD2    H1 7095   4.308   3.686  14.385 -0.8425  1.2519  0.2849
  473MPD2    H2 7096   4.055   3.481  14.138 -1.4917  0.2656  2.7861
  473MPD2    H3 7097   4.172   3.501  14.342 -0.4002 -0.7787 -1.5377
  473MPD2     N 7098   4.376   3.890  14.219 -0.4105 -0.6219  0.1281
  473MPD2    H5 7099   4.431   3.866  14.300 -2.4832  0.7648  1.9520
  473MPD2    N1 7100   4.028   3.668  13.943 -0.1396 -0.6784 -0.1553
  473MPD2    H7 7101   4.032   3.741  13.872  0.2321 -0.3508  0.2035
  474TMC3    C1 7102   4.484   4.095  14.209 -0.3970  0.1272 -0.0777
  474TMC3    C2 7103   4.508   4.208  14.142  0.2633 -0.7201 -0.4224
  474TMC3    C3 7104   4.535   4.318  14.216  0.0302 -0.5921  0.0653
  474TMC3    C4 7105   4.509   4.079  14.346 -0.2344  0.0607  0.2878
  474TMC3    C5 7106   4.559   4.184  14.420  0.0230 -0.6308 -0.4764
  474TMC3    C6 7107   4.556   4.311  14.350  0.8193 -0.3049  0.3296
  474TMC3     C 7108   4.404   3.995  14.146 -0.3417 -0.4644  0.6005
  474TMC3     O 7109   4.362   4.029  14.033  0.2000  0.0714 -0.2454
  474TMC3     H 7110   4.494   4.216  14.035 -0.8183  0.6294 -0.1821
  474TMC3    H1 7111   4.483   3.995  14.408 -0.9245  0.6200  0.7530
  474TMC3    H2 7112   4.559   4.405  14.404  1.7500 -0.2648  0.2033
  474TMC3    C7 7113   4.513   4.194  14.554 -0.0598  0.7320  0.0165
  474TMC3    C8 7114   4.544   4.443  14.150 -0.0653  0.2038  0.3006
  474TMC3    O1 7115   4.440   4.104  14.593  0.1210  0.2652 -0.0215
  474TMC3    O2 7116   4.625   4.524  14.199  0.5096 -0.2399 -0.0348
  475MPD2     C 7117   2.507   2.521  10.920  0.0488  0.4518 -0.2348
  475MPD2    C1 7118   2.454   2.619  10.996 -0.7239 -0.2142 -1.0677
  475MPD2    C2 7119   2.319   2.626  11.009 -0.0537 -0.3912 -1.0118
  475MPD2    C3 7120   2.234   2.538  10.938  0.2093  0.3475 -0.1356
  475MPD2    C4 7121   2.284   2.437  10.862 -0.3818 -0.7142 -1.2653
  475MPD2    C5 7122   2.420   2.428  10.851  0.2999  0.3888  0.1927
  475MPD2     H 7123   2.280   2.703  11.075 -0.9159  0.2255 -2.2620
  475MPD2    H1 7124   2.232   2.371  10.794  0.3662 -1.6028 -0.9786
  475MPD2    H2 7125   2.612   2.494  10.920  0.0189  0.3293 -0.0439
  475MPD2    H3 7126   2.468   2.351  10.791 -2.9964 -0.7606 -0.9185
  475MPD2     N 7127   2.098   2.579  10.925  0.8053  0.3489 -1.1491
  475MPD2    H5 7128   2.062   2.663  10.968  0.2389 -0.1381 -0.6621
  475MPD2    N1 7129   2.537   2.709  11.068 -0.1707 -0.4376  0.5225
  475MPD2    H7 7130   2.490   2.768  11.135 -0.3642  0.6827 -0.5981
  476TMC3    C1 7131   2.730   2.844  11.103  0.7450 -0.2302 -0.0626
  476TMC3    C2 7132   2.818   2.922  11.031  0.4622  0.5292 -0.0580
  476TMC3    C3 7133   2.872   3.031  11.094  0.2206  0.8014 -0.1003
  476TMC3    C4 7134   2.698   2.880  11.233  0.1237 -0.0154 -0.2702
  476TMC3    C5 7135   2.749   2.996  11.285  0.1680  0.2101  0.1500
  476TMC3    C6 7136   2.841   3.075  11.221 -0.2282 -0.3314 -0.1268
  476TMC3     C 7137   2.664   2.742  11.024  0.2162  0.3120  0.3853
  476TMC3     O 7138   2.715   2.696  10.923 -0.3354  0.4222  0.2705
  476TMC3     H 7139   2.868   2.882  10.944  0.3929  2.8896 -1.1698
  476TMC3    H1 7140   2.625   2.816  11.282 -0.4616  0.5478 -0.4056
  476TMC3    H2 7141   2.896   3.154  11.269 -2.5061  0.9224  0.4044
  476TMC3    C7 7142   2.669   3.057  11.388 -0.2899  0.3754 -0.2157
  476TMC3    C8 7143   2.962   3.117  11.018 -0.0252  0.1854 -0.2246
  476TMC3    O1 7144   2.583   2.990  11.441 -0.0423 -0.0541 -0.0135
  476TMC3    O2 7145   3.050   3.181  11.073 -0.3312 -0.2437 -0.4377
  477MPD2     C 7146   0.425   3.922  11.603  0.6419  0.1858 -0.0797
  477MPD2    C1 7147   0.300   3.868  11.599 -0.1778 -0.0022  0.0506
  477MPD2    C2 7148   0.265   3.770  11.688  0.3168  0.2323 -0.3278
  477MPD2    C3 7149   0.353   3.732  11.784 -0.2293 -0.3651  0.0161
  477MPD2    C4 7150   0.477   3.797  11.803  0.4540 -0.4343  0.4543
  477MPD2    C5 7151   0.511   3.889  11.700  0.6355 -0.2244 -0.0041
  477MPD2     H 7152   0.174   3.714  11.669 -0.4420  1.2000  0.4423
  477MPD2    H1 7153   0.552   3.759  11.871  0.4849  0.9778  1.2023
  477MPD2    H2 7154   0.443   4.010  11.542 -0.0911  0.8601  0.6789
  477MPD2    H3 7155   0.606   3.940  11.693  0.0455  0.7770 -0.7142
  477MPD2     N 7156   0.320   3.617  11.857 -0.6748  0.2944  0.3086
  477MPD2    H5 7157   0.240   3.566  11.819  1.5223 -1.3133 -2.1162
  477MPD2    N1 7158   0.216   3.918  11.508  0.8060  0.7456 -0.0262
  477MPD2    H7 7159   0.254   3.980  11.437  0.0454  0.4815 -0.6642
  478TMC3    C1 7160   0.016   3.945  11.384 -0.1955  0.1704 -0.4956
  478TMC3    C2 7161   4.640   4.021  11.403  0.1891 -0.8420 -0.0550
  478TMC3    C3 7162   4.605   4.114  11.307  0.4358 -0.1869  0.5502
  478TMC3    C4 7163   0.095   3.967  11.271 -0.0570 -0.2035 -0.2048
  478TMC3    C5 7164   0.060   4.075  11.188 -0.3178  0.1237  0.0397
  478TMC3    C6 7165   4.687   4.149  11.205  0.1173  0.1229 -0.3460
  478TMC3     C 7166   0.079   3.906  11.511  1.1830  0.3870  0.3190
  478TMC3     O 7167   0.008   3.873  11.607  0.1502  0.3802  0.2126
  478TMC3     H 7168   4.582   4.004  11.493  2.2992 -1.4811  1.1840
  478TMC3    H1 7169   0.178   3.901  11.250  2.2107  1.9324  2.0908
  478TMC3    H2 7170   4.671   4.233  11.138  2.1998  0.0823 -0.8872
  478TMC3    C7 7171   0.154   4.124  11.088  0.3140 -0.1786  0.2098
  478TMC3    C8 7172   4.523   4.226  11.354  0.0742 -0.3230 -0.0597
  478TMC3    O1 7173   0.273   4.099  11.097 -0.1476  0.0076 -0.1344
  478TMC3    O2 7174   4.560   4.343  11.341  0.1424  0.0989  0.3541
  479MPD2     C 7175   3.461   0.214  15.043 -0.3124  0.2254  0.0087
  479MPD2    C1 7176   3.463   0.283  14.927 -0.0835  0.3609 -0.1605
  479MPD2    C2 7177   3.545   0.392  14.904 -0.1997  0.3248  0.1093
  479MPD2    C3 7178   3.614   0.446  15.010 -0.3123  0.6553 -0.2676
  479MPD2    C4 7179   3.631   0.375  15.123  0.3682 -0.2035 -0.4779
  479MPD2    C5 7180   3.550   0.259  15.137 -0.2719 -0.2241  0.0328
  479MPD2     H 7181   3.544   0.428  14.801 -0.2796  1.0408  0.3632
  479MPD2    H1 7182   3.695   0.396  15.207 -2.4688  0.1110  1.6303
  479MPD2    H2 7183   3.391   0.132  15.051  3.2593 -2.9871 -1.8498
  479MPD2    H3 7184   3.553   0.208  15.233 -0.1536  1.4622  0.9229
  479MPD2     N 7185   3.693   0.565  15.007  0.3157 -0.2187  0.4361
  479MPD2    H5 7186   3.736   0.597  15.093 -2.1239 -0.7230  1.8493
  479MPD2    N1 7187   3.377   0.233  14.825 -0.4533  0.1764 -0.2315
  479MPD2    H7 7188   3.326   0.146  14.839 -1.9262  0.6867 -2.4673
  480TMC3    C1 7189   3.901   0.916  15.064 -0.3705 -0.5559  0.1036
  480TMC3    C2 7190   3.960   0.982  14.960  0.3368 -0.5572 -0.2980
  480TMC3    C3 7191   3.939   0.935  14.831  0.0963  0.1363 -0.0879
  480TMC3    C4 7192   3.816   0.816  15.039 -0.3579  0.1619 -0.1912
  480TMC3    C5 7193   3.802   0.762  14.918  0.0794 -0.1872 -0.2848
  480TMC3    C6 7194   3.852   0.829  14.811  0.3117  0.4474  0.0077
  480TMC3     C 7195   3.924   0.949  15.206  0.3889  0.4966 -0.3725
  480TMC3     O 7196   3.911   0.859  15.285  0.2941 -0.4051  0.4020
  480TMC3     H 7197   4.024   1.068  14.969 -1.1902  0.7174 -1.6053
  480TMC3    H1 7198   3.754   0.775  15.118 -0.1901  0.4926  0.1165
  480TMC3    H2 7199   3.829   0.793  14.711  0.5545  1.4039 -0.3943
  480TMC3    C7 7200   3.712   0.644  14.895  0.2896 -0.1738 -0.2291
  480TMC3    C8 7201   3.966   1.024  14.714 -0.0921 -0.4501 -0.3721
  480TMC3    O1 7202   3.683   0.615  14.781  0.3658  0.5194  0.0836
  480TMC3    O2 7203   3.999   1.143  14.730  0.0582 -0.1978  0.5674
  481MPD2     C 7204   1.019   0.618  13.922  0.3507  0.3459 -0.5199
  481MPD2    C1 7205   0.963   0.495  13.951 -0.1329 -0.5402  0.2289
  481MPD2    C2 7206   0.966   0.453  14.082 -0.2090  0.8928 -0.5758
  481MPD2    C3 7207   1.026   0.530  14.178  0.4392  0.2745 -0.0575
  481MPD2    C4 7208   1.081   0.653  14.151  0.1107  0.0874  0.0188
  481MPD2    C5 7209   1.072   0.692  14.023 -0.7267  0.3425  0.7269
  481MPD2     H 7210   0.927   0.355  14.106 -0.0756  1.6708  2.7709
  481MPD2    H1 7211   1.129   0.716  14.225 -1.0288  0.8192  0.1290
  481MPD2    H2 7212   1.006   0.673  13.829  0.6499  1.7340  0.2589
  481MPD2    H3 7213   1.103   0.794  13.998  0.7553  0.0161  1.2195
  481MPD2     N 7214   1.038   0.486  14.306 -0.5263 -0.4822  0.2301
  481MPD2    H5 7215   1.106   0.533  14.365 -0.8526 -0.1944  0.3736
  481MPD2    N1 7216   0.896   0.428  13.849  0.0463 -0.1275  0.4900
  481MPD2    H7 7217   0.872   0.479  13.766 -3.6726  0.0250  1.6785
  482TMC3    C1 7218   0.773   0.261  13.729 -0.0923 -0.1040 -0.3878
  482TMC3    C2 7219   0.686   0.155  13.744  0.1206 -0.5504 -0.0448
  482TMC3    C3 7220   0.567   0.155  13.685 -0.1136 -0.4548 -0.0297
  482TMC3    C4 7221   0.738   0.362  13.647  0.2297 -0.6618 -0.5718
  482TMC3    C5 7222   0.622   0.355  13.576  0.0843 -0.5293  0.4544
  482TMC3    C6 7223   0.524   0.253  13.597 -0.1591 -0.6955  0.4073
  482TMC3     C 7224   0.853   0.297  13.849  0.7474  0.1100  0.5427
  482TMC3     O 7225   0.862   0.217  13.939 -0.4687  0.1580 -0.0382
  482TMC3     H 7226   0.706   0.083  13.823 -1.7062  0.0910  0.9960
  482TMC3    H1 7227   0.817   0.431  13.618  0.6852 -0.4634  1.1370
  482TMC3    H2 7228   0.430   0.252  13.543  0.9258  0.0829 -1.5017
  482TMC3    C7 7229   0.563   0.484  13.535  0.0271  0.0692  0.4275
  482TMC3    C8 7230   0.479   0.046  13.718 -0.0460 -0.5054 -0.2935
  482TMC3    O1 7231   0.624   0.581  13.578  0.0346  0.3297 -0.1463
  482TMC3    O2 7232   0.523   4.670  13.731 -0.4211  0.1228  0.0331
  483TMC3    C1 7233   4.150   4.531   1.366  1.3365  0.5393  0.0714
  483TMC3    C2 7234   4.248   4.500   1.275  0.0189  0.2427  0.2201
  483TMC3    C3 7235   4.357   4.590   1.265  0.1561 -0.5577 -0.7759
  483TMC3    C4 7236   4.165   4.627   1.456 -0.6730 -0.3407 -0.5172
  483TMC3    C5 7237   4.282   4.704   1.452  0.1825 -0.2747  0.1055
  483TMC3    C6 7238   4.375   4.687   1.360 -0.2361 -0.0492 -0.7045
  483TMC3     C 7239   4.070   4.421   1.419 -0.5131 -0.0968  0.1907
  483TMC3     O 7240   4.005   4.436   1.515  0.5432 -0.5107  0.1330
  483TMC3     H 7241   4.234   4.420   1.202  0.8684 -1.3671  1.8165
  483TMC3    H1 7242   4.093   4.640   1.536  0.5569  0.0376  0.5343
  483TMC3    H2 7243   4.449   0.025   1.339 -1.3467  1.2133 -0.0883
  483TMC3    C7 7244   4.314   0.064   1.555  0.9814  0.0610 -0.4317
  483TMC3    C8 7245   4.398   4.626   1.126  0.5079  0.1336 -0.7083
  483TMC3    O1 7246   4.360   0.174   1.515 -0.2216  0.4541 -0.3270
  483TMC3    O2 7247   4.327   4.593   1.028  0.0076 -0.1140  0.6696
  484MPD2     C 7248   0.606   2.342  12.406 -0.4542  0.0009 -0.2737
  484MPD2    C1 7249   0.689   2.269  12.484 -0.0445  0.6995 -0.1551
  484MPD2    C2 7250   0.828   2.258  12.451  0.1923 -0.2112  0.0268
  484MPD2    C3 7251   0.881   2.320  12.339  0.8134  0.0500  0.5869
  484MPD2    C4 7252   0.792   2.392  12.268 -0.0650 -0.0672  0.2095
  484MPD2    C5 7253   0.662   2.403  12.300 -0.1478 -0.7645  0.0458
  484MPD2     H 7254   0.884   2.191  12.516  2.5048 -0.3308 -2.0668
  484MPD2    H1 7255   0.825   2.446  12.181  1.1829  0.8464  1.2610
  484MPD2    H2 7256   0.499   2.352  12.425  0.1643  2.5977  1.7763
  484MPD2    H3 7257   0.589   2.465  12.249 -0.6878 -1.7913 -0.4185
  484MPD2     N 7258   1.014   2.317  12.290 -0.6915  0.1565 -0.3281
  484MPD2    H5 7259   1.031   2.369  12.205  1.3809 -0.5147 -0.3351
  484MPD2    N1 7260   0.617   2.198  12.583 -0.0478 -0.3265 -0.2156
  484MPD2    H7 7261   0.516   2.195  12.575 -0.1254 -1.6391  1.2461
  485TMC3    C1 7262   1.244   2.294  12.269 -0.9241  0.2188  0.6145
  485TMC3    C2 7263   1.359   2.227  12.312  0.3081 -0.1838 -0.1264
  485TMC3    C3 7264   1.464   2.220  12.225  0.0484  1.0697 -0.0334
  485TMC3    C4 7265   1.251   2.383  12.157 -0.8753  0.7673 -0.2760
  485TMC3    C5 7266   1.361   2.380  12.078  0.2246  0.2422  0.0929
  485TMC3    C6 7267   1.458   2.294  12.110 -0.2176  0.0176  0.3400
  485TMC3     C 7268   1.123   2.266  12.348  0.1298  0.5115 -0.3437
  485TMC3     O 7269   1.133   2.198  12.448  0.1420 -0.3852 -0.0347
  485TMC3     H 7270   1.361   2.168  12.403 -1.9767 -0.9604 -0.5821
  485TMC3    H1 7271   1.167   2.443  12.123 -2.9460 -0.7386  2.2288
  485TMC3    H2 7272   1.538   2.294  12.037 -0.4972 -2.1262  0.0342
  485TMC3    C7 7273   1.415   2.509  12.034 -0.3534  0.5090 -0.5345
  485TMC3    C8 7274   1.594   2.229  12.292 -1.1276  0.1072  0.4408
  485TMC3    O1 7275   1.537   2.512  12.046  0.2062 -0.2305  0.5102
  485TMC3    O2 7276   1.628   2.146  12.371  0.2036  0.3840  0.8028
  486MPD2     C 7277   3.077   0.582  12.668  0.2925 -0.2512  0.3040
  486MPD2    C1 7278   2.949   0.612  12.702 -0.1997  0.2687  0.4697
  486MPD2    C2 7279   2.900   0.737  12.665  0.3737  0.5027  0.1678
  486MPD2    C3 7280   2.978   0.836  12.606  0.1082 -0.1209  0.4458
  486MPD2    C4 7281   3.109   0.798  12.580 -0.3086  0.2062  1.3158
  486MPD2    C5 7282   3.156   0.673  12.603 -0.0234  0.2764  0.0735
  486MPD2     H 7283   2.795   0.756  12.686  0.0090  1.1001 -2.1670
  486MPD2    H1 7284   3.166   0.875  12.529 -0.1634 -1.3831 -0.9314
  486MPD2    H2 7285   3.113   0.481  12.687  0.5373 -0.1691  0.2813
  486MPD2    H3 7286   3.247   0.640  12.554 -0.4434  1.0673 -1.2623
  486MPD2     N 7287   2.929   0.960  12.555  0.2932  0.0288 -0.0239
  486MPD2    H5 7288   2.992   1.011  12.493 -0.2914  0.3429 -0.3575
  486MPD2    N1 7289   2.864   0.517  12.766  0.4927 -0.9372 -0.2103
  486MPD2    H7 7290   2.912   0.431  12.790 -0.8604 -1.1169  1.8496
  487TMC3    C1 7291   2.672   0.416  12.872  0.1924 -0.2774 -0.0459
  487TMC3    C2 7292   2.536   0.398  12.888 -0.8209  0.7972 -0.1302
  487TMC3    C3 7293   2.489   0.290  12.951  0.1785  0.0623 -0.1975
  487TMC3    C4 7294   2.757   0.339  12.950 -0.5531  0.3822 -0.8172
  487TMC3    C5 7295   2.704   0.245  13.035  0.4295 -0.6238  0.4891
  487TMC3    C6 7296   2.574   0.206  13.019  0.2732 -0.2529  0.7150
  487TMC3     C 7297   2.721   0.519  12.775  0.1043  0.6480  0.0445
  487TMC3     O 7298   2.639   0.594  12.720  0.2205 -0.2403  0.6657
  487TMC3     H 7299   2.471   0.475  12.849  0.3671  1.9666  0.2106
  487TMC3    H1 7300   2.858   0.375  12.964  0.0826 -0.6621 -2.7875
  487TMC3    H2 7301   2.534   0.133  13.089  0.6737  1.0830  2.3347
  487TMC3    C7 7302   2.753   0.259  13.171 -0.0972 -0.2480 -0.0876
  487TMC3    C8 7303   2.374   0.317  13.028 -0.7767 -0.0117  0.6884
  487TMC3    O1 7304   2.871   0.248  13.190  0.0115 -0.6256 -1.0249
  487TMC3    O2 7305   2.396   0.303  13.148 -0.3764  0.4426  0.1676
  488MPD2     C 7306   3.560   2.828  16.369 -0.3146 -0.2312  0.1250
  488MPD2    C1 7307   3.628   2.935  16.428  0.5277  0.0831 -0.1756
  488MPD2    C2 7308   3.630   2.941  16.568  0.8616 -0.1032 -0.6832
  488MPD2    C3 7309   3.562   2.850  16.648 -0.0669 -0.8682  0.1756
  488MPD2    C4 7310   3.494   2.745  16.587  0.2194 -0.0370  0.3122
  488MPD2    C5 7311   3.490   2.738  16.449  1.0558 -0.0476  0.4990
  488MPD2     H 7312   3.680   3.021  16.622  1.7257  0.1909 -1.9238
  488MPD2    H1 7313   3.438   2.665  16.634 -1.2623  0.0573 -1.3045
  488MPD2    H2 7314   3.544   2.812  16.263 -1.7272 -2.2071  0.6415
  488MPD2    H3 7315   3.456   2.649  16.397 -2.1525  0.3081  2.0265
  488MPD2     N 7316   3.567   2.873  16.785 -0.2834  0.2570 -0.3261
  488MPD2    H5 7317   3.640   2.936  16.816 -0.0956  1.0720 -2.4497
  488MPD2    N1 7318   3.686   3.044  16.358  0.4712  0.0910  0.1042
  488MPD2    H7 7319   3.749   3.107  16.407  0.2823  1.0501 -0.8850
  489TMC3    C1 7320   3.497   2.899  16.997 -0.3870 -0.1857  0.4311
  489TMC3    C2 7321   3.555   3.024  17.006 -0.6027  0.3326 -0.4271
  489TMC3    C3 7322   3.546   3.088  17.124 -0.6626 -0.5211  0.2727
  489TMC3    C4 7323   3.459   2.829  17.103  0.7283  0.2639 -0.4478
  489TMC3    C5 7324   3.459   2.894  17.222 -0.5692 -0.1741 -0.2323
  489TMC3    C6 7325   3.483   3.031  17.232 -1.0384  0.0292  0.1708
  489TMC3     C 7326   3.472   2.835  16.872  0.0265 -0.0145 -0.6987
  489TMC3     O 7327   3.393   2.743  16.873 -0.5728 -0.1047 -0.2535
  489TMC3     H 7328   3.578   3.087  16.920  1.7018  0.0261 -0.0290
  489TMC3    H1 7329   3.428   2.725  17.098  1.7909  0.0727 -2.9074
  489TMC3    H2 7330   3.457   3.077  17.327  1.3842  1.8322 -0.0696
  489TMC3    C7 7331   3.413   2.831  17.349  0.3199 -0.6886  0.2202
  489TMC3    C8 7332   3.620   3.209  17.142  0.2467 -0.3332  0.3738
  489TMC3    O1 7333   3.374   2.907  17.437 -0.5725 -0.6113  0.4477
  489TMC3    O2 7334   3.681   3.235  17.043  0.1507  0.5048 -0.3943
  490MPD2     C 7335   4.243   2.488  17.716 -0.9856  0.1811 -0.0673
  490MPD2    C1 7336   4.289   2.377  17.647 -0.2537  0.4554  0.5365
  490MPD2    C2 7337   4.417   2.366  17.606  0.2872  0.2875 -0.0153
  490MPD2    C3 7338   4.511   2.474  17.632 -0.2576 -0.6122 -0.0966
  490MPD2    C4 7339   4.467   2.583  17.700 -0.2047  0.5916  0.2379
  490MPD2    C5 7340   4.334   2.587  17.736  0.0242  0.3169  0.5903
  490MPD2     H 7341   4.449   2.281  17.547  1.1524  1.3290 -1.0420
  490MPD2    H1 7342   4.534   2.668  17.715  0.3541  0.0691  0.6848
  490MPD2    H2 7343   4.142   2.505   0.005 -0.3071 -2.5903  3.0616
  490MPD2    H3 7344   4.290   2.675   0.033  1.1922  0.9776  0.4493
  490MPD2     N 7345   4.648   2.458  17.613  0.6061 -0.3211  0.1919
  490MPD2    H5 7346   4.715   2.530  17.637 -0.8412  1.6714 -1.7571
  490MPD2    N1 7347   4.212   2.268  17.619  0.1384  0.2729 -0.4513
  490MPD2    H7 7348   4.250   2.202  17.553 -1.1317  0.1001 -1.0197
  491TMC3    C1 7349   4.043   2.119  17.654 -0.2953 -0.5572 -0.8161
  491TMC3    C2 7350   4.039   2.021  17.746 -0.2841  0.5089 -0.1071
  491TMC3    C3 7351   4.013   1.897  17.698 -1.1724  0.1095  0.5425
  491TMC3    C4 7352   4.020   2.098  17.522  0.1631  0.1211  0.4085
  491TMC3    C5 7353   3.981   1.975  17.480  0.5367 -0.1943 -0.0591
  491TMC3    C6 7354   3.972   1.874  17.567 -0.1841 -0.1801  0.2470
  491TMC3     C 7355   4.100   2.242  17.691 -0.4141  0.6037 -0.2790
  491TMC3     O 7356   4.078   2.274   0.060 -0.1506  0.8765 -0.0728
  491TMC3     H 7357   4.075   2.030   0.100 -0.4001  1.4786 -0.1526
  491TMC3    H1 7358   4.022   2.182  17.453 -2.2177 -0.2717 -0.1194
  491TMC3    H2 7359   3.936   1.775  17.541  0.5691 -0.2544 -0.4929
  491TMC3    C7 7360   3.937   1.944  17.345  0.1401 -0.0039 -0.6531
  491TMC3    C8 7361   4.066   1.773   0.017  0.1256 -0.1135 -0.2100
  491TMC3    O1 7362   3.909   1.826  17.322  0.3123 -0.0451  0.4732
  491TMC3    O2 7363   4.063   1.762   0.138 -0.1214  0.3372  0.2948
  492MPD2     C 7364   4.376   2.419  11.611  0.0806 -0.1121 -0.1009
  492MPD2    C1 7365   4.293   2.358  11.517  0.0245 -0.2166  0.5831
  492MPD2    C2 7366   4.234   2.232  11.547  0.0291  0.0649 -0.0042
  492MPD2    C3 7367   4.266   2.176  11.671  0.3143 -0.9320  0.0543
  492MPD2    C4 7368   4.352   2.241  11.758 -0.3230  0.3104 -0.2398
  492MPD2    C5 7369   4.403   2.362  11.731  0.0102 -0.4396  0.1363
  492MPD2     H 7370   4.169   2.183  11.475  1.6117 -1.9514 -0.0780
  492MPD2    H1 7371   4.376   2.198  11.855 -1.2832 -0.5700 -0.3926
  492MPD2    H2 7372   4.432   2.510  11.591  0.8650 -0.1561  1.8321
  492MPD2    H3 7373   4.473   2.408  11.799 -1.6055 -0.1749  1.6204
  492MPD2     N 7374   4.218   2.048  11.708 -0.2319  0.0005 -0.1053
  492MPD2    H5 7375   4.245   2.022  11.803 -1.1710 -0.7655 -0.0493
  492MPD2    N1 7376   4.296   2.413  11.389  0.2064 -0.1206  0.2700
  492MPD2    H7 7377   4.352   2.497  11.386 -0.3864  0.3435  1.8565
  493TMC3    C1 7378   4.249   2.457  11.160  0.7025 -0.0646  0.3114
  493TMC3    C2 7379   4.353   2.547  11.151  0.5736 -0.4761 -0.3686
  493TMC3    C3 7380   4.378   2.614  11.038 -0.1849 -0.3770  0.3350
  493TMC3    C4 7381   4.169   2.436  11.048 -0.2519 -0.1620 -0.0981
  493TMC3    C5 7382   4.192   2.516  10.942  0.4359 -0.5015 -0.5967
  493TMC3    C6 7383   4.284   2.620  10.936  0.5751  0.6453 -0.3087
  493TMC3     C 7384   4.235   2.368  11.276  0.1647 -0.3384 -0.7183
  493TMC3     O 7385   4.142   2.291  11.257  0.0206  0.6254 -0.3086
  493TMC3     H 7386   4.430   2.548  11.227  1.0651 -1.8250 -0.8514
  493TMC3    H1 7387   4.088   2.364  11.053 -0.5191  0.1219 -0.3289
  493TMC3    H2 7388   4.274   2.697  10.860 -0.2423  1.1378  0.2985
  493TMC3    C7 7389   4.085   2.518  10.841 -0.1000  0.2088  0.7275
  493TMC3    C8 7390   4.454   2.741  11.078  0.0545 -0.7876 -0.3321
  493TMC3    O1 7391   4.059   2.630  10.803  0.0887 -0.4108 -0.2277
  493TMC3    O2 7392   4.469   2.761  11.194 -0.4494  0.2398 -0.3301
  494TMC3    C1 7393   0.673   4.141   0.257  0.4548  0.2580 -0.0855
  494TMC3    C2 7394   0.732   4.015   0.270  0.6113  0.2885  0.4196
  494TMC3    C3 7395   0.730   3.937   0.159  0.3815  0.2478  0.3570
  494TMC3    C4 7396   0.613   4.185   0.147  0.4974  0.1068  0.3310
  494TMC3    C5 7397   0.622   4.103   0.037  0.2602  0.6411  0.3286
  494TMC3    C6 7398   0.668   3.980   0.041  0.0715  0.3613  0.1655
  494TMC3     C 7399   0.656   4.205   0.382 -0.1057  0.6225 -0.3865
  494TMC3     O 7400   0.750   4.195   0.460 -0.2676 -0.5174  0.0101
  494TMC3     H 7401   0.775   3.971   0.359  0.0569 -1.3452 -0.1109
  494TMC3    H1 7402   0.577   4.287   0.152 -1.1122 -0.5877  3.2085
  494TMC3    H2 7403   0.683   3.928  17.694  0.1179 -0.3907  0.5899
  494TMC3    C7 7404   0.566   4.147  17.661  0.1442  0.2099  0.1875
  494TMC3    C8 7405   0.796   3.815   0.162  0.1339 -0.2220 -0.0574
  494TMC3    O1 7406   0.558   4.067  17.573  0.3330 -0.5443 -0.0210
  494TMC3    O2 7407   0.890   3.809   0.237  0.4123 -0.0898 -0.1136
  495TMC3    C1 7408   3.902   0.443  13.916 -0.3233 -0.1869 -0.1648
  495TMC3    C2 7409   3.776   0.452  13.869 -0.3870  0.0053  0.0477
  495TMC3    C3 7410   3.701   0.557  13.910  0.2606  0.4462 -0.9708
  495TMC3    C4 7411   3.952   0.530  14.010  0.0945  0.1053  0.3944
  495TMC3    C5 7412   3.877   0.645  14.040  0.0039 -0.8878  0.2596
  495TMC3    C6 7413   3.751   0.654  13.995 -0.0225  0.5050  0.0507
  495TMC3     C 7414   3.950   0.309  13.952  0.2389 -0.1677  0.2441
  495TMC3     O 7415   3.986   0.297  14.071 -0.2451  0.2613 -0.0770
  495TMC3     H 7416   3.736   0.365  13.817 -0.4331 -0.4589  0.8609
  495TMC3    H1 7417   4.057   0.524  14.035  0.0095 -3.4160 -0.0699
  495TMC3    H2 7418   3.697   0.746  14.015  0.9518  1.2804 -0.9100
  495TMC3    C7 7419   3.939   0.732  14.142 -0.2761 -0.1487  0.7109
  495TMC3    C8 7420   3.566   0.574  13.882  0.6723 -0.1084  0.6101
  495TMC3    O1 7421   4.025   0.683  14.213 -0.2243  0.1185  1.2530
  495TMC3    O2 7422   3.510   0.666  13.938  0.3505  0.5358 -0.7167
  496MPD2     C 7423   1.229   1.294  15.133  0.2362 -0.1061 -0.0044
  496MPD2    C1 7424   1.265   1.169  15.179  0.0603 -0.1289 -0.6366
  496MPD2    C2 7425   1.175   1.116  15.264 -0.1679 -0.5996 -0.0715
  496MPD2    C3 7426   1.047   1.157  15.280 -0.1492 -0.0811  0.6122
  496MPD2    C4 7427   1.008   1.277  15.218  0.4174 -0.8685  0.1689
  496MPD2    C5 7428   1.101   1.347  15.146 -0.1916  0.0954 -0.2859
  496MPD2     H 7429   1.202   1.024  15.315 -0.4694 -0.2038  0.8106
  496MPD2    H1 7430   0.906   1.315  15.214  0.5961 -0.4803 -0.6593
  496MPD2    H2 7431   1.301   1.342  15.068 -1.0970 -0.2691 -1.6066
  496MPD2    H3 7432   1.066   1.441  15.106 -2.7074  0.6098  3.1093
  496MPD2     N 7433   0.955   1.081  15.366 -0.0227 -0.1054 -0.2464
  496MPD2    H5 7434   0.979   1.009  15.433  0.9010 -0.2813 -0.7810
  496MPD2    N1 7435   1.387   1.125  15.141 -0.3090 -0.9637  0.0944
  496MPD2    H7 7436   1.437   1.182  15.074 -2.6928 -1.6337 -2.2506
  497TMC3    C1 7437   0.761   1.043  15.488  0.2934  0.4875  0.0126
  497TMC3    C2 7438   0.635   0.988  15.468 -0.2912 -0.1937 -0.7694
  497TMC3    C3 7439   0.565   0.940  15.571 -0.8356  0.1278 -0.4481
  497TMC3    C4 7440   0.822   1.047  15.607  0.7154 -0.3182 -0.1611
  497TMC3    C5 7441   0.750   0.993  15.706  0.3473  0.5488  0.2755
  497TMC3    C6 7442   0.619   0.947  15.691 -0.5627 -0.2620 -0.1661
  497TMC3     C 7443   0.819   1.100  15.369 -0.1824 -0.3578  0.1517
  497TMC3     O 7444   0.744   1.129  15.281  0.2755  0.2198 -0.0119
  497TMC3     H 7445   0.603   0.987  15.365  0.0775  0.9161 -0.8984
  497TMC3    H1 7446   0.918   1.097  15.609  0.7890 -0.3979 -1.8537
  497TMC3    H2 7447   0.565   0.919  15.780  0.8077  1.2442  1.1325
  497TMC3    C7 7448   0.812   0.962  15.834  0.1886 -0.3426  0.5931
  497TMC3    C8 7449   0.423   0.939  15.548 -0.6540 -0.4091 -0.4905
  497TMC3    O1 7450   0.738   0.931  15.932  0.2877  0.0254 -0.0831
  497TMC3    O2 7451   0.380   0.922  15.430  0.0488  0.3013 -0.2497
  498MPD2     C 7452   1.037   3.165   9.747 -0.8186  0.0098  0.1797
  498MPD2    C1 7453   1.080   3.110   9.859 -0.7428 -0.0047  0.1048
  498MPD2    C2 7454   0.994   3.031   9.930  0.5427 -0.0458 -0.4633
  498MPD2    C3 7455   0.872   3.007   9.883  0.3627 -0.2278 -0.8670
  498MPD2    C4 7456   0.832   3.055   9.761 -0.7346 -0.2639 -0.3591
  498MPD2    C5 7457   0.915   3.135   9.691  0.5860 -0.1592 -0.0647
  498MPD2     H 7458   1.024   2.996  10.028 -1.1370  0.7987  0.3405
  498MPD2    H1 7459   0.733   3.041   9.721  0.0378 -0.4595 -2.1851
  498MPD2    H2 7460   1.102   3.228   9.687 -0.6618 -0.3164  0.0053
  498MPD2    H3 7461   0.886   3.168   9.592 -0.8627  1.3883  0.8558
  498MPD2     N 7462   0.789   2.922   9.962  0.1303 -0.3313 -0.1177
  498MPD2    H5 7463   0.817   2.905  10.058 -0.9559  0.8727  0.4249
  498MPD2    N1 7464   1.204   3.142   9.913 -0.5408  0.5644 -0.2305
  498MPD2    H7 7465   1.227   3.095  10.000 -1.8680  0.5298  0.1033
  499TMC3    C1 7466   1.386   3.280   9.981 -0.4012  0.6855 -0.2999
  499TMC3    C2 7467   1.383   3.222  10.104 -0.5502  0.0757 -0.4545
  499TMC3    C3 7468   1.474   3.267  10.195  0.4998 -0.4096 -0.4836
  499TMC3    C4 7469   1.471   3.388   9.952 -0.7849  1.4244  0.1523
  499TMC3    C5 7470   1.552   3.431  10.059  0.3538  0.2471  0.3272
  499TMC3    C6 7471   1.553   3.380  10.182  0.1634 -0.1546 -0.7560
  499TMC3     C 7472   1.286   3.243   9.881  0.0198 -0.3318 -0.3407
  499TMC3     O 7473   1.296   3.304   9.775 -0.3738  0.6552 -0.6147
  499TMC3     H 7474   1.314   3.148  10.141 -0.5773  0.5983  0.5318
  499TMC3    H1 7475   1.488   3.431   9.854  1.2002  0.7643  0.1945
  499TMC3    H2 7476   1.637   3.419  10.238 -2.6904 -0.0052  3.4059
  499TMC3    C7 7477   1.644   3.541  10.031  0.0800  0.1605  0.0629
  499TMC3    C8 7478   1.497   3.182  10.311  0.5596  0.1931 -0.2713
  499TMC3    O1 7479   1.694   3.551   9.922 -0.0657 -0.1592  0.6594
  499TMC3    O2 7480   1.480   3.060  10.300  0.1323  0.2359  1.1063
  500MPD2     C 7481   3.316   3.897  11.153 -0.0223 -0.7564  0.6573
  500MPD2    C1 7482   3.373   3.931  11.035 -0.3572 -0.1996  0.1178
  500MPD2    C2 7483   3.295   3.946  10.923 -0.7778  0.0944  0.0946
  500MPD2    C3 7484   3.158   3.929  10.928 -0.6490 -1.0042  0.2186
  500MPD2    C4 7485   3.106   3.889  11.046  0.7066 -0.0147  0.0256
  500MPD2    C5 7486   3.179   3.875  11.156 -0.3349  0.3569  0.3304
  500MPD2     H 7487   3.343   3.976  10.830 -1.6466  0.3947 -0.2575
  500MPD2    H1 7488   3.002   3.862  11.064  0.5978 -0.9469 -1.8871
  500MPD2    H2 7489   3.370   3.884  11.246  1.2119  0.6126  0.1414
  500MPD2    H3 7490   3.135   3.832  11.245  0.3776  1.0294  1.0060
  500MPD2     N 7491   3.074   3.941  10.823 -0.1827 -0.5851 -0.5157
  500MPD2    H5 7492   2.976   3.914  10.830 -0.4194  0.2088 -0.7677
  500MPD2    N1 7493   3.519   3.937  11.020 -0.2740 -0.0721  0.1104
  500MPD2    H7 7494   3.559   3.955  10.929 -0.1094 -3.8656 -0.5945
  501TMC3    C1 7495   3.747   3.915  11.077 -0.0016  0.1163  0.0529
  501TMC3    C2 7496   3.781   3.985  10.963 -0.1725  0.4841 -0.3671
  501TMC3    C3 7497   3.914   3.985  10.932  0.1387  0.8017 -0.9349
  501TMC3    C4 7498   3.840   3.842  11.145  0.1590  0.3264 -0.1016
  501TMC3    C5 7499   3.963   3.824  11.089  0.3022 -0.0466  0.1219
  501TMC3    C6 7500   4.001   3.901  10.988 -0.3051 -0.0864  0.0678
  501TMC3     C 7501   3.609   3.907  11.120 -0.3212 -0.5230  0.1986
  501TMC3     O 7502   3.591   3.848  11.226 -0.6863  0.1567 -0.0086
  501TMC3     H 7503   3.703   4.053  10.928 -0.5420  1.9468  3.2945
  501TMC3    H1 7504   3.814   3.769  11.221  2.0504  2.6582  2.7846
  501TMC3    H2 7505   4.105   3.920  10.966  0.4780 -1.6987  2.3872
  501TMC3    C7 7506   4.045   3.709  11.128  0.6208  0.0712  0.2079
  501TMC3    C8 7507   3.962   4.050  10.809  0.0916  0.9278 -0.3610
  501TMC3    O1 7508   3.991   3.612  11.183  0.3825 -0.5039 -0.1575
  501TMC3    O2 7509   4.083   4.059  10.792  0.1575 -0.0358  0.0241
  502TMC3    C1 7510   3.723   2.340  14.757  0.2527  0.0135  0.3191
  502TMC3    C2 7511   3.667   2.465  14.784 -0.2864  0.0892  0.1790
  502TMC3    C3 7512   3.547   2.481  14.843  1.0167  0.2898  0.7840
  502TMC3    C4 7513   3.642   2.235  14.770 -0.2638  0.2079  0.0831
  502TMC3    C5 7514   3.523   2.257  14.836  0.1631 -0.1939  0.0174
  502TMC3    C6 7515   3.477   2.372  14.885 -0.2628 -0.0920 -0.1622
  502TMC3     C 7516   3.841   2.335  14.843  0.4389  0.1381  0.0688
  502TMC3     O 7517   3.925   2.424  14.820  0.9200 -0.3441 -0.3696
  502TMC3     H 7518   3.729   2.551  14.763 -2.1195  1.4950  0.5996
  502TMC3    H1 7519   3.675   2.136  14.737 -0.5566  0.7273 -1.7766
  502TMC3    H2 7520   3.373   2.382  14.915  0.2330 -1.3569  1.9390
  502TMC3    C7 7521   3.462   2.129  14.884 -0.1394  0.4717  0.3815
  502TMC3    C8 7522   3.501   2.612  14.873  0.7491 -0.0708 -1.0315
  502TMC3    O1 7523   3.535   2.033  14.903 -0.5763 -0.1902 -0.6717
  502TMC3    O2 7524   3.533   2.691  14.787  0.6055 -0.1973 -0.7820
  503MPD2     C 7525   0.976   2.408  16.944  0.8548 -0.0900 -0.1992
  503MPD2    C1 7526   1.012   2.487  17.055  0.0395 -0.2006 -0.2907
  503MPD2    C2 7527   1.092   2.427  17.151  0.0721  0.5392  0.0123
  503MPD2    C3 7528   1.143   2.300  17.131  0.4570 -0.0395 -0.0888
  503MPD2    C4 7529   1.095   2.224  17.028 -0.1109 -0.5283 -0.1135
  503MPD2    C5 7530   1.009   2.278  16.944  0.0106  0.4603  0.4580
  503MPD2     H 7531   1.128   2.485  17.236  1.0624 -1.3978  0.9248
  503MPD2    H1 7532   1.120   2.121  17.009  0.1781 -0.7659  1.5451
  503MPD2    H2 7533   0.907   2.447  16.870 -0.4842  0.7481  1.4880
  503MPD2    H3 7534   0.962   2.222  16.863  0.0196  0.2292  0.6111
  503MPD2     N 7535   1.244   2.250  17.213  0.3281  0.5277 -0.4557
  503MPD2    H5 7536   1.297   2.312  17.273  3.1518 -1.0605 -1.3443
  503MPD2    N1 7537   0.990   2.621  17.071 -0.0811  0.4751 -0.1745
  503MPD2    H7 7538   1.018   2.663  17.160 -1.1941 -1.1389  0.9371
  504TMC3    C1 7539   1.395   2.113  17.318 -0.2951  0.3681 -0.5386
  504TMC3    C2 7540   1.404   2.005  17.402  0.7136 -0.2838 -0.4281
  504TMC3    C3 7541   1.520   1.986  17.471  0.1649 -1.0059  0.3007
  504TMC3    C4 7542   1.496   2.210  17.304 -0.5193  0.1368  0.0795
  504TMC3    C5 7543   1.608   2.188  17.381 -0.4490 -0.0571 -0.1223
  504TMC3    C6 7544   1.621   2.076  17.456 -0.2504  0.7933  0.5373
  504TMC3     C 7545   1.276   2.121  17.236  0.1730  0.0901 -0.0539
  504TMC3     O 7546   1.208   2.022  17.216 -0.2717  0.2359  0.0065
  504TMC3     H 7547   1.320   1.939  17.417  1.5970 -1.3234  0.0229
  504TMC3    H1 7548   1.487   2.296  17.238  1.0687 -0.0498 -0.3836
  504TMC3    H2 7549   1.704   2.071  17.525  0.0470 -0.6844  0.0854
  504TMC3    C7 7550   1.727   2.251  17.322 -0.0980 -0.2658 -0.1565
  504TMC3    C8 7551   1.508   1.950  17.614  0.1106  1.0684  0.3143
  504TMC3    O1 7552   1.716   2.349  17.248 -0.1812  0.2078 -0.3985
  504TMC3    O2 7553   1.563   2.027  17.693  0.3584  0.0116 -0.5489
  505MPD2     C 7554   0.245   1.624  10.612  0.0971 -0.9511  0.3264
  505MPD2    C1 7555   0.383   1.614  10.604 -0.1547 -0.3359  0.5665
  505MPD2    C2 7556   0.453   1.682  10.698 -0.6642 -0.0155 -0.1482
  505MPD2    C3 7557   0.392   1.747  10.803 -0.6875 -0.7270  0.1570
  505MPD2    C4 7558   0.255   1.745  10.815  0.0037 -0.0100  0.2749
  505MPD2    C5 7559   0.182   1.678  10.717 -0.8217  0.2863 -0.2922
  505MPD2     H 7560   0.562   1.678  10.694 -0.6805  0.3855 -0.9581
  505MPD2    H1 7561   0.199   1.779  10.901 -1.3678 -2.3786  0.3249
  505MPD2    H2 7562   0.185   1.574  10.537 -0.4251 -0.3488  0.3463
  505MPD2    H3 7563   0.075   1.669  10.732 -0.7534  1.4751  0.9409
  505MPD2     N 7564   0.478   1.823  10.883  0.5699  0.1679  0.0496
  505MPD2    H5 7565   0.578   1.807  10.872  0.2258 -0.8342 -1.5909
  505MPD2    N1 7566   0.443   1.551  10.488 -0.0998  0.1035 -0.6572
  505MPD2    H7 7567   0.388   1.498  10.421 -0.1918  0.2961 -0.7382
  506TMC3    C1 7568   0.599   1.498  10.323 -0.4837 -0.2658  0.4736
  506TMC3    C2 7569   0.515   1.568  10.240 -0.0812 -0.1033  0.2073
  506TMC3    C3 7570   0.577   1.659  10.161  0.7968  0.2756  0.9047
  506TMC3    C4 7571   0.738   1.503  10.305  0.3124  0.9644  1.0745
  506TMC3    C5 7572   0.799   1.578  10.215 -1.0495 -0.8653  0.0141
  506TMC3    C6 7573   0.716   1.664  10.138  0.4829  0.2893  0.0216
  506TMC3     C 7574   0.575   1.542  10.461 -0.5180 -0.2031 -0.3577
  506TMC3     O 7575   0.672   1.564  10.531  0.2059  1.0479  0.3497
  506TMC3     H 7576   0.408   1.581  10.254  0.0327  0.5844  0.4027
  506TMC3    H1 7577   0.786   1.445  10.383  1.0133  0.1355  0.0318
  506TMC3    H2 7578   0.754   1.735  10.065  0.0233 -0.0250 -0.5163
  506TMC3    C7 7579   0.918   1.649  10.265 -0.1789 -0.3424  0.1270
  506TMC3    C8 7580   0.495   1.747  10.082 -0.1699 -0.7413 -0.1615
  506TMC3    O1 7581   0.996   1.687  10.180  0.5183 -0.2769  0.6444
  506TMC3    O2 7582   0.377   1.707  10.072  0.2601 -0.1430  0.1171
  507TMC3    C1 7583   2.281   2.833  15.573  0.2900 -0.0037 -0.1675
  507TMC3    C2 7584   2.331   2.706  15.586  0.3311  0.7540  0.3173
  507TMC3    C3 7585   2.404   2.654  15.484 -0.2810 -0.4090  0.1862
  507TMC3    C4 7586   2.300   2.903  15.457 -0.3630 -0.2896  0.9890
  507TMC3    C5 7587   2.390   2.863  15.364  0.1412 -0.3069  0.3135
  507TMC3    C6 7588   2.441   2.739  15.382  0.2399 -0.4343 -0.1454
  507TMC3     C 7589   2.190   2.871  15.679  0.3149  0.2555  0.5578
  507TMC3     O 7590   2.188   2.794  15.776 -0.5675  0.4233 -0.2951
  507TMC3     H 7591   2.300   2.639  15.665 -1.2583  1.6223  0.4462
  507TMC3    H1 7592   2.242   2.991  15.435 -0.2679 -0.0645  1.6554
  507TMC3    H2 7593   2.522   2.715  15.315  1.1787  1.0154  0.4784
  507TMC3    C7 7594   2.332   2.866  15.234 -0.0180 -0.0075  1.2266
  507TMC3    C8 7595   2.352   2.524  15.436 -0.5847  0.2545  0.2485
  507TMC3    O1 7596   2.332   2.758  15.173 -0.5046  0.0178 -0.7591
  507TMC3    O2 7597   2.293   2.445  15.511  0.2394  0.1328 -0.0824
  508MPD2     C 7598   2.990   4.494  15.739  0.8525  0.8347  0.9659
  508MPD2    C1 7599   3.032   4.614  15.779 -0.2057  0.5099 -0.2236
  508MPD2    C2 7600   2.967   4.732  15.729 -1.3857 -0.2739 -0.4935
  508MPD2    C3 7601   2.866   4.710  15.637 -0.3193  0.5561 -0.1151
  508MPD2    C4 7602   2.829   4.586  15.594  0.3940 -0.4738  0.1496
  508MPD2    C5 7603   2.891   4.483  15.645 -0.2796  0.8668  0.2463
  508MPD2     H 7604   2.991   0.091  15.772  0.1771 -0.3460 -1.1693
  508MPD2    H1 7605   2.759   4.562  15.514 -0.8938 -0.2503  1.2168
  508MPD2    H2 7606   3.040   4.403  15.769  0.2502  0.6896  1.5409
  508MPD2    H3 7607   2.868   4.381  15.616  1.3347  0.3136  0.8950
  508MPD2     N 7608   2.806   0.092  15.592 -0.1505 -0.3522  0.8313
  508MPD2    H5 7609   2.831   0.178  15.640  1.5441 -1.1543  1.3780
  508MPD2    N1 7610   3.141   4.622  15.869  0.5494  0.4476  0.4212
  508MPD2    H7 7611   3.163   4.537  15.919 -0.9702  0.0796  0.4590
  509TMC3    C1 7612   2.540   0.424  15.407  0.0824 -1.5252  0.5044
  509TMC3    C2 7613   2.613   0.507  15.474 -0.1976 -0.2721  0.1671
  509TMC3    C3 7614   2.710   0.461  15.556 -0.7078  0.4195  0.2952
  509TMC3    C4 7615   2.558   0.287  15.422 -0.4070  0.6723 -0.1840
  509TMC3    C5 7616   2.657   0.242  15.508  0.9288  0.4773 -0.3862
  509TMC3    C6 7617   2.731   0.335  15.582  0.1167  0.1256 -1.2983
  509TMC3     C 7618   2.444   0.472  15.316  0.2250 -0.4579  0.2620
  509TMC3     O 7619   2.361   0.388  15.286 -0.5969 -0.3797 -0.0460
  509TMC3     H 7620   2.598   0.614  15.478  2.4046  0.0868  0.2782
  509TMC3    H1 7621   2.511   0.220  15.351  2.4952 -0.8921 -0.6257
  509TMC3    H2 7622   2.795   0.304  15.663 -1.6572 -0.6540 -0.1756
  509TMC3    C7 7623   2.701   0.105  15.501  0.8411  0.7651  0.9437
  509TMC3    C8 7624   2.755   0.549  15.653 -0.2515 -0.1309  0.2685
  509TMC3    O1 7625   2.648   0.021  15.433 -0.5079  0.8295 -0.4619
  509TMC3    O2 7626   2.708   0.537  15.766  0.3808 -0.3421 -0.4276
  510MPD2     C 7627   0.356   1.638  14.724 -0.5172  0.7873 -0.4469
  510MPD2    C1 7628   0.444   1.531  14.746  0.3004  0.0251  0.1353
  510MPD2    C2 7629   0.532   1.499  14.652 -0.1933  0.0404  0.0975
  510MPD2    C3 7630   0.544   1.567  14.533 -0.8043 -0.0754 -0.7865
  510MPD2    C4 7631   0.453   1.667  14.512 -0.1603  0.0527 -0.9467
  510MPD2    C5 7632   0.372   1.712  14.611  0.0122  0.0207  0.2604
  510MPD2     H 7633   0.607   1.425  14.674 -1.7940 -1.7109 -0.3637
  510MPD2    H1 7634   0.453   1.721  14.418  2.5050  0.9181 -0.4468
  510MPD2    H2 7635   0.294   1.675  14.804  1.1198  2.0957  0.2067
  510MPD2    H3 7636   0.321   1.807  14.596  0.4834  0.0353 -1.2530
  510MPD2     N 7637   0.638   1.513  14.437  0.2975 -0.2698 -0.5109
  510MPD2    H5 7638   0.705   1.441  14.461  0.2514 -0.5928 -1.3566
  510MPD2    N1 7639   0.433   1.463  14.867 -0.0804 -0.7752 -0.4440
  510MPD2    H7 7640   0.365   1.508  14.928  0.6922  0.1403 -0.2526
  511TMC3    C1 7641   0.447   1.294  15.031  1.1381 -0.4224 -0.9904
  511TMC3    C2 7642   0.336   1.346  15.089  0.5221 -0.1723  0.5855
  511TMC3    C3 7643   0.262   1.270  15.173  0.4424 -0.1185  0.0596
  511TMC3    C4 7644   0.476   1.158  15.058 -0.2499  0.0388 -0.1838
  511TMC3    C5 7645   0.402   1.078  15.143 -0.7131  0.1333  0.1431
  511TMC3    C6 7646   0.296   1.139  15.207 -0.4689 -0.0707  0.3637
  511TMC3     C 7647   0.494   1.350  14.908 -0.1687 -0.0411 -0.5719
  511TMC3     O 7648   0.565   1.273  14.840  0.1868 -0.6309 -0.5045
  511TMC3     H 7649   0.321   1.453  15.088  0.7758 -0.1331  0.8098
  511TMC3    H1 7650   0.565   1.117  15.011  0.6971  1.1985  0.5996
  511TMC3    H2 7651   0.230   1.080  15.270  0.4291 -0.5029  0.8993
  511TMC3    C7 7652   0.397   0.945  15.086 -0.4100  0.1270  0.5789
  511TMC3    C8 7653   0.141   1.336  15.222  0.5760  0.5880  0.5746
  511TMC3    O1 7654   0.422   0.940  14.966  0.0079  0.4800 -0.2782
  511TMC3    O2 7655   0.128   1.455  15.203  0.1917 -0.1807 -0.9196
  512TMC3    C1 7656   4.215   0.597  13.600 -0.4221 -0.3816 -0.0507
  512TMC3    C2 7657   4.294   0.695  13.651 -0.3373 -0.4354  0.0317
  512TMC3    C3 7658   4.429   0.658  13.683 -0.0483  0.6740  0.7653
  512TMC3    C4 7659   4.264   0.466  13.580  0.7412 -0.1761  1.5900
  512TMC3    C5 7660   4.399   0.437  13.601  0.2249 -0.8250 -0.5899
  512TMC3    C6 7661   4.480   0.530  13.659  0.0848 -0.1096 -0.1073
  512TMC3     C 7662   4.067   0.620  13.586  0.0965 -1.0093  0.1799
  512TMC3     O 7663   4.006   0.543  13.512 -0.2422 -0.2737 -0.1077
  512TMC3     H 7664   4.261   0.798  13.661 -0.8265 -0.5945  0.0731
  512TMC3    H1 7665   4.204   0.390  13.530  0.0450  1.3668  0.0771
  512TMC3    H2 7666   4.587   0.516  13.668 -0.0155 -2.0785 -1.8573
  512TMC3    C7 7667   4.466   0.304  13.593 -0.4676  0.9717 -0.1665
  512TMC3    C8 7668   4.521   0.753  13.743  0.7782 -0.7856  0.2000
  512TMC3    O1 7669   4.582   0.295  13.626  0.1376  0.2124 -0.3838
  512TMC3    O2 7670   4.638   0.732  13.752  0.3576 -0.0867  0.1976
  513MPD2     C 7671   0.458   0.954  12.422  0.5824 -0.5148  0.0019
  513MPD2    C1 7672   0.491   0.824  12.454  0.1672  0.1035  0.0322
  513MPD2    C2 7673   0.485   0.788  12.592 -0.3068 -0.1107  0.0571
  513MPD2    C3 7674   0.449   0.872  12.686 -0.0582 -1.2307  0.0735
  513MPD2    C4 7675   0.418   1.000  12.656  0.5614  0.2750  0.1528
  513MPD2    C5 7676   0.424   1.040  12.526 -0.0263 -0.1674 -0.1093
  513MPD2     H 7677   0.529   0.694  12.623 -0.3501 -0.4374 -0.8948
  513MPD2    H1 7678   0.403   1.084  12.722 -0.9617  0.2170 -0.1355
  513MPD2    H2 7679   0.467   0.987  12.320 -3.3749 -0.5607 -0.3736
  513MPD2    H3 7680   0.402   1.142  12.498  1.0978  0.3901  1.0412
  513MPD2     N 7681   0.458   0.828  12.822 -0.3634  0.1166  0.7504
  513MPD2    H5 7682   0.473   0.728  12.831  2.3486  0.5927  1.4257
  513MPD2    N1 7683   0.556   0.743  12.357  0.0099  0.0073 -0.3593
  513MPD2    H7 7684   0.580   0.790  12.270 -0.1558  1.5070  0.4041
  514TMC3    C1 7685   0.641   0.546  12.252 -0.9968 -0.1619 -0.7764
  514TMC3    C2 7686   0.756   0.606  12.203  0.4562  0.1019 -0.0677
  514TMC3    C3 7687   0.864   0.526  12.191 -0.4080  0.5392 -0.5679
  514TMC3    C4 7688   0.632   0.410  12.258 -0.2964 -0.2654  0.2590
  514TMC3    C5 7689   0.749   0.335  12.258 -0.4087 -0.2207 -0.3843
  514TMC3    C6 7690   0.869   0.390  12.225 -0.7580 -0.3826  0.3469
  514TMC3     C 7691   0.580   0.610  12.368 -0.4475  0.8060  0.9380
  514TMC3     O 7692   0.548   0.527  12.454 -0.6776  0.0080  0.3880
  514TMC3     H 7693   0.756   0.713  12.188  1.4642 -0.0950 -1.4768
  514TMC3    H1 7694   0.540   0.358  12.282  0.2130 -1.5831 -0.6258
  514TMC3    H2 7695   0.957   0.328  12.231  1.1460  2.1228 -1.8447
  514TMC3    C7 7696   0.758   0.234  12.359 -0.3402  0.8437  0.0643
  514TMC3    C8 7697   0.992   0.570  12.150 -0.8503 -0.3007 -0.0393
  514TMC3    O1 7698   0.822   0.128  12.359 -0.2870 -0.3723  0.0213
  514TMC3    O2 7699   1.090   0.512  12.199  0.4208 -0.4845 -0.1209
  515MPD2     C 7700   4.197   3.006  14.683  0.8281  0.3000 -0.3456
  515MPD2    C1 7701   4.314   2.945  14.648  0.3389  0.4742 -0.1637
  515MPD2    C2 7702   4.429   2.957  14.738 -0.2109  0.8637  0.1011
  515MPD2    C3 7703   4.426   3.046  14.840  0.1514 -0.7773 -0.6036
  515MPD2    C4 7704   4.306   3.109  14.870 -0.3842  0.0521  0.4150
  515MPD2    C5 7705   4.198   3.090  14.791 -0.4686 -0.4355  0.5740
  515MPD2     H 7706   4.523   2.911  14.708 -0.0894  0.1575  1.6096
  515MPD2    H1 7707   4.304   3.181  14.951 -1.1760 -0.0122  0.4498
  515MPD2    H2 7708   4.101   3.004  14.633 -0.8203  0.0158  2.7941
  515MPD2    H3 7709   4.108   3.145  14.812 -0.0072  1.0031 -1.2212
  515MPD2     N 7710   4.531   3.079  14.926  0.7688 -0.3791 -0.0800
  515MPD2    H5 7711   4.512   3.144  15.002 -0.1174  1.1942 -1.6422
  515MPD2    N1 7712   4.318   2.851  14.540  0.1006  0.2100  0.2925
  515MPD2    H7 7713   4.406   2.801  14.543  0.2233  0.3340 -1.5344
  516TMC3    C1 7714   4.235   2.713  14.371  0.4225  0.8146 -0.7991
  516TMC3    C2 7715   4.172   2.712  14.245 -0.8578  0.3476  0.5252
  516TMC3    C3 7716   4.132   2.587  14.205  0.0012  0.1305  0.6394
  516TMC3    C4 7717   4.255   2.599  14.442  0.8008 -0.6216 -0.1400
  516TMC3    C5 7718   4.216   2.480  14.393  0.8192 -0.3638  0.1920
  516TMC3    C6 7719   4.148   2.471  14.275  0.1860  0.6100  1.0186
  516TMC3     C 7720   4.216   2.835  14.448 -1.0017 -0.3861  0.4983
  516TMC3     O 7721   4.139   2.921  14.408  0.4445 -0.0745  0.0047
  516TMC3     H 7722   4.150   2.804  14.192  1.1563  0.4663 -0.1107
  516TMC3    H1 7723   4.310   2.603  14.535 -0.8407 -0.7590  0.8375
  516TMC3    H2 7724   4.127   2.380  14.220  1.2824  1.7455 -1.2752
  516TMC3    C7 7725   4.200   2.382  14.499 -0.4825  0.1299  0.6725
  516TMC3    C8 7726   4.052   2.577  14.089 -0.7072  0.5560 -1.1096
  516TMC3    O1 7727   4.254   2.392  14.607 -0.6841  0.0203  0.0699
  516TMC3    O2 7728   4.003   2.470  14.060  0.1550  0.0754  0.5843
  517MPD2     C 7729   4.088   4.159   0.432  0.1557  0.4358  0.5046
  517MPD2    C1 7730   4.101   4.204   0.302  0.4843 -0.5125 -0.2402
  517MPD2    C2 7731   4.156   4.330   0.282 -0.2345 -1.6950  0.4087
  517MPD2    C3 7732   4.205   4.404   0.391 -0.1466 -0.3643  0.1605
  517MPD2    C4 7733   4.178   4.366   0.517 -0.5313  0.3616  0.1518
  517MPD2    C5 7734   4.125   4.240   0.535  0.6160 -0.6701 -0.3413
  517MPD2     H 7735   4.178   4.361   0.180  1.3188 -2.2099  0.5870
  517MPD2    H1 7736   4.215   4.423   0.601  0.6273  0.8361 -0.6782
  517MPD2    H2 7737   4.036   4.070   0.465 -1.1134  0.8292 -0.4290
  517MPD2    H3 7738   4.104   4.203   0.635 -0.5071 -0.1354 -0.3769
  517MPD2     N 7739   4.269   4.527   0.368 -0.3000  0.7692 -0.1333
  517MPD2    H5 7740   4.298   4.577   0.452 -2.9225  1.7866  0.1723
  517MPD2    N1 7741   4.047   4.135   0.185  0.3148  0.2639 -0.3038
  517MPD2    H7 7742   4.094   4.180   0.107  0.6884 -2.6544 -1.7664
  518TMC3    C1 7743   3.993   3.933   0.070  0.1896  0.3798  0.4670
  518TMC3    C2 7744   3.971   3.797   0.089 -0.3375  0.4407 -0.4187
  518TMC3    C3 7745   4.032   3.716  17.739 -0.0912 -0.0918  0.6483
  518TMC3    C4 7746   4.074   3.980  17.716  0.0727 -0.2329  0.6057
  518TMC3    C5 7747   4.126   3.888  17.626  0.9282  0.2764  0.4239
  518TMC3    C6 7748   4.105   3.757  17.635 -0.0566 -0.4447 -0.1013
  518TMC3     C 7749   3.984   4.014   0.189 -0.0857 -0.0829 -0.4494
  518TMC3     O 7750   3.923   3.969   0.286 -0.0210 -0.1843 -0.0996
  518TMC3     H 7751   3.918   3.764   0.178 -0.0083 -0.9480 -0.7415
  518TMC3    H1 7752   4.099   4.085  17.703  0.1686 -0.3365 -0.0442
  518TMC3    H2 7753   4.150   3.684  17.568 -1.1751 -0.9474 -0.3116
  518TMC3    C7 7754   4.203   3.928  17.505 -0.2400  0.5834 -0.5986
  518TMC3    C8 7755   3.997   3.578  17.730 -0.3383  0.7712  0.2825
  518TMC3    O1 7756   4.166   4.029  17.444 -0.2440 -0.4089 -0.2391
  518TMC3    O2 7757   4.072   3.503  17.669 -0.1190  0.0071 -0.1043
  519MPD2     C 7758   0.677   2.617  14.307 -0.2400 -0.2934  0.3123
  519MPD2    C1 7759   0.641   2.622  14.174  0.4386 -0.1103 -0.3668
  519MPD2    C2 7760   0.736   2.601  14.078 -0.5209  0.3941  0.6416
  519MPD2    C3 7761   0.869   2.573  14.110  0.5308  0.0317  0.1155
  519MPD2    C4 7762   0.901   2.564  14.248 -0.1964  0.0711  0.6447
  519MPD2    C5 7763   0.807   2.591  14.343  0.4365 -0.3400  0.4574
  519MPD2     H 7764   0.712   2.598  13.972  1.1119  1.3006  0.2324
  519MPD2    H1 7765   1.000   2.534  14.280  0.4950  1.9137  0.2294
  519MPD2    H2 7766   0.603   2.625  14.386 -1.2252 -0.4201 -0.5876
  519MPD2    H3 7767   0.825   2.586  14.450  4.7259  1.0004 -0.1727
  519MPD2     N 7768   0.954   2.504  14.018  0.4806 -0.1739 -0.0551
  519MPD2    H5 7769   1.009   2.428  14.057  1.2928  0.5317  0.1724
  519MPD2    N1 7770   0.503   2.650  14.146 -0.0043 -0.5625 -0.1245
  519MPD2    H7 7771   0.446   2.644  14.230  0.4092 -1.7498  0.0804
  520TMC3    C1 7772   1.007   2.435  13.793  0.1241 -0.0504 -0.4463
  520TMC3    C2 7773   0.930   2.391  13.692 -0.2873 -0.3481  0.5265
  520TMC3    C3 7774   0.980   2.284  13.629  0.1301 -0.3472 -0.3640
  520TMC3    C4 7775   1.127   2.382  13.835  0.1458  0.4367 -0.2276
  520TMC3    C5 7776   1.168   2.273  13.764 -0.1081 -0.4024  0.5246
  520TMC3    C6 7777   1.104   2.227  13.658 -0.1293 -0.1887 -0.3359
  520TMC3     C 7778   0.945   2.533  13.884  0.0252 -0.0802  0.8283
  520TMC3     O 7779   0.885   2.621  13.829 -0.1022 -0.2035  0.6799
  520TMC3     H 7780   0.846   2.440  13.644 -0.4992 -1.0442  0.1927
  520TMC3    H1 7781   1.175   2.411  13.928  1.9404 -1.2338 -0.6508
  520TMC3    H2 7782   1.148   2.153  13.593 -0.0661 -0.5967  0.1709
  520TMC3    C7 7783   1.261   2.184  13.836  0.4963 -0.0404 -0.2146
  520TMC3    C8 7784   0.923   2.236  13.501  0.1095  0.4630 -0.1569
  520TMC3    O1 7785   1.315   2.218  13.941  0.0974  0.3278 -0.2781
  520TMC3    O2 7786   0.975   2.140  13.444 -0.5344  0.1828 -0.2883
  521MPD2     C 7787   1.992   4.234  17.150  0.6906  0.1356 -0.1278
  521MPD2    C1 7788   1.965   4.315  17.043  0.0212  0.1544  0.2153
  521MPD2    C2 7789   2.063   4.356  16.956 -0.7303 -0.2105 -1.1500
  521MPD2    C3 7790   2.190   4.305  16.965  0.9974 -0.2611 -0.0448
  521MPD2    C4 7791   2.219   4.220  17.068 -0.4892 -0.0349  0.3096
  521MPD2    C5 7792   2.125   4.198  17.159  1.0726  0.3565 -0.5161
  521MPD2     H 7793   2.038   4.433  16.884  0.9557  0.7004 -0.7446
  521MPD2    H1 7794   2.316   4.179  17.094 -0.0273  2.7374  2.9155
  521MPD2    H2 7795   1.921   4.227  17.231 -1.9120  2.3657 -2.1676
  521MPD2    H3 7796   2.142   4.135  17.245 -1.4536  1.8125  1.0914
  521MPD2     N 7797   2.294   4.346  16.876  0.4189 -0.0346 -0.5144
  521MPD2    H5 7798   2.270   4.419  16.810 -1.4604 -2.5729 -2.6697
  521MPD2    N1 7799   1.836   4.379  17.033 -0.0669  0.6165  0.4457
  521MPD2    H7 7800   1.772   4.355  17.107 -0.9431  3.3107  0.5820
  522TMC3    C1 7801   2.508   4.352  16.788 -0.2972  0.3849  0.4106
  522TMC3    C2 7802   2.634   4.376  16.823  0.2704 -0.3171 -0.1407
  522TMC3    C3 7803   2.714   4.443  16.740  0.8238  0.3576  0.0640
  522TMC3    C4 7804   2.442   4.409  16.680  0.0946 -0.2081  0.2416
  522TMC3    C5 7805   2.529   4.480  16.597  0.5173 -0.2792  0.3930
  522TMC3    C6 7806   2.657   4.495  16.629  1.0456 -0.2032 -0.5591
  522TMC3     C 7807   2.420   4.290  16.879 -0.5340 -0.2119  0.2830
  522TMC3     O 7808   2.475   4.211  16.955  0.8063 -0.0963 -0.0910
  522TMC3     H 7809   2.682   4.320  16.903 -1.5410 -3.0663 -0.9442
  522TMC3    H1 7810   2.341   4.393  16.645  0.7229  0.9761 -2.1834
  522TMC3    H2 7811   2.709   4.569  16.570  1.2005  0.3315  0.2458
  522TMC3    C7 7812   2.482   4.540  16.476  0.0788  0.4779  0.0906
  522TMC3    C8 7813   2.847   4.487  16.781  0.2432  0.0537  0.5405
  522TMC3    O1 7814   2.561   4.562  16.386  0.1492 -0.6367 -0.2321
  522TMC3    O2 7815   2.870   4.478  16.901  0.0870  0.0725  0.5959
  523MPD2     C 7816   0.061   0.745   9.745  0.2505  0.4427 -0.7937
  523MPD2    C1 7817   4.689   0.673   9.777  0.5882  0.2722  0.6542
  523MPD2    C2 7818   4.565   0.739   9.777 -0.1836  0.0833  0.3125
  523MPD2    C3 7819   4.555   0.876   9.755 -0.2018  0.2119 -0.5096
  523MPD2    C4 7820   4.675   0.941   9.734 -0.2806 -0.5614 -0.6479
  523MPD2    C5 7821   0.057   0.877   9.724 -0.0242 -0.3372  0.0124
  523MPD2     H 7822   4.479   0.676   9.794 -0.5527  0.3638 -0.5401
  523MPD2    H1 7823   4.657   1.046   9.712 -1.4515 -0.3970  1.0867
  523MPD2    H2 7824   0.153   0.690   9.727  1.0300  1.4396  0.1325
  523MPD2    H3 7825   0.141   0.932   9.683  0.3849  0.8438  2.4145
  523MPD2     N 7826   4.437   0.951   9.752  0.0466 -0.5723 -0.1430
  523MPD2    H5 7827   4.447   1.052   9.743 -0.3606 -0.7758 -2.8126
  523MPD2    N1 7828   4.706   0.537   9.814  0.1027 -0.1519 -0.4227
  523MPD2    H7 7829   0.066   0.508   9.805  0.6236  0.6624  2.7139
  524TMC3    C1 7830   4.207   0.998   9.746 -0.3421 -0.1066  0.0784
  524TMC3    C2 7831   4.093   0.979   9.675 -0.0199  0.8847 -0.7450
  524TMC3    C3 7832   3.979   1.017   9.745 -0.2893 -0.5203 -0.2318
  524TMC3    C4 7833   4.230   1.091   9.840  0.0414  0.1330  0.1573
  524TMC3    C5 7834   4.118   1.148   9.884  0.3325 -0.4617 -0.2171
  524TMC3    C6 7835   3.992   1.108   9.843  0.6386 -0.4644  0.2093
  524TMC3     C 7836   4.308   0.899   9.748  0.3466 -0.2871 -0.4354
  524TMC3     O 7837   4.275   0.783   9.736 -0.3903  0.4040  0.1167
  524TMC3     H 7838   4.087   0.892   9.611 -0.2262 -1.6505  2.7262
  524TMC3    H1 7839   4.326   1.116   9.884  0.2083 -0.0499 -0.1074
  524TMC3    H2 7840   3.901   1.135   9.894  1.0120  0.2376  0.5098
  524TMC3    C7 7841   4.131   1.284   9.943  0.4090  0.0181  0.4626
  524TMC3    C8 7842   3.845   0.976   9.697  0.2778  0.0189  0.3569
  524TMC3    O1 7843   4.242   1.326   9.971 -0.6189  0.0127 -0.2977
  524TMC3    O2 7844   3.760   0.984   9.783  0.2171  0.6036  0.1583
  525MPD2     C 7845   2.319   2.043  14.240 -0.3390  0.1304  0.5464
  525MPD2    C1 7846   2.447   2.063  14.292 -0.3943 -0.2095 -0.3738
  525MPD2    C2 7847   2.515   2.180  14.260  0.5930 -0.3707 -0.3700
  525MPD2    C3 7848   2.459   2.270  14.171 -0.1651  0.3362 -0.3516
  525MPD2    C4 7849   2.345   2.241  14.108 -0.7237 -0.0135  0.3498
  525MPD2    C5 7850   2.273   2.135  14.151  0.4743 -0.4697 -0.6163
  525MPD2     H 7851   2.611   2.198  14.308  0.7296 -1.7517 -0.1305
  525MPD2    H1 7852   2.310   2.302  14.026  0.6778 -1.7742 -1.5735
  525MPD2    H2 7853   2.265   1.949  14.249 -0.1693 -0.1193 -1.0788
  525MPD2    H3 7854   2.180   2.107  14.102 -0.0362 -0.2983  0.2549
  525MPD2     N 7855   2.517   2.406  14.157  0.5845 -0.3261 -0.8231
  525MPD2    H5 7856   2.457   2.478  14.119 -0.1902 -0.4441  0.1921
  525MPD2    N1 7857   2.506   1.960  14.371  0.0907  0.8006 -0.1588
  525MPD2    H7 7858   2.605   1.967  14.393  0.0491 -0.1100  0.3352
  526TMC3    C1 7859   2.523   1.762  14.500  0.9256 -0.2559 -0.2970
  526TMC3    C2 7860   2.461   1.664  14.583 -0.4126  0.1101 -0.8001
  526TMC3    C3 7861   2.542   1.577  14.637  0.4214  0.0310  0.0714
  526TMC3    C4 7862   2.658   1.754  14.461  0.2909 -1.0800  0.1017
  526TMC3    C5 7863   2.724   1.644  14.497 -0.0495  0.3140  0.0720
  526TMC3    C6 7864   2.666   1.556  14.585 -0.2584  0.6211 -0.3950
  526TMC3     C 7865   2.437   1.863  14.438 -0.8653 -0.4060  0.5249
  526TMC3     O 7866   2.320   1.856  14.464 -0.4598 -1.0707 -0.7931
  526TMC3     H 7867   2.357   1.676  14.612  0.1369 -1.0854  1.6738
  526TMC3    H1 7868   2.688   1.810  14.373  0.7942 -0.9043  0.3861
  526TMC3    H2 7869   2.736   1.499  14.645 -2.3592 -1.8381 -0.2295
  526TMC3    C7 7870   2.849   1.605  14.429  0.1696 -1.0280  0.2462
  526TMC3    C8 7871   2.528   1.531  14.773 -0.1119  0.2154  0.3368
  526TMC3    O1 7872   2.911   1.696  14.376  1.0323 -0.8066  0.8858
  526TMC3    O2 7873   2.620   1.471  14.829 -0.2154  0.2214  0.4474
  527MPD2     C 7874   1.061   0.065   1.278 -0.2026 -1.2582 -0.7700
  527MPD2    C1 7875   1.015   0.072   1.147 -0.8690  1.0628  0.3035
  527MPD2    C2 7876   1.083   4.735   1.049 -0.2029  0.1397  0.8823
  527MPD2    C3 7877   1.202   4.673   1.076  1.0973  0.1063 -0.6107
  527MPD2    C4 7878   1.254   4.681   1.207 -0.4894  0.0272  0.6427
  527MPD2    C5 7879   1.184   0.005   1.310 -0.2282 -0.9690 -0.1016
  527MPD2     H 7880   1.044   4.727   0.948  0.9023 -0.5166  0.5037
  527MPD2    H1 7881   1.343   4.624   1.230 -0.8260  0.7319  3.6271
  527MPD2    H2 7882   1.010   0.097   1.368  1.3067 -0.2024 -0.2994
  527MPD2    H3 7883   1.224   0.016   1.411  0.0888  1.6747 -0.5139
  527MPD2     N 7884   1.258   4.600   0.965  0.0028 -0.2506  0.0591
  527MPD2    H5 7885   1.208   4.588   0.877 -0.2903  2.6783 -0.1545
  527MPD2    N1 7886   0.891   0.142   1.114  0.6605 -0.0557  0.0084
  527MPD2    H7 7887   0.853   0.128   1.021 -0.0630 -1.9768  0.5793
  528TMC3    C1 7888   0.702   0.274   1.146 -0.5819 -0.3829 -0.4670
  528TMC3    C2 7889   0.707   0.334   1.023 -0.2620  0.2364  0.2687
  528TMC3    C3 7890   0.593   0.389   0.973 -0.3833 -0.1222 -0.0564
  528TMC3    C4 7891   0.592   0.269   1.219 -0.0620 -0.3546 -0.2899
  528TMC3    C5 7892   0.473   0.297   1.155  0.0160  0.2321 -0.2807
  528TMC3    C6 7893   0.476   0.362   1.038  0.5891 -0.4892 -0.3082
  528TMC3     C 7894   0.818   0.221   1.206 -0.0740  0.2735 -0.0030
  528TMC3     O 7895   0.842   0.242   1.322  0.5291 -0.3425  0.0050
  528TMC3     H 7896   0.798   0.333   0.963  0.7428 -2.3527  1.8474
  528TMC3    H1 7897   0.595   0.218   1.315 -1.9252 -0.9249 -0.5393
  528TMC3    H2 7898   0.384   0.374   0.981  0.5560  0.7287  0.0078
  528TMC3    C7 7899   0.351   0.275   1.242 -0.3641 -0.1220  0.0988
  528TMC3    C8 7900   0.586   0.411   0.833  0.2601 -0.1729 -0.4961
  528TMC3    O1 7901   0.357   0.201   1.343  0.5813  0.5603 -0.3534
  528TMC3    O2 7902   0.676   0.366   0.763 -0.2177 -0.1782  0.2612
  529MPD2     C 7903   2.777   3.064   0.942  0.0721  0.5252 -0.2500
  529MPD2    C1 7904   2.912   3.029   0.937  0.1230  0.3555  0.2487
  529MPD2    C2 7905   2.985   3.091   0.836 -0.0940  0.0232 -1.2003
  529MPD2    C3 7906   2.934   3.169   0.740  0.2274 -0.2673 -0.3055
  529MPD2    C4 7907   2.797   3.187   0.737 -0.5248  0.4878  0.5400
  529MPD2    C5 7908   2.721   3.140   0.841  0.3028  0.7258  0.2677
  529MPD2     H 7909   3.090   3.071   0.819 -0.1043 -1.9103  0.9598
  529MPD2    H1 7910   2.754   3.257   0.665  2.4658  1.9951  0.2509
  529MPD2    H2 7911   2.719   3.009   1.016  0.2770  0.9973  0.2701
  529MPD2    H3 7912   2.618   3.173   0.844  0.3078  0.8936 -1.0009
  529MPD2     N 7913   3.003   3.223   0.632 -0.1055  0.0170  0.0547
  529MPD2    H5 7914   2.942   3.269   0.566  0.2624 -0.5352 -0.6612
  529MPD2    N1 7915   2.971   2.936   1.027  0.0667  0.1511  0.4310
  529MPD2    H7 7916   3.068   2.925   1.000  0.6142  0.5780  2.2704
  530TMC3    C1 7917   2.995   2.759   1.167 -0.4414 -0.4318 -0.0444
  530TMC3    C2 7918   3.110   2.817   1.211 -0.4887 -0.3717  0.6500
  530TMC3    C3 7919   3.217   2.732   1.241 -0.3589  0.3051 -0.1508
  530TMC3    C4 7920   2.970   2.626   1.158 -0.9234  0.0544 -0.6825
  530TMC3    C5 7921   3.082   2.544   1.183  0.0571  0.9489  0.1903
  530TMC3    C6 7922   3.207   2.592   1.212  0.0967 -0.2176  0.1480
  530TMC3     C 7923   2.906   2.851   1.112  0.4738  1.0184 -0.8285
  530TMC3     O 7924   2.790   2.845   1.155  0.5361 -0.2338 -0.0124
  530TMC3     H 7925   3.126   2.923   1.228  1.2345 -0.5190 -0.0181
  530TMC3    H1 7926   2.883   2.595   1.101 -0.9296  0.7523 -1.0417
  530TMC3    H2 7927   3.280   2.525   1.257 -2.0400 -2.2837  0.5121
  530TMC3    C7 7928   3.057   2.399   1.202  0.2570 -0.3975  0.1581
  530TMC3    C8 7929   3.337   2.788   1.307 -0.5186 -0.2414 -0.3956
  530TMC3    O1 7930   3.155   2.329   1.197  0.1875 -0.6296  0.1038
  530TMC3    O2 7931   3.331   2.900   1.353  0.5967  0.2613  0.3876
  531MPD2     C 7932   0.738   0.193  12.878  0.3323  1.2603  0.0515
  531MPD2    C1 7933   0.668   0.307  12.837 -0.2276 -0.5824 -0.4231
  531MPD2    C2 7934   0.661   0.335  12.702  0.6585 -0.5884 -0.0697
  531MPD2    C3 7935   0.726   0.250  12.611  0.6876  0.2817 -0.1537
  531MPD2    C4 7936   0.798   0.136  12.657  0.2290 -0.2403  0.4316
  531MPD2    C5 7937   0.798   0.108  12.792  0.0933 -0.1748 -0.0392
  531MPD2     H 7938   0.612   0.421  12.657  0.6815 -1.1425 -1.1515
  531MPD2    H1 7939   0.858   0.078  12.588 -0.2258  0.5659 -0.6391
  531MPD2    H2 7940   0.740   0.165  12.983 -1.3287 -0.8770 -0.4758
  531MPD2    H3 7941   0.859   0.029  12.835  0.8664  0.4026 -0.0764
  531MPD2     N 7942   0.704   0.283  12.475 -0.3459 -0.1250  0.8387
  531MPD2    H5 7943   0.649   0.368  12.470 -0.4044 -0.2751 -0.8735
  531MPD2    N1 7944   0.607   0.387  12.938 -0.2661 -0.1457 -0.3873
  531MPD2    H7 7945   0.610   0.353  13.033  2.0650 -2.0106 -1.1247
  532TMC3    C1 7946   0.496   0.569  13.039 -0.0838 -0.3901 -0.5011
  532TMC3    C2 7947   0.427   0.676  13.002  0.4943 -0.3653  0.2054
  532TMC3    C3 7948   0.477   0.801  13.034  0.3819  0.7477 -0.2497
  532TMC3    C4 7949   0.597   0.583  13.127  0.1372  0.4592  0.7025
  532TMC3    C5 7950   0.638   0.709  13.169 -0.2901 -0.2333  0.2063
  532TMC3    C6 7951   0.587   0.827  13.117  0.2993  0.1034  0.7695
  532TMC3     C 7952   0.532   0.504  12.920 -0.4667 -0.5165  1.2570
  532TMC3     O 7953   0.496   0.562  12.816 -0.4946 -0.5648  0.4663
  532TMC3     H 7954   0.336   0.654  12.947 -1.1389  0.4654  2.5756
  532TMC3    H1 7955   0.636   0.501  13.187  0.6540  2.1905  2.7535
  532TMC3    H2 7956   0.642   0.920  13.106  0.3686  0.1902  1.8293
  532TMC3    C7 7957   0.755   0.722  13.264 -1.0356  0.1645 -0.4101
  532TMC3    C8 7958   0.447   0.900  12.935  0.3605 -0.4461  0.9222
  532TMC3    O1 7959   0.779   0.840  13.301  0.0263  0.1279 -0.4551
  532TMC3    O2 7960   0.449   1.023  12.951  0.4902 -0.0447  0.0121
  533TMC3    C1 7961   2.632   2.586  14.225  0.0958 -0.6858 -0.5573
  533TMC3    C2 7962   2.743   2.660  14.205 -0.2111  0.3800  0.3071
  533TMC3    C3 7963   2.775   2.750  14.303  0.4127 -0.4503 -0.1589
  533TMC3    C4 7964   2.547   2.607  14.331 -0.1561 -0.6651  0.0142
  533TMC3    C5 7965   2.595   2.679  14.433  0.0469 -0.1654 -0.2675
  533TMC3    C6 7966   2.715   2.744  14.423  0.6647  0.7739  0.1517
  533TMC3     C 7967   2.642   2.445  14.185 -0.1268 -0.2804 -0.0909
  533TMC3     O 7968   2.743   2.386  14.201 -0.0017 -0.2076  0.1654
  533TMC3     H 7969   2.812   2.629  14.127  0.8306  0.6361  1.1381
  533TMC3    H1 7970   2.460   2.543  14.340 -1.4635  0.6836 -3.1310
  533TMC3    H2 7971   2.774   2.780  14.506 -0.9215 -0.8020  1.9588
  533TMC3    C7 7972   2.570   2.615  14.561  0.2379 -0.0481 -0.2862
  533TMC3    C8 7973   2.910   2.800  14.318  0.4009 -0.1344 -0.4948
  533TMC3    O1 7974   2.544   2.494  14.556  0.0120 -0.4122 -0.5267
  533TMC3    O2 7975   2.975   2.777  14.420  0.1072 -0.0575  0.6964
  534MPD2     C 7976   1.026   3.349   0.637  0.0046 -0.1568 -0.0792
  534MPD2    C1 7977   1.023   3.473   0.571 -0.6787 -0.3345  0.1027
  534MPD2    C2 7978   0.897   3.535   0.554  1.0896  0.0872 -0.4144
  534MPD2    C3 7979   0.778   3.459   0.578  0.6392  1.0430 -0.0741
  534MPD2    C4 7980   0.786   3.338   0.643  0.5481 -0.2340 -0.4115
  534MPD2    C5 7981   0.903   3.287   0.669 -0.0509 -0.7486 -0.2016
  534MPD2     H 7982   0.886   3.629   0.501  0.4099  0.7777  0.9388
  534MPD2    H1 7983   0.697   3.279   0.662  0.5136 -0.8261 -2.3850
  534MPD2    H2 7984   1.117   3.296   0.662 -0.5181 -1.1537 -0.2941
  534MPD2    H3 7985   0.919   3.192   0.719  0.2836  1.3245  3.6172
  534MPD2     N 7986   0.651   3.512   0.551 -0.1048  0.3804  0.4528
  534MPD2    H5 7987   0.579   3.442   0.559  1.4727 -1.1983  0.9919
  534MPD2    N1 7988   1.145   3.543   0.544 -0.4996  0.3426  0.2228
  534MPD2    H7 7989   1.144   3.638   0.507 -0.6518 -0.4943 -1.9177
  535TMC3    C1 7990   0.474   3.650   0.470 -0.7311  0.4887 -0.2120
  535TMC3    C2 7991   0.392   3.616   0.575 -0.4393  0.0656 -0.5871
  535TMC3    C3 7992   0.288   3.532   0.566 -0.7268  0.5959 -0.5284
  535TMC3    C4 7993   0.439   3.597   0.353  0.4588 -0.0323  0.1065
  535TMC3    C5 7994   0.335   3.512   0.344 -0.6310  0.9757 -1.0925
  535TMC3    C6 7995   0.259   3.480   0.452 -0.0430  0.6554 -0.4773
  535TMC3     C 7996   0.613   3.639   0.500  0.0201 -0.1675 -0.2911
  535TMC3     O 7997   0.687   3.735   0.477 -0.3092  0.4281  0.1799
  535TMC3     H 7998   0.418   3.653   0.673 -2.5481 -0.0635  0.0294
  535TMC3    H1 7999   0.508   3.608   0.270  1.5988 -1.4604  0.8828
  535TMC3    H2 8000   0.174   3.416   0.433  0.8629 -0.8327  0.5614
  535TMC3    C7 8001   0.343   3.417   0.238 -0.4568  0.5145  0.2954
  535TMC3    C8 8002   0.196   3.522   0.681 -0.2583  0.5282 -0.4438
  535TMC3    O1 8003   0.361   3.302   0.272  0.8534  0.3536  0.1462
  535TMC3    O2 8004   0.198   3.615   0.761 -1.0088  0.0762 -0.1091
  536MPD2     C 8005   4.115   1.913  16.230 -0.3109 -0.1512  0.6610
  536MPD2    C1 8006   3.984   1.858  16.228 -0.0168 -0.7837  0.0168
  536MPD2    C2 8007   3.902   1.867  16.113  0.2401  0.8640  0.5885
  536MPD2    C3 8008   3.955   1.924  16.000 -0.2139  0.1426  0.3974
  536MPD2    C4 8009   4.084   1.974  16.004  0.3430  0.2949 -0.2812
  536MPD2    C5 8010   4.168   1.956  16.109 -0.5256 -0.2648 -0.0903
  536MPD2     H 8011   3.801   1.828  16.108  0.1707  1.2070 -0.6120
  536MPD2    H1 8012   4.115   2.046  15.929  1.4443 -1.2306 -1.2765
  536MPD2    H2 8013   4.179   1.902  16.317  1.2265 -0.2150 -0.4745
  536MPD2    H3 8014   4.260   2.011  16.122  0.7995 -1.6566 -3.4780
  536MPD2     N 8015   3.876   1.949  15.881 -0.2686 -0.1662  0.1262
  536MPD2    H5 8016   3.906   2.012  15.807 -0.2169  0.9222  1.0859
  536MPD2    N1 8017   3.947   1.793  16.345  0.0674 -0.4630 -0.2508
  536MPD2    H7 8018   4.008   1.774  16.424 -1.1469 -1.5814  0.4293
  537TMC3    C1 8019   3.822   1.676  16.501 -0.0236 -0.1417 -0.1774
  537TMC3    C2 8020   3.900   1.739  16.601 -0.0604  0.0246  0.7308
  537TMC3    C3 8021   3.904   1.668  16.716 -0.3571 -0.4545  0.0339
  537TMC3    C4 8022   3.753   1.559  16.520  0.4269  0.4857  0.3021
  537TMC3    C5 8023   3.776   1.488  16.640  0.5914  0.2275 -0.4247
  537TMC3    C6 8024   3.852   1.546  16.739  1.0260 -0.1362  0.1537
  537TMC3     C 8025   3.829   1.730  16.367 -0.8963  1.0142 -0.1406
  537TMC3     O 8026   3.734   1.708  16.290  0.1626  0.0353 -0.5969
  537TMC3     H 8027   3.946   1.836  16.588  0.7609 -0.1955  2.0048
  537TMC3    H1 8028   3.700   1.520  16.433 -0.1628 -0.6396  1.1616
  537TMC3    H2 8029   3.852   1.498  16.836  1.4337  1.9976  1.2085
  537TMC3    C7 8030   3.761   1.343  16.632 -0.1384 -0.0319 -0.0246
  537TMC3    C8 8031   3.904   1.743  16.833 -0.4612  0.3946 -1.1031
  537TMC3    O1 8032   3.737   1.303  16.523 -0.0907  0.3534 -0.4057
  537TMC3    O2 8033   3.959   1.706  16.936 -0.2531  0.3976  0.0115
  538TMC3    C1 8034   0.296   0.544  10.886  0.2696 -0.1890  0.2714
  538TMC3    C2 8035   0.407   0.476  10.846  0.0124 -0.2946  0.0298
  538TMC3    C3 8036   0.438   0.492  10.711 -0.0394 -0.1313  0.2233
  538TMC3    C4 8037   0.210   0.614  10.799  0.0762 -0.1739  0.0320
  538TMC3    C5 8038   0.249   0.620  10.668 -0.3689 -0.9640  0.7429
  538TMC3    C6 8039   0.364   0.561  10.620 -1.3702  1.0506 -0.6844
  538TMC3     C 8040   0.273   0.536  11.027 -0.3874  0.0197 -0.8912
  538TMC3     O 8041   0.352   0.484  11.099 -0.1884  0.2763  0.1405
  538TMC3     H 8042   0.478   0.424  10.909  0.4928  1.5454  1.0197
  538TMC3    H1 8043   0.117   0.660  10.831 -0.6509 -1.6602  0.0386
  538TMC3    H2 8044   0.390   0.569  10.515 -0.9081 -0.3364 -0.6791
  538TMC3    C7 8045   0.143   0.670  10.580 -0.0455  0.4909  0.0989
  538TMC3    C8 8046   0.576   0.463  10.673  0.5941  0.1093  0.5435
  538TMC3    O1 8047   0.064   0.747  10.632  0.1438 -0.0097 -0.2559
  538TMC3    O2 8048   0.639   0.369  10.732  0.2392 -0.5176 -0.1427
  539MPD2     C 8049   4.185   4.217  11.497  0.1710 -0.3969  0.5831
  539MPD2    C1 8050   4.289   4.271  11.422  0.4812 -0.2313 -0.3491
  539MPD2    C2 8051   4.274   4.400  11.374  0.4997 -0.1539 -0.6860
  539MPD2    C3 8052   4.150   4.468  11.396 -0.0960 -0.6757  0.9530
  539MPD2    C4 8053   4.053   4.413  11.471 -0.1556 -0.1978 -0.2024
  539MPD2    C5 8054   4.064   4.279  11.507 -0.0085 -1.0658  0.4392
  539MPD2     H 8055   4.349   4.440  11.307  1.3529 -0.1510  0.2739
  539MPD2    H1 8056   3.959   4.464  11.490 -0.1055 -0.4324  0.6836
  539MPD2    H2 8057   4.186   4.113  11.528  4.6143  0.0806  2.1256
  539MPD2    H3 8058   3.984   4.234  11.566 -1.4555 -2.0068 -2.2124
  539MPD2     N 8059   4.116   4.594  11.340 -0.2731 -0.5257  0.5004
  539MPD2    H5 8060   4.022   4.631  11.353  0.3246  0.7192  1.2630
  539MPD2    N1 8061   4.405   4.189  11.402 -0.6835  0.6710 -0.1568
  539MPD2    H7 8062   4.377   4.091  11.405 -0.4707  0.5983 -0.5067
  540TMC3    C1 8063   4.135   0.063  11.226  1.3554 -0.6025  0.1021
  540TMC3    C2 8064   4.174   0.117  11.113 -0.6124  1.3147 -0.8613
  540TMC3    C3 8065   4.125   0.236  11.066  0.1198 -0.2527 -0.3992
  540TMC3    C4 8066   4.040   0.123  11.301  0.3668  0.0117  0.0381
  540TMC3    C5 8067   3.991   0.243  11.261  0.0659 -0.5137 -0.1063
  540TMC3    C6 8068   4.035   0.305  11.143 -0.4389 -0.3528 -0.6124
  540TMC3     C 8069   4.198   4.679  11.271  0.3586  0.1638  0.8478
  540TMC3     O 8070   4.314   4.655  11.233 -0.2530  0.0287  0.0582
  540TMC3     H 8071   4.252   0.062  11.062 -0.7670  0.3469 -0.0486
  540TMC3    H1 8072   4.009   0.080  11.396  1.4285 -0.8546 -0.0139
  540TMC3    H2 8073   3.992   0.397  11.107 -3.0743 -1.1288  0.5817
  540TMC3    C7 8074   3.881   0.296  11.336 -0.4788  0.1602  0.1707
  540TMC3    C8 8075   4.169   0.287  10.944 -0.1939  0.1899  0.6759
  540TMC3    O1 8076   3.826   0.215  11.410 -0.2697  0.0594 -0.4454
  540TMC3    O2 8077   4.148   0.403  10.909 -0.1227 -0.3001 -0.2026
  541MPD2     C 8078   2.639   0.679  13.292 -0.1403  0.1112 -0.4773
  541MPD2    C1 8079   2.509   0.724  13.275  1.2094 -0.2386  0.0349
  541MPD2    C2 8080   2.458   0.757  13.149  0.1388 -0.8472  0.0186
  541MPD2    C3 8081   2.540   0.746  13.037  0.4612 -0.5662  0.9926
  541MPD2    C4 8082   2.672   0.717  13.058 -0.2750 -0.1826  0.2966
  541MPD2    C5 8083   2.720   0.674  13.179 -0.2480 -0.4226  0.2766
  541MPD2     H 8084   2.353   0.783  13.139 -0.3039 -2.2614  1.0846
  541MPD2    H1 8085   2.747   0.726  12.980  0.1024 -0.1037  0.6704
  541MPD2    H2 8086   2.683   0.637  13.382 -0.8428 -0.1817 -0.2697
  541MPD2    H3 8087   2.822   0.638  13.185 -0.4019 -0.7136  1.1533
  541MPD2     N 8088   2.507   0.791  12.911 -0.5304 -0.5700  0.2453
  541MPD2    H5 8089   2.578   0.782  12.839  0.0142 -0.1779  0.7324
  541MPD2    N1 8090   2.418   0.728  13.382  0.0206 -0.9314 -0.0052
  541MPD2    H7 8091   2.325   0.758  13.354 -0.1661 -0.3308  1.2650
  542TMC3    C1 8092   2.379   0.908  12.747 -0.2365  0.0104 -0.2716
  542TMC3    C2 8093   2.438   0.837  12.646  0.2127 -0.5153  0.5403
  542TMC3    C3 8094   2.434   0.894  12.522 -0.2843 -0.5220 -0.1714
  542TMC3    C4 8095   2.307   1.019  12.728 -0.1913 -0.2093  0.5749
  542TMC3    C5 8096   2.278   1.058  12.599  0.0721 -0.5875  0.0812
  542TMC3    C6 8097   2.346   1.001  12.493 -0.2560  0.4197  0.3157
  542TMC3     C 8098   2.396   0.870  12.888 -0.1045  0.7966  0.3499
  542TMC3     O 8099   2.310   0.907  12.965 -0.8285 -0.6092  0.0269
  542TMC3     H 8100   2.487   0.740  12.653  1.6077  0.1768  0.4038
  542TMC3    H1 8101   2.268   1.060  12.820  0.9350 -1.7584  1.7567
  542TMC3    H2 8102   2.317   1.030  12.394 -0.6488 -2.3034 -0.3793
  542TMC3    C7 8103   2.185   1.169  12.576 -0.3959  0.4538  0.1083
  542TMC3    C8 8104   2.526   0.851  12.411 -0.0558  0.3034 -0.0574
  542TMC3    O1 8105   2.225   1.243  12.488  0.0963 -0.2036  0.4160
  542TMC3    O2 8106   2.506   0.906  12.303  0.3146  0.7244 -0.2034
  543TMC3    C1 8107   2.744   2.481  17.302  0.4858  0.1208  0.3515
  543TMC3    C2 8108   2.790   2.371  17.362  0.2905 -0.1026 -0.4425
  543TMC3    C3 8109   2.729   2.330  17.476 -0.6395 -0.4307 -0.0803
  543TMC3    C4 8110   2.650   2.563  17.360  0.4155 -0.2652 -1.4214
  543TMC3    C5 8111   2.597   2.522  17.486 -0.3636  0.1739 -0.5137
  543TMC3    C6 8112   2.635   2.399  17.540 -0.2056 -0.0146  0.1530
  543TMC3     C 8113   2.786   2.507  17.163 -0.1371 -0.2125 -0.7723
  543TMC3     O 8114   2.855   2.416  17.116  0.2125 -0.1719 -0.3517
  543TMC3     H 8115   2.873   2.313  17.322  0.8020  1.5078 -1.7412
  543TMC3    H1 8116   2.614   2.648  17.303  0.8023  1.1621  0.4503
  543TMC3    H2 8117   2.591   2.362  17.632 -1.4047 -0.3187 -0.5496
  543TMC3    C7 8118   2.492   2.597  17.557 -0.4703 -0.8312  1.0951
  543TMC3    C8 8119   2.730   2.188  17.487  0.2605 -0.0224 -0.5560
  543TMC3    O1 8120   2.435   2.547  17.651 -0.3042  0.0615 -0.3502
  543TMC3    O2 8121   2.812   2.117  17.434  0.0785  0.6016 -0.3003
  544MPD2     C 8122   2.458   1.761  17.560  0.1678  0.0120  0.0476
  544MPD2    C1 8123   2.590   1.772  17.515  0.1779 -0.4972  0.4819
  544MPD2    C2 8124   2.647   1.898  17.521 -1.0767 -0.2601  0.6493
  544MPD2    C3 8125   2.575   2.012  17.555  0.3194 -0.5119 -0.3418
  544MPD2    C4 8126   2.447   1.997  17.597  0.2157 -0.0079 -0.2161
  544MPD2    C5 8127   2.389   1.875  17.589 -0.1216 -0.2581  0.3526
  544MPD2     H 8128   2.749   1.913  17.488 -0.8642 -0.1921  1.3345
  544MPD2    H1 8129   2.392   2.083  17.632 -0.6015 -0.7840  0.4137
  544MPD2    H2 8130   2.405   1.667  17.549  0.1695  0.0456 -0.2513
  544MPD2    H3 8131   2.286   1.867  17.622 -0.7357  2.1150 -1.0469
  544MPD2     N 8132   2.615   2.148  17.542 -0.4351  0.5173 -0.2894
  544MPD2    H5 8133   2.555   2.224  17.574 -1.9299 -1.9649  2.8935
  544MPD2    N1 8134   2.647   1.659  17.460  0.3199  0.5092 -0.0044
  544MPD2    H7 8135   2.591   1.574  17.461  1.5229 -0.2377  3.9466
  545TMC3    C1 8136   2.782   1.533  17.304 -0.7123  0.7705 -0.8019
  545TMC3    C2 8137   2.874   1.537  17.197 -0.0716  0.5946  0.9274
  545TMC3    C3 8138   2.927   1.413  17.157  0.6332  0.1105  0.5509
  545TMC3    C4 8139   2.744   1.410  17.361  1.3589  0.6309  0.4635
  545TMC3    C5 8140   2.790   1.294  17.312  0.3268 -0.9957  0.3746
  545TMC3    C6 8141   2.882   1.297  17.212  0.6151  0.0909 -0.0377
  545TMC3     C 8142   2.758   1.651  17.379 -0.2649  0.0730 -0.9519
  545TMC3     O 8143   2.814   1.749  17.327 -0.0720 -0.2377 -0.3620
  545TMC3     H 8144   2.918   1.630  17.161 -1.1823  0.6242 -0.3727
  545TMC3    H1 8145   2.675   1.413  17.445  1.6215 -1.3616  0.7491
  545TMC3    H2 8146   2.918   1.206  17.166 -0.2280  0.3885 -1.2940
  545TMC3    C7 8147   2.739   1.167  17.360  0.6939 -0.3662 -0.3906
  545TMC3    C8 8148   3.032   1.416  17.049 -0.3201  0.0883 -1.1303
  545TMC3    O1 8149   2.627   1.150  17.411 -0.0161  0.0296  0.3541
  545TMC3    O2 8150   3.033   1.518  16.980 -0.3630 -0.0242 -0.0298
  546MPD2     C 8151   3.660   2.109  17.732 -0.2380  0.1583  0.1056
  546MPD2    C1 8152   3.673   2.139  17.601 -0.3388  0.5557  0.3122
  546MPD2    C2 8153   3.741   2.255  17.574 -0.2333 -0.6923  0.1946
  546MPD2    C3 8154   3.775   2.349  17.672 -0.7775 -0.0626  0.3400
  546MPD2    C4 8155   3.750   2.318   0.056 -0.8212  0.3259  0.1172
  546MPD2    C5 8156   3.693   2.195   0.086 -0.4257  0.1256 -0.1282
  546MPD2     H 8157   3.760   2.274  17.469  1.4281 -0.6529  0.4946
  546MPD2    H1 8158   3.770   2.385   0.139  2.4737  2.6493 -2.5353
  546MPD2    H2 8159   3.613   2.015   0.009 -0.0464  0.1006  0.2542
  546MPD2    H3 8160   3.679   2.152   0.185 -2.1584  1.0010  0.0041
  546MPD2     N 8161   3.838   2.473  17.644  0.5251 -0.0822 -0.3099
  546MPD2    H5 8162   3.852   2.538  17.721 -0.6906  0.6562 -0.7188
  546MPD2    N1 8163   3.633   2.045  17.502 -0.5398  0.2547  0.2871
  546MPD2    H7 8164   3.612   1.948  17.521  0.0380  0.2828  1.0460
  547TMC3    C1 8165   3.586   1.966  17.285  0.0913  0.0959  0.3317
  547TMC3    C2 8166   3.553   2.005  17.159 -0.4341 -0.3088 -0.3368
  547TMC3    C3 8167   3.497   1.904  17.088 -0.2555 -0.2385  0.8620
  547TMC3    C4 8168   3.601   1.838  17.328  0.2851  0.6531  0.2616
  547TMC3    C5 8169   3.564   1.736  17.242  0.6540 -0.5501  0.9589
  547TMC3    C6 8170   3.502   1.769  17.126  0.1749  0.1403 -0.1397
  547TMC3     C 8171   3.611   2.081  17.371  0.4657 -1.0000  0.4607
  547TMC3     O 8172   3.599   2.191  17.319  0.5838  0.0506  0.2124
  547TMC3     H 8173   3.546   2.103  17.112  3.0629  0.8460  1.5779
  547TMC3    H1 8174   3.648   1.811  17.422  0.1051  2.1873  0.7987
  547TMC3    H2 8175   3.459   1.692  17.063 -1.3666  1.1911 -0.3838
  547TMC3    C7 8176   3.537   1.606  17.307  0.0258 -0.3544  0.2870
  547TMC3    C8 8177   3.458   1.942  16.947  0.6938 -0.3124  0.0362
  547TMC3    O1 8178   3.547   1.602  17.426  0.2472 -0.0360 -0.3653
  547TMC3    O2 8179   3.421   2.056  16.921  0.5054 -0.1552 -0.2334
  548MPD2     C 8180   2.975   2.494  12.877 -0.6460 -0.4733 -0.2748
  548MPD2    C1 8181   2.947   2.376  12.807 -0.5161 -0.4661  0.1956
  548MPD2    C2 8182   3.046   2.302  12.749 -0.1220 -0.3904 -0.5935
  548MPD2    C3 8183   3.174   2.353  12.750  0.0778 -0.2688 -0.0129
  548MPD2    C4 8184   3.207   2.471  12.817  0.0702  0.9349  0.5031
  548MPD2    C5 8185   3.107   2.540  12.877  0.3241 -0.3227  0.1702
  548MPD2     H 8186   3.029   2.212  12.691 -0.0541 -0.3611 -0.6593
  548MPD2    H1 8187   3.306   2.515  12.825 -0.1875  1.4481  0.8662
  548MPD2    H2 8188   2.900   2.553  12.927  0.6863  0.3429  0.7395
  548MPD2    H3 8189   3.126   2.632  12.932 -2.2290 -0.3002  1.0194
  548MPD2     N 8190   3.268   2.279  12.676 -0.1376  0.6179 -0.1984
  548MPD2    H5 8191   3.230   2.192  12.640 -1.1464  1.2313 -0.6147
  548MPD2    N1 8192   2.811   2.341  12.796  0.1497  0.5819  0.8355
  548MPD2    H7 8193   2.751   2.419  12.822  0.0483  0.5528  0.6923
  549TMC3    C1 8194   2.628   2.215  12.729  0.4544 -0.0069 -0.5224
  549TMC3    C2 8195   2.561   2.337  12.722 -0.0595 -0.4006  0.8246
  549TMC3    C3 8196   2.423   2.337  12.744 -0.2830 -0.2426  0.2461
  549TMC3    C4 8197   2.562   2.099  12.760 -0.0716  0.5096  0.0408
  549TMC3    C5 8198   2.428   2.107  12.782  0.7540  0.5660  0.2321
  549TMC3    C6 8199   2.357   2.225  12.779 -0.6418  1.3792 -0.1984
  549TMC3     C 8200   2.768   2.219  12.756 -0.5952  0.6125 -0.5188
  549TMC3     O 8201   2.834   2.114  12.739  0.3770 -0.3562 -0.0457
  549TMC3     H 8202   2.613   2.428  12.697  2.2166 -2.0925 -0.6530
  549TMC3    H1 8203   2.617   2.006  12.771  0.6311  0.8356 -0.6960
  549TMC3    H2 8204   2.250   2.226  12.796 -0.7540  0.2161 -0.8919
  549TMC3    C7 8205   2.355   1.984  12.806 -0.2318 -0.1196  0.2847
  549TMC3    C8 8206   2.341   2.447  12.705 -0.5876 -0.3097  0.0911
  549TMC3    O1 8207   2.248   1.994  12.866  0.0102 -0.0976  0.2292
  549TMC3    O2 8208   2.218   2.435  12.723  0.3800  0.4995 -0.9167
  550TMC3    C1 8209   1.665   1.341  12.311 -0.5043  0.4710 -0.4124
  550TMC3    C2 8210   1.616   1.286  12.427  0.2423  0.6380 -0.2071
  550TMC3    C3 8211   1.487   1.313  12.464 -0.0205  0.0449 -0.1385
  550TMC3    C4 8212   1.588   1.410  12.224  0.2830  0.3876 -0.6818
  550TMC3    C5 8213   1.457   1.440  12.260 -0.7667 -0.6597 -0.5156
  550TMC3    C6 8214   1.413   1.401  12.383 -0.2776 -0.7166  0.0991
  550TMC3     C 8215   1.783   1.283  12.247 -0.2824  0.0000  0.5956
  550TMC3     O 8216   1.803   1.309  12.130 -0.4939  0.4117  0.7631
  550TMC3     H 8217   1.681   1.231  12.494 -1.6776  0.8714  1.8562
  550TMC3    H1 8218   1.639   1.443  12.134 -1.0858 -0.3622 -1.7294
  550TMC3    H2 8219   1.312   1.430  12.411 -0.0851 -1.1996  1.2831
  550TMC3    C7 8220   1.359   1.501  12.158  0.5872 -0.5392  0.8261
  550TMC3    C8 8221   1.450   1.286  12.601  0.1754 -0.3943  0.3911
  550TMC3    O1 8222   1.247   1.459  12.161 -0.0075 -0.6489  0.0921
  550TMC3    O2 8223   1.404   1.377  12.664  0.2098 -0.4575  0.1904
  551TMC3    C1 8224   4.304   3.281  13.109  0.2931 -0.1822 -0.0557
  551TMC3    C2 8225   4.415   3.205  13.069  0.6973 -0.3615 -0.4240
  551TMC3    C3 8226   4.524   3.197  13.144  0.3482 -0.4917 -0.5915
  551TMC3    C4 8227   4.300   3.342  13.238 -0.7564  0.6906  0.4370
  551TMC3    C5 8228   4.415   3.327  13.311 -0.7776 -0.0682  0.6187
  551TMC3    C6 8229   4.520   3.253  13.265  0.2757  0.2415 -0.3619
  551TMC3     C 8230   4.220   3.330  13.004 -0.1005  0.5191 -1.1377
  551TMC3     O 8231   4.113   3.379  13.038  0.2699  0.2019  0.1309
  551TMC3     H 8232   4.422   3.170  12.967 -2.2678  0.2747 -0.8495
  551TMC3    H1 8233   4.216   3.403  13.269 -2.6750 -1.8723  0.3388
  551TMC3    H2 8234   4.609   3.263  13.326  0.3648  3.1088 -0.9750
  551TMC3    C7 8235   4.420   3.373  13.448 -0.6167 -0.4287  0.3392
  551TMC3    C8 8236   4.645   3.161  13.078  0.2675  1.4745  0.1684
  551TMC3    O1 8237   4.494   3.317  13.524 -0.4371 -0.1600  0.1911
  551TMC3    O2 8238   4.631   3.060  13.013  0.0043 -0.3761  0.4561
  552MPD2     C 8239   1.326   0.391  13.948 -0.1532  0.2753 -0.5151
  552MPD2    C1 8240   1.373   0.265  13.984 -0.2208  0.6676 -0.9030
  552MPD2    C2 8241   1.478   0.254  14.076 -0.8174 -0.0312 -0.3179
  552MPD2    C3 8242   1.545   0.367  14.117 -0.0401  0.0092 -0.5745
  552MPD2    C4 8243   1.508   0.493  14.069 -0.1773 -0.3608  0.1251
  552MPD2    C5 8244   1.395   0.499  13.987  0.2925  0.7022  0.1300
  552MPD2     H 8245   1.506   0.158  14.117 -0.4151  0.8224  1.3878
  552MPD2    H1 8246   1.565   0.584  14.088  0.3609 -0.3741 -1.3538
  552MPD2    H2 8247   1.244   0.421  13.884  0.3660  1.2018 -0.7520
  552MPD2    H3 8248   1.363   0.595  13.948 -0.6955  0.3489  0.0808
  552MPD2     N 8249   1.660   0.351  14.194 -0.6237 -0.9448 -0.3264
  552MPD2    H5 8250   1.712   0.436  14.215 -1.9896  0.2372 -1.7553
  552MPD2    N1 8251   1.309   0.149  13.938 -0.1404 -0.0192 -0.0402
  552MPD2    H7 8252   1.348   0.065  13.978  1.6075  0.5123 -0.6207
  553TMC3    C1 8253   1.169   4.736  13.813  0.0272  0.0177 -0.4353
  553TMC3    C2 8254   1.103   4.715  13.697  0.4216  0.3329  0.1049
  553TMC3    C3 8255   1.094   4.589  13.648 -0.7816  0.2020  0.3328
  553TMC3    C4 8256   1.225   4.640  13.894 -0.4950 -0.0284  0.2472
  553TMC3    C5 8257   1.197   4.516  13.841  0.6047 -0.7930 -0.4166
  553TMC3    C6 8258   1.144   4.486  13.719 -0.0630 -0.2939  0.6838
  553TMC3     C 8259   1.204   0.136  13.848 -0.6395  0.5591 -0.5546
  553TMC3     O 8260   1.144   0.221  13.784 -0.8517 -0.2342 -0.0464
  553TMC3     H 8261   1.082   0.067  13.638 -0.7481 -0.2046 -0.3019
  553TMC3    H1 8262   1.245   4.659  13.999  0.4873 -0.7598  0.1870
  553TMC3    H2 8263   1.118   4.385  13.690 -0.4170 -0.4469  1.5316
  553TMC3    C7 8264   1.261   4.402  13.904 -0.2831  0.3667  0.1788
  553TMC3    C8 8265   1.109   4.585  13.503  1.0101 -0.2653  0.1000
  553TMC3    O1 8266   1.209   4.291  13.882 -0.4669  0.1548  0.1563
  553TMC3    O2 8267   1.066   4.680  13.436  0.5745 -0.3099 -0.5417
  554TMC3    C1 8268   3.436   0.012  11.275  0.0693 -0.3956  0.1062
  554TMC3    C2 8269   3.372   4.671  11.178  0.9021  0.5592 -0.5436
  554TMC3    C3 8270   3.392   4.714  11.049 -0.9773  0.1973 -0.0895
  554TMC3    C4 8271   3.507   0.124  11.249 -0.2852 -0.0859 -0.1246
  554TMC3    C5 8272   3.526   0.162  11.118  0.0691 -0.2236  0.6107
  554TMC3    C6 8273   3.471   0.084  11.022  0.3720  0.5499 -0.3152
  554TMC3     C 8274   3.459   4.701  11.411  0.1788 -0.1781 -0.2840
  554TMC3     O 8275   3.573   4.716  11.446 -0.3787 -0.3451  0.0225
  554TMC3     H 8276   3.330   4.574  11.202 -1.8092  1.4232 -1.8582
  554TMC3    H1 8277   3.543   0.180  11.335 -0.8141 -0.9927  0.6762
  554TMC3    H2 8278   3.505   0.093  10.919 -2.3681 -0.9788 -1.3401
  554TMC3    C7 8279   3.632   0.254  11.074  0.1882  0.3076 -0.1572
  554TMC3    C8 8280   3.351   4.643  10.931 -0.4186  0.3018  0.0558
  554TMC3    O1 8281   3.692   0.212  10.976 -0.1538 -0.2991 -0.0942
  554TMC3    O2 8282   3.439   4.620  10.847 -0.0019  0.2368  0.6083
  555TMC3    C1 8283   2.824   3.841  14.759 -0.0708 -0.1669  0.2413
  555TMC3    C2 8284   2.807   3.921  14.870 -0.3552 -0.9613  1.1199
  555TMC3    C3 8285   2.857   3.868  14.984 -0.4850  0.2377  0.3098
  555TMC3    C4 8286   2.874   3.718  14.755 -0.6581 -0.4827  0.5227
  555TMC3    C5 8287   2.902   3.665  14.878 -0.2653 -0.1207 -0.6556
  555TMC3    C6 8288   2.898   3.734  14.994 -0.1577 -0.3119 -0.3044
  555TMC3     C 8289   2.834   3.907  14.627  0.4954 -0.2884  0.7008
  555TMC3     O 8290   2.930   3.881  14.556 -0.6290  0.1315  0.0892
  555TMC3     H 8291   2.784   4.026  14.856  0.2714 -0.9459  0.2018
  555TMC3    H1 8292   2.889   3.667  14.661  0.3798  0.5849  0.1097
  555TMC3    H2 8293   2.944   3.698  15.085  0.7092 -2.3861 -1.5643
  555TMC3    C7 8294   2.934   3.525  14.888  0.0640  0.1952 -0.2249
  555TMC3    C8 8295   2.914   3.978  15.077 -0.2207 -0.2714 -0.0843
  555TMC3    O1 8296   2.968   3.486  14.998 -0.1734  0.2686 -0.1155
  555TMC3    O2 8297   2.908   4.094  15.035  0.4343  0.2122 -0.0650
  556MPD2     C 8298   0.124   1.344  10.412 -0.9797  0.4577 -0.0978
  556MPD2    C1 8299   0.222   1.294  10.501  0.2453 -0.2315 -0.0706
  556MPD2    C2 8300   0.339   1.247  10.451  0.3024 -0.1725  0.0442
  556MPD2    C3 8301   0.367   1.259  10.310  0.2173  0.4204 -0.4523
  556MPD2    C4 8302   0.276   1.312  10.224 -0.5283 -0.0211 -0.3475
  556MPD2    C5 8303   0.157   1.351  10.277  0.7588  0.3497 -0.3638
  556MPD2     H 8304   0.406   1.194  10.518  0.2799  0.7749  0.8158
  556MPD2    H1 8305   0.307   1.345  10.125 -2.6251  1.9072 -0.3572
  556MPD2    H2 8306   0.032   1.388  10.447 -0.3612 -0.4487  2.6734
  556MPD2    H3 8307   0.075   1.394  10.220  0.6737 -2.3957 -2.2910
  556MPD2     N 8308   0.493   1.208  10.268 -0.5385 -0.4496 -0.1892
  556MPD2    H5 8309   0.545   1.164  10.344  0.1582  1.3541  0.3726
  556MPD2    N1 8310   0.201   1.283  10.643  0.0571  0.5791 -0.0323
  556MPD2    H7 8311   0.281   1.259  10.700 -1.0701  0.8093  1.6428
  557TMC3    C1 8312   0.669   1.129  10.135 -0.4342 -0.3653  0.4671
  557TMC3    C2 8313   0.679   1.056  10.027  0.3822 -0.3108 -0.3469
  557TMC3    C3 8314   0.774   0.958  10.029 -0.7610 -0.0672 -0.6752
  557TMC3    C4 8315   0.750   1.117  10.245  0.1351 -0.4860  0.0426
  557TMC3    C5 8316   0.855   1.024  10.237 -0.2513 -0.5328  0.1001
  557TMC3    C6 8317   0.869   0.942  10.126  0.3014  0.0982  0.0342
  557TMC3     C 8318   0.551   1.210  10.140  0.1571 -0.5628 -0.6233
  557TMC3     O 8319   0.509   1.243  10.027 -0.3594  0.2473 -0.2335
  557TMC3     H 8320   0.613   1.077   9.944 -0.1880 -0.4441  0.0731
  557TMC3    H1 8321   0.740   1.177  10.336  1.5503 -2.5515  1.5513
  557TMC3    H2 8322   0.950   0.872  10.113 -0.1804 -0.3914 -0.3287
  557TMC3    C7 8323   0.866   0.959  10.364  0.0914 -0.2127  0.8694
  557TMC3    C8 8324   0.811   0.903   9.905  1.1416 -0.0751  0.2592
  557TMC3    O1 8325   0.778   0.993  10.443  0.1777 -0.1516 -0.4817
  557TMC3    O2 8326   0.929   0.875   9.894 -0.0439  0.8030  0.3327
  558TMC3    C1 8327   2.988   3.965  10.607  1.0749 -0.0482  0.1914
  558TMC3    C2 8328   2.865   3.985  10.666  0.9931  0.2226  0.0527
  558TMC3    C3 8329   2.755   3.988  10.584  0.7790 -0.4994 -0.2107
  558TMC3    C4 8330   3.002   3.951  10.470  0.3492 -0.6029 -0.5136
  558TMC3    C5 8331   2.891   3.941  10.397  0.4690 -0.2266 -0.0032
  558TMC3    C6 8332   2.765   3.956  10.448  0.1200  0.5470  0.4990
  558TMC3     C 8333   3.109   3.963  10.695 -0.0962  0.2092 -0.1557
  558TMC3     O 8334   3.219   3.982  10.639 -0.0157  0.1237 -0.2245
  558TMC3     H 8335   2.856   4.019  10.769 -1.1324  1.4447 -0.5287
  558TMC3    H1 8336   3.102   3.945  10.429  1.0222 -0.7659  1.1380
  558TMC3    H2 8337   2.674   3.949  10.389 -0.4786 -0.0048  1.4987
  558TMC3    C7 8338   2.913   3.926  10.249 -0.6020 -0.3698 -0.1254
  558TMC3    C8 8339   2.623   4.032  10.632  0.5786  0.1548 -0.5285
  558TMC3    O1 8340   3.027   3.953  10.200 -0.2149 -0.5380  0.0291
  558TMC3    O2 8341   2.539   4.084  10.563 -0.0613 -0.0034  0.1059
  559MPD2     C 8342   3.106   4.325  10.529  0.2908 -0.0152  0.6430
  559MPD2    C1 8343   3.043   4.345  10.647 -0.4132  0.1644  0.0818
  559MPD2    C2 8344   3.116   4.336  10.765  0.5172 -0.0924 -0.1231
  559MPD2    C3 8345   3.249   4.302  10.768 -0.5692 -0.2063  0.0521
  559MPD2    C4 8346   3.312   4.277  10.648  0.2709  0.5591 -0.0877
  559MPD2    C5 8347   3.241   4.297  10.533 -0.3801 -0.8721 -0.6498
  559MPD2     H 8348   3.065   4.368  10.856 -0.6556 -2.2082 -0.0294
  559MPD2    H1 8349   3.419   4.264  10.635  0.4786  0.0158  2.0930
  559MPD2    H2 8350   3.045   4.330  10.439 -0.4338  0.0686  1.1350
  559MPD2    H3 8351   3.299   4.287  10.441  0.5602  0.9307 -0.2426
  559MPD2     N 8352   3.312   4.303  10.893 -0.2559 -0.4452 -0.0258
  559MPD2    H5 8353   3.261   4.340  10.973  0.1580  0.3468 -0.1296
  559MPD2    N1 8354   2.907   4.381  10.639 -0.2125 -0.1622  1.0806
  559MPD2    H7 8355   2.868   4.374  10.546 -0.8771 -2.4824  1.5295
  560TMC3    C1 8356   3.470   4.308  11.060  0.3441  0.4778 -0.2422
  560TMC3    C2 8357   3.373   4.274  11.152 -0.2188  0.3522  0.2677
  560TMC3    C3 8358   3.422   4.241  11.275 -0.5475  0.3728 -0.0509
  560TMC3    C4 8359   3.605   4.311  11.086 -0.9324  0.1673  0.5288
  560TMC3    C5 8360   3.643   4.296  11.214  0.3115 -0.0372 -0.1461
  560TMC3    C6 8361   3.556   4.241  11.307  0.5847  0.6388 -0.9887
  560TMC3     C 8362   3.444   4.297  10.917  0.2486 -0.4452  0.1050
  560TMC3     O 8363   3.541   4.281  10.843 -0.2395  0.5693 -0.5282
  560TMC3     H 8364   3.273   4.240  11.128 -0.5463  2.6236 -1.5004
  560TMC3    H1 8365   3.681   4.329  11.011 -1.4083  2.3613  0.5827
  560TMC3    H2 8366   3.593   4.209  11.404  1.2795 -0.2692 -1.5648
  560TMC3    C7 8367   3.777   4.242  11.221  0.2036  0.4052  0.3363
  560TMC3    C8 8368   3.326   4.203  11.374 -0.2165 -0.4961  1.2215
  560TMC3    O1 8369   3.783   4.135  11.276  0.2349 -0.2388  0.3435
  560TMC3    O2 8370   3.221   4.262  11.384  0.2550 -0.7124  0.0518
  561TMC3    C1 8371   1.090   3.410  11.096  0.2053 -0.4132 -0.3746
  561TMC3    C2 8372   1.006   3.310  11.118  0.0686  0.8363 -0.1821
  561TMC3    C3 8373   0.891   3.341  11.191  0.4575 -0.1499 -0.1503
  561TMC3    C4 8374   1.063   3.542  11.118 -0.2314 -0.0493  0.9456
  561TMC3    C5 8375   0.951   3.574  11.185 -0.2082  0.5293  0.2872
  561TMC3    C6 8376   0.864   3.476  11.231  0.1170  0.3624 -0.0659
  561TMC3     C 8377   1.225   3.364  11.072  0.1126 -0.3955  0.4840
  561TMC3     O 8378   1.232   3.257  11.014  0.5552  0.3216 -1.0646
  561TMC3     H 8379   1.026   3.209  11.082  0.9772  0.1504  2.2635
  561TMC3    H1 8380   1.142   3.614  11.102 -0.6370  0.2928  0.4718
  561TMC3    H2 8381   0.768   3.513  11.266  0.6310  1.3781  0.2951
  561TMC3    C7 8382   0.913   3.706  11.212  0.5332  0.1531 -0.4556
  561TMC3    C8 8383   0.808   3.222  11.230  0.4169  0.3179 -0.5924
  561TMC3    O1 8384   0.799   3.738  11.245 -0.5757  0.3397 -0.6162
  561TMC3    O2 8385   0.800   3.126  11.158  0.4601 -1.1131  0.0348
  562TMC3    C1 8386   2.792   4.397  16.197 -0.1051  0.4375 -0.6291
  562TMC3    C2 8387   2.765   4.526  16.161 -0.0904  0.5915  0.0742
  562TMC3    C3 8388   2.732   4.548  16.033 -0.3918 -0.2157  0.9652
  562TMC3    C4 8389   2.779   4.287  16.122 -0.2440  0.6252  0.1060
  562TMC3    C5 8390   2.743   4.318  15.993 -0.3967 -0.1265 -0.2590
  562TMC3    C6 8391   2.727   4.447  15.945  0.1724 -0.3828 -0.3836
  562TMC3     C 8392   2.836   4.381  16.338 -0.3434  0.5327 -0.2575
  562TMC3     O 8393   2.895   4.473  16.395 -0.2504  0.3185  0.3932
  562TMC3     H 8394   2.780   4.612  16.226  1.4564 -0.3519  0.9364
  562TMC3    H1 8395   2.805   4.189  16.159 -0.2846  0.4598 -0.3017
  562TMC3    H2 8396   2.685   4.469  15.848 -0.2320  1.4430  0.2018
  562TMC3    C7 8397   2.751   4.214  15.889  0.6745  0.3710  0.5131
  562TMC3    C8 8398   2.677   4.677  16.001  0.9476 -0.8045  0.1687
  562TMC3    O1 8399   2.750   4.261  15.776 -0.2339 -0.3291  0.0055
  562TMC3    O2 8400   2.727   0.036  16.054  0.3147  0.4728  0.9232
  563MPD2     C 8401   0.335   0.554  15.577 -0.7058 -0.2203  0.4572
  563MPD2    C1 8402   0.319   0.537  15.709  0.2110  0.7574 -0.0367
  563MPD2    C2 8403   0.420   0.537  15.791 -0.2522  0.9323  0.3348
  563MPD2    C3 8404   0.545   0.573  15.744 -1.5758 -0.0008 -0.7129
  563MPD2    C4 8405   0.569   0.589  15.608 -0.5046 -0.4913 -0.0259
  563MPD2    C5 8406   0.458   0.585  15.528  0.5914 -0.0383 -0.0385
  563MPD2     H 8407   0.397   0.514  15.895  0.2574  3.5813  1.0381
  563MPD2    H1 8408   0.661   0.632  15.568 -1.0562 -2.0511 -3.0006
  563MPD2    H2 8409   0.248   0.551  15.511 -0.2180 -1.8550 -0.0987
  563MPD2    H3 8410   0.456   0.618  15.425  0.5461  0.8937  0.2657
  563MPD2     N 8411   0.641   0.594  15.845  0.2437  0.1387 -0.7118
  563MPD2    H5 8412   0.612   0.574  15.940 -0.8955  0.8006 -0.9160
  563MPD2    N1 8413   0.186   0.519  15.759 -0.1626  0.2359  0.8522
  563MPD2    H7 8414   0.184   0.508  15.860  0.7098  0.8890  0.9382
  564TMC3    C1 8415   4.693   0.507  15.786  0.0559 -0.1405  0.3191
  564TMC3    C2 8416   4.627   0.389  15.767 -0.1378  0.4330 -0.1590
  564TMC3    C3 8417   4.584   0.324  15.880 -0.5598  0.0392 -0.1054
  564TMC3    C4 8418   0.005   0.545  15.908  0.3102 -0.3939  0.4612
  564TMC3    C5 8419   4.709   0.469  16.017  0.1436  0.5723  0.1038
  564TMC3    C6 8420   4.621   0.363  16.004  0.0144 -0.0498 -0.0537
  564TMC3     C 8421   0.061   0.518  15.692  0.1983  0.0495 -0.1031
  564TMC3     O 8422   0.027   0.513  15.576  0.1097 -0.1676 -0.0785
  564TMC3     H 8423   4.611   0.348  15.668 -0.9976 -2.6968  1.2746
  564TMC3    H1 8424   0.043   0.647  15.910 -0.1151 -0.1943 -2.7389
  564TMC3    H2 8425   4.589   0.295  16.082  1.9353  1.5448  2.1097
  564TMC3    C7 8426   0.096   0.428  16.088 -0.0392  0.1188 -0.5163
  564TMC3    C8 8427   4.557   0.183  15.860 -0.0334 -0.2081  0.7311
  564TMC3    O1 8428   0.193   0.503  16.085  0.1462 -0.1266 -0.1593
  564TMC3    O2 8429   4.611   0.110  15.950  0.1268  0.5757 -0.1459
  565TMC3    C1 8430   4.480   2.982   9.874  0.4783 -0.0810  0.1838
  565TMC3    C2 8431   4.518   2.894   9.973  0.1727  0.7130  0.5586
  565TMC3    C3 8432   4.413   2.826  10.028  0.0249  0.5015 -0.5404
  565TMC3    C4 8433   4.348   3.001   9.841  0.5127  0.7082 -0.1988
  565TMC3    C5 8434   4.249   2.932   9.903 -0.4468 -0.6169 -0.1409
  565TMC3    C6 8435   4.286   2.833   9.986  0.5163  0.7886  0.3273
  565TMC3     C 8436   4.570   3.050   9.788 -0.1430  0.0812 -0.0748
  565TMC3     O 8437   4.552   3.160   9.740 -0.5903 -0.4344  0.1822
  565TMC3     H 8438   4.621   2.892  10.007  0.9626  0.3922 -1.8645
  565TMC3    H1 8439   4.322   3.079   9.770 -1.1078  0.5196  0.1952
  565TMC3    H2 8440   4.207   2.797  10.052 -0.4609 -1.1200 -1.8963
  565TMC3    C7 8441   4.113   2.958   9.867 -0.6029 -0.5971  0.2145
  565TMC3    C8 8442   4.451   2.721  10.120  0.4843  0.1036  0.3235
  565TMC3    O1 8443   4.105   3.058   9.801  0.4061  0.6752 -0.2838
  565TMC3    O2 8444   4.549   2.731  10.193  0.5649  0.6180 -0.2924
  566MPD2     C 8445   2.514   3.789  14.308 -0.2970  0.7678 -0.0120
  566MPD2    C1 8446   2.513   3.814  14.172  0.1870 -0.4718  0.2315
  566MPD2    C2 8447   2.393   3.813  14.107 -0.1211  0.3537  0.5522
  566MPD2    C3 8448   2.274   3.788  14.180  1.0046  0.1304 -0.4683
  566MPD2    C4 8449   2.276   3.753  14.309 -0.8001 -0.3432 -0.6711
  566MPD2    C5 8450   2.395   3.755  14.375  0.0550  0.1519  0.4530
  566MPD2     H 8451   2.381   3.829  14.000 -0.8756 -1.1536  0.4065
  566MPD2    H1 8452   2.187   3.726  14.366  1.1966 -0.0750  2.5867
  566MPD2    H2 8453   2.607   3.784  14.363 -0.5710  0.0411  0.3881
  566MPD2    H3 8454   2.402   3.724  14.479  1.3274 -1.1778 -0.0133
  566MPD2     N 8455   2.151   3.799  14.113  0.4228  0.3710 -0.9918
  566MPD2    H5 8456   2.072   3.759  14.163  0.8830  0.8798  0.1366
  566MPD2    N1 8457   2.641   3.821  14.111  0.2833 -0.5019  0.0587
  566MPD2    H7 8458   2.714   3.791  14.174  0.1187 -0.1542  0.4150
  567TMC3    C1 8459   2.773   3.791  13.925 -0.3531 -0.3466  0.5437
  567TMC3    C2 8460   2.765   3.796  13.786 -0.6338 -0.3192 -0.0527
  567TMC3    C3 8461   2.793   3.688  13.715 -0.1520  0.1045 -0.2196
  567TMC3    C4 8462   2.805   3.670  13.988 -0.2574 -0.3408 -0.3880
  567TMC3    C5 8463   2.819   3.557  13.912  0.5289 -0.0397 -0.2874
  567TMC3    C6 8464   2.810   3.560  13.774  0.2022 -0.8764  0.1851
  567TMC3     C 8465   2.659   3.863  13.984  0.5883 -0.6146 -0.0931
  567TMC3     O 8466   2.577   3.909  13.910  0.1179 -0.6768  0.0200
  567TMC3     H 8467   2.731   3.887  13.738  3.3534  1.4184  0.4247
  567TMC3    H1 8468   2.836   3.658  14.091  1.8763 -1.1814 -1.1286
  567TMC3    H2 8469   2.814   3.464  13.723 -0.8800 -2.5786  3.2905
  567TMC3    C7 8470   2.793   3.437  13.985  0.3287 -0.1286 -0.0123
  567TMC3    C8 8471   2.759   3.699  13.569  0.1667  0.8921 -0.1578
  567TMC3    O1 8472   2.807   3.336  13.919  0.4845 -0.2770 -0.0744
  567TMC3    O2 8473   2.733   3.813  13.538  0.4168  0.4260  0.4630
  568MPD2     C 8474   4.686   3.491  16.144 -0.0212  0.1740 -0.7764
  568MPD2    C1 8475   0.016   3.594  16.202 -0.1736  0.5224  0.8876
  568MPD2    C2 8476   4.693   3.717  16.208  0.1901  0.0854  0.2132
  568MPD2    C3 8477   4.571   3.745  16.154  1.0539 -0.4425 -0.0741
  568MPD2    C4 8478   4.510   3.645  16.093 -0.0474 -0.1057  0.6080
  568MPD2    C5 8479   4.561   3.514  16.091 -0.1974 -1.1243  0.8161
  568MPD2     H 8480   0.010   3.796  16.259  0.5061 -0.2083  0.3315
  568MPD2    H1 8481   4.412   3.667  16.053 -0.3657  0.7257  1.8505
  568MPD2    H2 8482   4.727   3.390  16.154 -0.5461  0.1030  0.7249
  568MPD2    H3 8483   4.502   3.434  16.049  0.1133 -0.4334 -0.9369
  568MPD2     N 8484   4.520   3.874  16.181 -0.0072 -1.0827  0.1878
  568MPD2    H5 8485   4.579   3.942  16.228 -0.0913  0.2119 -1.5563
  568MPD2    N1 8486   0.141   3.563  16.259 -0.4215  0.4811 -0.4331
  568MPD2    H7 8487   0.172   3.466  16.251 -0.1040  0.6226 -0.9730
  569TMC3    C1 8488   4.369   4.048  16.183  0.6932  0.7073 -0.3828
  569TMC3    C2 8489   4.427   4.095  16.294 -0.7256  0.1912 -0.3905
  569TMC3    C3 8490   4.444   4.235  16.303 -0.7639  0.8198  0.2407
  569TMC3    C4 8491   4.314   4.130  16.094 -0.0301 -0.0408 -0.7075
  569TMC3    C5 8492   4.321   4.262  16.102  0.0628 -0.3313  0.3375
  569TMC3    C6 8493   4.397   4.321  16.204  0.1009  0.2715 -0.2102
  569TMC3     C 8494   4.387   3.912  16.141 -0.3902  0.1960  0.5091
  569TMC3     O 8495   4.308   3.860  16.064  0.1560 -0.4960 -1.0053
  569TMC3     H 8496   4.448   4.020  16.370 -1.3146 -0.9783 -1.3928
  569TMC3    H1 8497   4.270   4.083  16.007  0.3078 -1.9692  0.1386
  569TMC3    H2 8498   4.386   4.428  16.218  2.3117  0.0868  2.7620
  569TMC3    C7 8499   4.297   4.332  15.974  0.4573 -0.1256 -0.6302
  569TMC3    C8 8500   4.512   4.285  16.422  0.0066 -0.2710 -0.1240
  569TMC3    O1 8501   4.228   4.271  15.893  0.4714  0.3635  0.1550
  569TMC3    O2 8502   4.537   4.198  16.503 -0.5587  0.6810  0.0317
  570TMC3    C1 8503   3.748   3.177  16.179 -0.5435 -0.0647  0.3450
  570TMC3    C2 8504   3.803   3.185  16.055 -0.7316  0.1851  0.7069
  570TMC3    C3 8505   3.849   3.298  16.003  0.0048 -0.9417 -0.5434
  570TMC3    C4 8506   3.736   3.289  16.255 -0.6888  0.8649 -0.2845
  570TMC3    C5 8507   3.794   3.405  16.205 -0.4205  0.4776  0.5672
  570TMC3    C6 8508   3.843   3.412  16.074  0.3771 -0.0474 -0.4843
  570TMC3     C 8509   3.702   3.050  16.227  0.5778 -0.7841  0.5078
  570TMC3     O 8510   3.673   2.970  16.135  0.4462 -0.3845  0.1240
  570TMC3     H 8511   3.813   3.096  15.995  0.7971 -0.0171  1.2609
  570TMC3    H1 8512   3.684   3.295  16.350 -0.9157  0.3510 -0.3768
  570TMC3    H2 8513   3.890   3.506  16.047  1.5062 -0.2773  0.7025
  570TMC3    C7 8514   3.785   3.525  16.296 -0.1430  0.0634 -0.6833
  570TMC3    C8 8515   3.935   3.310  15.883  0.2422  0.7484  0.1869
  570TMC3    O1 8516   3.768   3.506  16.413  0.6895  0.2510 -0.6116
  570TMC3    O2 8517   3.966   3.423  15.845 -0.1591  0.0568 -0.1504
  571MPD2     C 8518   1.740   0.346  17.268 -0.0985 -0.1610 -0.0617
  571MPD2    C1 8519   1.791   0.285  17.383  0.0132  0.9745 -0.1324
  571MPD2    C2 8520   1.799   0.356  17.503 -0.4939 -0.5115  0.1549
  571MPD2    C3 8521   1.748   0.484  17.518 -0.2233  0.0414  0.1372
  571MPD2    C4 8522   1.695   0.540  17.404 -0.5024 -0.4803 -0.6158
  571MPD2    C5 8523   1.695   0.478  17.283  0.3365 -0.1623 -0.1861
  571MPD2     H 8524   1.865   0.325  17.583  1.0297 -0.1909 -0.9936
  571MPD2    H1 8525   1.641   0.634  17.405  0.0841 -0.1341 -1.2082
  571MPD2    H2 8526   1.737   0.292  17.174  1.9744 -2.6171  1.2809
  571MPD2    H3 8527   1.661   0.538  17.199 -1.7097  0.0880  0.8187
  571MPD2     N 8528   1.757   0.555  17.640 -0.2427  0.0741 -0.1141
  571MPD2    H5 8529   1.713   0.646  17.630  0.7934  0.3542 -2.1299
  571MPD2    N1 8530   1.856   0.160  17.373 -0.1335 -0.4382 -0.0193
  571MPD2    H7 8531   1.886   0.137  17.278 -1.1732  2.3522 -1.0260
  572TMC3    C1 8532   1.807   0.615   0.101  0.3305 -0.4410 -0.1421
  572TMC3    C2 8533   1.791   0.593   0.241 -0.1774 -0.2065  0.1668
  572TMC3    C3 8534   1.786   0.712   0.307 -0.1387  0.6636 -0.0816
  572TMC3    C4 8535   1.842   0.733   0.039  0.9301  0.2423 -0.2289
  572TMC3    C5 8536   1.840   0.849   0.111  0.4942 -0.1124 -0.7421
  572TMC3    C6 8537   1.810   0.839   0.246 -0.8732  0.0601  0.5344
  572TMC3     C 8538   1.794   0.505   0.013 -0.3342  0.8054  0.3004
  572TMC3     O 8539   1.846   0.399   0.043  0.3948 -0.3475 -0.5488
  572TMC3     H 8540   1.725   0.512   0.269  0.7051 -1.3437 -1.0448
  572TMC3    H1 8541   1.878   0.738  17.685 -2.4834 -0.9662 -1.4794
  572TMC3    H2 8542   1.803   0.927   0.309  1.2245 -0.5086  1.5583
  572TMC3    C7 8543   1.891   0.971   0.049  0.0159  0.1476 -0.1836
  572TMC3    C8 8544   1.719   0.723   0.437  0.7216 -0.3922  0.2814
  572TMC3    O1 8545   1.910   0.966  17.674  0.3842  0.3381 -0.0542
  572TMC3    O2 8546   1.696   0.837   0.478 -0.1800  0.3557 -0.2700
  573MPD2     C 8547   3.224   0.258   0.651  0.2532  0.2706  0.5080
  573MPD2    C1 8548   3.331   0.348   0.639 -0.9585  0.7189  0.6166
  573MPD2    C2 8549   3.370   0.393   0.517 -0.3111 -0.4755 -0.2648
  573MPD2    C3 8550   3.318   0.339   0.406 -0.5608 -0.1170  0.1382
  573MPD2    C4 8551   3.224   0.239   0.411 -0.2152  0.2107 -0.4035
  573MPD2    C5 8552   3.176   0.204   0.532  0.1007  0.3586 -0.0959
  573MPD2     H 8553   3.449   0.467   0.507 -1.7845  1.1470  0.2252
  573MPD2    H1 8554   3.185   0.179   0.329 -0.0205 -1.8595  1.0419
  573MPD2    H2 8555   3.191   0.209   0.742 -2.5286 -1.3131 -1.3609
  573MPD2    H3 8556   3.100   0.128   0.550  0.2827 -0.2353 -1.8440
  573MPD2     N 8557   3.341   0.389   0.277 -0.4087  0.4751  0.4805
  573MPD2    H5 8558   3.298   0.339   0.200 -0.7582 -1.2840  1.8261
  573MPD2    N1 8559   3.387   0.384   0.765 -0.0365 -0.3854 -1.1626
  573MPD2    H7 8560   3.346   0.351   0.852  0.7749  1.5161 -0.0606
  574TMC3    C1 8561   3.411   0.537   0.105  0.0782  0.5303 -0.5097
  574TMC3    C2 8562   3.284   0.545   0.068  0.3286 -0.1037  0.3782
  574TMC3    C3 8563   3.258   0.625  17.709 -0.3209  0.2496  0.0447
  574TMC3    C4 8564   3.506   0.616   0.055 -0.3547  0.1134  0.2713
  574TMC3    C5 8565   3.475   0.708  17.706  0.2324 -0.4193 -0.9163
  574TMC3    C6 8566   3.347   0.717  17.657 -0.7816 -0.6504 -0.2270
  574TMC3     C 8567   3.432   0.494   0.242  0.1405 -0.4293  0.4611
  574TMC3     O 8568   3.532   0.531   0.305  0.4238 -0.5452  0.0618
  574TMC3     H 8569   3.202   0.488   0.110  0.9273 -0.6567  0.7944
  574TMC3    H1 8570   3.607   0.613   0.095 -0.6899  1.3942  1.2143
  574TMC3    H2 8571   3.329   0.784  17.574 -0.8193  0.5575  0.7571
  574TMC3    C7 8572   3.570   0.795  17.658  0.2340  0.2757  0.2571
  574TMC3    C8 8573   3.117   0.635  17.661 -0.3185 -0.0471  0.0955
  574TMC3    O1 8574   3.547   0.866  17.558 -0.0288  0.7494 -0.0411
  574TMC3    O2 8575   3.038   0.556  17.715  0.5181 -0.1355  0.5857
  575TMC3    C1 8576   0.132   2.299  10.771 -0.0954  0.6244  0.3151
  575TMC3    C2 8577   0.094   2.180  10.822  0.0860  0.2150  0.4701
  575TMC3    C3 8578   4.725   2.114  10.760 -0.5738  0.3303  0.2255
  575TMC3    C4 8579   0.070   2.360  10.668  0.6215  0.0671  0.6515
  575TMC3    C5 8580   4.703   2.291  10.607  0.3082 -0.1226  0.1537
  575TMC3    C6 8581   4.658   2.170  10.655 -0.3891 -0.0169  0.5605
  575TMC3     C 8582   0.242   2.376  10.834 -0.3456  0.2350 -0.0964
  575TMC3     O 8583   0.294   2.458  10.760 -0.4727  0.3684 -0.3781
  575TMC3     H 8584   0.163   2.136  10.892 -1.8659 -2.4637  0.7043
  575TMC3    H1 8585   0.099   2.461  10.640 -1.3224  1.2038  2.8183
  575TMC3    H2 8586   4.572   2.120  10.613  1.2815 -0.3218 -2.5334
  575TMC3    C7 8587   4.637   2.363  10.503 -0.9196  0.4752 -0.4051
  575TMC3    C8 8588   4.662   1.997  10.820 -0.0486 -1.0261 -0.0649
  575TMC3    O1 8589   4.658   2.483  10.504 -0.4550  0.1677  0.5871
  575TMC3    O2 8590   4.582   1.940  10.742  0.4110 -0.4792 -0.5374
  576MPD2     C 8591   0.154   3.141  12.555  0.6011 -0.6535  0.4923
  576MPD2    C1 8592   0.170   3.266  12.490  0.6390 -0.0031 -0.9556
  576MPD2    C2 8593   0.099   3.368  12.556  0.0146  0.1282  0.3331
  576MPD2    C3 8594   0.023   3.358  12.668 -0.4953  0.2633 -0.0478
  576MPD2    C4 8595   0.010   3.233  12.717  0.0378  0.8560  0.2544
  576MPD2    C5 8596   0.075   3.123  12.666 -0.4683 -0.0499  0.5163
  576MPD2     H 8597   0.105   3.464  12.506 -0.2748  0.7609  1.5111
  576MPD2    H1 8598   4.687   3.214  12.805 -0.6546 -2.0308 -0.8470
  576MPD2    H2 8599   0.222   3.062  12.527  0.0511 -0.1543 -2.3120
  576MPD2    H3 8600   0.070   3.025  12.712  2.8102 -0.6254 -0.3551
  576MPD2     N 8601   4.708   3.478  12.721 -0.1656  0.0778 -0.0846
  576MPD2    H5 8602   0.000   3.568  12.684  1.7842 -0.4692  0.1436
  576MPD2    N1 8603   0.235   3.293  12.369  0.0990  0.2416  0.0219
  576MPD2    H7 8604   0.240   3.392  12.346  1.0151 -0.3684 -2.3068
  577TMC3    C1 8605   0.335   3.264  12.154 -0.1819 -0.3576  0.3356
  577TMC3    C2 8606   0.343   3.174  12.052 -0.0922 -0.7328 -0.3070
  577TMC3    C3 8607   0.340   3.218  11.924 -1.1501  0.5918  0.5542
  577TMC3    C4 8608   0.327   3.394  12.131 -0.0084 -0.6928 -0.2916
  577TMC3    C5 8609   0.321   3.434  12.001  0.1366  0.4318  1.1802
  577TMC3    C6 8610   0.326   3.351  11.893 -0.2769  0.5665  0.3208
  577TMC3     C 8611   0.294   3.206  12.283 -0.4659  0.5643  0.9871
  577TMC3     O 8612   0.305   3.087  12.301 -0.1595 -0.0297  0.0533
  577TMC3     H 8613   0.346   3.069  12.078 -0.7642 -0.0393  2.5828
  577TMC3    H1 8614   0.341   3.470  12.208 -0.8914 -0.6989 -0.1296
  577TMC3    H2 8615   0.326   3.390  11.792 -1.0941  0.8867  0.4422
  577TMC3    C7 8616   0.378   3.564  11.970 -0.2698 -0.0315  0.0117
  577TMC3    C8 8617   0.376   3.127  11.822  0.0721 -0.1978 -0.2537
  577TMC3    O1 8618   0.454   3.616  12.054 -0.4930  0.0268 -0.3446
  577TMC3    O2 8619   0.349   3.006  11.828 -0.4259 -0.2837  0.3525
  578MPD2     C 8620   3.756   3.114   1.053 -0.1277  0.4725 -0.1085
  578MPD2    C1 8621   3.816   3.187   0.948 -0.3937  0.6163  0.5657
  578MPD2    C2 8622   3.921   3.128   0.882 -0.2015 -0.7899 -0.4216
  578MPD2    C3 8623   3.949   2.998   0.897  0.2583 -0.1732 -0.6109
  578MPD2    C4 8624   3.874   2.912   0.983  0.3566  0.1733  0.2457
  578MPD2    C5 8625   3.777   2.978   1.057 -0.0351 -0.1217  0.2444
  578MPD2     H 8626   3.974   3.191   0.811 -2.3332  1.4742  0.0157
  578MPD2    H1 8627   3.883   2.805   0.997  1.4038  0.2959  0.5236
  578MPD2    H2 8628   3.688   3.148   1.130  0.5709  3.1944 -0.6931
  578MPD2    H3 8629   3.711   2.918   1.118 -0.6841 -1.6359 -1.9671
  578MPD2     N 8630   4.061   2.958   0.818 -0.0475  0.9332 -0.1675
  578MPD2    H5 8631   4.121   3.033   0.785 -0.4454  1.2676 -0.1436
  578MPD2    N1 8632   3.800   3.327   0.948  0.2462 -0.0306  0.4524
  578MPD2    H7 8633   3.738   3.373   1.014 -1.5633  2.0725 -2.6591
  579TMC3    C1 8634   4.259   2.808   0.789 -0.0788  0.4351 -0.4856
  579TMC3    C2 8635   4.347   2.909   0.814  0.3152 -0.5536  0.1991
  579TMC3    C3 8636   4.478   2.875   0.795  0.0978  0.0032 -0.1110
  579TMC3    C4 8637   4.296   2.684   0.749  0.0823 -0.1918  0.4260
  579TMC3    C5 8638   4.433   2.658   0.728 -0.4786 -0.0816 -0.5354
  579TMC3    C6 8639   4.526   2.757   0.743  0.0647 -0.4401 -0.3136
  579TMC3     C 8640   4.121   2.833   0.828 -0.6375  0.0925 -0.2873
  579TMC3     O 8641   4.070   2.730   0.868  0.4155  0.8379 -0.0740
  579TMC3     H 8642   4.325   3.014   0.829  1.1798 -0.1153 -1.5737
  579TMC3    H1 8643   4.211   2.619   0.730 -1.4199  2.1189 -0.7134
  579TMC3    H2 8644   4.630   2.731   0.731  0.0746  0.6906 -2.7067
  579TMC3    C7 8645   4.476   2.525   0.675  0.2244 -0.2728  0.6422
  579TMC3    C8 8646   4.574   2.984   0.788  0.1678 -0.0255 -0.2783
  579TMC3    O1 8647   4.592   2.504   0.635 -0.1306  0.1841  0.1769
  579TMC3    O2 8648   4.670   2.962   0.722  0.1560  0.0062 -0.0684
  580TMC3    C1 8649   2.963   2.293  12.404  0.2638  0.5206  0.2862
  580TMC3    C2 8650   3.042   2.363  12.323 -0.2968 -0.3052  0.2084
  580TMC3    C3 8651   3.111   2.295  12.225 -0.2329 -0.9889  0.1340
  580TMC3    C4 8652   2.963   2.155  12.402 -0.3559 -0.1109  0.3960
  580TMC3    C5 8653   3.041   2.089  12.312 -0.3147  0.3124 -0.0364
  580TMC3    C6 8654   3.124   2.155  12.225  0.0135 -0.4610  0.6990
  580TMC3     C 8655   2.836   2.352  12.434 -0.2580 -0.4650 -0.1370
  580TMC3     O 8656   2.831   2.468  12.463  0.0786 -0.0298 -0.1469
  580TMC3     H 8657   3.037   2.471  12.318 -1.0689 -0.4229 -1.7817
  580TMC3    H1 8658   2.900   2.093  12.465 -0.2087 -0.5567  0.1102
  580TMC3    H2 8659   3.200   2.116  12.158 -1.0663 -2.5790  0.6997
  580TMC3    C7 8660   3.034   1.943  12.305 -0.3279  0.1177  0.2831
  580TMC3    C8 8661   3.184   2.372  12.125  0.3455  1.0318 -0.3933
  580TMC3    O1 8662   3.008   1.879  12.404  0.0473 -0.1252  0.1471
  580TMC3    O2 8663   3.168   2.339  12.010  0.2895 -0.2211 -0.1281
  581MPD2     C 8664   0.739   1.923  14.848 -0.0441 -0.5125 -0.2697
  581MPD2    C1 8665   0.631   1.868  14.914  0.1927 -0.4994  0.1989
  581MPD2    C2 8666   0.501   1.894  14.871 -0.3650  0.4140  0.9225
  581MPD2    C3 8667   0.481   1.993  14.771  0.4116 -0.2424 -0.1661
  581MPD2    C4 8668   0.587   2.047  14.700 -0.3797 -0.1525  0.0458
  581MPD2    C5 8669   0.711   2.001  14.738  0.6330  0.4461  0.2719
  581MPD2     H 8670   0.416   1.847  14.919 -2.5311  2.1758 -1.1683
  581MPD2    H1 8671   0.582   2.114  14.615  0.6421 -1.5061 -1.0573
  581MPD2    H2 8672   0.843   1.921  14.876 -0.6521  0.5000  2.1262
  581MPD2    H3 8673   0.801   2.041  14.692  0.6365  0.3255  0.1723
  581MPD2     N 8674   0.353   2.047  14.739  0.2631 -0.7100 -0.7464
  581MPD2    H5 8675   0.285   2.025  14.811 -0.7055 -2.7109 -2.2747
  581MPD2    N1 8676   0.675   1.793  15.028  0.4103 -0.4034  0.0815
  581MPD2    H7 8677   0.776   1.787  15.041  0.4495  0.0961  0.0235
  582TMC3    C1 8678   0.673   1.664  15.217 -0.3294 -0.0068  0.2064
  582TMC3    C2 8679   0.757   1.745  15.284  0.2800 -0.0910  0.2312
  582TMC3    C3 8680   0.823   1.704  15.389 -0.0956 -0.0186 -0.7326
  582TMC3    C4 8681   0.637   1.537  15.264 -0.3135 -0.5453 -0.4085
  582TMC3    C5 8682   0.685   1.510  15.392 -0.6278  0.3903  0.1010
  582TMC3    C6 8683   0.793   1.583  15.442  0.1809  0.5119  0.3737
  582TMC3     C 8684   0.593   1.722  15.108  0.0774  0.4571 -0.8847
  582TMC3     O 8685   0.481   1.671  15.085  0.5130 -0.2404  0.7003
  582TMC3     H 8686   0.764   1.847  15.247 -0.3636  0.1475  0.7599
  582TMC3    H1 8687   0.549   1.476  15.243  0.6039 -1.3200 -2.0008
  582TMC3    H2 8688   0.821   1.562  15.545  1.7032 -0.0020 -0.1430
  582TMC3    C7 8689   0.587   1.444  15.483  0.3700 -0.0798  0.4564
  582TMC3    C8 8690   0.848   1.815  15.480 -0.1473  0.9063 -0.1551
  582TMC3    O1 8691   0.641   1.357  15.550 -0.0135 -0.9365 -0.0300
  582TMC3    O2 8692   0.772   1.912  15.484  0.5158 -0.3934  0.2180
  583MPD2     C 8693   1.062   3.615  16.643  0.2462  0.4043 -0.2161
  583MPD2    C1 8694   1.033   3.706  16.547 -0.7149  0.4967  0.4203
  583MPD2    C2 8695   0.923   3.792  16.580  0.0892 -0.3134 -0.7003
  583MPD2    C3 8696   0.844   3.770  16.700 -0.3089 -0.1536  0.5736
  583MPD2    C4 8697   0.876   3.669  16.786 -0.4021  0.5541 -0.0159
  583MPD2    C5 8698   0.993   3.596  16.758 -0.5021  0.4710 -0.1573
  583MPD2     H 8699   0.893   3.882  16.528  1.0787  0.3327 -0.1608
  583MPD2    H1 8700   0.836   3.656  16.886 -3.0522 -0.3228 -1.2170
  583MPD2    H2 8701   1.151   3.554  16.633  0.1473  0.2018  0.1340
  583MPD2    H3 8702   1.018   3.528  16.839  1.7870  0.7369 -0.6240
  583MPD2     N 8703   0.751   3.873  16.720  0.0259  0.4299 -0.4199
  583MPD2    H5 8704   0.751   3.953  16.656 -0.7815  1.5180  0.9328
  583MPD2    N1 8705   1.111   3.729  16.428 -0.7705 -0.3274  0.2092
  583MPD2    H7 8706   1.094   3.810  16.370  0.7526 -0.4562 -0.4194
  584TMC3    C1 8707   0.605   4.021  16.839 -0.6359 -0.0052 -0.1862
  584TMC3    C2 8708   0.648   4.127  16.758  0.1235  0.5293 -0.2659
  584TMC3    C3 8709   0.633   4.255  16.803  0.9255  0.9688 -0.5576
  584TMC3    C4 8710   0.532   4.054  16.950  0.7473  0.1657  0.6079
  584TMC3    C5 8711   0.524   4.182  16.995 -1.0218  0.1510  0.6821
  584TMC3    C6 8712   0.573   4.290  16.920 -0.6437 -0.0450  0.5874
  584TMC3     C 8713   0.675   3.890  16.836  1.1589  0.1468  0.0747
  584TMC3     O 8714   0.667   3.816  16.936  0.1197 -0.0149  0.1288
  584TMC3     H 8715   0.697   4.116  16.663 -0.2225 -1.0198 -0.2659
  584TMC3    H1 8716   0.503   3.971  17.013 -1.7262  1.4332  1.1435
  584TMC3    H2 8717   0.571   4.393  16.952 -2.2570  1.0659 -3.0494
  584TMC3    C7 8718   0.495   4.201  17.135 -0.3907 -0.0058 -0.5583
  584TMC3    C8 8719   0.687   4.354  16.717  0.8558 -0.3264  0.3696
  584TMC3    O1 8720   0.481   4.098  17.202 -0.0830  0.1194  0.1137
  584TMC3    O2 8721   0.648   4.352  16.604  0.2967  0.5861  0.3439
  585MPD2     C 8722   0.535   2.969   0.219  0.1451  1.4440 -0.0059
  585MPD2    C1 8723   0.610   2.887   0.146  0.1681  0.4664 -0.6972
  585MPD2    C2 8724   0.543   2.798   0.064 -0.3602  0.8824  0.3091
  585MPD2    C3 8725   0.403   2.787   0.053  0.3489  0.3615 -0.4002
  585MPD2    C4 8726   0.331   2.879   0.124  0.9826 -0.3011 -0.5124
  585MPD2    C5 8727   0.396   2.968   0.209 -0.0798  0.2484 -0.0517
  585MPD2     H 8728   0.599   2.723   0.010  1.8812  0.7842  2.7617
  585MPD2    H1 8729   0.223   2.880   0.123  0.9928  0.7153 -0.7379
  585MPD2    H2 8730   0.581   3.030   0.296  2.0463 -1.5260  1.2185
  585MPD2    H3 8731   0.341   3.030   0.278 -2.7202 -1.0588 -1.0098
  585MPD2     N 8732   0.328   2.691  17.717 -0.6747 -0.9998 -0.4401
  585MPD2    H5 8733   0.229   2.707  17.733 -0.5769 -0.9884  0.1798
  585MPD2    N1 8734   0.749   2.906   0.144  0.2370  0.0061  0.4451
  585MPD2    H7 8735   0.781   2.932   0.237  2.9893  1.9248 -1.0341
  586TMC3    C1 8736   0.301   2.518  17.552 -0.3584  0.4883 -0.1046
  586TMC3    C2 8737   0.365   2.454  17.449  0.0466  0.8418 -0.2657
  586TMC3    C3 8738   0.301   2.350  17.390 -0.4087  0.0686  0.1215
  586TMC3    C4 8739   0.179   2.478  17.599  0.2965 -0.3377 -0.5404
  586TMC3    C5 8740   0.116   2.369  17.536  0.4336 -0.3620  0.6909
  586TMC3    C6 8741   0.178   2.309  17.430 -0.4075 -0.7574  0.3002
  586TMC3     C 8742   0.386   2.590  17.639  0.3925  0.5986  0.2444
  586TMC3     O 8743   0.506   2.565  17.637  0.1852  0.5809  0.5947
  586TMC3     H 8744   0.459   2.488  17.406 -0.1728  1.7355 -0.0418
  586TMC3    H1 8745   0.140   2.531  17.686  2.3454 -1.4935  1.0874
  586TMC3    H2 8746   0.125   2.239  17.366  0.4141 -0.8839 -0.2462
  586TMC3    C7 8747   4.712   2.350  17.554 -0.1535 -0.4329 -0.0547
  586TMC3    C8 8748   0.349   2.300  17.271  0.2723 -0.2483  0.7540
  586TMC3    O1 8749   4.665   2.257  17.489  0.0274  0.1756  0.3993
  586TMC3    O2 8750   0.310   2.186  17.242 -0.3816  0.2894 -0.1524
  587TMC3    C1 8751   2.640   1.564  16.142  0.0001 -0.7020  0.4027
  587TMC3    C2 8752   2.697   1.685  16.171  0.3039 -0.6695 -0.4153
  587TMC3    C3 8753   2.789   1.740  16.084  0.0952  0.2189 -0.4184
  587TMC3    C4 8754   2.681   1.494  16.031 -0.7255  0.0679  0.4225
  587TMC3    C5 8755   2.772   1.552  15.943  0.6542 -0.0295  0.8266
  587TMC3    C6 8756   2.833   1.671  15.971  0.1681  0.1978  0.5741
  587TMC3     C 8757   2.544   1.515  16.238  0.6372 -0.8159  0.7272
  587TMC3     O 8758   2.552   1.550  16.351  0.3308 -0.3210  0.3102
  587TMC3     H 8759   2.664   1.723  16.267  1.3649 -3.0264  0.8851
  587TMC3    H1 8760   2.626   1.403  16.006  1.9133 -0.8498 -1.9697
  587TMC3    H2 8761   2.882   1.721  15.888 -0.6914  0.4706  0.2253
  587TMC3    C7 8762   2.780   1.502  15.807  0.1782  0.1379 -0.2570
  587TMC3    C8 8763   2.808   1.879  16.077 -0.9128 -0.6210  0.7692
  587TMC3    O1 8764   2.873   1.532  15.736 -0.1458 -0.3300  0.1534
  587TMC3    O2 8765   2.878   1.927  15.991 -0.4154  0.1505 -0.3591
  588TMC3    C1 8766   0.092   4.227   9.766  0.5552  0.0644 -0.5314
  588TMC3    C2 8767   4.735   4.140   9.809  0.1965  0.0810  0.1236
  588TMC3    C3 8768   0.030   4.066   9.919  0.6540  0.0891  0.2097
  588TMC3    C4 8769   0.210   4.239   9.827 -0.3211  1.0231 -0.5169
  588TMC3    C5 8770   0.234   4.165   9.936  0.4365  0.1759 -0.0204
  588TMC3    C6 8771   0.154   4.071   9.982 -0.4157  0.3022  0.4618
  588TMC3     C 8772   0.036   4.347   9.693  0.0019  0.6057 -0.8096
  588TMC3     O 8773   4.653   4.343   9.691  0.4705 -0.4191 -0.4247
  588TMC3     H 8774   4.643   4.127   9.754 -1.3295  0.3071  2.6056
  588TMC3    H1 8775   0.280   4.311   9.787  1.0525 -0.0079  0.0195
  588TMC3    H2 8776   0.161   4.040  10.086 -0.4719 -3.0251 -0.5501
  588TMC3    C7 8777   0.327   4.227  10.034 -0.1723  0.1090 -0.0758
  588TMC3    C8 8778   4.660   3.978   9.965 -0.4611  0.1694 -0.0879
  588TMC3    O1 8779   0.408   4.155  10.091 -0.3012  0.3357 -0.3952
  588TMC3    O2 8780   4.550   3.997   9.916 -0.4546  0.4002 -0.2338
  589TMC3    C1 8781   4.470   1.185   1.288 -0.5927  0.5487  0.0156
  589TMC3    C2 8782   4.589   1.224   1.341  0.2633 -0.2839 -0.5855
  589TMC3    C3 8783   4.684   1.128   1.352  0.0575 -0.5472  0.1684
  589TMC3    C4 8784   4.441   1.061   1.246 -0.1560  0.5706  0.5055
  589TMC3    C5 8785   4.543   0.970   1.266  0.0616  0.0017 -0.1403
  589TMC3    C6 8786   4.661   1.003   1.305 -0.1158 -0.3711 -0.0501
  589TMC3     C 8787   4.366   1.285   1.279  0.1972 -0.7258  0.3945
  589TMC3     O 8788   4.254   1.239   1.260  0.1211 -0.4956  0.2376
  589TMC3     H 8789   4.608   1.321   1.386 -0.4795 -0.4301  0.0479
  589TMC3    H1 8790   4.347   1.032   1.199  0.5694 -0.7626 -0.0974
  589TMC3    H2 8791   0.002   0.928   1.300  1.3556  0.9967  2.5990
  589TMC3    C7 8792   4.530   0.846   1.194 -0.1268  1.6712  0.2403
  589TMC3    C8 8793   0.083   1.169   1.391  0.2291 -0.3938  0.5842
  589TMC3    O1 8794   4.441   0.779   1.239  0.5725 -0.0336 -0.4859
  589TMC3    O2 8795   0.103   1.273   1.452 -0.4374  0.3552  0.6632
  590MPD2     C 8796   3.826   0.282  16.368  0.1330  0.6335  0.2632
  590MPD2    C1 8797   3.765   0.294  16.248 -0.2782  0.0345  0.1687
  590MPD2    C2 8798   3.822   0.376  16.156 -0.0557  0.5765 -0.0470
  590MPD2    C3 8799   3.931   0.448  16.187 -0.6670  1.0927  0.5966
  590MPD2    C4 8800   3.998   0.432  16.306  0.1394 -0.3857 -0.3411
  590MPD2    C5 8801   3.945   0.336  16.398 -0.6421  0.5627 -0.2163
  590MPD2     H 8802   3.782   0.389  16.056  4.6125 -0.5847 -2.0629
  590MPD2    H1 8803   4.097   0.475  16.319 -0.4536  1.0128 -0.4691
  590MPD2    H2 8804   3.790   0.222  16.452 -0.5633 -1.6877 -1.7067
  590MPD2    H3 8805   3.997   0.333  16.493 -0.9708  2.3365  0.0234
  590MPD2     N 8806   3.983   0.538  16.095  0.2957 -0.1013 -0.0680
  590MPD2    H5 8807   3.938   0.539  16.004  2.7095 -2.7017 -1.2732
  590MPD2    N1 8808   3.648   0.219  16.230  0.1166  0.5936 -0.0647
  590MPD2    H7 8809   3.615   0.163  16.307  0.5275 -0.4498 -0.6456
  591TMC3    C1 8810   4.088   0.708  15.982 -0.0606  0.3945 -0.4898
  591TMC3    C2 8811   4.106   0.618  15.881 -0.6049 -0.1646  0.9955
  591TMC3    C3 8812   4.150   0.670  15.759 -0.1883 -0.5310  0.0834
  591TMC3    C4 8813   4.097   0.833  15.961  0.3060  0.2914  0.2029
  591TMC3    C5 8814   4.133   0.877  15.841  0.7273  0.1093  0.2413
  591TMC3    C6 8815   4.165   0.801  15.742 -0.5097 -0.3942  0.6968
  591TMC3     C 8816   4.071   0.646  16.117 -0.4386  0.2948  0.0182
  591TMC3     O 8817   4.100   0.714  16.221  0.1087  0.6472  0.7269
  591TMC3     H 8818   4.114   0.512  15.903 -0.1103 -0.3985 -0.2677
  591TMC3    H1 8819   4.078   0.906  16.039  1.5037 -2.3138  2.9186
  591TMC3    H2 8820   4.188   0.842  15.643  2.1164 -1.9865  0.6537
  591TMC3    C7 8821   4.109   1.016  15.805 -0.9497  0.8388 -0.0093
  591TMC3    C8 8822   4.141   0.580  15.649 -0.2243  0.1829 -0.0573
  591TMC3    O1 8823   4.179   1.109  15.848  0.2094  0.2197  0.8204
  591TMC3    O2 8824   4.105   0.461  15.678  0.2638 -0.4376 -0.2570
  592MPD2     C 8825   3.658   1.774  11.429  0.1483 -0.0435  0.7199
  592MPD2    C1 8826   3.648   1.801  11.562  0.4318 -0.8127 -0.0359
  592MPD2    C2 8827   3.591   1.698  11.641 -0.6186 -0.9403  0.5433
  592MPD2    C3 8828   3.562   1.571  11.600 -0.2430  0.0617  0.4180
  592MPD2    C4 8829   3.587   1.547  11.470  0.1506 -0.7987  0.1788
  592MPD2    C5 8830   3.630   1.648  11.381  0.6550 -0.2936  0.0379
  592MPD2     H 8831   3.563   1.707  11.745  1.5213  1.1222  0.9354
  592MPD2    H1 8832   3.563   1.450  11.427  0.9755 -1.3950  1.0613
  592MPD2    H2 8833   3.705   1.848  11.364 -2.5342  1.2406  0.2537
  592MPD2    H3 8834   3.644   1.624  11.276 -1.2937 -2.6587  0.3245
  592MPD2     N 8835   3.499   1.480  11.684  0.2808  0.0295 -0.0732
  592MPD2    H5 8836   3.463   1.516  11.772  1.0482  0.0226  0.2472
  592MPD2    N1 8837   3.684   1.929  11.615 -0.1992  0.2374  0.2264
  592MPD2    H7 8838   3.702   2.005  11.550  0.9247 -0.6606 -0.5207
  593TMC3    C1 8839   3.740   2.086  11.789 -0.6749  0.5096  0.3208
  593TMC3    C2 8840   3.718   2.132  11.918 -0.5394  0.1580 -0.2943
  593TMC3    C3 8841   3.752   2.257  11.952  0.3257  0.4519 -0.3880
  593TMC3    C4 8842   3.785   2.174  11.692  0.0824  0.2604  0.5233
  593TMC3    C5 8843   3.840   2.287  11.736 -0.7396  0.4772  0.8280
  593TMC3    C6 8844   3.823   2.332  11.864 -0.7032  0.2760  0.4457
  593TMC3     C 8845   3.687   1.954  11.749 -0.3977 -0.3378  0.3249
  593TMC3     O 8846   3.686   1.868  11.836  0.1672 -0.0161  0.2804
  593TMC3     H 8847   3.688   2.067  11.999  0.1740 -1.6128 -1.4321
  593TMC3    H1 8848   3.810   2.135  11.594  0.5559  0.7019  0.4631
  593TMC3    H2 8849   3.859   2.431  11.890  0.4210  0.9726 -3.8633
  593TMC3    C7 8850   3.879   2.388  11.638  0.6239  0.1761 -0.6714
  593TMC3    C8 8851   3.674   2.316  12.054  0.4017 -0.2649  0.2272
  593TMC3    O1 8852   3.950   2.475  11.687  0.4037  0.4895  0.1906
  593TMC3    O2 8853   3.588   2.249  12.109 -0.0202 -0.2319 -0.7293
  594MPD2     C 8854   2.050   0.735  13.985 -0.4270 -0.1463  0.0488
  594MPD2    C1 8855   2.147   0.648  14.039 -0.3410  0.0362  0.0670
  594MPD2    C2 8856   2.283   0.687  14.028  0.3806 -0.4534  0.2732
  594MPD2    C3 8857   2.312   0.798  13.953 -0.8004  0.4830 -0.3186
  594MPD2    C4 8858   2.216   0.877  13.898 -0.5212  0.6236  1.3324
  594MPD2    C5 8859   2.087   0.842  13.903  0.3872 -0.4693 -0.0076
  594MPD2     H 8860   2.357   0.620  14.069  1.6888  0.9421  0.1888
  594MPD2    H1 8861   2.239   0.955  13.827 -1.1529  0.1486  0.6008
  594MPD2    H2 8862   1.948   0.705  13.967 -0.0157 -1.6296  0.1200
  594MPD2    H3 8863   2.005   0.880  13.843 -0.0547  0.2485  1.0578
  594MPD2     N 8864   2.451   0.827  13.941 -0.2553 -0.9280  0.0915
  594MPD2    H5 8865   2.477   0.920  13.910  0.6298 -1.5180 -0.9622
  594MPD2    N1 8866   2.092   0.537  14.111 -0.3772  0.5129 -0.3823
  594MPD2    H7 8867   1.994   0.519  14.093 -0.7456  0.4072  1.7195
  595TMC3    C1 8868   2.919   0.741  13.952 -0.5046  0.1672  0.2324
  595TMC3    C2 8869   2.794   0.720  13.902  0.5376 -0.2380 -0.7795
  595TMC3    C3 8870   2.686   0.795  13.950  0.2645 -0.7655 -0.0722
  595TMC3    C4 8871   2.927   0.834  14.048 -0.0890  0.2426 -0.2091
  595TMC3    C5 8872   2.828   0.912  14.088 -0.2668 -0.1205  0.4247
  595TMC3    C6 8873   2.703   0.893  14.039 -0.3430 -0.7975 -0.2681
  595TMC3     C 8874   3.047   0.689  13.893  0.1262 -0.4414 -0.3435
  595TMC3     O 8875   3.147   0.736  13.947  0.0081 -0.6961  0.2103
  595TMC3     H 8876   2.768   0.651  13.823 -2.6137  0.1959 -0.1147
  595TMC3    H1 8877   3.025   0.842  14.096 -0.0338 -1.5509 -0.0253
  595TMC3    H2 8878   2.620   0.949  14.082  0.0159  0.0858 -0.7200
  595TMC3    C7 8879   2.846   1.038  14.154 -0.1612  0.6970 -0.3919
  595TMC3    C8 8880   2.556   0.737  13.945 -0.5298  0.3951 -0.1143
  595TMC3    O1 8881   2.746   1.091  14.198  0.1065  0.4840  0.6504
  595TMC3    O2 8882   2.540   0.616  13.919 -0.0244  0.1119  0.2494
  596MPD2     C 8883   2.126   3.457  16.658  0.0896 -0.3506  0.0930
  596MPD2    C1 8884   2.115   3.567  16.575  0.9447 -0.8770  0.6450
  596MPD2    C2 8885   2.142   3.548  16.441 -0.2101  0.1360  0.4584
  596MPD2    C3 8886   2.161   3.418  16.394 -1.1036 -0.4433 -0.2037
  596MPD2    C4 8887   2.169   3.314  16.482  0.0229  0.4811  0.5894
  596MPD2    C5 8888   2.151   3.331  16.612  0.7190 -0.3151 -1.0653
  596MPD2     H 8889   2.126   3.634  16.377 -1.6090 -1.3185 -1.1547
  596MPD2    H1 8890   2.166   3.215  16.438  0.3707 -0.1909  2.0652
  596MPD2    H2 8891   2.102   3.466  16.763  0.7571 -0.9305  0.3014
  596MPD2    H3 8892   2.153   3.249  16.683  0.7187  1.3039  0.8305
  596MPD2     N 8893   2.180   3.381  16.261 -0.0686  0.3856 -0.1946
  596MPD2    H5 8894   2.173   3.282  16.238  0.2916  0.4043 -0.3808
  596MPD2    N1 8895   2.060   3.690  16.611  0.0187  0.0459  0.2391
  596MPD2    H7 8896   2.063   3.760  16.538  0.4292 -0.4221 -0.1943
  597TMC3    C1 8897   1.972   3.858  16.747 -0.1404 -0.1117 -0.0140
  597TMC3    C2 8898   2.033   3.949  16.658 -0.4592 -0.1719  0.4367
  597TMC3    C3 8899   1.990   4.082  16.676  0.1355  0.3178  0.0835
  597TMC3    C4 8900   1.884   3.894  16.847 -0.3537 -0.0470 -0.3615
  597TMC3    C5 8901   1.830   4.012  16.833  0.3918 -0.2329  0.3044
  597TMC3    C6 8902   1.890   4.114  16.762 -0.4700  0.0203 -0.3690
  597TMC3     C 8903   2.011   3.721  16.733 -0.3253 -0.0164 -0.7524
  597TMC3     O 8904   1.983   3.645  16.830 -0.7597  0.0701 -0.1160
  597TMC3     H 8905   2.111   3.923  16.588 -0.1922 -0.7685  0.9608
  597TMC3    H1 8906   1.839   3.818  16.910  0.1456  2.1278  2.5784
  597TMC3    H2 8907   1.847   4.213  16.772  1.4002  0.7263  0.6644
  597TMC3    C7 8908   1.735   4.044  16.942  0.3652  0.0696  0.0957
  597TMC3    C8 8909   2.014   4.167  16.559 -0.8985 -0.5621  0.1089
  597TMC3    O1 8910   1.754   3.988  17.050 -0.3434  0.0350 -0.2197
  597TMC3    O2 8911   1.917   4.231  16.522 -0.3547  0.7407 -0.1650
  598TMC3    C1 8912   0.037   0.145  15.576  0.6605 -0.4781  0.2717
  598TMC3    C2 8913   4.672   0.052  15.563  0.4148 -0.5390  0.6354
  598TMC3    C3 8914   4.620   0.053  15.438  0.1765  0.2846  0.5297
  598TMC3    C4 8915   0.057   0.251  15.489  0.4025 -0.2033 -0.4078
  598TMC3    C5 8916   4.729   0.252  15.369  0.4266 -0.4791 -0.0475
  598TMC3    C6 8917   4.646   0.144  15.344 -0.0462 -0.2973  0.2603
  598TMC3     C 8918   0.137   0.122  15.682 -0.3442  1.3779  0.0642
  598TMC3     O 8919   0.108   0.053  15.779 -0.0043  0.4110  0.3770
  598TMC3     H 8920   4.664   4.711  15.637  0.0020 -1.3602 -0.2651
  598TMC3    H1 8921   0.132   0.326  15.512  1.2962 -2.0055  2.6098
  598TMC3    H2 8922   4.605   0.142  15.244 -1.7198 -2.5112  1.0051
  598TMC3    C7 8923   0.040   0.327  15.254  0.4478  0.0243  0.2534
  598TMC3    C8 8924   4.565   4.668  15.376 -0.1657 -0.1858 -0.2799
  598TMC3    O1 8925   0.013   0.278  15.145 -0.4194  0.4652 -0.1951
  598TMC3    O2 8926   4.550   4.661  15.254 -0.0499 -0.0094 -0.1403
  599MPD2     C 8927   4.536   2.881  15.763  0.0219  0.1970  0.0719
  599MPD2    C1 8928   4.594   2.778  15.832 -0.2336 -0.8702  0.6073
  599MPD2    C2 8929   4.594   2.775  15.969  0.1823  0.5821  0.2841
  599MPD2    C3 8930   4.528   2.875  16.039 -0.2114  0.2553 -0.2532
  599MPD2    C4 8931   4.470   2.980  15.969  0.4663 -0.1885  0.3126
  599MPD2    C5 8932   4.476   2.984  15.831 -0.0993 -0.0659 -0.1815
  599MPD2     H 8933   4.648   2.694  16.016 -0.9059  0.3562  1.1547
  599MPD2    H1 8934   4.435   3.067  16.024 -0.0172 -0.5716  0.6057
  599MPD2    H2 8935   4.529   2.882  15.655  1.2410  0.4570 -0.0141
  599MPD2    H3 8936   4.428   3.058  15.768  0.8963 -0.6757 -1.6760
  599MPD2     N 8937   4.504   2.869  16.177  0.1958 -1.2779 -0.2624
  599MPD2    H5 8938   4.459   2.952  16.215  1.9422 -0.1190 -0.7343
  599MPD2    N1 8939   4.659   2.686  15.754 -0.0838  0.1028 -0.2152
  599MPD2    H7 8940   4.667   2.699  15.654 -0.5925  1.0429 -0.1320
  600TMC3    C1 8941   4.480   2.768  16.393 -0.2171  0.7485  0.2350
  600TMC3    C2 8942   4.423   2.656  16.452 -0.0012 -0.3624 -1.2327
  600TMC3    C3 8943   4.389   2.678  16.582  0.0311  0.2348 -0.0209
  600TMC3    C4 8944   4.515   2.888  16.455 -0.4396 -0.2795 -0.0096
  600TMC3    C5 8945   4.469   2.900  16.583  0.2735 -0.1597 -0.7475
  600TMC3    C6 8946   4.409   2.796  16.652 -0.1079 -0.6015  0.3303
  600TMC3     C 8947   4.524   2.753  16.254 -0.0342  0.3187 -0.1751
  600TMC3     O 8948   4.555   2.639  16.221 -0.0616 -0.6070  0.0627
  600TMC3     H 8949   4.420   2.570  16.386 -1.6302 -0.0265 -1.6029
  600TMC3    H1 8950   4.564   2.964  16.395  0.0411  0.8267  1.7742
  600TMC3    H2 8951   4.373   2.809  16.754  0.2723  1.0905  0.2443
  600TMC3    C7 8952   4.474   3.026  16.648  0.4393  0.4999  0.7686
  600TMC3    C8 8953   4.317   2.572  16.643 -0.8116  0.6704 -0.2373
  600TMC3    O1 8954   4.385   3.048  16.733 -0.5427 -0.1718 -0.3288
  600TMC3    O2 8955   4.288   2.578  16.759  0.0466  0.0974 -0.1873
  601MPD2     C 8956   1.984   1.483   0.051  0.1207 -0.4702 -0.1334
  601MPD2    C1 8957   1.982   1.388  17.696  0.2056  0.0489 -0.2604
  601MPD2    C2 8958   1.943   1.252  17.726 -0.2250 -0.1626 -0.3442
  601MPD2    C3 8959   1.929   1.213   0.106  0.1107 -0.2400 -0.1992
  601MPD2    C4 8960   1.936   1.312   0.206 -0.7814 -0.4150  0.2865
  601MPD2    C5 8961   1.958   1.440   0.175 -0.0607  0.3178 -0.1392
  601MPD2     H 8962   1.925   1.185  17.643 -1.6558 -1.3833  0.9581
  601MPD2    H1 8963   1.907   1.294   0.308  0.5667  1.9606  1.0896
  601MPD2    H2 8964   1.993   1.591   0.041 -0.9894 -0.5754 -2.3198
  601MPD2    H3 8965   1.955   1.506   0.261  1.8050 -0.4928  0.5457
  601MPD2     N 8966   1.893   1.076   0.144 -0.4392 -0.5462 -0.2836
  601MPD2    H5 8967   1.869   1.055   0.240  0.0562  0.9644  0.1745
  601MPD2    N1 8968   2.018   1.417  17.564 -0.0664 -0.7968 -0.4094
  601MPD2    H7 8969   2.013   1.349  17.488  1.1412 -2.3744  0.9447
  602TMC3    C1 8970   2.074   1.535  17.373  0.0671 -0.0009 -0.1333
  602TMC3    C2 8971   2.148   1.644  17.322  0.2504  0.5347 -0.2946
  602TMC3    C3 8972   2.128   1.687  17.195 -0.9311  0.1200  0.3510
  602TMC3    C4 8973   1.985   1.466  17.295  0.0120 -0.2671 -0.8981
  602TMC3    C5 8974   1.968   1.505  17.167  0.1461  0.4896 -1.0652
  602TMC3    C6 8975   2.036   1.620  17.118 -0.0781 -0.4631  0.3388
  602TMC3     C 8976   2.070   1.535  17.519 -0.1196  0.3732 -0.2246
  602TMC3     O 8977   2.121   1.629  17.575 -0.2642  0.2175  0.3754
  602TMC3     H 8978   2.232   1.682  17.378  2.5019 -1.6174 -2.1977
  602TMC3    H1 8979   1.929   1.386  17.340 -0.6834  0.6072 -0.2267
  602TMC3    H2 8980   2.035   1.641  17.012  1.1405 -1.3521  0.1483
  602TMC3    C7 8981   1.853   1.452  17.093 -0.4169 -0.6761 -0.5669
  602TMC3    C8 8982   2.214   1.774  17.125 -1.3607  0.6283  0.5771
  602TMC3    O1 8983   1.778   1.366  17.138  0.4803 -0.2794  0.2074
  602TMC3    O2 8984   2.335   1.774  17.150 -0.3462  0.4744 -0.1287
  603TMC3    C1 8985   4.144   1.734  11.262  0.1290  0.4951  0.4722
  603TMC3    C2 8986   4.207   1.666  11.370  0.2824  0.1080 -0.2875
  603TMC3    C3 8987   4.329   1.716  11.413  0.3192  0.4202  0.0478
  603TMC3    C4 8988   4.202   1.842  11.197 -0.4432 -0.2725  0.1424
  603TMC3    C5 8989   4.325   1.883  11.247  0.1679 -0.2113  0.2309
  603TMC3    C6 8990   4.381   1.831  11.364 -0.0609 -0.0534  0.1459
  603TMC3     C 8991   4.026   1.667  11.198 -0.5044 -0.3855  0.7027
  603TMC3     O 8992   4.007   1.699  11.080  0.2986  0.2807 -0.1163
  603TMC3     H 8993   4.180   1.566  11.401 -0.5458  1.0413  1.9676
  603TMC3    H1 8994   4.149   1.896  11.120 -0.1619 -0.2822 -0.0556
  603TMC3    H2 8995   4.482   1.861  11.390 -0.4073  1.5435 -0.3663
  603TMC3    C7 8996   4.402   1.995  11.184  0.1260  0.8477 -0.3970
  603TMC3    C8 8997   4.377   1.668  11.539  1.0133  0.0349  0.9251
  603TMC3    O1 8998   4.461   2.071  11.263 -0.0181 -0.4118  0.1925
  603TMC3    O2 8999   4.348   1.554  11.573 -0.1090 -0.0044 -0.0461
  604MPD2     C 9000   1.323   0.228  16.087  0.3491  0.0265  0.2844
  604MPD2    C1 9001   1.217   0.181  16.011 -0.2697  0.3364 -0.4986
  604MPD2    C2 9002   1.228   0.149  15.879  0.3342 -0.5571  0.4566
  604MPD2    C3 9003   1.355   0.157  15.825  0.1012 -0.7393 -0.1511
  604MPD2    C4 9004   1.463   0.203  15.897  0.6830  0.3151  0.0763
  604MPD2    C5 9005   1.451   0.247  16.024  0.0594  1.0596 -0.3102
  604MPD2     H 9006   1.144   0.105  15.826  1.4450 -0.4066 -1.4360
  604MPD2    H1 9007   1.565   0.203  15.859  1.1810  0.0560  1.3815
  604MPD2    H2 9008   1.302   0.247  16.191  1.3196 -1.9931  0.8550
  604MPD2    H3 9009   1.545   0.271  16.072 -0.0310  0.8686 -0.0399
  604MPD2     N 9010   1.368   0.098  15.694 -0.3042  0.3484 -0.6896
  604MPD2    H5 9011   1.285   0.065  15.646  0.4088 -0.8854 -1.0673
  604MPD2    N1 9012   1.095   0.178  16.082 -0.3230  0.4402 -0.3916
  604MPD2    H7 9013   1.100   0.207  16.179  0.9681  0.8089 -0.5757
  605TMC3    C1 9014   0.881   0.150  16.131  0.2295 -0.1994 -0.1717
  605TMC3    C2 9015   0.944   0.116  16.249  0.1988  0.2878 -0.7393
  605TMC3    C3 9016   0.902   0.162  16.368 -0.0185  0.0774  0.4816
  605TMC3    C4 9017   0.782   0.237  16.133 -0.5104  0.2029  0.3096
  605TMC3    C5 9018   0.746   0.278  16.259  0.0619  0.2845 -0.1713
  605TMC3    C6 9019   0.792   0.237  16.382  0.1289  0.2016 -0.7493
  605TMC3     C 9020   0.973   0.160  16.020 -0.1211 -0.0477  1.0996
  605TMC3     O 9021   0.937   0.176  15.904  0.0329  1.0806 -0.3945
  605TMC3     H 9022   1.022   0.040  16.256 -0.4161 -0.5161 -2.6250
  605TMC3    H1 9023   0.737   0.272  16.041 -1.0263  0.3571  0.6213
  605TMC3    H2 9024   0.768   0.282  16.477  1.4282 -0.7257  0.0292
  605TMC3    C7 9025   0.610   0.330  16.255 -0.7943 -0.2968  0.1311
  605TMC3    C8 9026   1.007   0.211  16.446 -0.1543  0.2203  0.1592
  605TMC3    O1 9027   0.570   0.394  16.164 -0.0324 -0.1234 -1.1850
  605TMC3    O2 9028   1.107   0.225  16.374 -0.0227  0.6718 -0.2898
  606TMC3    C1 9029   2.212   3.473  17.739  0.5252  0.2742  0.3282
  606TMC3    C2 9030   2.344   3.440   0.014  0.1734  0.3580 -0.1107
  606TMC3    C3 9031   2.368   3.322   0.076  0.2772 -0.2522 -0.3990
  606TMC3    C4 9032   2.103   3.393   0.028  0.5940 -0.8881 -0.2845
  606TMC3    C5 9033   2.139   3.265   0.083 -0.4622  0.1927  0.8096
  606TMC3    C6 9034   2.273   3.238   0.126 -0.8420  0.4816 -0.1602
  606TMC3     C 9035   2.185   3.607  17.683  0.4514 -0.0290  0.5545
  606TMC3     O 9036   2.255   3.699  17.721 -0.1621  0.5459  0.5877
  606TMC3     H 9037   2.422   3.503  17.722  1.9539 -0.9265  1.3744
  606TMC3    H1 9038   2.002   3.428   0.016  0.7832 -0.2042  0.1400
  606TMC3    H2 9039   2.288   3.162   0.201  0.0177  1.6799  0.8756
  606TMC3    C7 9040   2.036   3.164   0.111 -0.1322  0.0863 -0.3563
  606TMC3    C8 9041   2.505   3.272   0.047 -0.6159 -0.5287 -0.0879
  606TMC3    O1 9042   2.071   3.070   0.181  0.9548  0.3616  0.1390
  606TMC3    O2 9043   2.597   3.352   0.028  0.1984 -0.1138  0.5592
  607MPD2     C 9044   3.846   1.239  11.699 -0.7810  0.3131 -0.1198
  607MPD2    C1 9045   3.809   1.336  11.789  0.0788 -0.2513  0.7890
  607MPD2    C2 9046   3.739   1.299  11.905 -0.3416  0.6583 -0.4940
  607MPD2    C3 9047   3.706   1.171  11.931 -0.1264  0.2807  0.2801
  607MPD2    C4 9048   3.744   1.073  11.846 -0.5377 -0.3556  0.3448
  607MPD2    C5 9049   3.807   1.107  11.729  0.7737 -0.4873 -0.4595
  607MPD2     H 9050   3.717   1.376  11.979 -0.6056 -0.6590  0.7914
  607MPD2    H1 9051   3.737   0.968  11.874  1.5158 -0.7980 -0.7752
  607MPD2    H2 9052   3.902   1.260  11.609 -1.3059 -1.0314 -0.7548
  607MPD2    H3 9053   3.842   1.033  11.658 -0.0032 -1.1801 -0.1126
  607MPD2     N 9054   3.639   1.150  12.053 -0.6373 -0.1141 -0.0892
  607MPD2    H5 9055   3.637   1.231  12.115 -3.5951  0.3238 -0.7619
  607MPD2    N1 9056   3.835   1.472  11.773  0.0180 -0.1304  0.2399
  607MPD2    H7 9057   3.786   1.529  11.841 -0.5037 -1.5670  1.0627
  608TMC3    C1 9058   3.955   1.672  11.741  0.1340 -0.3046 -0.4418
  608TMC3    C2 9059   3.936   1.695  11.873 -0.3008 -0.1341 -0.8648
  608TMC3    C3 9060   4.001   1.807  11.924 -0.2047  1.0859  0.2020
  608TMC3    C4 9061   4.034   1.754  11.670 -0.0194 -0.2287  0.1691
  608TMC3    C5 9062   4.093   1.857  11.726  0.4102 -0.2606  0.6909
  608TMC3    C6 9063   4.072   1.893  11.854 -0.6575 -0.5057 -0.4353
  608TMC3     C 9064   3.926   1.539  11.691  0.0042  0.2086 -0.3072
  608TMC3     O 9065   4.003   1.507  11.604 -0.8259 -0.0679 -0.6878
  608TMC3     H 9066   3.882   1.626  11.937 -0.0914  0.5198  0.0077
  608TMC3    H1 9067   4.058   1.738  11.566  1.2259  2.1388  0.0770
  608TMC3    H2 9068   4.095   1.991  11.894  2.1331 -2.3027  2.3982
  608TMC3    C7 9069   4.136   1.960  11.636  0.0071  0.0596  0.3717
  608TMC3    C8 9070   3.979   1.845  12.066 -0.3254  0.8438  0.6341
  608TMC3    O1 9071   4.110   1.955  11.513 -0.1280 -0.0675 -0.7328
  608TMC3    O2 9072   3.994   1.962  12.096  0.6714  0.4586 -0.3279
  609TMC3    C1 9073   2.560   0.649   9.636 -1.6421 -0.5306  0.2329
  609TMC3    C2 9074   2.538   0.534   9.564 -0.1882 -0.5639 -0.1481
  609TMC3    C3 9075   2.618   0.498   9.467  0.1876  0.0255  0.0111
  609TMC3    C4 9076   2.660   0.738   9.594 -0.7207  0.1357  0.1308
  609TMC3    C5 9077   2.731   0.700   9.479 -0.2083  0.0280  0.3001
  609TMC3    C6 9078   2.717   0.575   9.419  0.1654  0.6226  0.2262
  609TMC3     C 9079   2.501   0.665   9.765 -0.2797 -0.0858  0.5930
  609TMC3     O 9080   2.454   0.566   9.815 -0.3255  0.2646 -0.0691
  609TMC3     H 9081   2.472   0.464   9.614 -0.7975  0.0987 -0.0307
  609TMC3    H1 9082   2.676   0.832   9.644  2.1450 -0.7088  0.7669
  609TMC3    H2 9083   2.775   0.544   9.333  1.4856 -1.5173  1.9065
  609TMC3    C7 9084   2.831   0.792   9.435 -0.2349  0.4206  0.3842
  609TMC3    C8 9085   2.552   0.410   9.381  0.1803 -0.2296 -0.3553
  609TMC3    O1 9086   2.863   0.886   9.500  0.3939  0.0855 -0.6915
  609TMC3    O2 9087   2.433   0.427   9.388 -0.1005  0.3368  0.1795
  610TMC3    C1 9088   3.887   1.387  12.771  1.1852  1.3237  0.3450
  610TMC3    C2 9089   3.934   1.483  12.673 -0.1713 -0.3106 -0.0222
  610TMC3    C3 9090   4.046   1.435  12.598  0.0012 -0.7230  0.0685
  610TMC3    C4 9091   3.938   1.264  12.795 -0.0653  0.6973  0.1461
  610TMC3    C5 9092   4.041   1.231  12.714 -0.2914 -0.1762  0.1723
  610TMC3    C6 9093   4.089   1.305  12.616  0.3945 -0.1508 -0.1347
  610TMC3     C 9094   3.746   1.401  12.797 -0.1945 -0.4309  0.2526
  610TMC3     O 9095   3.686   1.459  12.708  0.3653  0.8781  0.0569
  610TMC3     H 9096   3.890   1.582  12.668 -0.6764 -0.5215  0.2222
  610TMC3    H1 9097   3.881   1.188  12.846  0.9543 -0.1127  0.0708
  610TMC3    H2 9098   4.164   1.250  12.560 -0.1771 -0.1067 -0.9425
  610TMC3    C7 9099   4.095   1.091  12.713  0.1300 -0.4997  0.3000
  610TMC3    C8 9100   4.109   1.531  12.520 -0.3932  0.5958 -0.1102
  610TMC3    O1 9101   4.204   1.066  12.667 -0.8787  0.1582  0.7416
  610TMC3    O2 9102   4.060   1.640  12.529 -0.3771  0.0121  0.1592
  611MPD2     C 9103   4.066   1.492  10.432  0.9391 -0.5268 -0.1921
  611MPD2    C1 9104   3.955   1.562  10.396 -0.2497 -0.6067  1.0965
  611MPD2    C2 9105   3.966   1.701  10.389 -0.1210  0.0543 -0.1544
  611MPD2    C3 9106   4.089   1.767  10.410 -0.2353 -0.3484 -0.0721
  611MPD2    C4 9107   4.195   1.692  10.453  0.1506  0.2525  0.2682
  611MPD2    C5 9108   4.185   1.551  10.458 -0.4265 -0.4373  0.1339
  611MPD2     H 9109   3.872   1.754  10.378 -1.5660 -2.1472  1.6503
  611MPD2    H1 9110   4.287   1.746  10.475 -0.7491  1.6088  0.6632
  611MPD2    H2 9111   4.056   1.384  10.441 -0.1383 -0.2908  1.4009
  611MPD2    H3 9112   4.269   1.496  10.500  0.4979  1.3523  0.6143
  611MPD2     N 9113   4.103   1.908  10.405  0.6381 -0.1031  0.0154
  611MPD2    H5 9114   4.187   1.946  10.447 -0.8007  1.6950  1.2750
  611MPD2    N1 9115   3.836   1.493  10.374 -0.0110 -0.2804 -0.2692
  611MPD2    H7 9116   3.853   1.393  10.369 -1.3618 -0.4400 -1.5630
  612TMC3    C1 9117   4.053   2.130  10.350  0.2522  0.4941  0.0937
  612TMC3    C2 9118   4.141   2.172  10.447  0.1223  0.4011 -0.0089
  612TMC3    C3 9119   4.167   2.305  10.461 -0.6568 -0.1379 -0.2659
  612TMC3    C4 9120   3.978   2.221  10.274 -1.0279  0.8314  0.4270
  612TMC3    C5 9121   4.005   2.356  10.298 -0.3358  0.0277  0.1455
  612TMC3    C6 9122   4.094   2.394  10.395  0.4663 -0.0955  0.3998
  612TMC3     C 9123   4.014   1.993  10.344 -0.6255  0.1852  0.1820
  612TMC3     O 9124   3.920   1.961  10.271 -0.0666  0.5901  0.1569
  612TMC3     H 9125   4.204   2.101  10.500 -0.0770 -0.5445 -1.0428
  612TMC3    H1 9126   3.902   2.188  10.203 -0.8648  2.1691 -0.3649
  612TMC3    H2 9127   4.098   2.492  10.442 -0.5592 -0.3061  0.9220
  612TMC3    C7 9128   3.912   2.457  10.259 -0.3139 -0.0038 -0.6390
  612TMC3    C8 9129   4.247   2.352  10.577 -0.5732 -0.0523  0.6381
  612TMC3    O1 9130   3.942   2.575  10.278  0.6715 -0.1634  0.2131
  612TMC3    O2 9131   4.289   2.466  10.576 -0.2306 -0.2259  0.3392
  613MPD2     C 9132   2.924   3.800  16.586  0.0408 -0.0109  0.3061
  613MPD2    C1 9133   2.912   3.817  16.449 -0.0248 -0.1018  0.5613
  613MPD2    C2 9134   2.812   3.744  16.377 -0.2202 -0.3611  0.2747
  613MPD2    C3 9135   2.740   3.646  16.444 -0.3083  0.1793  0.4592
  613MPD2    C4 9136   2.763   3.624  16.577 -0.5394 -0.5401 -0.2095
  613MPD2    C5 9137   2.852   3.699  16.642  0.0840  0.4797  0.0410
  613MPD2     H 9138   2.808   3.754  16.269 -0.2618 -0.6357  0.2518
  613MPD2    H1 9139   2.710   3.544  16.627 -1.8801 -0.1409 -1.0121
  613MPD2    H2 9140   2.990   3.862  16.646  0.7633 -3.4209  3.0762
  613MPD2    H3 9141   2.867   3.668  16.744 -0.6887  0.9623  0.3010
  613MPD2     N 9142   2.647   3.560  16.380 -0.0153 -0.1799 -0.4231
  613MPD2    H5 9143   2.622   3.482  16.440 -0.0164 -0.6868 -1.0869
  613MPD2    N1 9144   2.998   3.904  16.376  0.2852 -0.7585 -0.2388
  613MPD2    H7 9145   3.087   3.937  16.411 -0.2182 -0.4321  0.7438
  614TMC3    C1 9146   3.086   3.925  16.152  0.6533 -0.0469  0.0778
  614TMC3    C2 9147   3.103   3.791  16.144 -0.3238  0.1555  0.1509
  614TMC3    C3 9148   3.094   3.727  16.025 -0.1365 -0.3494  0.4099
  614TMC3    C4 9149   3.077   3.993  16.039 -0.0661 -0.5080  0.7328
  614TMC3    C5 9150   3.065   3.933  15.917 -0.0099  0.0626 -0.1024
  614TMC3    C6 9151   3.080   3.803  15.911  0.6757  0.4684  0.3436
  614TMC3     C 9152   2.966   3.945  16.243  0.7180 -0.0389 -0.1402
  614TMC3     O 9153   2.855   3.958  16.191  0.0338 -0.0915  0.5770
  614TMC3     H 9154   3.109   3.729  16.232  2.9803  1.2724  0.7007
  614TMC3    H1 9155   3.074   4.101  16.046 -0.1370 -0.3700 -1.3204
  614TMC3    H2 9156   3.066   3.754  15.815  0.9825  3.6496 -1.3396
  614TMC3    C7 9157   3.080   4.012  15.796  0.0828 -0.0933 -0.2799
  614TMC3    C8 9158   3.044   3.589  16.024 -0.2197  0.5852 -0.3040
  614TMC3    O1 9159   3.127   4.123  15.818  0.9642 -0.1796 -0.0327
  614TMC3    O2 9160   2.991   3.561  16.129 -0.7576  0.6360  0.3450
  615MPD2     C 9161   2.914   1.329  16.209  0.0138 -0.0504  0.1123
  615MPD2    C1 9162   2.806   1.266  16.265 -0.1344  0.1232 -0.4051
  615MPD2    C2 9163   2.731   1.180  16.190 -0.3143 -0.0231 -0.3081
  615MPD2    C3 9164   2.764   1.156  16.060  0.8128 -0.3336  0.4093
  615MPD2    C4 9165   2.874   1.209  16.004 -0.7255 -0.0724  0.3135
  615MPD2    C5 9166   2.947   1.295  16.077 -0.0051 -0.1581 -0.4354
  615MPD2     H 9167   2.644   1.135  16.236  0.8829 -1.2092  0.8021
  615MPD2    H1 9168   2.896   1.202  15.898 -0.1032  1.2677  0.3450
  615MPD2    H2 9169   2.988   1.384  16.267  0.7210 -2.9397  1.9152
  615MPD2    H3 9170   3.028   1.349  16.028 -1.1966  1.1507 -0.9774
  615MPD2     N 9171   2.662   1.093  15.984  0.1569 -0.6564  0.2891
  615MPD2    H5 9172   2.576   1.078  16.036 -0.6124 -1.3907 -1.2085
  615MPD2    N1 9173   2.779   1.286  16.403  0.1523 -0.2730 -0.0734
  615MPD2    H7 9174   2.709   1.228  16.448 -1.8803  0.7961 -1.8111
  616TMC3    C1 9175   2.796   1.381  16.623  0.6014  0.1425 -0.1030
  616TMC3    C2 9176   2.802   1.261  16.683 -0.0654 -0.0373 -0.2693
  616TMC3    C3 9177   2.778   1.263  16.818 -0.9327  0.5319 -0.1408
  616TMC3    C4 9178   2.768   1.496  16.694  0.4952 -0.2154 -0.3430
  616TMC3    C5 9179   2.739   1.488  16.828 -0.4231 -0.5351  0.6787
  616TMC3    C6 9180   2.728   1.368  16.885  0.3548 -0.0616  0.1020
  616TMC3     C 9181   2.832   1.390  16.483 -0.3499 -0.2002  0.4019
  616TMC3     O 9182   2.883   1.494  16.446 -0.2608 -1.3999  0.0251
  616TMC3     H 9183   2.819   1.167  16.632  0.3713  0.6331 -1.3658
  616TMC3    H1 9184   2.780   1.586  16.634 -1.3758  0.2251 -0.0521
  616TMC3    H2 9185   2.691   1.358  16.987  2.3658 -2.9979  0.5425
  616TMC3    C7 9186   2.691   1.592  16.902  0.3775 -0.3517  0.2780
  616TMC3    C8 9187   2.813   1.144  16.888 -0.4156  0.0359  0.1336
  616TMC3    O1 9188   2.635   1.564  17.005 -0.4847 -0.8161  0.5310
  616TMC3    O2 9189   2.754   1.117  16.990 -0.1272 -0.0465  0.2572
  617MPD2     C 9190   0.263   3.526  13.679 -0.4277  0.2026 -0.1084
  617MPD2    C1 9191   0.290   3.401  13.727  0.6825 -0.2494  0.0715
  617MPD2    C2 9192   0.187   3.303  13.733 -0.2110 -0.0610  0.5397
  617MPD2    C3 9193   0.055   3.335  13.697  0.2576  0.5258 -0.5936
  617MPD2    C4 9194   0.032   3.457  13.639  0.1281  0.5823 -0.0801
  617MPD2    C5 9195   0.135   3.555  13.631 -0.4845 -0.0770 -0.5416
  617MPD2     H 9196   0.208   3.205  13.773  0.2957 -0.4784 -0.7543
  617MPD2    H1 9197   4.672   3.480  13.597 -0.2820 -1.5285 -0.2727
  617MPD2    H2 9198   0.339   3.604  13.683 -0.7727  0.4517  1.6948
  617MPD2    H3 9199   0.109   3.654  13.596  1.8719  0.3529 -1.0385
  617MPD2     N 9200   4.689   3.239  13.694 -0.8893 -0.1248  0.7491
  617MPD2    H5 9201   4.607   3.265  13.640  0.0357  0.8211 -0.2073
  617MPD2    N1 9202   0.417   3.351  13.765 -0.2780 -0.0123 -0.6392
  617MPD2    H7 9203   0.430   3.253  13.786 -0.0942  0.3715  1.0208
  618TMC3    C1 9204   0.652   3.367  13.769  0.3842  0.1800 -0.2990
  618TMC3    C2 9205   0.764   3.438  13.805  0.5580 -0.7405  0.0061
  618TMC3    C3 9206   0.884   3.378  13.790 -0.0796 -0.0761 -0.5183
  618TMC3    C4 9207   0.659   3.245  13.702 -0.0293 -0.3701  0.4462
  618TMC3    C5 9208   0.782   3.195  13.676 -0.0197  0.0766 -0.1043
  618TMC3    C6 9209   0.897   3.255  13.730  0.8113 -0.0063 -0.3242
  618TMC3     C 9210   0.526   3.439  13.781  0.5059  0.0584 -0.5166
  618TMC3     O 9211   0.532   3.561  13.785  0.1557  0.5234 -0.1044
  618TMC3     H 9212   0.756   3.534  13.855 -3.8734 -0.6410 -0.9394
  618TMC3    H1 9213   0.571   3.187  13.677 -0.4044  0.3202  0.1595
  618TMC3    H2 9214   0.996   3.213  13.716  0.5344 -0.9565  0.5110
  618TMC3    C7 9215   0.783   3.073  13.596  0.3661 -0.4877  0.0145
  618TMC3    C8 9216   0.993   3.432  13.874  0.9689 -0.4992  0.0970
  618TMC3    O1 9217   0.672   3.037  13.554 -0.1301  0.6409 -0.2484
  618TMC3    O2 9218   0.992   3.552  13.892 -0.0566 -0.2414 -0.2853
  619MPD2     C 9219   1.696   4.475  13.720  0.5304 -0.0621  0.1403
  619MPD2    C1 9220   1.603   4.473  13.623 -0.2966  0.6954 -0.0080
  619MPD2    C2 9221   1.524   4.367  13.593  0.5394  0.1388 -0.0650
  619MPD2    C3 9222   1.540   4.254  13.669  0.5793  0.3622  0.0787
  619MPD2    C4 9223   1.631   4.250  13.767 -0.2160  0.3073 -0.2124
  619MPD2    C5 9224   1.706   4.363  13.799  0.1772 -0.0083 -0.0081
  619MPD2     H 9225   1.460   4.371  13.505  1.1790  1.0269 -0.4798
  619MPD2    H1 9226   1.640   4.159  13.824  1.2318  0.0670 -0.8318
  619MPD2    H2 9227   1.774   4.547  13.741  1.0462 -0.2709 -1.0590
  619MPD2    H3 9228   1.781   4.360  13.878  0.7534 -1.4533 -0.6088
  619MPD2     N 9229   1.469   4.135  13.632  0.0530  0.1778 -0.2207
  619MPD2    H5 9230   1.514   4.046  13.652  0.0801  0.6525  1.7618
  619MPD2    N1 9231   1.583   4.588  13.545  0.1901  0.2111 -0.1316
  619MPD2    H7 9232   1.507   4.580  13.478 -0.7388 -0.3442  1.0049
  620TMC3    C1 9233   1.565   0.083  13.493  0.8244 -0.1742 -0.4778
  620TMC3    C2 9234   1.559   0.044  13.361  0.2115  0.8757  0.0061
  620TMC3    C3 9235   1.468   0.104  13.284 -0.6188 -0.6170 -0.6004
  620TMC3    C4 9236   1.493   0.177  13.548 -0.5902  0.2706 -0.2331
  620TMC3    C5 9237   1.403   0.234  13.466 -0.6514 -0.3376 -0.1241
  620TMC3    C6 9238   1.388   0.199  13.338 -1.0700  0.2662  0.0060
  620TMC3     C 9239   1.617   4.716  13.587 -0.3510 -0.6465  0.2426
  620TMC3     O 9240   1.649   0.018  13.697  0.0324  0.3867  0.1150
  620TMC3     H 9241   1.633   4.718  13.312  0.4569  1.6172 -0.5744
  620TMC3    H1 9242   1.507   0.196  13.654 -0.7493  0.7877 -0.3041
  620TMC3    H2 9243   1.325   0.261  13.275  0.8681  2.7454  0.5330
  620TMC3    C7 9244   1.318   0.340  13.528  0.4821  0.1097  0.1646
  620TMC3    C8 9245   1.463   0.093  13.141 -0.7793  0.6211 -0.7410
  620TMC3    O1 9246   1.375   0.400  13.618  0.4138 -0.3211 -0.0090
  620TMC3    O2 9247   1.485   0.191  13.071 -0.0663  0.1396  0.0422
  621MPD2     C 9248   2.230   0.257  10.675  0.2767 -0.3611  0.9397
  621MPD2    C1 9249   2.247   0.226  10.541  0.0022  0.3293  0.0108
  621MPD2    C2 9250   2.333   0.309  10.471  0.5749  0.3958 -0.3081
  621MPD2    C3 9251   2.388   0.425  10.525 -0.0780 -0.3211 -0.6118
  621MPD2    C4 9252   2.358   0.457  10.657  0.1026 -0.0309 -0.2879
  621MPD2    C5 9253   2.294   0.369  10.732  1.0408 -0.1960 -0.2105
  621MPD2     H 9254   2.368   0.282  10.371  1.8823  0.0916  0.2353
  621MPD2    H1 9255   2.388   0.546  10.711 -1.8413  0.2813  0.2724
  621MPD2    H2 9256   2.170   0.198  10.743 -0.8403 -3.0528 -2.3745
  621MPD2    H3 9257   2.273   0.398  10.835 -0.1050 -1.3027 -0.1276
  621MPD2     N 9258   2.480   0.498  10.443 -0.2312 -0.0009  0.1779
  621MPD2    H5 9259   2.493   0.470  10.347 -0.3272 -3.0982  1.0832
  621MPD2    N1 9260   2.189   0.117  10.467  0.1783  0.3118 -0.1175
  621MPD2    H7 9261   2.208   0.110  10.368  2.5367  0.1783  0.3438
  622TMC3    C1 9262   2.035   4.674  10.422  0.3988  0.0495 -0.1355
  622TMC3    C2 9263   1.911   4.622  10.457 -0.2594  0.1739 -0.3350
  622TMC3    C3 9264   1.831   4.571  10.356  0.1998 -0.4236 -0.0701
  622TMC3    C4 9265   2.065   4.689  10.290  0.4756  0.0206  0.0796
  622TMC3    C5 9266   1.972   4.654  10.192 -0.6385 -0.7189 -0.5159
  622TMC3    C6 9267   1.862   4.587  10.223 -0.1039 -0.2860  1.1512
  622TMC3     C 9268   2.100   0.028  10.519 -0.4052 -0.0342  0.1183
  622TMC3     O 9269   2.064   0.007  10.634  0.0531 -0.1417 -0.7505
  622TMC3     H 9270   1.894   4.599  10.562 -0.5236  3.3536  0.3256
  622TMC3    H1 9271   2.162   4.730  10.267  0.8166 -0.9677 -0.2739
  622TMC3    H2 9272   1.804   4.537  10.146 -0.2571  0.0636  1.0401
  622TMC3    C7 9273   2.012   4.657  10.052 -0.0501  0.0619 -0.3876
  622TMC3    C8 9274   1.701   4.512  10.390  0.6604  0.0260 -0.0241
  622TMC3    O1 9275   1.964   4.574   9.974 -0.5456 -0.1806 -0.1582
  622TMC3    O2 9276   1.674   4.415  10.318 -0.0568 -0.2779 -0.5227
  623MPD2     C 9277   1.445   0.647  15.940  0.1642  0.5573  0.0013
  623MPD2    C1 9278   1.366   0.607  16.054  0.4556 -0.1419 -0.1304
  623MPD2    C2 9279   1.436   0.583  16.173  0.0154  0.3470 -0.1985
  623MPD2    C3 9280   1.569   0.590  16.180 -0.7024 -0.5160  0.5469
  623MPD2    C4 9281   1.642   0.624  16.072 -0.2564  0.4577 -0.5716
  623MPD2    C5 9282   1.580   0.654  15.953 -0.0930  0.0732  0.0873
  623MPD2     H 9283   1.387   0.561  16.268 -0.5161  0.6560 -0.4044
  623MPD2    H1 9284   1.748   0.644  16.067 -0.0757 -0.0544  1.2509
  623MPD2    H2 9285   1.408   0.668  15.840  0.8576 -0.9566 -0.5811
  623MPD2    H3 9286   1.638   0.697  15.872  1.8438 -1.5765  0.5945
  623MPD2     N 9287   1.625   0.580  16.311  0.0538 -0.6511  0.0231
  623MPD2    H5 9288   1.560   0.545  16.380 -0.7074 -1.1828 -0.9782
  623MPD2    N1 9289   1.227   0.596  16.042 -0.3828 -0.1562  1.1740
  623MPD2    H7 9290   1.181   0.615  15.954  1.2795  2.0023  0.7424
  624TMC3    C1 9291   1.853   0.301  16.545  0.6589  0.2325  0.0485
  624TMC3    C2 9292   1.735   0.284  16.613  0.1423 -0.0039 -0.7401
  624TMC3    C3 9293   1.647   0.395  16.614 -0.6077  0.0241 -0.4812
  624TMC3    C4 9294   1.878   0.413  16.470  0.0913 -0.1262 -0.0804
  624TMC3    C5 9295   1.785   0.519  16.478 -0.3010  0.1838  0.1997
  624TMC3    C6 9296   1.672   0.514  16.556  0.7294  0.2587 -0.2972
  624TMC3     C 9297   1.926   0.179  16.525 -0.4368 -0.0584 -0.3556
  624TMC3     O 9298   1.912   0.090  16.601 -1.0358 -0.1312 -0.3196
  624TMC3     H 9299   1.715   0.193  16.668  1.0180  1.0824  1.3946
  624TMC3    H1 9300   1.973   0.424  16.420  0.6469  0.3136  1.0648
  624TMC3    H2 9301   1.606   0.599  16.569  0.2639 -0.2555  0.7547
  624TMC3    C7 9302   1.762   0.582  16.345 -0.2355  0.2843  0.1837
  624TMC3    C8 9303   1.501   0.379  16.620  0.3754  0.0027 -0.5280
  624TMC3    O1 9304   1.858   0.594  16.267  0.4636  0.0858 -0.5031
  624TMC3    O2 9305   1.434   0.432  16.531  0.2431 -0.0052 -0.3524
  625MPD2     C 9306   1.751   1.718   1.041  0.0673 -0.9682 -0.7497
  625MPD2    C1 9307   1.805   1.840   0.993  0.3613 -0.4704  0.0133
  625MPD2    C2 9308   1.918   1.889   1.060 -0.2921 -0.5125  0.0320
  625MPD2    C3 9309   1.980   1.822   1.155 -0.4048 -0.9312  0.8133
  625MPD2    C4 9310   1.920   1.710   1.210 -0.0687 -0.5546 -0.2634
  625MPD2    C5 9311   1.813   1.656   1.142 -0.1376 -0.5630 -0.2759
  625MPD2     H 9312   1.962   1.980   1.021  1.4915 -0.9047  1.1638
  625MPD2    H1 9313   1.965   1.662   1.296  0.2175 -0.1051 -0.1613
  625MPD2    H2 9314   1.661   1.674   1.001 -1.6054  1.1625  0.6554
  625MPD2    H3 9315   1.774   1.560   1.176 -0.1526 -0.4992 -0.1149
  625MPD2     N 9316   2.098   1.876   1.199 -0.4349  0.5530 -0.3551
  625MPD2    H5 9317   2.135   1.957   1.149  1.2211  1.0195  1.6061
  625MPD2    N1 9318   1.750   1.922   0.886 -0.5857  0.2020 -0.1401
  625MPD2    H7 9319   1.794   2.011   0.869  1.6383 -0.8247  0.2402
  626TMC3    C1 9320   1.595   1.984   0.714  0.0291  0.1257  0.2331
  626TMC3    C2 9321   1.538   1.943   0.599  0.4586 -0.2005  0.0711
  626TMC3    C3 9322   1.484   2.036   0.516 -0.5052  0.5700 -0.3786
  626TMC3    C4 9323   1.605   2.116   0.750  0.0393  0.3152 -0.3695
  626TMC3    C5 9324   1.548   2.209   0.668 -0.0181 -0.7787  0.7964
  626TMC3    C6 9325   1.485   2.170   0.550  0.0731 -0.1429 -0.0789
  626TMC3     C 9326   1.646   1.882   0.803 -0.1416 -0.2612 -0.5441
  626TMC3     O 9327   1.585   1.776   0.807 -0.4712 -0.2754 -0.1111
  626TMC3     H 9328   1.545   1.840   0.567  1.0057  0.2750 -1.3173
  626TMC3    H1 9329   1.631   2.150   0.849  0.1692  1.4277 -0.7945
  626TMC3    H2 9330   1.442   2.245   0.484  0.4435 -1.6195 -1.9866
  626TMC3    C7 9331   1.547   2.345   0.723 -0.3290  0.3897  0.6320
  626TMC3    C8 9332   1.416   2.000   0.391  0.1681  0.1968 -0.3776
  626TMC3    O1 9333   1.636   2.371   0.804 -0.4281  0.2201 -0.0291
  626TMC3    O2 9334   1.386   2.099   0.320 -0.1582  0.6252  0.2279
  627MPD2     C 9335   4.331   1.906  14.684 -0.0978 -0.2306  0.3006
  627MPD2    C1 9336   4.459   1.879  14.720  0.3178 -0.0236  0.8732
  627MPD2    C2 9337   4.478   1.763  14.792 -0.7296 -0.5226  0.3895
  627MPD2    C3 9338   4.376   1.681  14.840  1.1220 -0.0741  0.8698
  627MPD2    C4 9339   4.243   1.711  14.806 -0.4575  0.7547  0.0102
  627MPD2    C5 9340   4.228   1.824  14.731  0.5528 -0.2917  0.2703
  627MPD2     H 9341   4.579   1.747  14.825 -0.8536 -0.1856  0.9338
  627MPD2    H1 9342   4.151   1.660  14.827 -1.0372  2.0701  0.7016
  627MPD2    H2 9343   4.310   1.985  14.613  1.3091  0.0810  0.2436
  627MPD2    H3 9344   4.134   1.837  14.680  1.3394  1.4482 -0.7548
  627MPD2     N 9345   4.415   1.568  14.912 -0.8330 -0.0875 -0.2283
  627MPD2    H5 9346   4.512   1.555  14.940 -0.3911  0.6391 -1.3789
  627MPD2    N1 9347   4.573   1.962  14.689  0.2247 -0.3726  0.6166
  627MPD2    H7 9348   4.664   1.926  14.715 -1.0039 -2.0205  2.7115
  628TMC3    C1 9349   4.688   2.165  14.621 -0.0862 -0.2310  0.2819
  628TMC3    C2 9350   0.074   2.107  14.639  0.5979  0.0347 -0.2274
  628TMC3    C3 9351   0.184   2.192  14.638 -0.4034 -0.3349  0.0888
  628TMC3    C4 9352   4.672   2.300  14.586 -0.2863 -0.2861  0.1874
  628TMC3    C5 9353   0.052   2.372  14.570 -0.6145 -0.0894 -0.1459
  628TMC3    C6 9354   0.173   2.323  14.601 -0.1954 -0.0313 -0.4879
  628TMC3     C 9355   4.566   2.092  14.640 -0.9300  0.1385  0.7520
  628TMC3     O 9356   4.463   2.158  14.628 -0.4224 -0.2967 -0.5891
  628TMC3     H 9357   0.084   2.000  14.650  0.8042  0.0194 -0.5755
  628TMC3    H1 9358   4.575   2.346  14.578 -0.7421 -1.4924 -1.3859
  628TMC3    H2 9359   0.257   2.391  14.618 -1.2186  0.4689  2.4102
  628TMC3    C7 9360   0.038   2.511  14.542 -0.1426 -0.1438  0.8477
  628TMC3    C8 9361   0.318   2.142  14.646 -1.0222 -0.7332 -0.2006
  628TMC3    O1 9362   0.126   2.580  14.585 -0.4081  0.0337 -0.7315
  628TMC3    O2 9363   0.392   2.200  14.566  0.0993  0.5050  0.8116
  629MPD2     C 9364   3.116   0.738  16.985  0.7300 -0.0588 -0.0449
  629MPD2    C1 9365   3.145   0.785  16.859  0.1523  0.4280  0.1660
  629MPD2    C2 9366   3.083   0.903  16.817  0.3280 -0.3574 -0.2977
  629MPD2    C3 9367   2.986   0.970  16.895 -0.3660 -0.6810 -0.4096
  629MPD2    C4 9368   2.950   0.908  17.012 -0.0763 -0.5050  0.1917
  629MPD2    C5 9369   3.021   0.804  17.060 -0.4226  0.3840 -0.0946
  629MPD2     H 9370   3.104   0.946  16.720  2.1107 -1.0190 -0.2063
  629MPD2    H1 9371   2.868   0.934  17.078  0.6985 -0.6120  1.1999
  629MPD2    H2 9372   3.177   0.661  17.030 -0.7840 -0.6675  0.9825
  629MPD2    H3 9373   2.996   0.748  17.150 -0.0661 -1.1206 -0.9362
  629MPD2     N 9374   2.920   1.079  16.835 -0.0160 -0.3350 -0.4999
  629MPD2    H5 9375   2.959   1.124  16.752 -3.1896  0.3605 -1.6087
  629MPD2    N1 9376   3.259   0.726  16.792 -0.1656  0.2642  0.5358
  629MPD2    H7 9377   3.293   0.638  16.830  2.4803  2.0388  2.3054
  630TMC3    C1 9378   3.424   0.703  16.622 -0.4024 -0.1717 -0.2982
  630TMC3    C2 9379   3.449   0.746  16.492  0.9453  0.4011  0.2231
  630TMC3    C3 9380   3.531   0.675  16.410 -0.4516  0.4272  0.1407
  630TMC3    C4 9381   3.493   0.606  16.683 -0.9438 -0.6311  0.1043
  630TMC3    C5 9382   3.582   0.542  16.603  0.0588 -0.0343 -0.4592
  630TMC3    C6 9383   3.598   0.568  16.469 -0.3034  0.1929 -0.0516
  630TMC3     C 9384   3.329   0.785  16.693 -0.0527 -0.4287 -0.0526
  630TMC3     O 9385   3.308   0.894  16.644 -0.3860 -0.9261  0.2365
  630TMC3     H 9386   3.393   0.826  16.446 -1.1397 -0.7440  0.7845
  630TMC3    H1 9387   3.480   0.591  16.790  0.3785  2.7854  0.7389
  630TMC3    H2 9388   3.670   0.523  16.401  1.2066  0.2738  1.4868
  630TMC3    C7 9389   3.704   0.495  16.672 -0.7098  0.0981 -0.0996
  630TMC3    C8 9390   3.623   0.750  16.329  0.5098  0.6714 -0.1464
  630TMC3    O1 9391   3.691   0.469  16.788  0.2359 -0.0888  0.3904
  630TMC3    O2 9392   3.746   0.737  16.353  0.3246 -0.3030  0.3842
  631MPD2     C 9393   1.990   0.600  15.394 -0.6416  0.7110 -0.0326
  631MPD2    C1 9394   2.005   0.716  15.331 -0.0855  0.6755  0.6731
  631MPD2    C2 9395   2.115   0.801  15.357  0.0741 -0.0365 -0.1555
  631MPD2    C3 9396   2.218   0.751  15.433  0.0839 -0.5491  1.2303
  631MPD2    C4 9397   2.200   0.631  15.502  0.5768  0.1816  0.3317
  631MPD2    C5 9398   2.091   0.559  15.486 -0.1815 -0.1404  0.6930
  631MPD2     H 9399   2.132   0.902  15.322 -0.6384 -0.3675 -1.4365
  631MPD2    H1 9400   2.276   0.594  15.570 -0.1153 -1.3200  0.2796
  631MPD2    H2 9401   1.902   0.537  15.384  0.8746 -1.3585 -0.3161
  631MPD2    H3 9402   2.067   0.464  15.531 -1.6863 -0.1045  0.0021
  631MPD2     N 9403   2.330   0.835  15.453 -0.6494 -0.5173  0.1571
  631MPD2    H5 9404   2.316   0.913  15.390 -1.3631 -1.4203 -0.8072
  631MPD2    N1 9405   1.896   0.763  15.256  0.3212  0.1097  0.0509
  631MPD2    H7 9406   1.817   0.702  15.237 -2.4096  2.6642  3.3990
  632TMC3    C1 9407   1.779   0.883  15.088 -0.8436  0.1035  0.4700
  632TMC3    C2 9408   1.680   0.918  15.173 -0.1523  0.0569  0.2603
  632TMC3    C3 9409   1.593   1.004  15.118 -0.7281 -0.8117 -0.6702
  632TMC3    C4 9410   1.803   0.940  14.967 -0.4707  0.5324  0.5312
  632TMC3    C5 9411   1.706   1.011  14.910  0.1352  0.1616  0.1486
  632TMC3    C6 9412   1.597   1.048  14.986 -0.0834 -0.2423  0.0303
  632TMC3     C 9413   1.896   0.869  15.164 -0.5296  0.3000 -0.0813
  632TMC3     O 9414   1.993   0.944  15.135 -0.1668 -0.2996 -0.0275
  632TMC3     H 9415   1.666   0.872  15.271 -0.7915  0.1352  0.2087
  632TMC3    H1 9416   1.901   0.945  14.922 -0.1800 -0.7378  1.0202
  632TMC3    H2 9417   1.524   1.112  14.937  0.7006 -0.0911 -0.9238
  632TMC3    C7 9418   1.731   1.059  14.777  0.1648  0.4337 -0.4168
  632TMC3    C8 9419   1.462   1.015  15.184  0.6741 -0.7398 -0.8186
  632TMC3    O1 9420   1.827   1.011  14.712 -0.7865 -0.2920  0.6301
  632TMC3    O2 9421   1.452   0.948  15.285  0.0394  0.0344  0.0333
  633MPD2     C 9422   1.035   3.794  17.050  1.0238  0.1498  0.2302
  633MPD2    C1 9423   1.164   3.741  17.036 -0.5749  0.1564  0.4197
  633MPD2    C2 9424   1.190   3.627  17.104  0.3589 -0.3489  0.5017
  633MPD2    C3 9425   1.100   3.539  17.159 -0.7126  0.7746 -0.4872
  633MPD2    C4 9426   0.974   3.577  17.165  0.4516  0.6965 -1.2342
  633MPD2    C5 9427   0.949   3.704  17.115  0.9401  0.2471  0.1020
  633MPD2     H 9428   1.288   3.590  17.079 -0.7821 -3.0120 -0.0347
  633MPD2    H1 9429   0.900   3.503  17.193  1.6638 -0.9315 -2.3092
  633MPD2    H2 9430   1.009   3.890  17.007  0.5026  0.4418  1.2098
  633MPD2    H3 9431   0.843   3.724  17.106  0.9843  0.8962  1.1352
  633MPD2     N 9432   1.140   3.413  17.202 -0.7591  0.0300 -0.0486
  633MPD2    H5 9433   1.067   3.345  17.220  0.2895 -1.2813 -0.7808
  633MPD2    N1 9434   1.269   3.792  16.948 -0.0127  0.0288  0.0454
  633MPD2    H7 9435   1.361   3.750  16.943 -0.7590 -1.3917 -1.6463
  634TMC3    C1 9436   1.340   3.893  16.743  0.1457  0.1340 -0.1433
  634TMC3    C2 9437   1.456   3.824  16.744  0.7706 -0.4557 -0.2736
  634TMC3    C3 9438   1.536   3.830  16.629  0.5766  0.1838 -0.4240
  634TMC3    C4 9439   1.302   3.968  16.631 -1.0268 -0.3764 -0.0386
  634TMC3    C5 9440   1.392   3.986  16.528 -0.1670  0.5493  1.4287
  634TMC3    C6 9441   1.502   3.905  16.518  0.2938  0.3840 -0.5723
  634TMC3     C 9442   1.246   3.882  16.851  0.0202  0.0896  0.7084
  634TMC3     O 9443   1.141   3.936  16.830 -0.2496 -0.2558  0.1145
  634TMC3     H 9444   1.480   3.765  16.832 -2.0963 -1.4383 -0.1485
  634TMC3    H1 9445   1.204   4.016  16.628 -0.3150  1.0393 -0.6923
  634TMC3    H2 9446   1.561   3.897  16.428  2.2979  1.4441  0.6451
  634TMC3    C7 9447   1.341   4.025  16.400 -0.3505  0.5197 -0.0111
  634TMC3    C8 9448   1.633   3.720  16.618  0.4877 -0.4142  0.1011
  634TMC3    O1 9449   1.389   3.959  16.312 -0.3004  0.1036 -0.0163
  634TMC3    O2 9450   1.632   3.632  16.706  0.0361  0.1219 -0.0040
  635TMC3    C1 9451   1.984   4.715  17.431  0.1467 -0.4942 -0.5895
  635TMC3    C2 9452   2.080   4.735  17.336 -0.2256 -0.4120  0.3355
  635TMC3    C3 9453   2.139   4.620  17.285  0.5864 -0.6862 -0.3060
  635TMC3    C4 9454   1.960   4.589  17.481  0.6381  0.1450 -0.0816
  635TMC3    C5 9455   2.032   4.478  17.441  0.4966 -0.1869  0.3880
  635TMC3    C6 9456   2.114   4.495  17.331  0.0890 -0.1912 -0.0573
  635TMC3     C 9457   1.901   0.087  17.482 -0.0577 -0.1278 -0.0644
  635TMC3     O 9458   1.884   0.092  17.604 -0.3482  0.0653  0.7394
  635TMC3     H 9459   2.113   0.099  17.312  1.1284 -1.2395 -1.2920
  635TMC3    H1 9460   1.887   4.591  17.561  1.3132  3.9929  0.4315
  635TMC3    H2 9461   2.157   4.405  17.287 -2.1859 -2.1668  1.7960
  635TMC3    C7 9462   2.037   4.360  17.518  0.2201  0.1151 -0.1113
  635TMC3    C8 9463   2.239   4.635  17.184 -0.4749  0.7595  0.9036
  635TMC3    O1 9464   2.105   4.264  17.475  0.0533 -0.3296 -0.3365
  635TMC3    O2 9465   2.311   4.541  17.156  0.5637  0.0638  0.2709
  636MPD2     C 9466   2.737   3.977  15.712  0.3297 -0.0349  0.3769
  636MPD2    C1 9467   2.712   3.970  15.849  0.5587 -0.0794 -0.5139
  636MPD2    C2 9468   2.684   3.853  15.917  0.0547  0.8641  0.5659
  636MPD2    C3 9469   2.700   3.739  15.841 -0.1887  0.2484  0.1058
  636MPD2    C4 9470   2.731   3.746  15.708 -0.2328  0.3257 -0.4138
  636MPD2    C5 9471   2.760   3.862  15.646  0.5125 -0.5392  0.4297
  636MPD2     H 9472   2.662   3.847  16.023 -2.1319 -0.2012  0.0481
  636MPD2    H1 9473   2.738   3.658  15.644 -0.3782 -0.2781  0.4033
  636MPD2    H2 9474   2.759   4.067  15.656  1.2014 -0.7001 -0.3486
  636MPD2    H3 9475   2.798   3.867  15.545 -0.1044  0.4383  0.2496
  636MPD2     N 9476   2.666   3.618  15.905  0.0121 -0.0360 -0.2108
  636MPD2    H5 9477   2.642   3.619  16.003 -1.1886 -0.2833 -0.4995
  636MPD2    N1 9478   2.724   4.089  15.932  0.0972  0.3317  0.2793
  636MPD2    H7 9479   2.699   4.077  16.030 -1.2491  1.0362  0.0173
  637TMC3    C1 9480   2.598   3.410  15.954  0.0107  0.1245  0.3036
  637TMC3    C2 9481   2.531   3.483  16.053 -0.3341 -0.4170 -0.3397
  637TMC3    C3 9482   2.560   3.448  16.184 -0.6445 -0.6720 -0.5878
  637TMC3    C4 9483   2.661   3.291  15.971 -0.2145 -0.0221  0.3983
  637TMC3    C5 9484   2.687   3.267  16.099  0.0987 -0.1403  0.5608
  637TMC3    C6 9485   2.644   3.338  16.207 -0.1346  0.5915  0.4500
  637TMC3     C 9486   2.650   3.493  15.849 -0.6502  0.0428  0.2445
  637TMC3     O 9487   2.685   3.450  15.739 -0.9340  0.0985 -0.3468
  637TMC3     H 9488   2.467   3.567  16.031  0.9721  1.7707  4.1034
  637TMC3    H1 9489   2.700   3.235  15.887 -1.3175  0.4834 -0.4545
  637TMC3    H2 9490   2.695   3.326  16.302 -1.2086  0.4076  1.0020
  637TMC3    C7 9491   2.755   3.138  16.138  0.4619  0.5517  0.2328
  637TMC3    C8 9492   2.600   3.571  16.254 -0.4001 -1.2220 -0.4887
  637TMC3    O1 9493   2.719   3.069  16.232  0.6590  0.1649  0.4635
  637TMC3    O2 9494   2.600   3.664  16.181  0.7416 -0.1445  0.3408
  638MPD2     C 9495   2.632   2.754  14.887 -0.5364 -0.6069  0.2560
  638MPD2    C1 9496   2.591   2.660  14.794 -0.1813  0.3818 -0.6881
  638MPD2    C2 9497   2.560   2.538  14.848 -0.0919  0.6538 -0.1208
  638MPD2    C3 9498   2.566   2.496  14.977 -0.3693  0.0025 -0.5904
  638MPD2    C4 9499   2.610   2.591  15.065 -0.1121 -0.7692 -0.2711
  638MPD2    C5 9500   2.632   2.717  15.018 -0.1924  0.3863 -0.0738
  638MPD2     H 9501   2.519   2.463  14.782 -2.3828  0.6956  1.2626
  638MPD2    H1 9502   2.610   2.578  15.173  2.2458  0.6401 -0.0913
  638MPD2    H2 9503   2.650   2.860  14.869  1.7380 -1.0786 -0.2620
  638MPD2    H3 9504   2.654   2.794  15.091  1.3145  0.0028 -0.1344
  638MPD2     N 9505   2.536   2.362  15.012 -0.0510  0.3825 -0.5600
  638MPD2    H5 9506   2.496   2.298  14.944 -0.3418 -0.8812  0.7908
  638MPD2    N1 9507   2.589   2.697  14.662  0.0185  0.0530 -0.4275
  638MPD2    H7 9508   2.606   2.796  14.645 -1.9328  0.7035  1.3814
  639TMC3    C1 9509   2.564   2.157  15.108 -0.7684  0.1022 -0.4818
  639TMC3    C2 9510   2.452   2.113  15.037 -0.1483 -0.3827  0.1918
  639TMC3    C3 9511   2.455   1.990  14.984 -0.9113  0.0336 -0.3144
  639TMC3    C4 9512   2.672   2.080  15.131  0.1542  0.3222 -0.1603
  639TMC3    C5 9513   2.668   1.954  15.076 -0.1806  0.2014  0.7944
  639TMC3    C6 9514   2.568   1.910  14.992  1.0042  0.4789  0.2577
  639TMC3     C 9515   2.587   2.297  15.124  0.7252  0.6029  0.0143
  639TMC3     O 9516   2.671   2.344  15.203 -0.3348 -0.6179 -0.0450
  639TMC3     H 9517   2.368   2.181  15.028 -0.5437 -1.1384 -2.0305
  639TMC3    H1 9518   2.738   2.104  15.214  0.3907  0.9007 -0.5197
  639TMC3    H2 9519   2.572   1.828  14.920 -0.2665  1.7278 -1.2412
  639TMC3    C7 9520   2.796   1.890  15.065  0.0689  0.6167  0.4586
  639TMC3    C8 9521   2.349   1.955  14.885  0.2707  0.3677 -0.4512
  639TMC3    O1 9522   2.805   1.773  15.034 -0.0709  0.4121 -0.0088
  639TMC3    O2 9523   2.386   1.925  14.775  0.1263  0.4352 -0.5112
  640MPD2     C 9524   2.700   2.307  10.468  0.3233  0.2706  0.6880
  640MPD2    C1 9525   2.746   2.291  10.340  0.9072  0.1744  0.0630
  640MPD2    C2 9526   2.789   2.408  10.267  0.2752  1.3623 -0.0620
  640MPD2    C3 9527   2.781   2.532  10.332 -0.5651 -0.0612 -0.1575
  640MPD2    C4 9528   2.722   2.539  10.453 -0.1894 -0.7001  0.5708
  640MPD2    C5 9529   2.695   2.428  10.519 -0.0774 -0.4065 -0.1038
  640MPD2     H 9530   2.825   2.397  10.165  1.0290 -2.4385  0.5973
  640MPD2    H1 9531   2.704   2.635  10.498  2.9456  0.0086  0.3256
  640MPD2    H2 9532   2.679   2.226  10.537 -0.2274 -1.5677 -1.6291
  640MPD2    H3 9533   2.660   2.437  10.621 -0.1083 -2.7745  0.0937
  640MPD2     N 9534   2.853   2.648  10.292  0.0002  0.0033  0.1338
  640MPD2    H5 9535   2.845   2.735  10.343 -1.6902  0.1614 -0.3768
  640MPD2    N1 9536   2.741   2.154  10.288 -0.1303  0.3697 -0.0432
  640MPD2    H7 9537   2.703   2.078  10.345  0.5323  0.0545 -0.0250
  641TMC3    C1 9538   2.772   1.986  10.134  0.0745 -0.4209  0.2513
  641TMC3    C2 9539   2.871   1.925  10.063  0.0889  0.1459 -0.1391
  641TMC3    C3 9540   2.851   1.792  10.048  0.1176 -0.4500 -0.1547
  641TMC3    C4 9541   2.667   1.918  10.191  0.0018 -0.2308 -0.1766
  641TMC3    C5 9542   2.646   1.782  10.158 -0.0388  0.0698  0.1402
  641TMC3    C6 9543   2.743   1.719  10.089  0.4571  0.7468  0.9989
  641TMC3     C 9544   2.788   2.126  10.164 -0.3726 -0.5042 -0.4932
  641TMC3     O 9545   2.835   2.188  10.071  0.0315 -0.0976  0.1280
  641TMC3     H 9546   2.946   1.993  10.023  0.2666  0.3523  0.5463
  641TMC3    H1 9547   2.591   1.973  10.246  0.9048  0.7783  0.0577
  641TMC3    H2 9548   2.748   1.613  10.067  1.5220  0.3912  2.9503
  641TMC3    C7 9549   2.574   1.695  10.255  0.4629  0.0831 -0.3280
  641TMC3    C8 9550   2.964   1.716   9.981 -0.0564  0.4389 -0.3487
  641TMC3    O1 9551   2.597   1.574  10.248  0.1658 -0.1301  0.4317
  641TMC3    O2 9552   2.934   1.641   9.892 -0.5029  1.1084  0.4098
  642TMC3    C1 9553   3.479   2.235  12.575 -0.0351 -0.6418  0.0863
  642TMC3    C2 9554   3.609   2.279  12.552 -0.0934 -0.1509 -0.0037
  642TMC3    C3 9555   3.677   2.204  12.463 -0.6967 -0.0344  0.7236
  642TMC3    C4 9556   3.413   2.136  12.498  1.3506 -0.8421 -0.3794
  642TMC3    C5 9557   3.505   2.059  12.422  0.3086  0.0687 -0.2613
  642TMC3    C6 9558   3.630   2.099  12.399 -1.2092  0.2118  0.3519
  642TMC3     C 9559   3.403   2.314  12.664  0.4698  1.0004  0.1669
  642TMC3     O 9560   3.458   2.396  12.731  0.0201 -0.3197  0.7245
  642TMC3     H 9561   3.644   2.371  12.597 -2.1647  0.9429 -0.5971
  642TMC3    H1 9562   3.308   2.109  12.502  1.0382  0.6574  1.1602
  642TMC3    H2 9563   3.696   2.050  12.328 -1.4085  0.9841 -0.3822
  642TMC3    C7 9564   3.447   1.955  12.348 -0.6329 -0.5707  0.6042
  642TMC3    C8 9565   3.814   2.254  12.432  0.0649 -0.1582 -0.6196
  642TMC3    O1 9566   3.492   1.922  12.239  0.0468  0.1981 -0.0879
  642TMC3    O2 9567   3.881   2.182  12.359  0.8198  0.1641  0.1648
  643TMC3    C1 9568   3.368   1.269   0.157 -0.0195  0.2676  0.4300
  643TMC3    C2 9569   3.241   1.240   0.108 -0.1151 -0.6800  0.3155
  643TMC3    C3 9570   3.231   1.166  17.737 -0.9852  0.5285 -0.2525
  643TMC3    C4 9571   3.480   1.212   0.108 -0.3696  0.2656  0.7619
  643TMC3    C5 9572   3.473   1.131  17.746 -0.3705 -0.5331 -0.3482
  643TMC3    C6 9573   3.341   1.096  17.695  0.4188  0.0910 -0.0182
  643TMC3     C 9574   3.385   1.379   0.252  0.0492 -0.3273  1.0003
  643TMC3     O 9575   3.292   1.459   0.268 -0.9735  0.0122  0.3562
  643TMC3     H 9576   3.157   1.287   0.158  0.2366 -1.8698  1.9909
  643TMC3    H1 9577   3.577   1.248   0.138 -0.1543  2.2727 -2.3112
  643TMC3    H2 9578   3.331   1.040  17.602  3.1590 -0.7303  0.1675
  643TMC3    C7 9579   3.555   1.192  17.646 -0.6722  0.5848  0.5651
  643TMC3    C8 9580   3.160   1.229  17.623  0.3501 -0.2676  0.2400
  643TMC3    O1 9581   3.574   1.312  17.665 -0.0870 -0.7285 -0.0315
  643TMC3    O2 9582   3.162   1.176  17.515  0.2912 -0.2821 -0.6456
  644MPD2     C 9583   3.151   2.284   9.575 -0.3114 -0.5494 -0.3006
  644MPD2    C1 9584   3.134   2.207   9.693 -1.0043 -0.0634  0.4464
  644MPD2    C2 9585   3.030   2.232   9.780  0.8118  0.2194  0.4008
  644MPD2    C3 9586   2.946   2.343   9.762 -0.4480 -0.1570 -0.4203
  644MPD2    C4 9587   2.963   2.411   9.641  0.6884 -0.0156  0.1831
  644MPD2    C5 9588   3.063   2.385   9.547 -0.0381 -0.3934 -0.2035
  644MPD2     H 9589   3.021   2.181   9.875 -2.1295  0.8823  0.4637
  644MPD2    H1 9590   2.892   2.489   9.618  1.1928 -0.2098 -2.0177
  644MPD2    H2 9591   3.224   2.256   9.500 -1.2912 -2.1349 -0.6625
  644MPD2    H3 9592   3.081   2.452   9.464  0.0874 -0.6664 -0.3959
  644MPD2     N 9593   2.843   2.374   9.849 -0.4303 -0.5989 -0.0718
  644MPD2    H5 9594   2.821   2.303   9.919  0.0216  0.0127  0.6904
  644MPD2    N1 9595   3.210   2.088   9.697 -0.2900  0.0433 -0.2044
  644MPD2    H7 9596   3.280   2.065   9.628 -3.1485 -2.3055 -2.3054
  645TMC3    C1 9597   2.671   2.494   9.949  0.2360  0.0853 -0.0345
  645TMC3    C2 9598   2.642   2.608  10.019  0.2388 -0.7995  0.2786
  645TMC3    C3 9599   2.547   2.612  10.115  0.0860  0.8830 -0.6174
  645TMC3    C4 9600   2.601   2.379   9.981 -0.9934 -0.0197  0.3991
  645TMC3    C5 9601   2.500   2.387  10.073 -0.0529 -0.1545 -0.0030
  645TMC3    C6 9602   2.475   2.498  10.146 -0.0525  0.2563 -0.4485
  645TMC3     C 9603   2.779   2.496   9.851  0.4603 -0.7489 -0.2169
  645TMC3     O 9604   2.822   2.600   9.818  0.3646 -0.0834  0.6039
  645TMC3     H 9605   2.704   2.696  10.006  2.1727 -2.0916  0.8190
  645TMC3    H1 9606   2.619   2.287   9.926 -0.5407 -0.3690  1.1163
  645TMC3    H2 9607   2.391   2.500  10.214  0.3673  0.6400  0.0584
  645TMC3    C7 9608   2.428   2.268  10.121  0.5529  0.0568 -0.2015
  645TMC3    C8 9609   2.548   2.724  10.202  0.4657 -0.5674 -0.0926
  645TMC3    O1 9610   2.350   2.282  10.219 -0.3902 -0.0605 -0.2765
  645TMC3    O2 9611   2.631   2.817  10.180 -0.5486 -0.3271 -0.5943
  646MPD2     C 9612   2.606   1.416  14.212  0.1846 -0.2156  0.2265
  646MPD2    C1 9613   2.518   1.386  14.313 -0.0519 -0.2220 -0.6410
  646MPD2    C2 9614   2.410   1.466  14.322  0.6619 -0.2778  0.8602
  646MPD2    C3 9615   2.385   1.558  14.224  0.7875  0.9762  0.4820
  646MPD2    C4 9616   2.475   1.588  14.127  0.4143 -0.6385  0.8097
  646MPD2    C5 9617   2.583   1.517  14.120  0.7414  0.3870 -0.4951
  646MPD2     H 9618   2.335   1.448  14.399 -0.7135  0.2648 -0.3611
  646MPD2    H1 9619   2.465   1.669  14.055  0.6585  0.4043  1.9396
  646MPD2    H2 9620   2.695   1.355  14.203  0.2338 -0.0217 -0.6410
  646MPD2    H3 9621   2.655   1.543  14.044  2.5495 -1.6108  0.5346
  646MPD2     N 9622   2.264   1.628  14.228 -0.4458  0.1279  0.3970
  646MPD2    H5 9623   2.217   1.616  14.317  0.9976  0.9451  1.2671
  646MPD2    N1 9624   2.547   1.278  14.404  0.2373 -0.1815  1.1729
  646MPD2    H7 9625   2.629   1.224  14.379  1.0019  1.4254  0.1802
  647TMC3    C1 9626   2.559   1.145  14.599 -0.0262 -0.1165  0.1916
  647TMC3    C2 9627   2.528   1.130  14.727 -0.5227 -0.2771 -0.5568
  647TMC3    C3 9628   2.615   1.053  14.798 -0.3499  0.3227 -1.0913
  647TMC3    C4 9629   2.643   1.063  14.530 -0.4276  0.1051  0.8328
  647TMC3    C5 9630   2.737   1.002  14.606  0.4433  0.4548  0.1759
  647TMC3    C6 9631   2.731   1.003  14.745  0.1507 -0.0765 -0.1536
  647TMC3     C 9632   2.484   1.248  14.522 -0.5290  0.6538  0.1631
  647TMC3     O 9633   2.388   1.293  14.572  0.3840  0.2654 -0.0262
  647TMC3     H 9634   2.453   1.190  14.777  0.1595  0.7403 -0.7612
  647TMC3    H1 9635   2.673   1.069  14.426 -0.6082  0.9500  0.8329
  647TMC3    H2 9636   2.807   0.952  14.803  0.3723 -0.0639 -0.4335
  647TMC3    C7 9637   2.804   0.880  14.552  0.5091 -0.0725  0.0611
  647TMC3    C8 9638   2.571   0.973  14.908 -0.9925 -0.0681  0.1053
  647TMC3    O1 9639   2.888   0.838  14.631  0.2351 -0.0934  0.3153
  647TMC3    O2 9640   2.661   0.950  14.987  0.6740  0.2143 -0.1018
  648TMC3    C1 9641   2.206   3.394  16.033  0.0302 -0.8258  0.8735
  648TMC3    C2 9642   2.277   3.273  16.039 -0.5628  0.2226 -0.7268
  648TMC3    C3 9643   2.310   3.229  15.914  0.2677  0.9573  0.2215
  648TMC3    C4 9644   2.172   3.460  15.917  0.1308  0.2708  0.0772
  648TMC3    C5 9645   2.203   3.402  15.801  0.7095 -0.4377 -0.2865
  648TMC3    C6 9646   2.274   3.287  15.796  0.2948 -0.2552 -1.4511
  648TMC3     C 9647   2.196   3.465  16.155 -0.0452  0.2181 -0.3092
  648TMC3     O 9648   2.202   3.585  16.146 -0.1283  0.1038  0.1996
  648TMC3     H 9649   2.318   3.223  16.126  0.9558  2.0693 -0.3700
  648TMC3    H1 9650   2.112   3.550  15.916  0.4747  0.4143 -4.0307
  648TMC3    H2 9651   2.282   3.238  15.700  0.0426 -0.3899 -1.4034
  648TMC3    C7 9652   2.180   3.473  15.675  0.9152  0.0706  0.3109
  648TMC3    C8 9653   2.397   3.110  15.924  0.6576  0.1287  0.5789
  648TMC3    O1 9654   2.248   3.437  15.582  0.3384  0.0531  0.0594
  648TMC3    O2 9655   2.396   3.034  16.018 -0.2969 -0.4367  0.2141
  649TMC3    C1 9656   0.458   4.473  12.775 -0.1752 -0.8490  0.3117
  649TMC3    C2 9657   0.588   4.474  12.723  0.1485 -0.3275 -0.4396
  649TMC3    C3 9658   0.681   4.390  12.772 -0.2449  0.3562  0.2333
  649TMC3    C4 9659   0.429   4.405  12.893 -0.0350  0.0596 -0.6036
  649TMC3    C5 9660   0.523   4.319  12.934 -0.1405  1.0484  0.1316
  649TMC3    C6 9661   0.649   4.305  12.880  0.1068 -0.2115  0.6766
  649TMC3     C 9662   0.341   4.525  12.711  0.7199 -0.4083  0.0206
  649TMC3     O 9663   0.233   4.524  12.770 -0.6874  0.5606 -0.6566
  649TMC3     H 9664   0.608   4.562  12.663 -3.3350  1.1792  0.5841
  649TMC3    H1 9665   0.332   4.416  12.940 -0.1243 -2.0423 -0.3133
  649TMC3    H2 9666   0.719   4.235  12.924 -1.0945 -2.3304 -0.7758
  649TMC3    C7 9667   0.486   4.242  13.057  0.2031 -0.5088 -0.1854
  649TMC3    C8 9668   0.821   4.414  12.744 -0.8729 -0.1415 -0.1649
  649TMC3    O1 9669   0.372   4.261  13.099  0.1215  0.5908  0.1645
  649TMC3    O2 9670   0.892   4.329  12.799  0.2561  0.4547 -0.0243
  650TMC3    C1 9671   2.762   1.120  12.495 -0.0179 -0.1663 -0.2239
  650TMC3    C2 9672   2.649   1.193  12.530  0.3555 -0.3980 -0.7121
  650TMC3    C3 9673   2.612   1.307  12.466  0.5532 -0.1813  0.4421
  650TMC3    C4 9674   2.830   1.142  12.378 -0.0981  0.1536  0.1389
  650TMC3    C5 9675   2.781   1.255  12.310 -0.2746 -0.0944 -0.4198
  650TMC3    C6 9676   2.677   1.335  12.351  0.3612  0.5587  0.6790
  650TMC3     C 9677   2.800   1.003  12.575  0.3619  0.2392 -0.3100
  650TMC3     O 9678   2.719   0.972  12.659  0.6519 -0.8523  0.2544
  650TMC3     H 9679   2.614   1.184  12.633 -0.6806 -0.8405 -1.1015
  650TMC3    H1 9680   2.907   1.077  12.337 -1.3991 -0.4393 -1.3562
  650TMC3    H2 9681   2.645   1.426  12.302  2.6094  0.8199 -0.3121
  650TMC3    C7 9682   2.873   1.315  12.214  0.4505  0.4751  0.0113
  650TMC3    C8 9683   2.570   1.422  12.541 -0.2940 -0.1452 -0.7125
  650TMC3    O1 9684   2.919   1.245  12.126  0.1431 -0.5419 -0.0243
  650TMC3    O2 9685   2.630   1.527  12.515  0.4067 -0.1894  0.0977
  651MPD2     C 9686   1.936   4.226  10.533 -0.1418  0.0196  0.4739
  651MPD2    C1 9687   1.946   4.319  10.633  0.4628  0.2884  0.3733
  651MPD2    C2 9688   2.071   4.382  10.648  0.0490 -0.2529 -0.1104
  651MPD2    C3 9689   2.175   4.357  10.566  0.0566  1.1367 -0.1901
  651MPD2    C4 9690   2.157   4.265  10.461 -0.0698  0.1909  0.0088
  651MPD2    C5 9691   2.037   4.200  10.446  0.2628 -0.1797 -0.1854
  651MPD2     H 9692   2.078   4.445  10.736  0.4733 -2.2445  1.2737
  651MPD2    H1 9693   2.232   4.247  10.385  1.5718 -0.8757  1.8866
  651MPD2    H2 9694   1.840   4.180  10.512  0.3978 -0.3296 -1.2247
  651MPD2    H3 9695   2.018   4.129  10.367  2.2221  0.0992 -0.9018
  651MPD2     N 9696   2.297   4.422  10.598  0.4164 -0.1965 -0.1054
  651MPD2    H5 9697   2.298   4.470  10.687  0.7734 -0.0582 -0.1831
  651MPD2    N1 9698   1.847   4.333  10.735 -0.1192 -0.2141 -0.4341
  651MPD2    H7 9699   1.874   4.400  10.807 -0.1361 -2.0723  1.2846
  652TMC3    C1 9700   2.710   4.495  10.697  0.2668 -0.1307 -0.2651
  652TMC3    C2 9701   2.636   4.436  10.602 -0.1398  0.3529 -0.6932
  652TMC3    C3 9702   2.518   4.497  10.580  0.1096 -0.4191  0.0736
  652TMC3    C4 9703   2.678   4.611  10.759 -0.0470  0.7674  0.9602
  652TMC3    C5 9704   2.563   4.677  10.722  0.2849 -0.8366  0.3237
  652TMC3    C6 9705   2.483   4.620  10.627  0.1476 -0.4659 -0.1816
  652TMC3     C 9706   2.835   4.437  10.741 -0.3117 -0.2948  0.1649
  652TMC3     O 9707   2.860   4.449  10.863 -0.2351 -0.7589  0.1587
  652TMC3     H 9708   2.658   4.334  10.575 -1.9207 -0.1516 -0.2133
  652TMC3    H1 9709   2.744   4.658  10.831 -0.4939 -1.5315  2.8645
  652TMC3    H2 9710   2.390   4.660  10.589  0.0632 -2.2185 -1.8094
  652TMC3    C7 9711   2.584   0.078  10.713 -0.1774  0.0595  0.6612
  652TMC3    C8 9712   2.415   4.416  10.530  0.5447  0.1787 -0.4178
  652TMC3    O1 9713   2.617   0.140  10.816 -0.1660 -0.2451  0.0249
  652TMC3    O2 9714   2.445   4.358  10.430  0.1971  0.7662 -0.2387
  653MPD2     C 9715   1.110   3.393  17.632  0.5911 -0.3541  0.2318
  653MPD2    C1 9716   1.014   3.458  17.550 -0.0423  0.1176  0.0128
  653MPD2    C2 9717   0.944   3.383  17.462 -0.6205  0.1133 -0.0148
  653MPD2    C3 9718   0.955   3.246  17.456  0.0958 -0.3574 -0.2737
  653MPD2    C4 9719   1.037   3.184  17.542  0.5217  0.4163  0.2597
  653MPD2    C5 9720   1.112   3.254  17.634  0.4291  0.1096  0.3049
  653MPD2     H 9721   0.879   3.437  17.394 -1.1464  0.8916  1.1077
  653MPD2    H1 9722   1.050   3.077  17.553  1.6270  0.5875  0.5678
  653MPD2    H2 9723   1.174   3.440  17.705  1.2893 -0.9443  0.0015
  653MPD2    H3 9724   1.180   3.204  17.702  0.2737 -1.5877 -0.7980
  653MPD2     N 9725   0.907   3.176  17.342  0.1745 -0.3622  0.4453
  653MPD2    H5 9726   0.840   3.234  17.292  0.6010  0.4866  0.8666
  653MPD2    N1 9727   1.011   3.598  17.549  0.3681  0.3121 -0.4797
  653MPD2    H7 9728   0.957   3.642  17.475 -0.8412 -1.7685 -0.8433
  654TMC3    C1 9729   0.898   3.006  17.177 -0.4471  0.3060  0.2768
  654TMC3    C2 9730   0.892   3.095  17.077  0.6486  0.2619  0.1037
  654TMC3    C3 9731   0.910   3.054  16.944 -0.8288 -0.0837 -0.3038
  654TMC3    C4 9732   0.916   2.873  17.146  0.5621 -0.3315 -0.0670
  654TMC3    C5 9733   0.914   2.833  17.011  0.2818 -0.3971  0.6513
  654TMC3    C6 9734   0.919   2.923  16.903 -0.2539  0.1737 -0.5775
  654TMC3     C 9735   0.923   3.040  17.316 -0.2649  0.4021  1.0251
  654TMC3     O 9736   0.971   2.952  17.384  0.0491 -0.2622 -0.6042
  654TMC3     H 9737   0.889   3.202  17.094 -2.0128  0.3784 -1.2010
  654TMC3    H1 9738   0.903   2.798  17.223 -1.5585  0.3323  0.2165
  654TMC3    H2 9739   0.935   2.883  16.804  1.2954 -0.4058 -0.1080
  654TMC3    C7 9740   0.933   2.696  16.972 -0.3510 -0.5588  0.3615
  654TMC3    C8 9741   0.908   3.155  16.845  0.0477  0.9179 -0.4611
  654TMC3    O1 9742   0.902   2.665  16.856 -0.3774 -0.5260 -0.4134
  654TMC3    O2 9743   0.837   3.250  16.877  0.5335  0.9036  0.0105
  655MPD2     C 9744   2.564   3.576  15.452  1.0041  0.5053 -0.2892
  655MPD2    C1 9745   2.509   3.693  15.407 -0.4392 -0.0779 -0.1097
  655MPD2    C2 9746   2.506   3.715  15.268 -0.7445 -0.4285  0.1245
  655MPD2    C3 9747   2.548   3.620  15.174  0.6504  0.3547 -0.9297
  655MPD2    C4 9748   2.619   3.516  15.219 -0.6591  0.2972  0.4710
  655MPD2    C5 9749   2.612   3.483  15.360 -0.5457 -0.4391  0.1257
  655MPD2     H 9750   2.454   3.805  15.238  1.6650  0.8461 -0.1947
  655MPD2    H1 9751   2.670   3.444  15.157 -0.9287  0.1600  0.4093
  655MPD2    H2 9752   2.576   3.555  15.558 -1.1147  4.3043  0.6970
  655MPD2    H3 9753   2.647   3.388  15.397 -0.7752 -1.9614 -3.5955
  655MPD2     N 9754   2.524   3.629  15.034 -0.3591 -0.7097  0.2260
  655MPD2    H5 9755   2.562   3.555  14.977  1.1188  0.5872 -0.4419
  655MPD2    N1 9756   2.446   3.787  15.491 -0.4753  0.3230 -0.2584
  655MPD2    H7 9757   2.406   3.870  15.447  1.8942  1.9517  0.6442
  656TMC3    C1 9758   2.346   3.894  15.673  0.0045 -0.0826 -0.7932
  656TMC3    C2 9759   2.251   3.871  15.769 -0.3390  0.2923 -0.9145
  656TMC3    C3 9760   2.153   3.963  15.771  0.2347  0.2339  0.0718
  656TMC3    C4 9761   2.344   3.997  15.584  0.3305  0.3155  0.2150
  656TMC3    C5 9762   2.235   4.079  15.581 -0.5821  0.2966  0.4033
  656TMC3    C6 9763   2.136   4.057  15.676 -0.7091  0.2804  0.3275
  656TMC3     C 9764   2.417   3.775  15.624  0.2534 -0.0737  0.3706
  656TMC3     O 9765   2.430   3.678  15.700 -0.1957 -0.1717  0.0825
  656TMC3     H 9766   2.256   3.787  15.838  0.1016  0.6499 -0.5107
  656TMC3    H1 9767   2.432   4.024  15.525 -0.2342  0.9719 -0.3375
  656TMC3    H2 9768   2.053   4.127  15.683  0.7078  2.2053 -1.7287
  656TMC3    C7 9769   2.191   4.136  15.454 -0.1717 -0.3149 -0.1424
  656TMC3    C8 9770   2.047   3.936  15.862 -0.1091 -1.2198  1.5232
  656TMC3    O1 9771   2.271   4.115  15.363  0.2210 -0.2399  0.1888
  656TMC3    O2 9772   2.006   3.821  15.862  0.0321  0.1585 -0.4955
  657TMC3    C1 9773   0.871   2.869  15.136  0.4043  0.0058 -0.1382
  657TMC3    C2 9774   0.780   2.969  15.163 -0.6081 -0.0256  0.4795
  657TMC3    C3 9775   0.777   3.081  15.086  0.6492 -1.4082  0.2889
  657TMC3    C4 9776   0.943   2.878  15.022 -0.5551 -0.2548  0.3897
  657TMC3    C5 9777   0.918   2.981  14.937 -0.0217  0.5838 -0.3025
  657TMC3    C6 9778   0.838   3.083  14.969  0.6733  0.2960 -0.1669
  657TMC3     C 9779   0.894   2.763  15.236 -0.2934  0.0908 -0.1749
  657TMC3     O 9780   0.860   2.798  15.350  0.2127 -0.0980  0.4930
  657TMC3     H 9781   0.718   2.944  15.248  0.5715 -2.1533  0.7203
  657TMC3    H1 9782   1.011   2.800  14.992 -0.1808 -0.7442  2.5015
  657TMC3    H2 9783   0.833   3.180  14.920  0.0448  0.6663  0.6351
  657TMC3    C7 9784   1.013   3.009  14.833  0.1064 -0.2638 -0.6005
  657TMC3    C8 9785   0.664   3.169  15.110  0.0728  0.1643 -0.6951
  657TMC3    O1 9786   1.118   2.947  14.847 -0.2235 -0.0909 -0.1872
  657TMC3    O2 9787   0.607   3.226  15.017 -0.1569  0.3915  0.0047
  658MPD2     C 9788   2.571   3.190  14.376  0.9493  0.0191  0.1427
  658MPD2    C1 9789   2.586   3.326  14.401  0.0686  0.1609 -1.2222
  658MPD2    C2 9790   2.632   3.408  14.301 -0.1096 -0.6051  0.5566
  658MPD2    C3 9791   2.684   3.360  14.186  0.5286 -0.8756 -0.0878
  658MPD2    C4 9792   2.705   3.226  14.178  0.7495  0.1203 -0.2063
  658MPD2    C5 9793   2.643   3.146  14.271  0.1673  0.3922 -0.7371
  658MPD2     H 9794   2.639   3.516  14.316  3.4913 -0.6066 -1.1044
  658MPD2    H1 9795   2.765   3.178  14.101 -0.0862 -0.0101 -0.7783
  658MPD2    H2 9796   2.530   3.114  14.441 -0.3236  0.0162 -0.6526
  658MPD2    H3 9797   2.646   3.040  14.252 -0.2178  0.1031  0.8853
  658MPD2     N 9798   2.724   3.457  14.096  0.0246 -0.1598  0.8595
  658MPD2    H5 9799   2.700   3.554  14.116  0.3747 -0.5550  3.1839
  658MPD2    N1 9800   2.526   3.382  14.518  0.5358  0.1527 -0.1438
  658MPD2    H7 9801   2.473   3.325  14.582  1.3470  1.2640  1.5180
  659TMC3    C1 9802   2.459   3.538  14.666 -0.0371 -0.7835  0.1705
  659TMC3    C2 9803   2.505   3.607  14.774  0.5703  0.0328 -0.3817
  659TMC3    C3 9804   2.422   3.695  14.836  0.3346  0.2917  0.3129
  659TMC3    C4 9805   2.323   3.542  14.626 -0.2774 -0.2049 -0.5510
  659TMC3    C5 9806   2.237   3.623  14.706 -0.1174 -0.1904 -0.3890
  659TMC3    C6 9807   2.286   3.702  14.805  0.0155 -0.2596  0.2981
  659TMC3     C 9808   2.549   3.503  14.563 -0.5502  0.4472  0.5226
  659TMC3     O 9809   2.640   3.582  14.529 -0.2857  0.3152  0.9557
  659TMC3     H 9810   2.610   3.589  14.794  0.5254 -1.4589 -1.4993
  659TMC3    H1 9811   2.289   3.479  14.545 -1.3471 -0.7085  0.2875
  659TMC3    H2 9812   2.224   3.769  14.863 -0.8406  0.5084 -1.5368
  659TMC3    C7 9813   2.098   3.588  14.693  0.0822 -0.0376  0.4175
  659TMC3    C8 9814   2.444   3.722  14.976 -0.7242 -0.2610  0.6819
  659TMC3    O1 9815   2.069   3.471  14.683 -0.0641 -0.0536  0.1883
  659TMC3    O2 9816   2.360   3.789  15.034  0.5656  0.0271  0.2778
  660MPD2     C 9817   4.557   2.817  12.602 -0.1618 -0.1410  0.3495
  660MPD2    C1 9818   4.425   2.828  12.634  0.2836 -0.7616  0.1259
  660MPD2    C2 9819   4.359   2.732  12.703 -0.8706 -0.1799 -0.3620
  660MPD2    C3 9820   4.416   2.607  12.739  0.0738 -0.3789 -0.8785
  660MPD2    C4 9821   4.547   2.597  12.699  0.6919 -0.7841 -0.3181
  660MPD2    C5 9822   4.615   2.701  12.638  0.0421  0.0867 -0.4679
  660MPD2     H 9823   4.256   2.752  12.728 -0.4270  0.2041  1.1489
  660MPD2    H1 9824   4.607   2.510  12.723  1.9007 -0.4302 -2.0281
  660MPD2    H2 9825   4.600   2.903  12.553  2.8851 -2.2310 -0.6019
  660MPD2    H3 9826   4.720   2.686  12.618 -0.4610 -1.8593 -1.7312
  660MPD2     N 9827   4.348   2.496  12.793  0.2125  0.3560  0.0061
  660MPD2    H5 9828   4.397   2.407  12.792 -0.3052  0.0657  0.7084
  660MPD2    N1 9829   4.351   2.938  12.582  0.5034 -0.1380  0.4608
  660MPD2    H7 9830   4.394   2.985  12.503 -1.0875 -0.4251 -0.5906
  661TMC3    C1 9831   4.130   3.034  12.537 -0.2666  0.2537 -0.2559
  661TMC3    C2 9832   4.186   3.065  12.417  0.1870  0.1101 -0.4574
  661TMC3    C3 9833   4.103   3.066  12.307 -0.6279  0.1131 -0.2009
  661TMC3    C4 9834   3.998   3.009  12.554  0.1900 -0.0206 -0.2536
  661TMC3    C5 9835   3.916   2.999  12.445 -0.0921  0.3079 -0.1133
  661TMC3    C6 9836   3.971   3.020  12.320  0.2855  0.4812  0.2361
  661TMC3     C 9837   4.225   2.975  12.637 -1.3106  0.4783  0.5063
  661TMC3     O 9838   4.172   2.941  12.740  0.4793  0.1857  0.5845
  661TMC3     H 9839   4.280   3.114  12.397 -0.2481 -0.0918 -3.0114
  661TMC3    H1 9840   3.962   2.989  12.654  0.5172  0.2007 -0.0917
  661TMC3    H2 9841   3.905   3.016  12.234  0.4769 -1.0062  0.1441
  661TMC3    C7 9842   3.800   2.911  12.443 -0.3699 -0.0739 -0.1207
  661TMC3    C8 9843   4.138   3.161  12.206  0.5470 -0.7473 -0.4947
  661TMC3    O1 9844   3.701   2.937  12.509 -0.5429  0.3539  0.2966
  661TMC3    O2 9845   4.251   3.193  12.188  0.7603  0.1736 -0.4418
  662MPD2     C 9846   0.667   2.299  16.884  0.7831  0.1201  0.2305
  662MPD2    C1 9847   0.627   2.204  16.974 -0.4683 -0.2818  0.3221
  662MPD2    C2 9848   0.548   2.234  17.075 -0.1394 -0.6337  0.1429
  662MPD2    C3 9849   0.486   2.361  17.087 -0.0422 -0.1754  0.5581
  662MPD2    C4 9850   0.528   2.461  16.999  0.0851 -0.1499 -0.6267
  662MPD2    C5 9851   0.616   2.423  16.900 -0.2952  0.9326  0.6421
  662MPD2     H 9852   0.522   2.149  17.136  0.6897  0.7598  2.4417
  662MPD2    H1 9853   0.499   2.565  17.002 -1.3115 -0.4726 -2.7498
  662MPD2    H2 9854   0.737   2.278  16.804 -0.1995  0.1836 -0.6332
  662MPD2    H3 9855   0.658   2.502  16.839  4.2241 -1.8809  0.0946
  662MPD2     N 9856   0.405   2.398  17.194  0.0456  0.7682  0.1316
  662MPD2    H5 9857   0.387   2.496  17.212 -0.8315  1.0420 -2.2025
  662MPD2    N1 9858   0.679   2.079  16.981  0.4396 -0.3380 -0.4139
  662MPD2    H7 9859   0.647   2.026  17.062  0.1261  0.7138  0.1491
  663TMC3    C1 9860   0.744   1.867  16.923  0.1028 -0.0481  0.2757
  663TMC3    C2 9861   0.747   1.826  17.051 -0.5445  0.3250 -0.2162
  663TMC3    C3 9862   0.664   1.731  17.106 -0.2835  0.1026 -0.8321
  663TMC3    C4 9863   0.668   1.792  16.841  0.6215  0.4067  0.5472
  663TMC3    C5 9864   0.605   1.678  16.893 -0.4418 -0.3458  0.8439
  663TMC3    C6 9865   0.594   1.651  17.026  0.3388  0.0801  0.1970
  663TMC3     C 9866   0.755   2.010  16.891 -0.3381  0.5899 -0.2239
  663TMC3     O 9867   0.785   2.047  16.779 -0.3526  0.2358 -0.5225
  663TMC3     H 9868   0.799   1.893  17.118  0.7009  0.3276 -1.1701
  663TMC3    H1 9869   0.679   1.807  16.734  0.9006  1.5364  0.7310
  663TMC3    H2 9870   0.496   1.612  17.052  0.3943 -0.2712 -0.1109
  663TMC3    C7 9871   0.505   1.624  16.801  0.8775 -1.0761 -0.5134
  663TMC3    C8 9872   0.581   1.799  17.206 -0.3637  0.2774 -0.4231
  663TMC3    O1 9873   0.472   1.696  16.710  0.4531 -0.0478  0.7206
  663TMC3    O2 9874   0.580   1.919  17.202 -0.5410 -0.1650  0.7905
  664MPD2     C 9875   3.546   0.398  17.510 -0.1502  0.0067  0.0546
  664MPD2    C1 9876   3.670   0.436  17.557 -0.2754  0.5688 -0.3631
  664MPD2    C2 9877   3.718   0.382  17.670  0.0882  0.4448  0.6256
  664MPD2    C3 9878   3.640   0.291  17.745  0.5902 -0.3789  0.5854
  664MPD2    C4 9879   3.520   0.249  17.693  0.7760 -0.8975 -0.0215
  664MPD2    C5 9880   3.466   0.300  17.574  0.3123 -0.0583 -0.0478
  664MPD2     H 9881   3.817   0.410  17.706 -0.2783  2.2890  0.1987
  664MPD2    H1 9882   3.453   0.186   0.003 -0.2066  0.3770  0.2256
  664MPD2    H2 9883   3.500   0.446  17.423 -2.4710 -1.1092  0.6641
  664MPD2    H3 9884   3.371   0.271  17.530 -1.2354  3.1428  1.0869
  664MPD2     N 9885   3.685   0.244   0.124  0.0786 -0.4265  0.1412
  664MPD2    H5 9886   3.771   0.287   0.158 -0.2807  0.3602  0.0333
  664MPD2    N1 9887   3.758   0.531  17.487 -0.0014  0.4174  0.3554
  664MPD2    H7 9888   3.858   0.532  17.505  0.2543 -0.7710 -0.9152
  665TMC3    C1 9889   3.644   0.173   0.348 -0.5169 -0.2629 -0.0760
  665TMC3    C2 9890   3.585   0.072   0.423 -0.0439  0.8336  0.5985
  665TMC3    C3 9891   3.622   0.077   0.557  0.0536  0.4371 -0.1449
  665TMC3    C4 9892   3.732   0.264   0.394 -0.4193 -0.1134 -0.0970
  665TMC3    C5 9893   3.763   0.261   0.530  0.7263 -0.2847 -0.2077
  665TMC3    C6 9894   3.708   0.173   0.608 -0.1663  0.4149  0.0267
  665TMC3     C 9895   3.615   0.162   0.206 -0.3966 -0.6714  0.6287
  665TMC3     O 9896   3.522   0.085   0.180  0.2104  0.1491  0.3560
  665TMC3     H 9897   3.514   4.737   0.386  1.2986  0.6263 -1.5871
  665TMC3    H1 9898   3.762   0.349   0.335 -1.9500 -0.5486 -1.5043
  665TMC3    H2 9899   3.753   0.149   0.703 -2.3809  0.5986  1.1381
  665TMC3    C7 9900   3.862   0.343   0.578 -0.2301  0.8111 -0.1226
  665TMC3    C8 9901   3.534   0.025   0.659 -0.2690 -0.3768  0.3740
  665TMC3    O1 9902   3.921   0.418   0.502  0.2606 -0.0793  0.3871
  665TMC3    O2 9903   3.527   0.090   0.763 -0.0468  0.5031  0.3188
  666TMC3    C1 9904   2.600   0.666  10.362  0.1539 -0.6801  0.1507
  666TMC3    C2 9905   2.642   0.590  10.247 -0.0093 -0.2257 -0.0694
  666TMC3    C3 9906   2.704   0.659  10.145 -0.2496 -0.2572 -0.2290
  666TMC3    C4 9907   2.621   0.804  10.371  0.0130  0.0536  0.3641
  666TMC3    C5 9908   2.685   0.864  10.270 -0.1249  0.0633  0.7295
  666TMC3    C6 9909   2.730   0.793  10.159 -0.1225 -0.3952  0.0251
  666TMC3     C 9910   2.538   0.613  10.478  0.3111 -0.5349  0.5835
  666TMC3     O 9911   2.515   0.678  10.578  0.5056  0.5092  0.0110
  666TMC3     H 9912   2.632   0.482  10.239 -2.1793  0.0699 -1.3500
  666TMC3    H1 9913   2.566   0.867  10.440  0.6095 -1.0976  1.8852
  666TMC3    H2 9914   2.799   0.838  10.088 -0.1395  0.1218  0.3390
  666TMC3    C7 9915   2.682   1.013  10.276 -0.4392  0.6321  0.6631
  666TMC3    C8 9916   2.741   0.582  10.026 -0.6516  0.2068  0.2657
  666TMC3    O1 9917   2.631   1.059  10.380  0.1473  0.7272  0.1070
  666TMC3    O2 9918   2.700   0.465  10.036  0.4715  0.4116  0.0695
  667MPD2     C 9919   4.318   0.057  14.504  0.3325 -0.4568 -0.3621
  667MPD2    C1 9920   4.281   4.700  14.597  0.2365 -0.4025 -0.5400
  667MPD2    C2 9921   4.249   4.573  14.544  0.7669 -0.0312 -0.2072
  667MPD2    C3 9922   4.251   4.547  14.408 -0.3881  0.1753 -0.0054
  667MPD2    C4 9923   4.291   4.647  14.324  0.1641 -0.1170 -0.2352
  667MPD2    C5 9924   4.327   0.035  14.367  0.3658  0.5623 -0.1252
  667MPD2     H 9925   4.234   4.495  14.617 -3.7127  0.6333 -0.4569
  667MPD2    H1 9926   4.295   4.628  14.218 -0.7407 -0.5789 -0.1841
  667MPD2    H2 9927   4.348   0.153  14.545 -0.2895 -0.4053 -0.0452
  667MPD2    H3 9928   4.364   0.115  14.304  1.2916  0.8964  0.8233
  667MPD2     N 9929   4.212   4.417  14.361  0.2496  0.7387 -0.6673
  667MPD2    H5 9930   4.213   4.400  14.261 -1.4225  0.7248 -0.6857
  667MPD2    N1 9931   4.281   4.712  14.739 -0.4078  0.3985  0.0185
  667MPD2    H7 9932   4.272   4.632  14.801 -1.0235 -1.2313 -2.1654
  668TMC3    C1 9933   4.291   0.091  14.944 -0.0342 -0.4003  0.0117
  668TMC3    C2 9934   4.337   0.201  15.014 -0.4235  0.2658 -0.4040
  668TMC3    C3 9935   4.331   0.200  15.150 -0.0239 -0.1077  0.4217
  668TMC3    C4 9936   4.251   4.716  15.014 -0.3455  0.0985  0.2865
  668TMC3    C5 9937   4.246   4.727  15.151 -0.1854 -0.4911  0.3804
  668TMC3    C6 9938   4.285   0.096  15.222 -0.5830  0.0494  0.0555
  668TMC3     C 9939   4.310   0.095  14.799 -0.3264  0.4041  0.3050
  668TMC3     O 9940   4.341   0.210  14.758 -0.9731  0.2812  0.1171
  668TMC3     H 9941   4.367   0.293  14.964  1.1754 -0.9199 -1.5947
  668TMC3    H1 9942   4.262   4.618  14.970 -0.9159  0.8266 -1.4845
  668TMC3    H2 9943   4.271   0.098  15.329 -0.1511 -0.9572  0.1236
  668TMC3    C7 9944   4.181   4.622  15.226 -0.1039  0.4594  0.5786
  668TMC3    C8 9945   4.389   0.308  15.232 -0.2935  0.2763  0.0866
  668TMC3    O1 9946   4.172   4.629  15.348 -0.3418  0.8190 -0.1274
  668TMC3    O2 9947   4.377   0.297  15.354  0.0309 -0.5949 -0.6540
  669TMC3    C1 9948   2.043   0.189  14.421 -0.3789  0.2282  0.4181
  669TMC3    C2 9949   1.908   0.185  14.388  0.4762  0.1559 -0.3667
  669TMC3    C3 9950   1.857   0.266  14.293  0.6354  0.1944  0.0576
  669TMC3    C4 9951   2.120   0.285  14.365  0.3313  0.2963  0.6546
  669TMC3    C5 9952   2.061   0.366  14.272  0.5039  0.2814  0.3409
  669TMC3    C6 9953   1.928   0.364  14.238  0.7406 -0.0946  0.6438
  669TMC3     C 9954   2.079   0.120  14.542 -0.0073  0.0687  0.1218
  669TMC3     O 9955   1.989   0.082  14.615 -0.4120 -0.0814  0.3053
  669TMC3     H 9956   1.845   0.104  14.423  0.3829  1.3048  2.1205
  669TMC3    H1 9957   2.225   0.290  14.391  0.1022 -0.5173  1.7406
  669TMC3    H2 9958   1.884   0.422  14.158  1.2128 -0.1946  0.3121
  669TMC3    C7 9959   2.151   0.458  14.209  0.0480  0.5377 -0.5911
  669TMC3    C8 9960   1.722   0.239  14.246 -0.4292 -0.2915 -0.1632
  669TMC3    O1 9961   2.264   0.471  14.264 -0.1833  0.1596  0.0230
  669TMC3    O2 9962   1.681   0.125  14.266 -0.1232  0.5286  0.1383
  670MPD2     C 9963   0.154   2.741  13.242 -0.0199  0.3747 -0.1734
  670MPD2    C1 9964   0.251   2.663  13.297 -0.3814  0.5871 -0.0042
  670MPD2    C2 9965   0.249   2.646  13.434  0.5096 -0.5501  0.4525
  670MPD2    C3 9966   0.151   2.705  13.511 -0.3857 -0.8898  0.1151
  670MPD2    C4 9967   0.061   2.787  13.451  0.3837 -0.0059 -0.0254
  670MPD2    C5 9968   0.053   2.799  13.318 -0.3380 -0.0484  0.2200
  670MPD2     H 9969   0.332   2.590  13.474 -1.4149 -1.5003  3.0982
  670MPD2    H1 9970   4.712   2.828  13.503  0.7116 -0.7552  1.1045
  670MPD2    H2 9971   0.140   2.749  13.134 -0.2559  0.2959 -0.1490
  670MPD2    H3 9972   4.712   2.852  13.266 -0.3796  0.1054  0.4403
  670MPD2     N 9973   0.162   2.672  13.644  0.0604  0.2406  0.0541
  670MPD2    H5 9974   0.241   2.617  13.676 -1.0754 -0.4805  1.6485
  670MPD2    N1 9975   0.355   2.607  13.220 -0.0395  0.6160 -0.4212
  670MPD2    H7 9976   0.425   2.559  13.276 -0.0516 -1.0009 -1.7734
  671TMC3    C1 9977   0.125   2.680  13.873 -0.2657 -0.0744 -0.7842
  671TMC3    C2 9978   0.256   2.696  13.882  0.3089  0.3474  0.1909
  671TMC3    C3 9979   0.315   2.646  13.993  0.3928 -0.1243 -0.1820
  671TMC3    C4 9980   0.052   2.597  13.950  0.1422 -0.5397  0.9027
  671TMC3    C5 9981   0.118   2.536  14.057 -0.2586  0.2517 -0.5428
  671TMC3    C6 9982   0.254   2.564  14.083 -0.1444  0.2213 -0.1548
  671TMC3     C 9983   0.070   2.706  13.740 -0.3109 -0.2780 -0.2785
  671TMC3     O 9984   4.686   2.726  13.736 -0.4788 -0.9355 -0.8866
  671TMC3     H 9985   0.301   2.777  13.826 -0.9862  0.9842  0.0894
  671TMC3    H1 9986   4.682   2.606  13.944  0.4971  2.9857 -0.0583
  671TMC3    H2 9987   0.306   2.502  14.155  0.6724 -0.2886 -1.1731
  671TMC3    C7 9988   0.085   2.398  14.083  0.3830 -0.3512  0.5060
  671TMC3    C8 9989   0.453   2.676  14.020 -0.0120 -0.4650 -0.7110
  671TMC3    O1 9990   0.160   2.345  14.162 -0.3732  0.0038 -0.2507
  671TMC3    O2 9991   0.515   2.716  13.922  0.5010  0.1623  0.0296
  672MPD2     C 9992   1.690   3.514   0.079 -0.0182  0.3841  0.5316
  672MPD2    C1 9993   1.703   3.434   0.193 -0.1880 -0.6808  0.0728
  672MPD2    C2 9994   1.809   3.448   0.276  0.3027 -0.6125 -0.1517
  672MPD2    C3 9995   1.906   3.545   0.255 -0.7782  0.1570 -0.5561
  672MPD2    C4 9996   1.899   3.628   0.137  0.4123  0.3745 -0.1909
  672MPD2    C5 9997   1.797   3.603   0.052  0.4002  0.2350 -0.0665
  672MPD2     H 9998   1.811   3.389   0.367  2.4102 -4.0275 -2.3817
  672MPD2    H1 9999   1.974   3.705   0.128  1.3560 -0.8017 -2.2377
  672MPD2    H210000   1.614   3.502   0.002 -0.2761 -0.0753  0.8611
  672MPD2    H310001   1.787   3.660  17.707 -1.4814  2.8314  1.7459
  672MPD2     N10002   2.014   3.575   0.339 -0.9377  0.1974 -0.4277
  672MPD2    H510003   2.070   3.659   0.327  1.7591 -0.7963  4.7736
  672MPD2    N110004   1.606   3.344   0.238 -0.3163  0.6140 -0.5634
  672MPD2    H710005   1.636   3.258   0.283 -1.7433 -0.1198 -1.0184
  673TMC3    C110006   1.384   3.268   0.258 -0.0692  1.2447  0.0765
  673TMC3    C210007   1.433   3.143   0.286 -0.4107 -0.1192  0.4753
  673TMC3    C310008   1.336   3.049   0.311 -0.2343 -0.0505 -0.7776
  673TMC3    C410009   1.255   3.308   0.275 -0.7395 -0.7847  0.2953
  673TMC3    C510010   1.165   3.202   0.295 -0.0115  0.1670  0.4933
  673TMC3    C610011   1.200   3.073   0.318 -0.0539 -0.1092 -0.3099
  673TMC3     C10012   1.479   3.367   0.207 -0.2549  0.6513 -0.2753
  673TMC3     O10013   1.431   3.463   0.150  0.6000  0.1262 -0.1188
  673TMC3     H10014   1.537   3.112   0.282 -0.4209 -0.4489  2.7392
  673TMC3    H110015   1.211   3.407   0.264 -1.9132 -1.5795 -1.9509
  673TMC3    H210016   1.121   3.006   0.350  1.3471 -1.0560  1.1760
  673TMC3    C710017   1.022   3.214   0.264  0.6116  0.1133  0.1793
  673TMC3    C810018   1.363   2.911   0.315  0.2177  0.4774  0.4244
  673TMC3    O110019   0.951   3.119   0.241  0.2432  0.2037 -0.0543
  673TMC3    O210020   1.281   2.834   0.265  0.1770 -0.0089 -0.1619
  674MPD2     C10021   0.785   2.118  17.377  0.0379  0.5536 -1.1656
  674MPD2    C110022   0.739   2.155  17.499 -0.2501 -0.2839  0.4254
  674MPD2    C210023   0.715   2.287  17.530 -0.1314  0.3354 -0.3657
  674MPD2    C310024   0.743   2.387  17.440 -0.7387  0.1021 -0.2450
  674MPD2    C410025   0.772   2.350  17.310  1.1071  0.1036 -0.0573
  674MPD2    C510026   0.800   2.219  17.283 -0.1419  0.3638  0.3925
  674MPD2     H10027   0.672   2.324  17.622 -0.5448  1.1755 -0.8961
  674MPD2    H110028   0.803   2.428  17.241  0.3546 -0.4629 -1.0267
  674MPD2    H210029   0.814   2.017  17.352 -0.3411  0.2613 -0.4131
  674MPD2    H310030   0.839   2.182  17.189 -1.0098 -0.5354  0.3814
  674MPD2     N10031   0.731   2.520  17.481 -1.1665 -0.2436 -0.5812
  674MPD2    H510032   0.707   2.531  17.579  2.9595 -0.5998  0.4568
  674MPD2    N110033   0.714   2.059  17.599  0.3566  0.3272 -0.5044
  674MPD2    H710034   0.684   1.970  17.559 -1.2185  1.0710 -0.9671
  675TMC3    C110035   0.633   1.998   0.054  0.2966  0.8423 -0.8881
  675TMC3    C210036   0.566   2.068   0.156  0.9792 -0.4060  0.1770
  675TMC3    C310037   0.491   1.987   0.235 -0.3889 -0.2582  0.0508
  675TMC3    C410038   0.650   1.861   0.042 -0.7829  0.3714 -0.4232
  675TMC3    C510039   0.577   1.786   0.131 -0.8707 -0.5366  0.1196
  675TMC3    C610040   0.493   1.846   0.225  0.4492  0.0333  0.0351
  675TMC3     C10041   0.710   2.086  17.728  0.1451 -0.2869  0.8394
  675TMC3     O10042   0.748   2.182   0.052  0.4760  0.1236 -0.6040
  675TMC3     H10043   0.541   2.172   0.139  1.5471 -0.0808  1.3624
  675TMC3    H110044   0.730   1.817  17.731 -0.8214 -2.0597  1.4050
  675TMC3    H210045   0.427   1.786   0.285  2.4103 -2.3666 -0.2226
  675TMC3    C710046   0.600   1.637   0.131  0.2364  0.0078 -0.2614
  675TMC3    C810047   0.453   2.042   0.367 -0.3450 -0.0332  0.6488
  675TMC3    O110048   0.666   1.596   0.036 -0.2057  0.4129 -0.7786
  675TMC3    O210049   0.391   1.966   0.446 -0.1328 -0.1526  0.1343
  676MPD2     C10050   3.447   1.582  10.880  0.2635  0.0461  0.3254
  676MPD2    C110051   3.437   1.496  10.990 -0.4193  0.4191 -0.6100
  676MPD2    C210052   3.466   1.363  10.970  0.4382 -0.6119 -0.6085
  676MPD2    C310053   3.504   1.306  10.845  0.1284 -0.6045  0.4720
  676MPD2    C410054   3.522   1.398  10.746 -0.2394  0.7989 -0.5221
  676MPD2    C510055   3.484   1.534  10.761 -0.0759  0.1422  0.3958
  676MPD2     H10056   3.454   1.302  11.059  1.0719 -0.8712 -0.7048
  676MPD2    H110057   3.570   1.378  10.651  0.7573 -3.4475  0.8728
  676MPD2    H210058   3.443   1.691  10.882 -1.2219  0.0081 -0.7634
  676MPD2    H310059   3.495   1.604  10.679 -0.6471 -0.5647 -0.2805
  676MPD2     N10060   3.515   1.167  10.809  0.2424  0.2944  0.5349
  676MPD2    H510061   3.544   1.158  10.713  0.6582 -0.3287  0.7190
  676MPD2    N110062   3.400   1.538  11.119 -0.7198 -0.1177  0.0271
  676MPD2    H710063   3.393   1.462  11.187  2.9397  1.0176  1.6651
  677TMC3    C110064   3.288   1.666  11.289 -0.5896 -0.4912  0.0634
  677TMC3    C210065   3.211   1.561  11.314 -0.2032  0.3950  0.0829
  677TMC3    C310066   3.128   1.557  11.424 -0.2948  0.2799  0.2390
  677TMC3    C410067   3.300   1.766  11.377 -0.2200  0.2708  0.2748
  677TMC3    C510068   3.226   1.761  11.488 -0.1525 -0.0365  0.0210
  677TMC3    C610069   3.134   1.665  11.517  0.0803 -0.3351 -0.5887
  677TMC3     C10070   3.371   1.665  11.168  0.3577 -0.0938  0.3029
  677TMC3     O10071   3.398   1.776  11.120 -0.0098  0.0924 -0.9019
  677TMC3     H10072   3.214   1.475  11.248 -0.2895  0.2000  0.3303
  677TMC3    H110073   3.370   1.846  11.358 -1.2051  0.5752 -2.1912
  677TMC3    H210074   3.086   1.660  11.614 -1.2943 -2.4307 -1.3839
  677TMC3    C710075   3.264   1.859  11.590  0.4151  0.6632  1.0882
  677TMC3    C810076   3.069   1.431  11.466 -0.3632 -0.0189 -0.1020
  677TMC3    O110077   3.228   1.826  11.701 -0.1574  0.3034 -0.0078
  677TMC3    O210078   3.116   1.320  11.425  0.4910  0.1091 -0.4218
  678MPD2     C10079   0.589   1.073   1.347  0.2770 -0.5138  1.0605
  678MPD2    C110080   0.520   1.001   1.249  0.2122  0.9314 -0.2166
  678MPD2    C210081   0.379   1.016   1.243 -0.2622  0.1538 -0.0059
  678MPD2    C310082   0.312   1.096   1.333 -0.1118 -1.1826 -0.0977
  678MPD2    C410083   0.383   1.165   1.428  0.1585 -0.3147 -0.4843
  678MPD2    C510084   0.523   1.156   1.432 -0.3324 -0.0395 -0.3342
  678MPD2     H10085   0.332   0.956   1.165  1.0842  1.2472 -1.6798
  678MPD2    H110086   0.336   1.215   1.512 -0.5809 -0.8294 -0.5992
  678MPD2    H210087   0.697   1.076   1.354  0.2055  1.1623  1.5530
  678MPD2    H310088   0.564   1.207   1.519  0.4486  1.5787 -1.6530
  678MPD2     N10089   0.171   1.091   1.320 -0.5483 -0.8018 -0.0166
  678MPD2    H510090   0.128   1.028   1.253  0.4829 -1.6508  0.1063
  678MPD2    N110091   0.574   0.926   1.144  0.0377 -0.0846 -0.3064
  678MPD2    H710092   0.506   0.893   1.077  0.7976  0.5331 -1.3790
  679TMC3    C110093   0.830   0.658   0.887  0.3465 -0.3229 -0.6565
  679TMC3    C210094   0.821   0.723   1.006 -0.0497  0.2869 -0.2234
  679TMC3    C310095   0.728   0.828   1.011  0.4268  0.8507 -0.2301
  679TMC3    C410096   0.765   0.706   0.772  0.3342  0.1494  0.2524
  679TMC3    C510097   0.687   0.818   0.782  0.1532 -0.2365  0.4502
  679TMC3    C610098   0.665   0.882   0.903  0.4863  0.3969  0.1790
  679TMC3     C10099   0.942   0.570   0.860  0.6357  0.2012  0.3904
  679TMC3     O10100   0.962   0.547   0.739  0.0816 -0.3775 -0.1880
  679TMC3     H10101   0.870   0.685   1.095 -1.7156  2.3410  1.5882
  679TMC3    H110102   0.772   0.646   0.682  0.4887  0.4980  0.0325
  679TMC3    H210103   0.610   0.975   0.903  0.7434  0.5427 -1.9986
  679TMC3    C710104   0.584   0.854   0.676 -0.2502  0.0354  0.3972
  679TMC3    C810105   0.699   0.886   1.136  0.3229 -0.1255  0.3036
  679TMC3    O110106   0.505   0.947   0.709 -0.1905  0.2691  0.3731
  679TMC3    O210107   0.783   0.883   1.226 -0.6557 -0.0700  0.6319
  680MPD2     C10108   4.731   4.606  13.785  0.1041 -0.1841 -0.4847
  680MPD2    C110109   0.112   4.536  13.764  0.2314  0.2214  1.1306
  680MPD2    C210110   0.225   4.609  13.732 -0.7511 -0.7286  0.0156
  680MPD2    C310111   0.229   0.010  13.725  0.1670 -0.5412  0.1122
  680MPD2    C410112   0.108   0.083  13.743  0.3559  0.3467  0.2032
  680MPD2    C510113   4.737   0.009  13.783 -0.1348  0.2109 -0.5407
  680MPD2     H10114   0.316   4.556  13.710 -1.0165 -1.3105  0.3320
  680MPD2    H110115   0.094   0.190  13.751  0.3632  0.2863  1.0193
  680MPD2    H210116   4.638   4.568  13.826  0.4400  0.8109  1.1873
  680MPD2    H310117   4.646   0.064  13.803 -0.3336 -0.5419  0.6010
  680MPD2     N10118   0.349   0.089  13.709  0.1869  0.3718  0.3718
  680MPD2    H510119   0.337   0.189  13.717  0.1809  0.2650  1.7760
  680MPD2    N110120   0.122   4.395  13.795  0.3489  0.2864  0.5684
  680MPD2    H710121   0.217   4.361  13.796  0.1400 -0.3220 -0.7319
  681TMC3    C110122   0.069   4.164  13.794 -0.8327 -0.2003 -0.1315
  681TMC3    C210123   0.004   4.071  13.876 -0.5518 -0.5064 -0.0901
  681TMC3    C310124   0.043   3.939  13.879  0.4930  0.8120  0.1545
  681TMC3    C410125   0.180   4.128  13.707 -0.7411  0.0032  1.0170
  681TMC3    C510126   0.216   3.989  13.712  0.1038  0.3444 -0.2918
  681TMC3    C610127   0.156   3.900  13.800 -0.2563 -0.7605  0.6686
  681TMC3     C10128   0.021   4.305  13.808  0.4994  0.5656  0.3053
  681TMC3     O10129   4.640   4.326  13.831  0.0382 -0.1600 -0.1467
  681TMC3     H10130   4.678   4.112  13.953 -1.4391 -1.5179 -0.2820
  681TMC3    H110131   0.238   4.207  13.660 -0.4835 -1.3125 -0.8760
  681TMC3    H210132   0.178   3.794  13.804 -1.3423 -1.0315 -0.5912
  681TMC3    C710133   0.315   3.934  13.612  0.6188  0.9900 -0.6392
  681TMC3    C810134   0.051   3.899  14.017  0.7394  0.1098  0.5648
  681TMC3    O110135   0.357   3.826  13.648  0.1113  0.2883 -0.3221
  681TMC3    O210136   4.679   3.874  14.067  0.3732 -0.1574 -0.1753
  682MPD2     C10137   2.361   2.130  10.557  0.5934 -0.4820 -0.5381
  682MPD2    C110138   2.392   2.067  10.676 -0.3902  0.1312 -0.2514
  682MPD2    C210139   2.303   2.076  10.780  0.1906  0.4328 -1.1236
  682MPD2    C310140   2.184   2.139  10.763  0.0387  0.1437  0.0867
  682MPD2    C410141   2.154   2.206  10.649  0.6774  0.0688 -0.6979
  682MPD2    C510142   2.242   2.197  10.548  0.0006 -0.1501  0.3736
  682MPD2     H10143   2.317   2.031  10.878 -1.3431  1.2156 -0.5525
  682MPD2    H110144   2.061   2.259  10.635  1.5244  1.6517 -0.3109
  682MPD2    H210145   2.417   2.133  10.465 -1.3506  0.3899 -1.7023
  682MPD2    H310146   2.219   2.246  10.454  1.8212  0.5555  0.3021
  682MPD2     N10147   2.098   2.152  10.880 -0.2833  0.0394  0.2061
  682MPD2    H510148   2.028   2.222  10.854  2.2352  2.2859 -0.5061
  682MPD2    N110149   2.503   1.979  10.693  0.0132 -0.5702  0.1162
  682MPD2    H710150   2.513   1.945  10.788 -1.1125 -0.4095  0.2899
  683TMC3    C110151   1.970   2.323  11.220  0.6328  0.0926 -0.8002
  683TMC3    C210152   1.889   2.254  11.302 -0.1014  0.5156 -0.7427
  683TMC3    C310153   1.871   2.126  11.281  0.6434 -0.2043  0.4830
  683TMC3    C410154   2.034   2.273  11.112  0.2938 -0.0551 -0.5435
  683TMC3    C510155   2.005   2.138  11.087 -0.3674 -0.6090 -0.0226
  683TMC3    C610156   1.935   2.066  11.177  0.0791 -0.1504 -1.2553
  683TMC3     C10157   2.000   2.457  11.261 -0.1369 -0.4394 -0.1465
  683TMC3     O10158   1.899   2.520  11.294 -0.1858  0.0426  0.3269
  683TMC3     H10159   1.822   2.306  11.370  1.1608 -1.2853  1.8787
  683TMC3    H110160   2.107   2.326  11.053 -0.3676  2.2340  0.7134
  683TMC3    H210161   1.899   1.968  11.148 -2.3722  0.3608  0.0220
  683TMC3    C710162   2.093   2.074  10.997 -0.0161 -0.2174 -0.9900
  683TMC3    C810163   1.828   2.055  11.399 -0.0303 -0.6086 -0.2831
  683TMC3    O110164   2.141   1.971  11.027 -0.2918 -0.5453 -0.5700
  683TMC3    O210165   1.772   2.124  11.482 -0.1973 -0.2965  0.0136
  684MPD2     C10166   0.734   1.007  16.444  0.4454  0.9257 -0.0242
  684MPD2    C110167   0.718   0.994  16.310 -0.2886 -0.2920  0.8108
  684MPD2    C210168   0.707   1.105  16.228 -0.1165  1.3108  0.6636
  684MPD2    C310169   0.703   1.230  16.283 -0.9246 -0.1657  0.2765
  684MPD2    C410170   0.696   1.242  16.423  0.0236 -0.7972  0.2190
  684MPD2    C510171   0.725   1.129  16.504 -0.0013 -0.1019 -0.2471
  684MPD2     H10172   0.705   1.085  16.121 -1.2330  1.1066  0.7300
  684MPD2    H110173   0.682   1.340  16.466 -0.0603 -0.3101 -0.9401
  684MPD2    H210174   0.732   0.928  16.518  0.3721  2.2369  1.3933
  684MPD2    H310175   0.717   1.132  16.612  0.5747 -0.4694 -0.1975
  684MPD2     N10176   0.712   1.352  16.215  0.0593 -0.4737 -0.1359
  684MPD2    H510177   0.713   1.431  16.279 -4.5899  0.5713 -1.3554
  684MPD2    N110178   0.724   0.871  16.239 -0.2563 -0.4906 -0.5817
  684MPD2    H710179   0.693   0.874  16.142 -2.7648 -0.9842  0.2029
  685TMC3    C110180   0.803   0.654  16.205  0.1948  0.4094  0.8607
  685TMC3    C210181   0.754   0.667  16.077  0.5601 -0.7593 -0.0384
  685TMC3    C310182   0.836   0.617  15.975  0.2856 -0.1589  0.2550
  685TMC3    C410183   0.920   0.590  16.217  0.9494  0.3194  0.5211
  685TMC3    C510184   1.011   0.574  16.113  0.7986  0.0040  0.0299
  685TMC3    C610185   0.965   0.574  15.987  0.3380  0.1733 -0.1384
  685TMC3     C10186   0.765   0.759  16.301  0.3501  0.1038  0.4558
  685TMC3     O10187   0.820   0.740  16.407 -0.1571  0.3352 -0.3550
  685TMC3     H10188   0.653   0.706  16.065  0.3564 -1.5249 -0.8078
  685TMC3    H110189   0.942   0.571  16.321 -0.9062  1.5472  1.1315
  685TMC3    H210190   1.019   0.536  15.902  1.1780  1.6954 -0.2895
  685TMC3    C710191   1.143   0.551  16.144 -0.3061 -0.5898  0.6180
  685TMC3    C810192   0.776   0.610  15.841 -0.0781  0.3872 -0.0933
  685TMC3    O110193   1.163   0.519  16.259  0.7105  0.1955 -0.7855
  685TMC3    O210194   0.852   0.601  15.747  0.0984 -0.3941  0.0410
  686MPD2     C10195   1.805   1.080  15.465  0.2730 -0.1094  0.1476
  686MPD2    C110196   1.864   1.004  15.565 -1.0541  0.3408 -0.4725
  686MPD2    C210197   1.984   1.050  15.621  0.1295 -0.0117 -1.1513
  686MPD2    C310198   2.052   1.160  15.577 -0.2486  0.1120 -0.0152
  686MPD2    C410199   2.001   1.226  15.469  0.5198  0.2695  0.6786
  686MPD2    C510200   1.878   1.185  15.413 -0.3594  0.2609 -0.2539
  686MPD2     H10201   2.039   0.978  15.681  0.9248  0.7748 -0.9371
  686MPD2    H110202   2.048   1.318  15.436 -0.1212 -0.1066 -1.2651
  686MPD2    H210203   1.705   1.064  15.425 -0.1940  0.4512  1.0968
  686MPD2    H310204   1.842   1.234  15.323  0.2109 -1.3168 -1.3350
  686MPD2     N10205   2.178   1.199  15.618 -0.0607  0.5200  0.0970
  686MPD2    H510206   2.231   1.253  15.551 -0.2041 -2.3195 -2.2989
  686MPD2    N110207   1.813   0.876  15.589  0.2389 -0.7485  0.1343
  686MPD2    H710208   1.762   0.831  15.514 -1.5021  2.5177 -0.6268
  687TMC3    C110209   2.377   1.125  15.714 -0.0127  0.1391  0.0201
  687TMC3    C210210   2.402   1.058  15.597 -0.0139  0.4726 -0.1238
  687TMC3    C310211   2.485   0.948  15.593 -0.4807  0.7600  0.0875
  687TMC3    C410212   2.459   1.100  15.819 -0.6474 -0.2675  0.1005
  687TMC3    C510213   2.556   1.006  15.803  0.5655 -0.3283 -0.2318
  687TMC3    C610214   2.569   0.927  15.696  0.5288 -0.1758  0.0965
  687TMC3     C10215   2.239   1.157  15.739 -0.3882  0.1674 -0.6023
  687TMC3     O10216   2.182   1.124  15.845 -0.1172 -0.1203  0.3192
  687TMC3     H10217   2.356   1.074  15.500  1.1534 -0.2021 -0.7864
  687TMC3    H110218   2.449   1.152  15.914 -2.5983  2.2057 -1.4392
  687TMC3    H210219   2.644   0.849  15.693 -0.9773 -1.5896 -1.0528
  687TMC3    C710220   2.677   1.049  15.855  0.0187  0.4415  0.1553
  687TMC3    C810221   2.426   0.824  15.548  0.2567 -0.2664 -1.1834
  687TMC3    O110222   2.773   1.045  15.783  0.5375  0.2887  0.1589
  687TMC3    O210223   2.459   0.729  15.618  0.5434 -0.2059  0.2257
  688MPD2     C10224   1.253   4.155  17.048  0.3258  0.2488 -0.2887
  688MPD2    C110225   1.345   4.080  17.121 -0.7006  0.7097  0.4129
  688MPD2    C210226   1.471   4.063  17.074  0.5303  0.1595  0.5216
  688MPD2    C310227   1.509   4.132  16.958  0.8035 -0.9387  0.0255
  688MPD2    C410228   1.419   4.219  16.898 -0.3799 -0.3672 -0.0587
  688MPD2    C510229   1.288   4.223  16.939  0.0231 -0.4961 -0.2040
  688MPD2     H10230   1.539   4.005  17.134 -0.3578 -1.1703  0.2528
  688MPD2    H110231   1.449   4.268  16.806 -0.8880 -1.5027 -0.8339
  688MPD2    H210232   1.147   4.162  17.073  0.3893 -0.2141  0.0973
  688MPD2    H310233   1.213   4.283  16.888  0.9061 -2.3603 -3.6921
  688MPD2     N10234   1.629   4.109  16.890  0.6148  0.0262 -0.5311
  688MPD2    H510235   1.645   4.150  16.799  2.1380  1.6135  0.4347
  688MPD2    N110236   1.299   3.993  17.226 -0.0305  0.3979 -0.1243
  688MPD2    H710237   1.370   3.945  17.280 -1.2359  0.5843  1.6641
  689TMC3    C110238   1.197   3.949  17.428 -0.3702  0.4790 -0.8717
  689TMC3    C210239   1.216   4.050  17.521  0.0539 -0.2118  0.5564
  689TMC3    C310240   1.169   4.021  17.650 -0.1269 -0.4083  0.2261
  689TMC3    C410241   1.130   3.832  17.449 -0.2417  0.2196  0.9422
  689TMC3    C510242   1.094   3.819  17.581 -0.3573 -0.4730  0.2118
  689TMC3    C610243   1.111   3.906  17.683 -0.1083 -0.0368 -0.0878
  689TMC3     C10244   1.178   4.001  17.293 -0.6473 -1.0097  0.4378
  689TMC3     O10245   1.087   4.085  17.273 -0.1412  0.3122 -0.0864
  689TMC3     H10246   1.263   4.143  17.489 -0.5252 -0.7012 -1.7004
  689TMC3    H110247   1.146   3.749  17.382  0.3173  2.0598 -1.2060
  689TMC3    H210248   1.088   3.882   0.038 -0.9462  2.9355  0.4224
  689TMC3    C710249   1.081   3.683  17.632  0.8414  0.0954 -0.4759
  689TMC3    C810250   1.197   4.106   0.021  0.4931  0.3449 -0.6130
  689TMC3    O110251   1.139   3.670  17.741 -0.0991 -0.2168  0.3534
  689TMC3    O210252   1.163   4.077   0.137  0.4121 -0.2972 -0.2033
  690MPD2     C10253   3.845   1.492  15.714  0.0285 -0.1075 -0.0666
  690MPD2    C110254   3.806   1.469  15.582  0.0198  0.5012  0.4760
  690MPD2    C210255   3.861   1.555  15.484 -0.5775 -0.6669 -0.1857
  690MPD2    C310256   3.933   1.671  15.515  0.1562  0.4886  0.2254
  690MPD2    C410257   3.967   1.701  15.646 -0.5129 -0.5495  0.0640
  690MPD2    C510258   3.929   1.604  15.743  0.1685  0.6449 -0.2271
  690MPD2     H10259   3.849   1.530  15.379  0.4956 -0.6244 -0.3177
  690MPD2    H110260   4.036   1.777  15.680 -1.2140  0.0969  0.0394
  690MPD2    H210261   3.820   1.430  15.799 -1.8712  1.1271  0.2762
  690MPD2    H310262   3.964   1.637  15.839  1.8015 -2.1923  0.1642
  690MPD2     N10263   3.985   1.746  15.404  0.3171 -0.1543  0.5919
  690MPD2    H510264   3.957   1.714  15.312  0.3293  1.0829  0.1590
  690MPD2    N110265   3.727   1.358  15.537  0.2444  0.4021 -0.2607
  690MPD2    H710266   3.725   1.350  15.436 -0.5761 -1.0809 -0.1337
  691TMC3    C110267   3.629   1.144  15.558  0.3679 -0.4184  0.3603
  691TMC3    C210268   3.616   1.137  15.422 -0.7794  0.4094  0.6233
  691TMC3    C310269   3.546   1.030  15.371  0.0769  0.1088  0.0133
  691TMC3    C410270   3.561   1.059  15.645 -0.3440 -0.7965 -0.6019
  691TMC3    C510271   3.489   0.951  15.596  0.4528  0.0427  0.1588
  691TMC3    C610272   3.472   0.947  15.457 -0.7222 -0.3994  0.2565
  691TMC3     C10273   3.664   1.271  15.620 -1.1732 -0.1005 -0.7836
  691TMC3     O10274   3.625   1.291  15.736  0.0710  0.0624  0.1171
  691TMC3     H10275   3.660   1.211  15.356 -3.5712 -0.1001 -1.7686
  691TMC3    H110276   3.586   1.069  15.750 -0.0448 -1.8332 -0.5746
  691TMC3    H210277   3.397   0.886  15.409 -1.5268  0.8457 -0.0502
  691TMC3    C710278   3.388   0.905  15.700  0.1781 -0.5229 -0.5788
  691TMC3    C810279   3.479   1.064  15.245  0.8382  0.4825 -0.1366
  691TMC3    O110280   3.387   0.967  15.806  0.4993  0.0731  0.4458
  691TMC3    O210281   3.519   1.011  15.143 -0.3782 -0.1266 -0.0977
  692TMC3    C110282   0.009   2.479  15.687  0.2266 -0.4896 -0.1708
  692TMC3    C210283   0.118   2.526  15.620  0.5869  0.3424 -0.0299
  692TMC3    C310284   0.223   2.448  15.586 -0.5777 -0.0313 -0.3884
  692TMC3    C410285   4.725   2.345  15.702  0.0666 -0.2048 -0.5281
  692TMC3    C510286   0.091   2.266  15.660 -0.1885 -0.2036  0.3899
  692TMC3    C610287   0.214   2.314  15.606  0.2894 -0.4845 -0.0254
  692TMC3     C10288   4.678   2.552  15.788 -0.4281 -0.3921  0.0433
  692TMC3     O10289   4.621   2.494  15.879  0.3118  0.1601 -0.5697
  692TMC3     H10290   0.143   2.631  15.626 -2.3001  0.8677  2.7643
  692TMC3    H110291   4.634   2.309  15.748  1.0781 -2.5157 -0.3256
  692TMC3    H210292   0.295   2.247  15.577  0.9942  0.7109 -0.8381
  692TMC3    C710293   0.078   2.119  15.684 -0.1883 -0.1615 -0.3927
  692TMC3    C810294   0.331   2.504  15.662 -0.9307  0.0047  0.1802
  692TMC3    O110295   4.700   2.074  15.700  0.3366  0.3563 -0.2497
  692TMC3    O210296   0.437   2.539  15.609  0.6416 -0.3266 -0.0828
  693MPD2     C10297   4.595   0.652  10.186 -0.6053  0.0950 -0.3224
  693MPD2    C110298   4.556   0.651  10.318  0.1711  0.9502  0.2559
  693MPD2    C210299   4.656   0.631  10.408 -0.3390 -0.8494  0.2048
  693MPD2    C310300   0.049   0.617  10.366 -0.6412 -0.5020 -0.9733
  693MPD2    C410301   0.088   0.612  10.237 -0.2867  0.0068  0.4247
  693MPD2    C510302   4.727   0.645  10.151  0.2865 -0.2103 -0.5059
  693MPD2     H10303   4.642   0.609  10.514  0.7619 -1.1335  0.2975
  693MPD2    H110304   0.194   0.617  10.217 -0.5015 -1.2052 -0.9919
  693MPD2    H210305   4.525   0.680  10.108  0.5614 -0.7903 -1.6794
  693MPD2    H310306   4.736   0.664  10.045 -2.6074 -1.1128 -0.9131
  693MPD2     N10307   0.151   0.610  10.459  1.0158 -0.2144  0.4175
  693MPD2    H510308   0.240   0.583  10.420  0.9065  0.0253  0.0063
  693MPD2    N110309   4.417   0.657  10.341  0.6159 -0.5551  0.6040
  693MPD2    H710310   4.359   0.645  10.259  1.8889 -0.6045 -0.2936
  694TMC3    C110311   4.226   0.646  10.476  0.3333 -0.4361 -0.8320
  694TMC3    C210312   4.168   0.559  10.388 -0.4678 -0.0085  0.1972
  694TMC3    C310313   4.038   0.516  10.418  0.6774 -0.4569  0.6597
  694TMC3    C410314   4.160   0.696  10.592 -0.0649  0.7519 -0.5786
  694TMC3    C510315   4.034   0.649  10.616 -0.2260  0.1454 -0.2933
  694TMC3    C610316   3.971   0.559  10.530  0.2148 -0.0996  0.3087
  694TMC3     C10317   4.363   0.689  10.463 -0.4869  0.2037 -0.1651
  694TMC3     O10318   4.417   0.737  10.561  0.0424 -0.1008 -0.4837
  694TMC3     H10319   4.226   0.531  10.300  1.0271  0.9028  0.8872
  694TMC3    H110320   4.210   0.758  10.666  1.6967 -2.7906  1.1724
  694TMC3    H210321   3.869   0.533  10.553  0.0054  1.2686  0.9273
  694TMC3    C710322   3.964   0.691  10.738  0.4488  0.0136 -0.0513
  694TMC3    C810323   3.962   0.434  10.333 -0.3532  0.3022  0.9830
  694TMC3    O110324   4.003   0.798  10.788  0.7900  0.0077 -0.0967
  694TMC3    O210325   3.848   0.406  10.373  0.3941  0.2291  0.1373
  695MPD2     C10326   0.774   2.204  13.253 -0.1263  0.4172 -0.4135
  695MPD2    C110327   0.713   2.223  13.375  0.1734 -0.0214 -0.8139
  695MPD2    C210328   0.574   2.215  13.394  0.5480 -0.5473 -0.1092
  695MPD2    C310329   0.496   2.184  13.285  0.0480 -0.4186 -0.5560
  695MPD2    C410330   0.562   2.176  13.158 -0.0456  0.0955  0.3131
  695MPD2    C510331   0.700   2.193  13.140 -0.1477 -0.0261  0.5788
  695MPD2     H10332   0.528   2.219  13.492 -2.2132 -0.9444 -1.3802
  695MPD2    H110333   0.511   2.165  13.063 -0.1134  1.1451  0.2225
  695MPD2    H210334   0.880   2.217  13.236 -0.5822  1.5714 -2.3674
  695MPD2    H310335   0.750   2.188  13.043  0.6610 -1.2558  1.0528
  695MPD2     N10336   0.357   2.180  13.290  0.0716 -0.0928 -0.0403
  695MPD2    H510337   0.314   2.173  13.382 -0.4085 -0.4199 -0.2872
  695MPD2    N110338   0.789   2.263  13.489 -0.4315 -0.3977 -0.3121
  695MPD2    H710339   0.737   2.294  13.571  1.9853 -0.9957  1.4724
  696TMC3    C110340   0.133   2.193  13.216 -0.4710 -0.1781 -0.7110
  696TMC3    C210341   0.080   2.133  13.330 -0.5612  0.2310  0.1877
  696TMC3    C310342   4.687   2.151  13.370  0.6022  0.0647 -0.3568
  696TMC3    C410343   0.054   2.258  13.127 -0.0655  0.0182 -0.2946
  696TMC3    C510344   4.673   2.291  13.178 -0.1151  0.4431 -0.5107
  696TMC3    C610345   4.615   2.236  13.292 -0.4386 -0.0986 -0.4158
  696TMC3     C10346   0.273   2.196  13.183 -0.1538  0.6115 -0.1095
  696TMC3     O10347   0.301   2.242  13.074 -0.4750  0.1489  0.1316
  696TMC3     H10348   0.151   2.073  13.386  0.3370  1.4983  0.4014
  696TMC3    H110349   0.093   2.306  13.038 -3.7103 -0.9961 -2.4199
  696TMC3    H210350   4.515   2.264  13.321  0.5293  2.3081  0.6690
  696TMC3    C710351   4.616   2.419  13.133 -0.2395 -0.4789  0.4927
  696TMC3    C810352   4.679   2.177  13.512  0.2400 -1.0425 -0.0281
  696TMC3    O110353   4.637   2.457  13.019  0.4187  0.4419 -0.2392
  696TMC3    O210354   4.606   2.272  13.548  0.2801  0.7280 -0.3474
  697MPD2     C10355   4.681   4.152  15.772 -0.0344 -0.6672  0.8302
  697MPD2    C110356   4.709   4.099  15.645 -0.4010  0.2650 -0.0309
  697MPD2    C210357   0.032   4.178  15.548  0.5548  0.4609  0.4322
  697MPD2    C310358   0.060   4.311  15.567 -0.2072 -0.5846  0.0577
  697MPD2    C410359   0.022   4.368  15.689 -0.4333  0.0982 -0.5691
  697MPD2    C510360   4.695   4.287  15.785 -0.2855 -0.3398 -0.3137
  697MPD2     H10361   0.059   4.137  15.452  2.7129  1.0018  0.8164
  697MPD2    H110362   0.038   4.472  15.714 -1.9658  0.0035  0.7897
  697MPD2    H210363   4.644   4.093  15.856  0.2834 -0.4788  1.1038
  697MPD2    H310364   4.671   4.327  15.882 -0.5082  0.1464 -0.5719
  697MPD2     N10365   0.123   4.381  15.460 -0.1662 -0.5564  0.1695
  697MPD2    H510366   0.156   4.328  15.381  0.0323 -0.0751 -0.0697
  697MPD2    N110367   4.699   3.962  15.616  0.0943  0.0252  0.4317
  697MPD2    H710368   0.003   3.929  15.530 -1.4488 -0.5562 -0.0923
  698TMC3    C110369   0.199   4.574  15.336  0.2006 -0.0016  0.2031
  698TMC3    C210370   0.264   4.692  15.349 -0.2168  0.4476  0.5051
  698TMC3    C310371   0.274   0.033  15.235  0.3800  0.2514 -0.3627
  698TMC3    C410372   0.137   4.539  15.223 -0.6036  0.4294 -0.0906
  698TMC3    C510373   0.152   4.621  15.106 -0.1308 -0.3492 -0.1806
  698TMC3    C610374   0.220   0.007  15.115 -0.3401 -0.3243  0.2089
  698TMC3     C10375   0.156   4.518  15.463  0.3138  0.1239  0.2408
  698TMC3     O10376   0.183   4.594  15.551 -0.2465  0.3235 -0.0484
  698TMC3     H10377   0.322   4.725  15.434  1.0455 -0.1070 -0.1377
  698TMC3    H110378   0.081   4.446  15.213 -0.4017  0.1275  1.7014
  698TMC3    H210379   0.213   0.074  15.030 -0.8431 -0.0932  0.4280
  698TMC3    C710380   0.063   4.602  14.991 -0.5670 -0.2397  0.0598
  698TMC3    C810381   0.341   0.159  15.256 -1.6003  0.5004 -0.3209
  698TMC3    O110382   0.097   4.643  14.882  0.3040  0.2006 -0.1491
  698TMC3    O210383   0.361   0.198  15.371 -0.2259 -0.0207 -0.5922
  699TMC3    C110384   4.162   2.358  12.844  0.4094 -0.1798  0.2476
  699TMC3    C210385   4.240   2.264  12.902  0.1017 -0.5658 -0.0291
  699TMC3    C310386   4.185   2.144  12.905  0.1393  0.6679 -0.1034
  699TMC3    C410387   4.026   2.340  12.798 -1.0468  0.0169 -0.3008
  699TMC3    C510388   3.982   2.212  12.804 -0.7525 -0.3093 -0.1726
  699TMC3    C610389   4.063   2.112  12.849 -0.0638 -0.9541 -0.4628
  699TMC3     C10390   4.212   2.493  12.817  0.0056 -0.0586  0.1075
  699TMC3     O10391   4.131   2.582  12.816 -0.8538  0.4779 -0.1273
  699TMC3     H10392   4.332   2.291  12.952 -1.2466 -0.3088  2.2808
  699TMC3    H110393   3.977   2.425  12.753  0.5992  0.3736 -1.4436
  699TMC3    H210394   4.036   2.007  12.844 -2.9466 -0.2863  1.6266
  699TMC3    C710395   3.839   2.199  12.795 -0.1717 -0.1965 -0.1937
  699TMC3    C810396   4.233   2.043  12.997  0.5159  0.3343 -0.3264
  699TMC3    O110397   3.776   2.303  12.810 -0.4475 -0.1080  0.9215
  699TMC3    O210398   4.151   1.965  13.044 -0.6926  0.1089  0.1107
  700TMC3    C110399   4.300   4.171  16.830 -0.1374 -0.4464  0.1293
  700TMC3    C210400   4.413   4.103  16.807 -0.2084 -0.5769  0.4816
  700TMC3    C310401   4.498   4.098  16.913  0.4184  0.2609 -1.0835
  700TMC3    C410402   4.272   4.251  16.939 -0.0580 -0.1856  0.3210
  700TMC3    C510403   4.372   4.252  17.035 -0.4660 -0.1979 -0.0882
  700TMC3    C610404   4.484   4.176  17.025 -0.2726 -0.6352  0.4544
  700TMC3     C10405   4.237   4.211  16.708 -0.1317  0.5336 -0.0645
  700TMC3     O10406   4.208   4.121  16.632 -0.0319 -0.0173  0.3537
  700TMC3     H10407   4.447   4.073  16.708  0.0889 -1.4266  0.8457
  700TMC3    H110408   4.183   4.312  16.944  0.0408 -0.0040 -0.0930
  700TMC3    H210409   4.553   4.185  17.108 -0.2803  1.0284  0.2813
  700TMC3    C710410   4.369   4.357  17.135 -0.2791  0.1125  1.0524
  700TMC3    C810411   4.627   4.036  16.887 -0.1419  0.3939  0.4390
  700TMC3    O110412   4.474   4.415  17.165 -0.1833 -0.2158  0.7086
  700TMC3    O210413   4.670   4.037  16.772  0.5736  0.0447 -0.0659
  701TMC3    C110414   3.765   3.628  15.753 -0.1356 -0.5498  0.0552
  701TMC3    C210415   3.789   3.546  15.644  0.7650 -0.6202 -0.4249
  701TMC3    C310416   3.808   3.598  15.516 -0.7325  0.3911  0.1609
  701TMC3    C410417   3.756   3.759  15.736  0.4125 -0.6680  0.1082
  701TMC3    C510418   3.765   3.811  15.605 -0.0690 -0.7175  0.0837
  701TMC3    C610419   3.776   3.727  15.494  0.4340  0.2264 -0.1501
  701TMC3     C10420   3.680   3.588  15.871  0.0024 -0.5727  1.3954
  701TMC3     O10421   3.668   3.667  15.968  0.2784  0.1792 -0.0924
  701TMC3     H10422   3.806   3.439  15.652  1.5025 -0.3763  1.0547
  701TMC3    H110423   3.713   3.822  15.812 -0.3712 -0.0034 -0.8897
  701TMC3    H210424   3.774   3.782  15.400  0.8948  1.4635  0.5578
  701TMC3    C710425   3.754   3.954  15.582 -0.0347 -0.9743  0.3336
  701TMC3    C810426   3.865   3.517  15.414 -0.3416  0.0042 -0.0096
  701TMC3    O110427   3.710   3.978  15.471  0.3288 -0.5036 -0.3718
  701TMC3    O210428   3.933   3.420  15.440  0.5024 -0.2825 -0.1239
  702MPD2     C10429   3.407   0.779  10.215  0.1048  0.0313  0.0087
  702MPD2    C110430   3.466   0.883  10.282 -0.2939  0.0323  0.3467
  702MPD2    C210431   3.532   0.988  10.213 -0.4851 -0.0644 -0.0542
  702MPD2    C310432   3.544   0.983  10.079  0.1857  0.3253 -0.0485
  702MPD2    C410433   3.494   0.875  10.013  0.4857 -0.0030  0.3004
  702MPD2    C510434   3.418   0.781  10.076 -0.4673  0.7502  0.4727
  702MPD2     H10435   3.574   1.063  10.279  0.9888 -2.4389  1.6869
  702MPD2    H110436   3.501   0.871   9.905 -1.0948 -2.2304  0.2820
  702MPD2    H210437   3.366   0.688  10.255  0.3925  0.1201  0.5054
  702MPD2    H310438   3.361   0.705  10.023 -1.8202  0.8326  1.8149
  702MPD2     N10439   3.599   1.079   9.994 -0.2103  0.0265  0.0741
  702MPD2    H510440   3.624   1.040   9.904 -1.5377 -1.6421  0.4289
  702MPD2    N110441   3.469   0.884  10.425  0.0520  0.6642  0.1419
  702MPD2    H710442   3.525   0.956  10.469  1.2784 -0.5501  0.5524
  703TMC3    C110443   3.582   1.280  10.140 -1.0227 -1.0257  0.8375
  703TMC3    C210444   3.442   1.287  10.157 -0.2721  0.6618  0.0376
  703TMC3    C310445   3.401   1.364  10.260 -0.8303 -0.1599  0.3413
  703TMC3    C410446   3.672   1.347  10.215 -0.9079 -0.3061  0.5335
  703TMC3    C510447   3.624   1.425  10.313 -0.3806 -0.5310 -0.0009
  703TMC3    C610448   3.492   1.436  10.337  0.2597 -0.2272 -1.3611
  703TMC3     C10449   3.646   1.205  10.026  0.2505 -0.0137 -0.3165
  703TMC3     O10450   3.724   1.267   9.959 -0.3658 -0.0791  0.1284
  703TMC3     H10451   3.373   1.233  10.094 -0.6783  1.0412  0.1536
  703TMC3    H110452   3.775   1.338  10.183 -0.7182  2.9002  0.1856
  703TMC3    H210453   3.461   1.512  10.407  0.0750 -1.7995  0.2604
  703TMC3    C710454   3.707   1.536  10.361 -0.3198  0.0852 -0.1164
  703TMC3    C810455   3.276   1.320  10.317 -0.4596 -0.5906 -0.0965
  703TMC3    O110456   3.671   1.649  10.385  0.0599  0.4043 -0.4193
  703TMC3    O210457   3.225   1.218  10.273  0.1159 -0.3830  0.3249
  704TMC3    C110458   1.052   4.149  11.997  0.0346  0.4593  0.0831
  704TMC3    C210459   1.110   4.137  11.874  0.0294 -0.9442  0.4491
  704TMC3    C310460   1.189   4.026  11.855  0.4997 -0.3618  0.6017
  704TMC3    C410461   1.077   4.061  12.100 -0.7225  0.5649  0.1214
  704TMC3    C510462   1.161   3.963  12.079 -0.0410  0.1137 -0.6571
  704TMC3    C610463   1.227   3.948  11.960 -0.3270  0.8716  0.0992
  704TMC3     C10464   0.922   4.209  11.991  0.0313 -0.8972 -0.2712
  704TMC3     O10465   0.824   4.141  12.018 -0.3969 -0.1827  0.0299
  704TMC3     H10466   1.054   4.181  11.792  0.6943  0.9313  0.9967
  704TMC3    H110467   1.024   4.066  12.194 -1.2897  1.9605 -0.2875
  704TMC3    H210468   1.286   3.858  11.945  1.6624  1.7441  2.7127
  704TMC3    C710469   1.153   3.841  12.167 -0.1615  0.4146 -0.4427
  704TMC3    C810470   1.180   3.972  11.719 -0.0331 -0.3649 -0.2978
  704TMC3    O110471   1.048   3.813  12.216  0.4068 -0.9685  0.2780
  704TMC3    O210472   1.203   4.054  11.626 -0.1402 -0.4148 -0.4390
  705MPD2     C10473   0.220   2.036  16.250 -0.7132 -0.7292  0.2400
  705MPD2    C110474   0.291   2.130  16.328 -0.3304 -0.0453 -0.1470
  705MPD2    C210475   0.263   2.139  16.459 -0.0617 -0.4151 -0.0842
  705MPD2    C310476   0.164   2.056  16.520  0.2678 -0.1003 -0.5101
  705MPD2    C410477   0.101   1.960  16.441  0.3367 -0.4761  0.0047
  705MPD2    C510478   0.135   1.949  16.310 -0.5549 -0.1736 -0.0657
  705MPD2     H10479   0.321   2.204  16.523 -1.3099  0.5824  0.0378
  705MPD2    H110480   0.038   1.881  16.481  0.6971 -1.0254 -0.5226
  705MPD2    H210481   0.242   2.015  16.146 -0.8800 -0.2015  0.0954
  705MPD2    H310482   0.079   1.881  16.247 -1.4232  1.0356 -0.5982
  705MPD2     N10483   0.128   2.071  16.653  0.4290  0.3760  0.5149
  705MPD2    H510484   0.053   2.022  16.701 -2.8086  2.7791 -2.0760
  705MPD2    N110485   0.397   2.212  16.280 -0.6409 -0.5524  0.1882
  705MPD2    H710486   0.448   2.263  16.351  0.6391  0.6709 -1.6197
  706TMC3    C110487   0.767   2.305  16.047 -0.0390  0.4162 -0.3230
  706TMC3    C210488   0.807   2.405  16.134  0.2979 -0.0449  0.0347
  706TMC3    C310489   0.713   2.449  16.226  0.8893  0.0802 -0.0065
  706TMC3    C410490   0.644   2.253  16.044 -0.0237  0.4993  0.4852
  706TMC3    C510491   0.558   2.298  16.141 -0.6786 -0.5281  1.1357
  706TMC3    C610492   0.592   2.387  16.233 -0.3963  0.0641  0.5570
  706TMC3     C10493   0.883   2.232  15.997  0.2816 -0.6509  0.5877
  706TMC3     O10494   0.999   2.253  16.034  0.0519 -0.6703 -0.1856
  706TMC3     H10495   0.909   2.442  16.133  0.0416  0.6501 -0.4743
  706TMC3    H110496   0.619   2.163  15.989 -1.1863  0.3528  1.2415
  706TMC3    H210497   0.522   2.422  16.308 -1.3688  1.5802 -1.0383
  706TMC3    C710498   0.443   2.218  16.155  0.2183  0.3540 -0.1546
  706TMC3    C810499   0.742   2.580  16.289  0.1793  0.3894 -0.3207
  706TMC3    O110500   0.400   2.158  16.057  0.0878  0.0112  0.1056
  706TMC3    O210501   0.812   2.651  16.219 -0.0139  0.3374  0.4672
  707TMC3    C110502   2.935   1.020   0.811 -0.0431 -0.4571 -0.0609
  707TMC3    C210503   2.864   0.911   0.819 -0.6317 -0.0915  0.0596
  707TMC3    C310504   2.739   0.922   0.761 -0.2290  0.5486 -0.1615
  707TMC3    C410505   2.883   1.142   0.772  0.0239  0.2405 -0.1029
  707TMC3    C510506   2.749   1.147   0.733 -0.0584  0.2666  0.0024
  707TMC3    C610507   2.677   1.036   0.716  0.0978  0.1945  0.4936
  707TMC3     C10508   3.073   1.004   0.848  0.0764  0.2252 -0.0175
  707TMC3     O10509   3.099   0.931   0.945  0.3274 -0.2139  0.1053
  707TMC3     H10510   2.905   0.819   0.857 -0.9902 -0.6017 -0.7939
  707TMC3    H110511   2.938   1.233   0.789 -0.0341  0.3592 -0.5534
  707TMC3    H210512   2.577   1.035   0.672 -0.9619  1.3847  2.8667
  707TMC3    C710513   2.690   1.282   0.691 -0.7827 -0.2822 -0.0613
  707TMC3    C810514   2.677   0.801   0.735 -0.4257 -0.4253  0.4655
  707TMC3    O110515   2.584   1.272   0.630 -0.3833  0.4691  0.7461
  707TMC3    O210516   2.598   0.809   0.644  0.0109 -0.2606  0.0494
  708MPD2     C10517   3.017   4.492  14.163  0.4948 -0.3089  0.1090
  708MPD2    C110518   3.126   4.549  14.096 -0.0671  0.1142 -0.2867
  708MPD2    C210519   3.253   4.523  14.146  0.2604  0.1312  0.2254
  708MPD2    C310520   3.280   4.445  14.257 -0.3063 -0.2535  0.8707
  708MPD2    C410521   3.166   4.398  14.325 -0.2103 -0.3257 -0.4930
  708MPD2    C510522   3.036   4.419  14.276 -0.0161 -0.3873 -0.1665
  708MPD2     H10523   3.337   4.574  14.099  0.7716  0.4121  1.4522
  708MPD2    H110524   3.180   4.352  14.422 -3.2164  1.4359  0.7866
  708MPD2    H210525   2.915   4.518  14.135 -0.0919  0.0073  2.5210
  708MPD2    H310526   2.949   4.384  14.330 -0.0014 -1.4381 -0.8124
  708MPD2     N10527   3.408   4.419  14.322  0.2109  0.6581 -0.1378
  708MPD2    H510528   3.404   4.353  14.399  1.4947  1.0129  0.2164
  708MPD2    N110529   3.095   4.641  13.989 -0.4513  0.2306 -0.3527
  708MPD2    H710530   3.003   4.686  13.992 -0.4479  0.0360  2.5090
  709TMC3    C110531   3.167   0.091  13.852  0.6935 -1.0130  0.1047
  709TMC3    C210532   3.038   0.132  13.842 -0.2505  0.0179  0.3928
  709TMC3    C310533   3.002   0.250  13.883  0.2704 -0.2058  0.4764
  709TMC3    C410534   3.253   0.168  13.921  0.4137 -0.1497  0.6319
  709TMC3    C510535   3.206   0.290  13.970  0.6337 -0.4066 -0.7420
  709TMC3    C610536   3.078   0.333  13.953  0.7725  0.3622  0.1447
  709TMC3     C10537   3.190   4.691  13.897 -0.0064 -0.0644  0.1586
  709TMC3     O10538   3.300   4.646  13.874  0.3307 -0.4305  0.0838
  709TMC3     H10539   2.959   0.061  13.822  0.3271 -0.2192 -1.0665
  709TMC3    H110540   3.353   0.128  13.926  0.6924  0.5857  1.0139
  709TMC3    H210541   3.041   0.424  14.000 -2.3290  0.5763 -2.6809
  709TMC3    C710542   3.300   0.360  14.056  0.0783  0.1356  0.5760
  709TMC3    C810543   2.878   0.298  13.816 -0.6694  0.4042  0.7118
  709TMC3    O110544   3.284   0.483  14.086 -0.1350  0.0896 -0.5474
  709TMC3    O210545   2.817   0.386  13.878 -0.2062 -0.2539  0.3298
  710TMC3    C110546   0.069   1.414   0.220  0.3869 -0.3923  0.2785
  710TMC3    C210547   0.114   1.446   0.096  0.1222 -0.3185  0.0373
  710TMC3    C310548   0.234   1.387   0.051  0.1004 -0.3288  0.3362
  710TMC3    C410549   0.132   1.316   0.289 -0.3210  0.7339 -0.6348
  710TMC3    C510550   0.235   1.244   0.230  0.4538 -0.3759  0.3705
  710TMC3    C610551   0.284   1.279   0.108  0.0476 -0.7897 -0.7607
  710TMC3     C10552   4.676   1.458   0.267 -0.2990  0.5160  0.5610
  710TMC3     O10553   4.601   1.378   0.323  0.6766 -0.5461  0.3375
  710TMC3     H10554   0.065   1.519   0.032  0.3193 -0.4056 -0.2095
  710TMC3    H110555   0.092   1.292   0.386 -2.0554 -1.5112 -1.8991
  710TMC3    H210556   0.380   1.234   0.082  0.0251 -1.3993  0.2127
  710TMC3    C710557   0.299   1.141   0.302  0.4650 -0.0443  0.6287
  710TMC3    C810558   0.309   1.453  17.692  0.5666  0.4187  0.7923
  710TMC3    O110559   0.273   1.141   0.424 -0.0832  0.1981 -0.2013
  710TMC3    O210560   0.396   1.385  17.639  0.1881 -0.4723 -0.3997
  711TMC3    C110561   0.007   3.064  15.035 -0.7135 -0.2530  0.3478
  711TMC3    C210562   4.697   3.126  15.152  0.5241 -0.7655  0.4665
  711TMC3    C310563   0.053   3.155  15.249  0.3769 -0.5336  0.4906
  711TMC3    C410564   0.138   3.042  15.013 -0.0200 -0.0736 -0.6548
  711TMC3    C510565   0.229   3.074  15.111 -0.3748  0.3606 -0.6089
  711TMC3    C610566   0.190   3.129  15.232 -0.1058  0.5737  0.8598
  711TMC3     C10567   4.655   3.021  14.925 -0.1838 -0.1818  0.2171
  711TMC3     O10568   4.698   2.932  14.856 -0.4497  0.0966  0.1635
  711TMC3     H10569   4.591   3.130  15.171  0.2819  0.4177 -1.1462
  711TMC3    H110570   0.173   2.990  14.924 -1.8721  1.1524 -2.1088
  711TMC3    H210571   0.263   3.140  15.312  1.9161 -0.4660 -0.8570
  711TMC3    C710572   0.345   2.985  15.133 -0.3926  0.0075 -0.0884
  711TMC3    C810573   0.000   3.157  15.386 -0.1726  0.8058 -0.5118
  711TMC3    O110574   0.339   2.909  15.229  0.0473  0.7311 -0.3976
  711TMC3    O210575   4.616   3.145  15.406 -0.2495 -0.3287  0.7628
  712MPD2     C10576   1.574   3.276  13.457 -0.4784 -0.1271 -0.6869
  712MPD2    C110577   1.503   3.312  13.344 -0.0912 -0.3576  0.1481
  712MPD2    C210578   1.488   3.444  13.307 -0.0066  0.0227  0.2860
  712MPD2    C310579   1.529   3.548  13.392  0.3039 -0.0274 -0.1568
  712MPD2    C410580   1.611   3.512  13.501  0.0126 -0.3759  0.6128
  712MPD2    C510581   1.634   3.375  13.526  0.0909 -0.5657  0.2129
  712MPD2     H10582   1.436   3.460  13.213 -2.1023 -0.2227  1.4005
  712MPD2    H110583   1.664   3.584  13.562 -0.0599 -0.3804  0.6804
  712MPD2    H210584   1.597   3.173  13.484 -2.4006  0.0180  1.5047
  712MPD2    H310585   1.696   3.339  13.606  0.9421  0.1742 -0.1021
  712MPD2     N10586   1.489   3.679  13.381  1.1362 -0.2103 -0.3580
  712MPD2    H510587   1.528   3.752  13.440 -0.3393 -0.4624  0.9257
  712MPD2    N110588   1.431   3.220  13.261  0.3046 -0.0878 -0.1699
  712MPD2    H710589   1.408   3.261  13.171 -0.6008  0.4632  0.3049
  713TMC3    C110590   1.338   3.852  13.339  0.6171 -0.1599 -0.7124
  713TMC3    C210591   1.392   3.914  13.454 -0.1636 -0.5609 -0.7806
  713TMC3    C310592   1.309   4.004  13.516  0.0730 -0.6269 -0.6477
  713TMC3    C410593   1.220   3.883  13.288 -0.6191 -0.5218 -0.1546
  713TMC3    C510594   1.140   3.972  13.353 -0.1881 -0.5636 -0.1993
  713TMC3    C610595   1.181   4.030  13.471  0.1209  0.2106  0.1927
  713TMC3     C10596   1.380   3.711  13.306 -0.4655  0.6561  0.0313
  713TMC3     O10597   1.306   3.640  13.236  0.2728  0.0823 -0.4916
  713TMC3     H10598   1.494   3.897  13.484 -0.0068 -1.5987 -1.9072
  713TMC3    H110599   1.188   3.842  13.193 -0.3352  1.6823 -1.1933
  713TMC3    H210600   1.119   4.105  13.517  1.1107  1.1251  0.0369
  713TMC3    C710601   1.036   4.049  13.280 -0.9293 -0.1702 -0.5013
  713TMC3    C810602   1.351   4.129  13.570  0.3072  0.0161  0.1155
  713TMC3    O110603   1.044   4.045  13.158  0.3292  0.1943  0.2190
  713TMC3    O210604   1.281   4.227  13.554 -0.0358  0.3737 -0.1957
  714MPD2     C10605   3.842   2.784   1.360 -0.2141  0.8678 -0.9771
  714MPD2    C110606   3.811   2.692   1.268  0.2260  0.0536 -0.3523
  714MPD2    C210607   3.679   2.665   1.238 -1.0187  0.0814  0.6985
  714MPD2    C310608   3.580   2.737   1.304 -0.2609  0.6907  0.1593
  714MPD2    C410609   3.615   2.831   1.396 -0.3900 -0.3854 -0.3626
  714MPD2    C510610   3.743   2.854   1.425  0.1957 -0.9221  0.4890
  714MPD2     H10611   3.650   2.597   1.159  0.7639 -1.0642  1.0201
  714MPD2    H110612   3.553   2.897   1.456  0.1420  0.5429 -0.8313
  714MPD2    H210613   3.947   2.808   1.377 -0.2136 -0.1520  0.4688
  714MPD2    H310614   3.767   2.927   1.500  0.3336 -1.7226  1.2216
  714MPD2     N10615   3.449   2.713   1.264  0.2192  0.2124 -0.8930
  714MPD2    H510616   3.432   2.642   1.194  1.0843 -0.7098 -0.1612
  714MPD2    N110617   3.920   2.617   1.211  0.7750 -0.7951 -0.6470
  714MPD2    H710618   4.015   2.642   1.237  1.1191 -1.1108 -1.5975
  715TMC3    C110619   4.050   2.456   1.100 -0.0998  0.4227 -0.4718
  715TMC3    C210620   4.065   2.328   1.060  0.3202 -0.1665  0.3096
  715TMC3    C310621   4.189   2.284   1.017 -0.3597  0.3804  0.1525
  715TMC3    C410622   4.158   2.545   1.096 -0.7873 -0.4561 -0.1404
  715TMC3    C510623   4.283   2.493   1.066  0.0988  0.0354  0.2696
  715TMC3    C610624   4.303   2.363   1.028 -0.0621 -0.4435 -0.8124
  715TMC3     C10625   3.916   2.501   1.141  0.1997  0.3058 -0.0374
  715TMC3     O10626   3.820   2.434   1.107  0.3371 -0.4667 -0.2853
  715TMC3     H10627   3.978   2.264   1.052 -1.5893  2.5540 -1.0053
  715TMC3    H110628   4.150   2.653   1.093 -0.5445 -0.4802 -1.5640
  715TMC3    H210629   4.404   2.325   1.010  0.5221  1.2483 -1.0931
  715TMC3    C710630   4.393   2.580   1.095  0.4061  0.5272 -0.2617
  715TMC3    C810631   4.190   2.151   0.980 -0.1820 -0.4038 -0.5721
  715TMC3    O110632   4.499   2.549   1.042 -0.6017  0.0707  0.0635
  715TMC3    O210633   4.094   2.081   0.993  0.5741  0.4353  0.5313
  716MPD2     C10634   3.307   1.708  10.105 -1.1093  0.5070 -0.1178
  716MPD2    C110635   3.199   1.664  10.029 -0.1911  0.1272  0.0940
  716MPD2    C210636   3.221   1.567   9.933 -0.1155  0.4149  0.0224
  716MPD2    C310637   3.349   1.519   9.910  0.0167 -0.2475 -0.1138
  716MPD2    C410638   3.453   1.566   9.987 -0.1323  0.3489  0.5056
  716MPD2    C510639   3.430   1.656  10.087  0.6691  0.2118 -0.0583
  716MPD2     H10640   3.143   1.528   9.868  0.0182  0.5292 -0.2084
  716MPD2    H110641   3.553   1.526   9.995  1.1057  3.0264 -1.6774
  716MPD2    H210642   3.285   1.785  10.179 -1.8730  2.0633 -1.9772
  716MPD2    H310643   3.517   1.697  10.137  0.6842  1.0250 -0.7510
  716MPD2     N10644   3.375   1.428   9.806 -0.4943 -0.0089  0.5896
  716MPD2    H510645   3.301   1.373   9.762  0.5838  0.1328 -1.3966
  716MPD2    N110646   3.083   1.741  10.043  0.7819  0.3110 -0.2642
  716MPD2    H710647   3.088   1.815  10.112 -0.5982  0.5990 -0.4804
  717TMC3    C110648   3.496   1.314   9.630 -0.1952 -0.4915 -0.3500
  717TMC3    C210649   3.385   1.249   9.596  1.0388  0.2255 -0.0561
  717TMC3    C310650   3.389   1.192   9.475 -0.5111  0.4570  0.6796
  717TMC3    C410651   3.614   1.322   9.558  0.3628  0.1168 -0.1739
  717TMC3    C510652   3.615   1.255   9.435  0.7510  0.3822  0.1882
  717TMC3    C610653   3.504   1.180   9.397  0.1395 -0.0601 -0.7281
  717TMC3     C10654   3.496   1.411   9.742  0.1897 -0.0615  0.5468
  717TMC3     O10655   3.583   1.497   9.751  0.3517  0.1773 -0.0539
  717TMC3     H10656   3.289   1.245   9.646  0.5342  0.3121 -1.0102
  717TMC3    H110657   3.703   1.375   9.591 -0.5201  2.3739 -1.4889
  717TMC3    H210658   3.503   1.119   9.307 -0.4868  0.6985 -1.2245
  717TMC3    C710659   3.741   1.253   9.359  0.1028  0.3672 -0.0161
  717TMC3    C810660   3.274   1.110   9.441  0.8405 -0.3433 -0.2105
  717TMC3    O110661   3.837   1.315   9.402 -0.3906 -0.3008  0.1080
  717TMC3    O210662   3.203   1.076   9.535  0.8589 -0.2212  0.0550
  718MPD2     C10663   3.020   4.411  12.407  0.2272  0.1141  0.4691
  718MPD2    C110664   2.914   4.428  12.492 -0.4891 -0.0707 -0.3909
  718MPD2    C210665   2.807   4.333  12.493  0.4409 -0.8578 -1.0957
  718MPD2    C310666   2.794   4.232  12.404 -0.1908 -0.1621  0.3198
  718MPD2    C410667   2.895   4.226  12.309  0.5747 -0.4785  0.5822
  718MPD2    C510668   3.014   4.306  12.317 -0.7662 -1.0554  0.0074
  718MPD2     H10669   2.726   4.351  12.564  0.9568 -0.8156 -0.5175
  718MPD2    H110670   2.893   4.139  12.244  1.6034  0.1022 -0.2151
  718MPD2    H210671   3.112   4.467  12.422  0.3433  0.2866 -0.8934
  718MPD2    H310672   3.103   4.283  12.259  1.3045 -0.6311  2.9826
  718MPD2     N10673   2.678   4.142  12.397  0.0650 -0.6582 -0.0077
  718MPD2    H510674   2.613   4.144  12.475 -0.5519  0.3246 -0.5371
  718MPD2    N110675   2.916   4.537  12.577  0.1289  0.2167 -0.1288
  718MPD2    H710676   2.983   4.610  12.557 -1.2083  1.6768  0.7135
  719TMC3    C110677   2.793   4.684  12.733  0.3159  0.1832  0.0968
  719TMC3    C210678   2.651   4.692  12.725 -0.1332  0.1690  0.5515
  719TMC3    C310679   2.597   0.065  12.671  0.4929  0.1593 -0.7302
  719TMC3    C410680   2.858   0.052  12.675  0.0669 -0.2880  0.1885
  719TMC3    C510681   2.799   0.162  12.616 -0.2536 -0.0280  0.9326
  719TMC3    C610682   2.660   0.176  12.625 -0.1762  0.3124  0.4115
  719TMC3     C10683   2.842   4.548  12.698 -0.5025  0.4955 -0.2237
  719TMC3     O10684   2.786   4.457  12.758 -0.2277  0.0502  0.1283
  719TMC3     H10685   2.591   4.611  12.764 -1.6973  0.7112 -0.7087
  719TMC3    H110686   2.965   0.032  12.673 -0.2022 -1.6806 -0.2591
  719TMC3    H210687   2.612   0.251  12.562  1.0111  0.2957 -0.5205
  719TMC3    C710688   2.862   0.233  12.505  0.1806 -0.4939  1.1807
  719TMC3    C810689   2.466   0.044  12.609 -0.4586  0.3869  0.2001
  719TMC3    O110690   2.784   0.261  12.413 -0.2212 -0.3607  0.1407
  719TMC3    O210691   2.403   0.144  12.569 -0.1689 -0.0457 -0.1795
  720MPD2     C10692   1.351   0.833  13.577 -0.2408  0.4872 -0.3107
  720MPD2    C110693   1.343   0.971  13.573 -0.2958  0.0626  0.0083
  720MPD2    C210694   1.441   1.036  13.646  0.1280  0.0869  0.4844
  720MPD2    C310695   1.535   0.972  13.727  0.4688 -0.3826 -0.1512
  720MPD2    C410696   1.520   0.838  13.748 -0.1792 -0.1105 -0.3314
  720MPD2    C510697   1.442   0.767  13.660 -0.1119 -0.0608  0.1701
  720MPD2     H10698   1.443   1.144  13.637 -0.8718  0.0742  0.1470
  720MPD2    H110699   1.598   0.777  13.792 -1.2334 -1.9907 -1.0426
  720MPD2    H210700   1.300   0.772  13.503 -1.9351  1.1780  0.2803
  720MPD2    H310701   1.447   0.659  13.669  1.5480  0.2974  3.3786
  720MPD2     N10702   1.631   1.052  13.786 -0.8137  0.0045 -0.2635
  720MPD2    H510703   1.648   1.144  13.747 -0.8236 -0.2717 -0.9207
  720MPD2    N110704   1.248   1.032  13.488 -0.4127 -0.1683  0.4429
  720MPD2    H710705   1.238   1.133  13.497 -2.8522 -0.4131  0.5342
  721TMC3    C110706   1.795   1.125  13.933  0.5491  0.3676 -0.6566
  721TMC3    C210707   1.801   1.159  14.061  0.3751  0.0600 -0.0492
  721TMC3    C310708   1.891   1.263  14.096 -0.0371  0.4967  0.6489
  721TMC3    C410709   1.877   1.174  13.835 -0.2405 -0.0262 -0.1455
  721TMC3    C510710   1.981   1.252  13.877  0.1372  0.0638  0.2331
  721TMC3    C610711   1.989   1.304  14.004 -0.7562  0.2899  0.0766
  721TMC3     C10712   1.696   1.025  13.902 -0.6147 -0.8926  0.3159
  721TMC3     O10713   1.650   0.941  13.981 -0.2180 -0.1606  0.2778
  721TMC3     H10714   1.724   1.121  14.128  0.9764  0.3751  0.8276
  721TMC3    H110715   1.883   1.126  13.738  0.8070  1.3281 -0.7507
  721TMC3    H210716   2.072   1.370  14.026  0.2926 -1.3830  1.1609
  721TMC3    C710717   2.110   1.217  13.816  0.4047  0.0809  0.0180
  721TMC3    C810718   1.877   1.344  14.208 -0.9241  0.5456 -0.0812
  721TMC3    O110719   2.104   1.156  13.715 -0.1700  0.0276 -0.5364
  721TMC3    O210720   1.925   1.454  14.208  0.0195  0.2513 -0.0139
  722MPD2     C10721   4.674   4.084  13.404  0.1125  0.3882 -0.3194
  722MPD2    C110722   4.635   4.205  13.349 -0.1496 -0.3521  0.2982
  722MPD2    C210723   4.506   4.222  13.313 -0.4164 -0.3072  0.1870
  722MPD2    C310724   4.410   4.127  13.337 -0.2729  0.4734 -1.2655
  722MPD2    C410725   4.449   4.012  13.392 -0.0358  0.0576 -0.1969
  722MPD2    C510726   4.578   3.985  13.424  0.0112 -0.3689 -0.1635
  722MPD2     H10727   4.468   4.315  13.272  0.7277 -0.0142 -0.1911
  722MPD2    H110728   4.372   3.940  13.415 -1.1825  1.1037 -0.7497
  722MPD2    H210729   0.039   4.062  13.433 -0.4543  2.1918  3.0077
  722MPD2    H310730   4.604   3.890  13.470  1.9716  0.4024  0.3446
  722MPD2     N10731   4.275   4.165  13.297 -0.2811 -0.5100  1.0976
  722MPD2    H510732   4.273   4.244  13.233  1.4720  0.1518  1.8783
  722MPD2    N110733   4.725   4.319  13.332 -0.2800  0.4022  0.0616
  722MPD2    H710734   4.684   4.403  13.293  1.2770  0.5912 -1.1883
  723TMC3    C110735   4.046   4.194  13.311 -0.2313  0.1809 -0.2571
  723TMC3    C210736   4.045   4.207  13.176  0.4017  0.1187 -0.0458
  723TMC3    C310737   3.999   4.319  13.117  0.4019 -1.0934 -0.9294
  723TMC3    C410738   4.030   4.306  13.386  0.0902  0.6489  0.1453
  723TMC3    C510739   3.995   4.423  13.334 -0.4575 -0.4702 -1.1484
  723TMC3    C610740   3.969   4.431  13.195  0.0355 -0.7398 -0.4844
  723TMC3     C10741   4.161   4.113  13.357 -0.2368 -0.2845 -0.4182
  723TMC3     O10742   4.160   4.057  13.467 -0.0031  0.0757  0.1676
  723TMC3     H10743   4.070   4.117  13.122 -0.3731  0.2722 -0.6506
  723TMC3    H110744   4.049   4.303  13.493 -0.8574  0.6993  0.3114
  723TMC3    H210745   3.969   4.528  13.147 -2.1000 -0.2230  0.5299
  723TMC3    C710746   4.061   4.544  13.393  0.6140  0.1148 -0.3306
  723TMC3    C810747   3.998   4.327  12.970  0.4068 -0.4914  0.3700
  723TMC3    O110748   3.999   4.651  13.374 -0.5959  0.1507  0.3561
  723TMC3    O210749   3.990   4.443  12.929 -0.1597  0.7436  0.6089
  724TMC3    C110750   0.062   3.300   9.995  0.0272 -0.5032 -0.3697
  724TMC3    C210751   0.029   3.427   9.951 -0.1879  0.3442  0.5853
  724TMC3    C310752   0.128   3.494   9.890 -0.0629 -0.8561 -0.3215
  724TMC3    C410753   0.191   3.258   9.994  0.0564  0.1332  0.0702
  724TMC3    C510754   0.282   3.330   9.936 -0.3860 -0.0229 -0.0009
  724TMC3    C610755   0.257   3.448   9.885  0.1447  0.6375 -0.5050
  724TMC3     C10756   4.714   3.219  10.088 -0.1244  0.0553 -0.2126
  724TMC3     O10757   0.023   3.116  10.134  0.3087  0.5458  0.3078
  724TMC3     H10758   4.685   3.487   9.990 -1.1596  0.5418 -1.7040
  724TMC3    H110759   0.217   3.161  10.035  1.3184 -0.1881 -1.5540
  724TMC3    H210760   0.342   3.500   9.841 -0.4757  1.4249 -0.7778
  724TMC3    C710761   0.419   3.285   9.934  0.6551 -0.2914  0.1854
  724TMC3    C810762   0.104   3.625   9.833 -0.1030 -0.0392  0.3257
  724TMC3    O110763   0.492   3.332   9.851  0.0534  0.3074 -0.1500
  724TMC3    O210764   4.729   3.654   9.788 -0.7042  0.3307  0.0633
  725TMC3    C110765   1.356   1.568  12.997 -0.5657 -0.2965  0.0511
  725TMC3    C210766   1.254   1.553  12.906 -0.0329 -0.2579  0.1817
  725TMC3    C310767   1.176   1.439  12.914 -0.2961  0.0331  0.6128
  725TMC3    C410768   1.393   1.460  13.070 -0.5472 -0.1930 -0.6753
  725TMC3    C510769   1.321   1.342  13.071 -0.5505 -0.0975 -0.2454
  725TMC3    C610770   1.203   1.337  12.997 -0.1472 -0.7240 -0.4820
  725TMC3     C10771   1.425   1.695  13.017 -0.1471  0.1531 -0.0738
  725TMC3     O10772   1.513   1.698  13.107  0.1562  0.0696  0.0629
  725TMC3     H10773   1.209   1.628  12.842  0.9340  1.1368  1.1328
  725TMC3    H110774   1.482   1.460  13.132 -2.5918  1.8702  2.2518
  725TMC3    H210775   1.130   1.257  13.005 -1.3553  0.3360 -0.9267
  725TMC3    C710776   1.362   1.237  13.160 -0.4102  0.1301  0.5984
  725TMC3    C810777   1.076   1.411  12.814 -1.0732  0.4400  0.1954
  725TMC3    O110778   1.366   1.264  13.280 -0.0056 -0.1141 -0.0866
  725TMC3    O210779   0.990   1.339  12.852  0.3949  0.5360  0.8588
  726MPD2     C10780   4.734   3.576  10.690  0.3202  0.0325 -0.2008
  726MPD2    C110781   4.647   3.680  10.665 -0.2900  0.8070  0.2406
  726MPD2    C210782   4.508   3.669  10.685 -0.2565 -0.1794  0.5993
  726MPD2    C310783   4.457   3.549  10.723  0.0421 -0.3661 -0.4157
  726MPD2    C410784   4.541   3.445  10.755  0.3479  0.4700  0.1123
  726MPD2    C510785   4.674   3.459  10.741 -0.3592 -0.0363 -0.3419
  726MPD2     H10786   4.438   3.746  10.655 -1.0535 -1.1174  0.0598
  726MPD2    H110787   4.498   3.352  10.792 -2.3006  2.0594  1.0257
  726MPD2    H210788   0.104   3.571  10.675  0.5451 -2.3623  2.1451
  726MPD2    H310789   4.731   3.369  10.758 -1.4871 -0.2212  2.3768
  726MPD2     N10790   4.311   3.529  10.728 -0.2706 -0.8132  0.1499
  726MPD2    H510791   4.281   3.432  10.737  1.6099 -1.5949 -2.0278
  726MPD2    N110792   4.693   3.801  10.611  0.8610  0.0065  0.3940
  726MPD2    H710793   4.615   3.858  10.579  0.1136 -0.1420  1.9705
  727TMC3    C110794   0.118   3.961  10.507  0.2228  0.7588 -0.0296
  727TMC3    C210795   0.244   4.017  10.510  0.6276  0.8058  0.0804
  727TMC3    C310796   0.252   4.136  10.439 -0.0588 -0.3285  0.9981
  727TMC3    C410797   0.016   3.998  10.418  1.0378 -0.1377 -0.3607
  727TMC3    C510798   0.035   4.108  10.341  0.1842  0.0809 -0.4289
  727TMC3    C610799   0.151   4.182  10.356  0.2282 -0.2637 -0.6152
  727TMC3     C10800   0.094   3.840  10.592  0.0392 -0.4448  0.0990
  727TMC3     O10801   0.193   3.784  10.632  0.1215 -0.3609 -0.0419
  727TMC3     H10802   0.314   3.988  10.588  0.7521  1.2983  0.1548
  727TMC3    H110803   4.667   3.933  10.408  1.9462 -1.3369 -0.4301
  727TMC3    H210804   0.168   4.276  10.305 -0.4161 -0.7365 -1.7125
  727TMC3    C710805   4.666   4.172  10.266  0.4663 -0.2188 -0.2512
  727TMC3    C810806   0.382   4.208  10.432 -0.4227  0.5297  0.5640
  727TMC3    O110807   4.685   4.264  10.191 -0.1064 -0.3348  0.5417
  727TMC3    O210808   0.377   4.329  10.398 -0.6684  0.0981 -0.5485
  728TMC3    C110809   4.145   1.870  15.277  0.4309 -0.7282  0.0094
  728TMC3    C210810   4.279   1.899  15.263 -0.3254 -0.4045  0.5698
  728TMC3    C310811   4.312   1.956  15.143 -0.0820  0.4139  0.5480
  728TMC3    C410812   4.052   1.876  15.170  0.1734 -0.1923  0.6172
  728TMC3    C510813   4.090   1.935  15.054  0.4440 -0.4914  0.1640
  728TMC3    C610814   4.221   1.970  15.038 -0.5900 -0.2019 -0.0886
  728TMC3     C10815   4.088   1.839  15.412 -0.7439  0.5922  0.0793
  728TMC3     O10816   4.153   1.881  15.507 -0.1236  0.7429 -0.0301
  728TMC3     H10817   4.338   1.908  15.353  0.4892 -1.8224  0.1749
  728TMC3    H110818   3.947   1.854  15.180  0.4185 -1.6333  0.0721
  728TMC3    H210819   4.261   2.012  14.946  1.8367 -2.6674 -0.1571
  728TMC3    C710820   3.998   1.949  14.945 -0.4117  0.2997 -0.0213
  728TMC3    C810821   4.446   2.006  15.132  0.1179 -0.3908 -1.0668
  728TMC3    O110822   3.890   1.904  14.962 -0.0919 -0.2891 -0.0787
  728TMC3    O210823   4.519   1.969  15.222 -0.3440  0.5237 -0.1840
  729MPD2     C10824   1.481   2.543  16.861 -0.9973 -0.1381  0.2033
  729MPD2    C110825   1.483   2.683  16.834 -0.5625  0.0702  0.1920
  729MPD2    C210826   1.407   2.768  16.904  0.2402  0.0150  0.6826
  729MPD2    C310827   1.336   2.721  17.009  0.1158  0.2000 -0.0336
  729MPD2    C410828   1.348   2.584  17.041  0.1331 -0.5318 -0.3369
  729MPD2    C510829   1.404   2.487  16.962 -0.3268  0.0218  0.1206
  729MPD2     H10830   1.421   2.874  16.890  1.9753 -0.5230 -1.5922
  729MPD2    H110831   1.305   2.541  17.131  2.8901 -0.5980  0.9641
  729MPD2    H210832   1.540   2.476  16.800  1.9774  0.2827  2.5635
  729MPD2    H310833   1.416   2.384  16.994 -0.1446  0.0086  0.0104
  729MPD2     N10834   1.269   2.806  17.102  0.5069  0.3075 -0.8707
  729MPD2    H510835   1.230   2.772  17.190  0.2274 -0.6013 -1.3525
  729MPD2    N110836   1.586   2.722  16.740 -0.1152  0.2895 -0.3147
  729MPD2    H710837   1.666   2.660  16.737 -1.6867 -1.7257 -0.9623
  730TMC3    C110838   1.243   3.019  17.202  0.0539 -0.1581 -0.0264
  730TMC3    C210839   1.322   2.968  17.299 -0.2207 -0.2036  0.0462
  730TMC3    C310840   1.362   3.060  17.396  0.2184 -0.0922  1.0131
  730TMC3    C410841   1.226   3.153  17.177  0.3461 -0.3911  0.3618
  730TMC3    C510842   1.273   3.236  17.280  0.3184  0.4242  0.0244
  730TMC3    C610843   1.348   3.197  17.387  0.1193 -0.2132  0.5499
  730TMC3     C10844   1.256   2.941  17.081  0.0077 -0.3543 -0.1939
  730TMC3     O10845   1.243   3.003  16.973 -0.0538  0.0438  0.0739
  730TMC3     H10846   1.328   2.863  17.325 -1.2966 -0.1440  0.5490
  730TMC3    H110847   1.181   3.187  17.084  1.2499  1.0478  0.4649
  730TMC3    H210848   1.395   3.277  17.443 -0.1286  0.8191 -0.7221
  730TMC3    C710849   1.263   3.379  17.249 -0.1823 -0.3694  0.2616
  730TMC3    C810850   1.427   3.004  17.513 -0.0001  0.0762 -0.0113
  730TMC3    O110851   1.365   3.444  17.258 -0.2186 -0.2513 -0.4838
  730TMC3    O210852   1.414   2.882  17.524  0.0682 -0.4516 -0.2099
  731MPD2     C10853   1.307   0.822  11.845 -0.9537  0.3426  0.5178
  731MPD2    C110854   1.183   0.857  11.810 -0.0260 -0.0342 -0.3902
  731MPD2    C210855   1.077   0.816  11.886  0.3516 -0.5986 -0.5776
  731MPD2    C310856   1.103   0.729  11.995  0.0569  0.7934  0.0996
  731MPD2    C410857   1.231   0.699  12.030  0.0685  0.5518  0.2636
  731MPD2    C510858   1.334   0.743  11.949 -0.1764 -0.3699 -0.3627
  731MPD2     H10859   0.977   0.856  11.877  0.8183  0.7762  0.3044
  731MPD2    H110860   1.255   0.646  12.121  0.2208  0.1230 -0.0263
  731MPD2    H210861   1.393   0.858  11.790 -1.8122  0.5534 -0.6937
  731MPD2    H310862   1.436   0.717  11.973  0.4025  2.7943  0.5322
  731MPD2     N10863   0.987   0.676  12.060  0.2072 -0.1955 -0.2523
  731MPD2    H510864   0.898   0.704  12.020  0.9454  0.7235 -1.2521
  731MPD2    N110865   1.172   0.939  11.697 -0.0715  0.2900 -0.7058
  731MPD2    H710866   1.259   0.969  11.653  0.3785  0.5536  0.3713
  732TMC3    C110867   1.082   1.060  11.526  0.0228 -0.6401 -0.2652
  732TMC3    C210868   0.997   1.048  11.425 -0.3381  0.7409  0.1357
  732TMC3    C310869   0.962   1.161  11.358 -0.3759  0.3980  0.6463
  732TMC3    C410870   1.127   1.183  11.573  0.4606  0.1134 -0.0683
  732TMC3    C510871   1.080   1.296  11.508  0.4460 -0.3013 -0.4822
  732TMC3    C610872   1.009   1.287  11.393 -0.0535 -0.3695 -0.4868
  732TMC3     C10873   1.059   0.966  11.627  0.5088 -0.2188 -0.3092
  732TMC3     O10874   0.947   0.914  11.629 -0.3283  0.2265  0.5970
  732TMC3     H10875   0.972   0.948  11.390 -0.7716  1.4207 -1.4927
  732TMC3    H110876   1.195   1.199  11.656 -1.2289  2.1688  0.9418
  732TMC3    H210877   0.982   1.378  11.341 -0.4609 -0.7328 -0.9091
  732TMC3    C710878   1.149   1.422  11.536 -0.5477  1.2411 -0.1946
  732TMC3    C810879   0.824   1.171  11.321 -0.4456  0.0170 -0.0736
  732TMC3    O110880   1.168   1.496  11.440 -0.4192  0.1862  0.0497
  732TMC3    O210881   0.784   1.260  11.244 -0.9004 -0.3058  0.2949
  733TMC3    C110882   2.313   3.962  12.414  0.3249 -0.6457 -0.1986
  733TMC3    C210883   2.457   3.981  12.406  0.5509 -0.1809  0.1678
  733TMC3    C310884   2.507   4.038  12.293  0.8653 -0.0740 -0.4744
  733TMC3    C410885   2.233   4.022  12.327  0.0437  0.1964 -0.8629
  733TMC3    C510886   2.290   4.088  12.220 -0.7747  0.8768 -0.1361
  733TMC3    C610887   2.428   4.091  12.192 -0.2217 -0.7478  0.3771
  733TMC3     C10888   2.258   3.925  12.540  0.3187 -0.1831  0.0691
  733TMC3     O10889   2.145   3.970  12.560 -0.2976 -0.2694  0.0410
  733TMC3     H10890   2.526   3.929  12.472  1.3431  0.9912  0.2613
  733TMC3    H110891   2.126   4.033  12.342 -0.3871 -0.2381 -3.6463
  733TMC3    H210892   2.466   4.135  12.100  0.3738 -1.2928  0.3675
  733TMC3    C710893   2.237   4.216  12.206 -0.3558 -0.3902 -0.2376
  733TMC3    C810894   2.648   4.077  12.284  0.1470  0.3084 -0.3615
  733TMC3    O110895   2.125   4.232  12.155  0.1450 -0.8754  0.2474
  733TMC3    O210896   2.699   4.082  12.172 -0.1508  0.1139  0.3070
  734MPD2     C10897   3.719   1.685  12.502  0.2687  0.5817  0.1785
  734MPD2    C110898   3.727   1.588  12.407 -0.2630 -0.0793  0.4123
  734MPD2    C210899   3.796   1.609  12.288  0.1070  0.3418  0.3061
  734MPD2    C310900   3.861   1.732  12.266  0.4782  0.4954  0.4385
  734MPD2    C410901   3.852   1.828  12.358  0.2378  0.2313  0.0286
  734MPD2    C510902   3.768   1.809  12.469  0.2480  0.5878  0.0718
  734MPD2     H10903   3.819   1.526  12.223  1.3661 -0.6427  1.9887
  734MPD2    H110904   3.899   1.926  12.346 -1.9680  0.9837 -2.2830
  734MPD2    H210905   3.659   1.664  12.590  0.1590  3.8276  0.8527
  734MPD2    H310906   3.756   1.887  12.543  0.8374 -0.3063  1.1069
  734MPD2     N10907   3.933   1.745  12.141  0.2536  0.2406 -0.2638
  734MPD2    H510908   3.927   1.657  12.089 -0.0736  0.2203 -0.1919
  734MPD2    N110909   3.665   1.465  12.427  0.4397  0.1496  0.2459
  734MPD2    H710910   3.650   1.437  12.524 -1.7282 -0.7571 -0.3425
  735TMC3    C110911   3.602   1.246  12.387 -0.3732  0.2139 -0.1260
  735TMC3    C210912   3.542   1.168  12.290 -0.1883 -1.0587  0.0366
  735TMC3    C310913   3.600   1.054  12.251 -0.7160  0.3280 -0.3052
  735TMC3    C410914   3.725   1.200  12.433  0.4079  0.6101 -1.2599
  735TMC3    C510915   3.772   1.076  12.399  0.6041 -0.5594  0.6155
  735TMC3    C610916   3.708   0.994  12.312 -0.0055  0.2651  0.1459
  735TMC3     C10917   3.620   1.380  12.332  0.0653 -0.3507 -0.7496
  735TMC3     O10918   3.611   1.403  12.212 -0.0730 -0.4388  0.0623
  735TMC3     H10919   3.452   1.204  12.242 -2.3896 -1.3747  3.8840
  735TMC3    H110920   3.782   1.264  12.499 -1.2255  0.7669 -0.0051
  735TMC3    H210921   3.764   0.916  12.261  1.7355  0.7535  1.2953
  735TMC3    C710922   3.913   1.054  12.404 -0.3303 -0.9035  0.6882
  735TMC3    C810923   3.595   1.029  12.108 -0.4972 -0.6813  0.0556
  735TMC3    O110924   3.981   1.157  12.406 -0.2108 -0.3544  0.4888
  735TMC3    O210925   3.609   0.913  12.073 -0.0682 -0.5696 -0.2341
  736MPD2     C10926   4.112   0.746  12.428 -0.1198 -0.1638  0.4746
  736MPD2    C110927   4.090   0.880  12.400 -0.4990  0.0790  0.2037
  736MPD2    C210928   4.196   0.961  12.366 -0.2737  0.6325 -0.9065
  736MPD2    C310929   4.318   0.900  12.337 -0.6956  0.4482 -0.1128
  736MPD2    C410930   4.338   0.766  12.364 -0.0789 -0.5797  0.4578
  736MPD2    C510931   4.233   0.685  12.406 -0.1971 -0.0457 -0.1245
  736MPD2     H10932   4.184   1.067  12.345  0.3307  0.8281 -0.2872
  736MPD2    H110933   4.431   0.712  12.354  1.1929  1.5379  1.0300
  736MPD2    H210934   4.037   0.686  12.478  1.7171 -1.6198  1.4800
  736MPD2    H310935   4.260   0.587  12.445  0.4606  0.3227  0.3533
  736MPD2     N10936   4.427   0.966  12.268 -0.1445  0.1077 -0.2954
  736MPD2    H510937   4.505   0.913  12.231  0.9395  1.8754 -0.5810
  736MPD2    N110938   3.956   0.924  12.402  0.0844  0.0128  0.1275
  736MPD2    H710939   3.883   0.855  12.418  1.0500 -1.3656 -1.3245
  737TMC3    C110940   4.538   1.130  12.149 -0.1195 -0.1145 -0.4467
  737TMC3    C210941   4.578   1.258  12.160 -0.1158  0.1677  0.8744
  737TMC3    C310942   4.673   1.300  12.076  0.5751 -0.2382  0.1265
  737TMC3    C410943   4.582   1.043  12.055 -0.6499  0.3430  0.1801
  737TMC3    C510944   4.678   1.098  11.967  0.0730  0.6305 -0.2142
  737TMC3    C610945   4.728   1.224  11.981 -0.6983  0.9219  0.1383
  737TMC3     C10946   4.427   1.101  12.236 -0.4905 -0.4072  0.4732
  737TMC3     O10947   4.372   1.192  12.301  0.0021 -0.3068 -0.6224
  737TMC3     H10948   4.533   1.327  12.230 -1.9167 -1.5617  1.4106
  737TMC3    H110949   4.548   0.940  12.047 -1.5755  0.6792 -0.3009
  737TMC3    H210950   0.047   1.281  11.908 -0.0759 -2.6397 -2.1588
  737TMC3    C710951   4.709   1.034  11.838 -0.6162  0.7132 -0.2947
  737TMC3    C810952   4.693   1.440  12.059  0.0966  0.4933  0.0872
  737TMC3    O110953   4.684   0.914  11.833  0.0304 -0.3799 -0.1161
  737TMC3    O210954   0.026   1.500  12.146 -1.1550  0.2417  0.8938
  738MPD2     C10955   0.545   0.377  15.240  0.0315  0.7021 -0.0062
  738MPD2    C110956   0.513   0.295  15.133 -0.1800  0.7997  0.2075
  738MPD2    C210957   0.568   0.327  15.013  0.2963  0.1348  0.7869
  738MPD2    C310958   0.672   0.421  15.002  0.1165  0.6861 -0.5308
  738MPD2    C410959   0.708   0.495  15.111 -0.6067 -0.1131 -0.1501
  738MPD2    C510960   0.651   0.468  15.236  0.0357  0.3395  0.6685
  738MPD2     H10961   0.558   0.259  14.929 -1.4791  1.0150  0.2842
  738MPD2    H110962   0.775   0.580  15.100 -0.2330 -0.5651 -1.4337
  738MPD2    H210963   0.497   0.370  15.337 -1.8002 -1.3079 -1.0581
  738MPD2    H310964   0.670   0.528  15.324 -0.3155  0.9650  0.3226
  738MPD2     N10965   0.751   0.440  14.887 -0.2043  0.0137 -0.1084
  738MPD2    H510966   0.816   0.518  14.888  0.5491 -0.5770 -3.4997
  738MPD2    N110967   0.408   0.202  15.135 -0.0924  0.4063 -0.6546
  738MPD2    H710968   0.393   0.162  15.043  0.9186  0.8795 -1.0230
  739TMC3    C110969   0.877   0.378  14.708 -0.3021  0.3103 -0.1535
  739TMC3    C210970   0.866   0.346  14.577  0.0828 -0.2513  0.1749
  739TMC3    C310971   0.978   0.366  14.502 -0.0875 -0.9505 -0.0919
  739TMC3    C410972   0.996   0.401  14.774  0.3397  0.8085 -0.4055
  739TMC3    C510973   1.101   0.423  14.690  0.7395  0.4588  0.4819
  739TMC3    C610974   1.091   0.417  14.554  0.0696  0.6062  0.5930
  739TMC3     C10975   0.755   0.362  14.781  0.1677 -0.2797  0.1544
  739TMC3     O10976   0.679   0.274  14.745 -0.2454  0.4285  0.3662
  739TMC3     H10977   0.771   0.322  14.529  0.2346  0.4482 -0.4700
  739TMC3    H110978   1.003   0.419  14.881 -2.4593 -1.3512  0.1597
  739TMC3    H210979   1.178   0.430  14.491 -0.6020  1.2684 -0.2081
  739TMC3    C710980   1.228   0.464  14.761  0.5912  0.3457  0.5172
  739TMC3    C810981   0.954   0.393  14.362 -0.0750  0.2205 -0.0712
  739TMC3    O110982   1.284   0.571  14.734 -0.1834 -0.4787  0.3420
  739TMC3    O210983   0.857   0.344  14.306  0.3418 -0.3516  0.6278
  740TMC3    C110984   0.724   1.474  14.225 -0.4890 -0.4367  0.2968
  740TMC3    C210985   0.691   1.339  14.228 -0.1067 -0.0790 -0.3393
  740TMC3    C310986   0.769   1.256  14.142  0.0248 -0.6393 -0.1209
  740TMC3    C410987   0.817   1.528  14.142 -0.2129 -0.1631 -0.0074
  740TMC3    C510988   0.887   1.439  14.057 -0.2965 -0.3178 -0.1209
  740TMC3    C610989   0.861   1.302  14.052  0.1954 -0.3111 -0.2342
  740TMC3     C10990   0.648   1.563  14.308  0.2410  0.6747 -0.7917
  740TMC3     O10991   0.618   1.673  14.262 -0.1112 -0.0171  0.6010
  740TMC3     H10992   0.628   1.293  14.302  1.6250 -0.6014  0.8096
  740TMC3    H110993   0.837   1.633  14.125  0.1458 -0.4266 -1.2213
  740TMC3    H210994   0.914   1.234  13.987  0.2727  0.6994 -1.2256
  740TMC3    C710995   0.952   1.498  13.940  0.2571 -0.1277 -0.5204
  740TMC3    C810996   0.738   1.113  14.138 -0.3740  0.0159 -0.1936
  740TMC3    O110997   0.942   1.620  13.925 -0.2384  0.2806 -0.0556
  740TMC3    O210998   0.712   1.063  14.246 -0.2793  0.6500  0.4130
  741TMC3    C110999   0.196   1.327  13.642 -1.0153 -0.6168 -0.7577
  741TMC3    C211000   0.193   1.198  13.695  0.5471 -0.2313 -0.1080
  741TMC3    C311001   0.296   1.175  13.787  0.2763 -0.1506 -0.4101
  741TMC3    C411002   0.293   1.415  13.662  0.4881 -0.4986  0.5636
  741TMC3    C511003   0.403   1.378  13.734 -0.7174 -0.4971 -0.6171
  741TMC3    C611004   0.404   1.258  13.803  0.4849  0.0401  0.1734
  741TMC3     C11005   0.093   1.369  13.553 -0.3045  0.5219  0.2517
  741TMC3     O11006   0.095   1.485  13.519  0.1279  0.1603  0.0025
  741TMC3     H11007   0.117   1.124  13.673  0.2210  0.1831 -0.3708
  741TMC3    H111008   0.287   1.507  13.605  1.1411  0.3665  1.9074
  741TMC3    H211009   0.484   1.232  13.872  0.7622 -0.2675 -0.2597
  741TMC3    C711010   0.490   1.480  13.793 -0.3963  0.2755  0.6636
  741TMC3    C811011   0.289   1.046  13.854  0.1853  0.2393  0.5331
  741TMC3    O111012   0.605   1.452  13.829  0.0613  0.1362  0.0950
  741TMC3    O211013   0.205   0.965  13.822 -0.0558 -0.7103 -0.2866
  742TMC3    C111014   0.517   3.811  15.210  0.7436  0.0584  0.6401
  742TMC3    C211015   0.425   3.814  15.114  0.1433  0.2683 -0.1647
  742TMC3    C311016   0.447   3.729  15.006  0.3815  0.0104  0.2883
  742TMC3    C411017   0.633   3.741  15.204 -0.1665 -0.6024 -0.2567
  742TMC3    C511018   0.660   3.669  15.087  0.6519  0.0326 -0.9627
  742TMC3    C611019   0.557   3.652  14.997  0.3788  0.4332  0.8741
  742TMC3     C11020   0.511   3.917  15.305 -0.6005 -0.5466 -0.4483
  742TMC3     O11021   0.550   3.892  15.418  0.4606  0.3968 -0.1874
  742TMC3     H11022   0.352   3.894  15.116  0.4354  0.5420 -0.4299
  742TMC3    H111023   0.710   3.767  15.276  0.2158 -1.3020 -0.4110
  742TMC3    H211024   0.564   3.597  14.904 -2.3338  0.0256  0.8876
  742TMC3    C711025   0.760   3.573  15.088  0.1838 -0.7032 -0.1232
  742TMC3    C811026   0.344   3.724  14.895 -0.8881 -0.1972 -0.1597
  742TMC3    O111027   0.800   3.536  14.975 -0.3519 -0.3384 -0.1686
  742TMC3    O211028   0.374   3.671  14.791 -0.1466  0.2167  0.2755
  743MPD2     C11029   2.988   0.315   1.746 -0.5078 -0.0872  0.6523
  743MPD2    C111030   3.077   0.274   1.652  0.5643  0.3008 -1.7549
  743MPD2    C211031   3.208   0.300   1.680  0.4428 -0.0692  0.2616
  743MPD2    C311032   3.252   0.372   1.789  0.2198 -0.0963 -0.6062
  743MPD2    C411033   3.165   0.404   1.891  0.3550 -0.7821  0.4312
  743MPD2    C511034   3.033   0.369   1.868  0.1149  0.0388 -0.6140
  743MPD2     H11035   3.285   0.280   1.607  1.3249  0.0812  1.1424
  743MPD2    H111036   3.187   0.436   1.992 -2.7049 -2.5842  1.6525
  743MPD2    H211037   2.881   0.304   1.727 -0.8458 -0.2432  2.6688
  743MPD2    H311038   2.953   0.388   1.940  0.7903  0.5084  0.0113
  743MPD2     N11039   3.392   0.387   1.807 -0.1508  0.5787 -0.1925
  743MPD2    H511040   3.453   0.351   1.734  1.6029  1.1896  0.9686
  743MPD2    N111041   3.033   0.217   1.531 -0.1479  0.1427  0.4155
  743MPD2    H711042   2.934   0.230   1.517 -0.3254 -0.2859  1.2527
  744TMC3    C111043   3.046   0.137   1.317 -0.2943 -0.0052  1.0874
  744TMC3    C211044   2.932   0.203   1.275 -0.3936 -0.1704  0.1951
  744TMC3    C311045   2.885   0.176   1.148 -1.0797  0.2419 -0.6199
  744TMC3    C411046   3.116   0.053   1.235  0.0929  1.1304 -0.6751
  744TMC3    C511047   3.055   0.025   1.119 -0.0769  0.0783 -0.2297
  744TMC3    C611048   2.942   0.081   1.070  0.4732 -0.1934 -1.5813
  744TMC3     C11049   3.110   0.158   1.437  0.1841  0.4590 -0.0620
  744TMC3     O11050   3.226   0.119   1.453 -0.8572  0.0848  0.2528
  744TMC3     H11051   2.886   0.276   1.340 -0.5359 -0.4673  0.4243
  744TMC3    H111052   3.202   4.734   1.270  0.3353  1.0562 -1.3854
  744TMC3    H211053   2.910   0.064   0.967 -2.8149  1.0279 -0.7503
  744TMC3    C711054   3.154   4.715   1.029 -0.8336  0.0916  0.5616
  744TMC3    C811055   2.781   0.266   1.093  0.6135 -0.2962  0.6643
  744TMC3    O111056   3.273   4.734   1.051  0.7919  0.1912  0.0935
  744TMC3    O211057   2.752   0.358   1.165 -0.3357  0.0005 -0.4114
  745TMC3    C111058   1.252   3.078  13.216  0.6564  0.1251  0.1563
  745TMC3    C211059   1.130   3.040  13.268  0.9153 -0.0784  0.0507
  745TMC3    C311060   1.022   3.037  13.179 -0.0755 -0.9212  0.1821
  745TMC3    C411061   1.263   3.124  13.087 -0.1446 -0.6113 -0.5144
  745TMC3    C511062   1.148   3.122  13.010  0.0309  0.5163 -0.3069
  745TMC3    C611063   1.032   3.066  13.047 -0.5473  0.5915  0.8701
  745TMC3     C11064   1.367   3.102  13.300  0.5714 -0.5212  0.3913
  745TMC3     O11065   1.365   3.056  13.416  0.8423 -0.5731 -0.0461
  745TMC3     H11066   1.118   3.025  13.375  0.1635 -0.2326 -0.0561
  745TMC3    H111067   1.361   3.142  13.044 -0.5653  2.3708 -0.1981
  745TMC3    H211068   0.947   3.086  12.983  1.2533  2.2149 -1.0051
  745TMC3    C711069   1.141   3.210  12.898 -0.0856  0.1930 -1.1295
  745TMC3    C811070   0.902   3.098  13.237  0.5046 -0.0089 -0.3383
  745TMC3    O111071   1.065   3.186  12.809 -0.4408 -0.4680 -0.8669
  745TMC3    O211072   0.797   3.053  13.191  0.1714  0.2590  0.0446
  746TMC3    C111073   3.477   0.931  10.837  0.8324 -0.8594  0.6162
  746TMC3    C211074   3.468   0.917  10.702  0.1951 -0.0933  0.8313
  746TMC3    C311075   3.431   0.797  10.652  0.4374  0.1928 -0.1699
  746TMC3    C411076   3.438   0.830  10.916 -0.2585  0.3245  0.4262
  746TMC3    C511077   3.396   0.712  10.867 -0.3783 -0.1459 -0.6704
  746TMC3    C611078   3.398   0.684  10.729 -0.3699  0.0913 -0.4379
  746TMC3     C11079   3.474   1.064  10.896 -0.9011 -0.0195 -0.3518
  746TMC3     O11080   3.436   1.069  11.014  0.2399 -0.1300  0.0242
  746TMC3     H11081   3.474   1.003  10.638  2.9913  0.0326  1.2503
  746TMC3    H111082   3.440   0.844  11.023  1.2757  0.3366  0.4062
  746TMC3    H211083   3.371   0.584  10.697 -0.7454  0.2399 -0.5924
  746TMC3    C711084   3.302   0.644  10.957 -0.1546  0.5215  0.6552
  746TMC3    C811085   3.414   0.783  10.511  0.0492 -0.7158 -0.2570
  746TMC3    O111086   3.284   0.690  11.069 -0.3031  0.0674 -0.0011
  746TMC3    O211087   3.356   0.677  10.483  0.0010 -0.0081  0.2910
  747TMC3    C111088   0.116   1.341  10.852 -0.6231 -0.0183 -0.0642
  747TMC3    C211089   0.009   1.350  10.939  0.2471 -0.2531 -0.2738
  747TMC3    C311090   0.038   1.372  11.070 -0.0552 -0.2239 -1.0242
  747TMC3    C411091   0.245   1.366  10.887 -0.2602 -0.3723  0.2105
  747TMC3    C511092   0.270   1.385  11.020 -0.5818  0.2216 -0.1693
  747TMC3    C611093   0.170   1.397  11.109  0.3205 -0.1856 -0.7361
  747TMC3     C11094   0.086   1.315  10.710  0.3614  0.4592 -0.2209
  747TMC3     O11095   4.709   1.305  10.674  0.3251  0.2690  0.3323
  747TMC3     H11096   4.647   1.313  10.913  0.8608 -2.7489  0.9775
  747TMC3    H111097   0.320   1.384  10.811 -1.5276 -0.0506 -0.9731
  747TMC3    H211098   0.193   1.412  11.214 -0.6468  0.9081 -0.6857
  747TMC3    C711099   0.396   1.452  11.052  0.3530  0.5467  0.2374
  747TMC3    C811100   4.677   1.316  11.156 -0.0409 -0.0188 -0.1856
  747TMC3    O111101   0.389   1.533  11.142 -0.1094  0.6159  0.2869
  747TMC3    O211102   4.563   1.304  11.115  0.1673 -0.3827  1.0140
  748MPD2     C11103   2.408   1.492   1.102 -0.1822  0.4406 -0.0714
  748MPD2    C111104   2.437   1.433   1.225 -0.0825 -0.1281 -0.3049
  748MPD2    C211105   2.562   1.374   1.242  0.1283 -0.8586 -0.0156
  748MPD2    C311106   2.662   1.394   1.149 -0.4505  0.8866 -0.2407
  748MPD2    C411107   2.635   1.471   1.040 -0.4849 -0.1272 -0.0441
  748MPD2    C511108   2.510   1.514   1.010  0.8119  0.0751  0.2367
  748MPD2     H11109   2.583   1.309   1.326 -1.3026  0.6637  1.5254
  748MPD2    H111110   2.707   1.496   0.964  1.3259  0.2999  1.8105
  748MPD2    H211111   2.310   1.531   1.078 -1.4297 -1.6384  1.6925
  748MPD2    H311112   2.487   1.572   0.921  3.0472 -1.8646 -1.6190
  748MPD2     N11113   2.782   1.332   1.172  0.1638 -0.0125  0.0584
  748MPD2    H511114   2.782   1.276   1.257 -0.8870 -0.4655 -0.2401
  748MPD2    N111115   2.334   1.440   1.319  0.0797  0.3829  0.5115
  748MPD2    H711116   2.249   1.479   1.280  0.8365  1.1636 -0.3519
  749TMC3    C111117   3.015   1.286   1.144  0.0159  0.3718  0.1459
  749TMC3    C211118   3.020   1.246   1.276  0.4452 -0.2153 -0.1572
  749TMC3    C311119   3.148   1.228   1.326 -0.3196 -0.7297  0.3546
  749TMC3    C411120   3.134   1.294   1.071 -0.8120  0.5228  0.2954
  749TMC3    C511121   3.250   1.267   1.118 -0.0583  0.3993  0.2511
  749TMC3    C611122   3.262   1.233   1.255 -0.7159 -0.0294 -0.6735
  749TMC3     C11123   2.893   1.345   1.090 -0.2603 -0.0974  0.2315
  749TMC3     O11124   2.907   1.390   0.982 -0.0126  0.1064  0.4887
  749TMC3     H11125   2.948   1.247   1.357 -0.6952  2.2259 -1.1741
  749TMC3    H111126   3.139   1.320   0.966 -0.7110 -0.9231 -0.0577
  749TMC3    H211127   3.354   1.200   1.303  0.4426  0.0878 -2.8056
  749TMC3    C711128   3.361   1.329   1.042  0.7506 -0.1847  0.1398
  749TMC3    C811129   3.146   1.169   1.458 -0.3417  0.3272  0.0704
  749TMC3    O111130   3.336   1.436   0.986  0.2406  0.5841  0.4540
  749TMC3    O211131   3.079   1.216   1.545 -0.0594  0.1217  0.0782
  750MPD2     C11132   2.832   3.249  11.732 -0.4766  0.3655  0.0826
  750MPD2    C111133   2.806   3.117  11.749 -0.4104  0.1451 -0.5151
  750MPD2    C211134   2.880   3.014  11.683 -0.1825  0.2971  0.1666
  750MPD2    C311135   2.989   3.052  11.604 -0.6184  1.1277  0.0667
  750MPD2    C411136   3.017   3.188  11.590 -0.2625 -0.3072  0.2607
  750MPD2    C511137   2.938   3.287  11.659  0.2383 -0.5748 -0.2098
  750MPD2     H11138   2.855   2.909  11.697  0.0838  0.2077 -0.0110
  750MPD2    H111139   3.106   3.216  11.534 -1.3305 -1.0695 -1.8083
  750MPD2    H211140   2.787   3.329  11.790 -0.2741 -0.2865  1.1411
  750MPD2    H311141   2.962   3.392  11.640  0.2558 -0.4405  0.5578
  750MPD2     N11142   3.066   2.958  11.530 -0.5236  0.6335 -0.4767
  750MPD2    H511143   3.104   2.999  11.445 -0.9182  0.9593 -0.4944
  750MPD2    N111144   2.698   3.095  11.841 -0.0134  0.6633 -0.5249
  750MPD2    H711145   2.653   3.183  11.867  0.2949  0.7347 -0.2167
  751TMC3    C111146   3.096   2.731  11.448  0.3587  0.0947 -0.0439
  751TMC3    C211147   3.138   2.606  11.478 -0.6206  0.0992 -0.1815
  751TMC3    C311148   3.170   2.520  11.374 -0.5885  0.2768  0.7894
  751TMC3    C411149   3.100   2.779  11.318  0.0370 -0.2054  0.0062
  751TMC3    C511150   3.156   2.703  11.224 -0.0397 -0.0571  0.5780
  751TMC3    C611151   3.179   2.569  11.247 -0.3945  0.4010  0.3778
  751TMC3     C11152   3.071   2.825  11.563  0.2454 -0.1078 -0.1126
  751TMC3     O11153   3.055   2.775  11.673  0.2735 -0.3428 -0.5959
  751TMC3     H11154   3.136   2.583  11.584 -3.1086  1.0427 -0.0155
  751TMC3    H111155   3.057   2.874  11.287  1.3807  0.8378  1.3364
  751TMC3    H211156   3.209   2.500  11.169 -1.7520  0.0992  0.1208
  751TMC3    C711157   3.129   2.763  11.093 -0.1656  0.3228  0.3042
  751TMC3    C811158   3.152   2.380  11.390  0.6988  0.0574  0.0127
  751TMC3    O111159   3.176   2.873  11.059 -0.5538  0.1029 -0.2176
  751TMC3    O211160   3.201   2.303  11.307 -0.0930  0.3384 -0.2843
  752TMC3    C111161   2.101   2.471  17.467  0.5918  0.0450 -1.1580
  752TMC3    C211162   2.133   2.365  17.552  0.0511 -0.0915  0.1492
  752TMC3    C311163   2.033   2.303  17.620  0.0878 -0.6508 -0.4684
  752TMC3    C411164   1.976   2.528  17.470 -0.2450 -0.1881 -0.1205
  752TMC3    C511165   1.881   2.459  17.543  0.3646  0.0845 -0.0855
  752TMC3    C611166   1.906   2.353  17.618 -0.8055 -0.8021 -0.4720
  752TMC3     C11167   2.189   2.488  17.355  0.3551 -0.0153 -0.2536
  752TMC3     O11168   2.304   2.451  17.369  0.7255  0.2281 -0.2598
  752TMC3     H11169   2.234   2.324  17.552  0.5991  1.2487  2.1230
  752TMC3    H111170   1.947   2.612  17.407  1.6383 -0.2901 -1.1094
  752TMC3    H211171   1.838   2.286  17.670  0.1200 -0.2116  1.4896
  752TMC3    C711172   1.754   2.518  17.562 -1.2193 -1.1045 -0.1065
  752TMC3    C811173   2.039   2.168  17.683 -0.3793  0.6244 -0.8007
  752TMC3    O111174   1.718   2.615  17.501 -0.1551  0.3058 -0.2530
  752TMC3    O211175   1.941   2.091  17.675 -0.3436 -0.2413 -0.1423
  753TMC3    C111176   3.870   3.675  13.582  0.0776 -0.3628 -0.3459
  753TMC3    C211177   3.891   3.677  13.719 -0.3681  0.0439 -0.6550
  753TMC3    C311178   3.887   3.563  13.788 -0.2953 -0.2163 -0.3382
  753TMC3    C411179   3.857   3.558  13.509  0.0422 -0.1757  0.3835
  753TMC3    C511180   3.874   3.444  13.581  0.1372 -0.1269  0.0853
  753TMC3    C611181   3.881   3.444  13.721  0.3042 -0.1017 -0.3700
  753TMC3     C11182   3.845   3.797  13.505  0.2459  0.6718  0.3873
  753TMC3     O11183   3.811   3.788  13.388  0.3423 -0.1107  0.0937
  753TMC3     H11184   3.917   3.768  13.772  0.4921  0.2773 -1.4705
  753TMC3    H111185   3.844   3.556  13.401 -0.2074  0.4690  0.3997
  753TMC3    H211186   3.896   3.352  13.775  1.1627 -0.0820 -0.5828
  753TMC3    C711187   3.852   3.313  13.525 -0.3126 -0.0774  0.4194
  753TMC3    C811188   3.939   3.561  13.919 -0.4705 -0.1251  0.7772
  753TMC3    O111189   3.834   3.227  13.607  0.1809  0.3233  0.0557
  753TMC3    O211190   3.885   3.477  13.993  0.4466  0.2930 -0.3022
  754MPD2     C11191   2.673   2.559  13.120 -0.4405 -0.1699 -0.0659
  754MPD2    C111192   2.643   2.422  13.114 -0.2975 -0.0961 -0.1799
  754MPD2    C211193   2.511   2.380  13.093 -0.4429  0.5754 -0.8350
  754MPD2    C311194   2.410   2.469  13.092  0.8057 -0.2246  0.3346
  754MPD2    C411195   2.437   2.605  13.109 -0.2035 -0.4639 -0.8244
  754MPD2    C511196   2.567   2.645  13.116 -0.3569  0.6820  0.3563
  754MPD2     H11197   2.494   2.274  13.077  1.7818 -0.0095  0.7161
  754MPD2    H111198   2.354   2.674  13.114 -0.5686 -0.8648 -1.3425
  754MPD2    H211199   2.771   2.604  13.133 -0.4109  0.0887 -1.1860
  754MPD2    H311200   2.585   2.751  13.134 -2.8613  0.9238  1.3106
  754MPD2     N11201   2.270   2.423  13.082  0.6612 -0.1240 -0.1611
  754MPD2    H511202   2.197   2.493  13.077  0.4459 -0.3165  0.3388
  754MPD2    N111203   2.762   2.336  13.124 -0.4689 -0.2363  0.4637
  754MPD2    H711204   2.855   2.375  13.121 -1.0151  0.8967 -2.2500
  755MPD2     C11205   1.769   2.909  13.493 -0.1770  0.1737  0.2289
  755MPD2    C111206   1.801   2.806  13.581  0.0553 -0.2793 -0.3347
  755MPD2    C211207   1.840   2.679  13.544  0.3281  0.2206  0.3176
  755MPD2    C311208   1.860   2.655  13.408  0.0691 -0.5219  0.5698
  755MPD2    C411209   1.834   2.759  13.315 -0.1242  0.4048 -0.2834
  755MPD2    C511210   1.782   2.880  13.361 -0.6096  2.1165 -0.5266
  755MPD2     H11211   1.850   2.609  13.626 -1.5718  0.1023  0.4609
  755MPD2    H111212   1.837   2.749  13.207 -2.2868 -1.3099 -0.1810
  755MPD2    H211213   1.727   3.002  13.529  0.3526 -0.2508  1.9415
  755MPD2    H311214   1.743   2.961  13.300 -1.7735  0.6599 -1.7189
  755MPD2     N11215   1.899   2.527  13.354  0.0813 -0.2217  0.0053
  755MPD2    H511216   1.917   2.521  13.254  0.7878 -1.1948  0.1945
  755MPD2    N111217   1.770   2.846  13.716 -0.2884 -0.0748  0.3088
  755MPD2    H711218   1.711   2.927  13.725  0.7767  0.7286  0.0943
  756MPD2     C11219   2.890   3.931   9.938 -0.2029  0.9445 -0.2076
  756MPD2    C111220   2.788   3.933  10.033 -0.2621 -0.7268  0.4598
  756MPD2    C211221   2.655   3.930   9.987 -0.4311 -0.3888  0.2323
  756MPD2    C311222   2.625   3.924   9.852  0.0080  0.9901  0.2850
  756MPD2    C411223   2.733   3.931   9.758 -0.0200 -0.8900  0.1849
  756MPD2    C511224   2.860   3.931   9.804  0.1724  0.0102  0.3243
  756MPD2     H11225   2.574   3.917  10.058  0.6371  2.3164  1.9329
  756MPD2    H111226   2.728   3.936   9.649 -1.7779 -0.5227  0.2922
  756MPD2    H211227   2.995   3.936   9.967 -0.1953  0.5262 -0.1627
  756MPD2    H311228   2.936   3.918   9.728  0.4646  0.5751  0.5191
  756MPD2     N11229   2.492   3.904   9.810 -0.2116  0.2167 -0.3314
  756MPD2    H511230   2.424   3.921   9.884 -0.1537  1.5224 -0.5704
  756MPD2    N111231   2.802   3.930  10.175 -0.0879 -0.3183  0.0976
  756MPD2    H711232   2.720   3.908  10.229 -1.3175  1.2961 -1.1443
  757MPD2     C11233   1.698   3.855  10.223 -0.0087  0.6028  0.3541
  757MPD2    C111234   1.720   3.760  10.130 -0.4432 -0.9057 -0.0061
  757MPD2    C211235   1.829   3.777  10.046 -0.0388  0.0378 -0.5814
  757MPD2    C311236   1.890   3.901  10.029  0.0684 -0.0618 -0.0547
  757MPD2    C411237   1.837   4.008  10.104  0.4254  0.1418  0.1022
  757MPD2    C511238   1.754   3.978  10.203  0.3727 -0.6291 -0.4182
  757MPD2     H11239   1.859   3.706   9.970  0.1815 -0.7795  0.2617
  757MPD2    H111240   1.869   4.109  10.085 -2.8436  0.7874 -2.0520
  757MPD2    H211241   1.616   3.842  10.293  1.8478 -0.5470  2.2977
  757MPD2    H311242   1.716   4.068  10.250  2.8996 -0.3174  1.0462
  757MPD2     N11243   1.987   3.909   9.923 -0.4821 -0.1022 -0.1160
  757MPD2    H511244   2.033   3.825   9.890  1.8918  0.8670  0.7656
  757MPD2    N111245   1.648   3.636  10.135 -0.3275 -0.2529 -0.0309
  757MPD2    H711246   1.586   3.617  10.213  1.4033 -1.2989  1.0925
  758MPD2     C11247   3.105   2.369  15.654 -0.2572 -0.3598  1.1562
  758MPD2    C111248   3.160   2.269  15.730  0.2291  0.0084 -0.1415
  758MPD2    C211249   3.109   2.239  15.851 -0.2048 -0.4167  0.7650
  758MPD2    C311250   3.005   2.309  15.910 -0.0055  0.0219 -0.9290
  758MPD2    C411251   2.944   2.407  15.832  0.7836  0.7321 -0.9371
  758MPD2    C511252   2.987   2.432  15.704 -0.6643  0.0254  0.1888
  758MPD2     H11253   3.159   2.161  15.906  0.8614  0.2655  0.7561
  758MPD2    H111254   2.866   2.470  15.873  0.5175  0.1150 -0.4886
  758MPD2    H211255   3.147   2.401  15.559 -0.5966 -0.8696  0.8314
  758MPD2    H311256   2.938   2.512  15.651 -0.6992  0.6957  1.2243
  758MPD2     N11257   2.961   2.290  16.043  0.6918  0.5976  0.1264
  758MPD2    H511258   2.881   2.346  16.073 -1.0715 -1.7126 -0.3444
  758MPD2    N111259   3.284   2.202  15.693 -0.1738 -0.3553 -0.2075
  758MPD2    H711260   3.342   2.251  15.626 -0.5694  0.4351  0.0252
  759MPD2     C11261   1.617   0.586  11.051  0.1793  0.5932 -0.5481
  759MPD2    C111262   1.612   0.461  10.986 -0.1173 -0.2731  1.0075
  759MPD2    C211263   1.711   0.432  10.892 -1.3068 -0.0696 -0.8456
  759MPD2    C311264   1.808   0.526  10.861 -0.6766  0.0466 -0.0564
  759MPD2    C411265   1.799   0.652  10.913  0.6447  0.0505 -0.5258
  759MPD2    C511266   1.714   0.682  11.013  0.1591 -0.3057 -0.6476
  759MPD2     H11267   1.702   0.338  10.838  0.0597  0.7952 -2.5878
  759MPD2    H111268   1.853   0.735  10.870 -0.2404  0.3973 -0.9647
  759MPD2    H211269   1.541   0.611  11.124  1.6252  1.9151  0.5243
  759MPD2    H311270   1.726   0.775  11.067 -2.4067 -2.3529  3.4507
  759MPD2     N11271   1.893   0.486  10.754  0.0918 -0.3338 -0.3344
  759MPD2    H511272   1.876   0.391  10.725 -0.6066 -0.6026  0.9271
  759MPD2    N111273   1.495   0.388  10.985 -0.7179 -0.1490  0.9169
  759MPD2    H711274   1.495   0.298  10.938 -0.6976 -0.4404  1.4743
  760MPD2     C11275   0.492   2.400  11.852  0.1524  0.0519  0.4111
  760MPD2    C111276   0.618   2.439  11.896  1.0140 -0.4029  0.4041
  760MPD2    C211277   0.715   2.347  11.926 -1.2806  0.2048 -0.0082
  760MPD2    C311278   0.698   2.213  11.900 -0.4698  0.0873 -0.0802
  760MPD2    C411279   0.574   2.176  11.856  0.5113 -0.5745 -0.4295
  760MPD2    C511280   0.478   2.266  11.822 -0.9833 -0.0064 -0.1049
  760MPD2     H11281   0.811   2.379  11.967 -1.2143  1.0337 -0.7962
  760MPD2    H111282   0.545   2.072  11.849 -2.1592  0.1405 -0.0702
  760MPD2    H211283   0.407   2.466  11.847 -1.1458 -1.6269  0.1562
  760MPD2    H311284   0.379   2.234  11.791 -1.0620 -1.6674  1.9014
  760MPD2     N11285   0.794   2.121  11.946  0.2127 -0.3437 -0.7003
  760MPD2    H511286   0.774   2.023  11.928  0.3465 -0.5910  0.4555
  760MPD2    N111287   0.663   2.568  11.930 -0.1521 -0.4555  0.2606
  760MPD2    H711288   0.746   2.575  11.987 -0.7920  0.9639  1.0334
  761MPD2     C11289   2.853   1.995  11.544 -0.0133  0.2235 -0.3471
  761MPD2    C111290   2.927   2.018  11.427 -0.3989  0.2178 -0.2819
  761MPD2    C211291   2.989   2.136  11.415  0.3101 -0.3981  0.2505
  761MPD2    C311292   2.989   2.233  11.510  0.3660  0.3473 -0.3338
  761MPD2    C411293   2.922   2.204  11.624 -0.6712 -0.6943  0.4761
  761MPD2    C511294   2.861   2.086  11.637 -0.1746 -0.1346  0.1545
  761MPD2     H11295   3.017   2.156  11.312  0.6877 -1.2534  0.1916
  761MPD2    H111296   2.924   2.267  11.712  2.0254  0.2252 -0.2210
  761MPD2    H211297   2.801   1.901  11.559 -0.5530  1.0642  3.1173
  761MPD2    H311298   2.811   2.066  11.731 -1.5752  1.1290 -0.3164
  761MPD2     N11299   3.072   2.347  11.497  0.5086  0.0126  0.1883
  761MPD2    H511300   3.059   2.417  11.570  2.4412 -0.7186  1.2347
  761MPD2    N111301   2.906   1.920  11.328  0.4484  0.3795 -0.3762
  761MPD2    H711302   2.846   1.842  11.354  1.8392 -0.2240  1.0328
  762MPD2     C11303   3.134   1.216  10.790  0.6860  0.2278 -0.0177
  762MPD2    C111304   3.133   1.354  10.777  0.1991 -0.0367 -0.3144
  762MPD2    C211305   3.178   1.415  10.660  0.4186  0.1304  0.7367
  762MPD2    C311306   3.217   1.335  10.555 -0.3806  0.7897 -0.9060
  762MPD2    C411307   3.221   1.197  10.568 -0.3261  0.2014  0.7125
  762MPD2    C511308   3.173   1.140  10.683 -0.5685 -0.2896 -0.2270
  762MPD2     H11309   3.172   1.520  10.634 -0.3394 -0.2742 -0.7007
  762MPD2    H111310   3.261   1.134  10.489 -0.5881  3.3477 -1.8964
  762MPD2    H211311   3.090   1.168  10.877  1.6861  1.0772  0.9603
  762MPD2    H311312   3.169   1.032  10.686 -0.5696 -0.3350 -1.8725
  762MPD2     N11313   3.244   1.397  10.432  0.6545 -0.5504  0.5976
  762MPD2    H511314   3.273   1.494  10.427 -0.0730 -0.4181 -1.0096
  762MPD2    N111315   3.069   1.426  10.885 -0.2306 -0.0884  0.1406
  762MPD2    H711316   3.030   1.373  10.962 -2.2695  0.6793 -0.3666
  763MPD2     C11317   4.490   1.881  16.383  0.5528  0.1535 -0.7630
  763MPD2    C111318   4.508   1.972  16.278 -0.3697  0.2355 -0.3566
  763MPD2    C211319   4.524   2.106  16.307 -0.2393  0.2505 -0.5403
  763MPD2    C311320   4.534   2.152  16.437  0.3805 -0.3821  0.1339
  763MPD2    C411321   4.533   2.060  16.542 -0.3056 -0.0317  0.2861
  763MPD2    C511322   4.498   1.927  16.517 -0.2083  0.0280  0.0060
  763MPD2     H11323   4.525   2.174  16.223 -1.3863 -0.0717 -0.8054
  763MPD2    H111324   4.532   2.083  16.648  0.1262  0.8205  0.1082
  763MPD2    H211325   4.487   1.773  16.379  0.6810  0.0583  2.0338
  763MPD2    H311326   4.509   1.845  16.587 -3.5864  0.0590  0.5940
  763MPD2     N11327   4.576   2.285  16.456 -0.3941 -0.0635  0.0474
  763MPD2    H511328   4.596   2.343  16.376 -4.9296  2.7847  0.9686
  763MPD2    N111329   4.505   1.937  16.142 -0.1409 -0.2687 -0.2811
  763MPD2    H711330   4.519   2.009  16.072 -0.2798  0.3205  0.3038
  764MPD2     C11331   3.620   3.854  17.741 -0.5951  0.1270 -0.5779
  764MPD2    C111332   3.531   3.776  17.663  0.9116  0.1801  0.6867
  764MPD2    C211333   3.454   3.679  17.724 -0.9603 -0.4250  0.1719
  764MPD2    C311334   3.469   3.649   0.113 -0.6366 -0.4168  0.2874
  764MPD2    C411335   3.553   3.726   0.186  0.1027 -0.3747 -0.0499
  764MPD2    C511336   3.620   3.829   0.129 -0.9217  0.9263  0.1228
  764MPD2     H11337   3.393   3.616  17.659 -0.1721  0.3473 -1.3269
  764MPD2    H111338   3.572   3.708   0.291 -4.0061  0.0166  0.7327
  764MPD2    H211339   3.677   3.930  17.689 -0.1059 -0.1083 -0.3783
  764MPD2    H311340   3.682   3.889   0.195 -1.2333 -0.7111  1.8930
  764MPD2     N11341   3.383   3.545   0.166  0.2080  0.3852 -0.2575
  764MPD2    H511342   3.326   3.500   0.095  0.1065 -0.4294  0.3404
  764MPD2    N111343   3.526   3.779  17.521  0.0127 -0.2741 -0.0936
  764MPD2    H711344   3.473   3.704  17.477 -3.4860  2.9739 -1.3968
  765MPD2     C11345   3.100   1.328  15.012  0.4894  0.2873  0.4049
  765MPD2    C111346   3.114   1.376  15.141  0.9842  0.0765  0.5896
  765MPD2    C211347   3.215   1.314  15.222 -0.5968 -0.8910 -0.1348
  765MPD2    C311348   3.305   1.222  15.176  0.2503 -0.9708 -0.2966
  765MPD2    C411349   3.288   1.180  15.048 -0.5023 -0.7266 -0.0653
  765MPD2    C511350   3.191   1.230  14.968  0.3396 -0.1311  0.4698
  765MPD2     H11351   3.215   1.338  15.328 -2.7182 -1.9414  0.0977
  765MPD2    H111352   3.354   1.114  14.992 -0.8621 -0.8969 -0.2906
  765MPD2    H211353   3.035   1.375  14.938  0.9700  2.1979  1.1812
  765MPD2    H311354   3.189   1.196  14.865 -0.2758 -0.6523  0.6536
  765MPD2     N11355   3.394   1.167  15.272 -0.3870 -0.0001  0.1840
  765MPD2    H511356   3.383   1.204  15.366  2.3827  0.8035  0.2110
  765MPD2    N111357   3.025   1.462  15.198  1.1414  0.6038 -0.2441
  765MPD2    H711358   2.932   1.471  15.159  1.3279 -2.5056 -1.4357
  766MPD2     C11359   2.355   1.617  15.234 -0.4440  0.2143  0.3870
  766MPD2    C111360   2.483   1.618  15.184  0.7357  0.4062 -0.6466
  766MPD2    C211361   2.503   1.603  15.053  0.3171  0.3451 -0.5262
  766MPD2    C311362   2.391   1.580  14.971  0.3596  0.7338  0.2899
  766MPD2    C411363   2.265   1.590  15.021  0.1254  1.4169 -0.6662
  766MPD2    C511364   2.242   1.608  15.157  0.8896  1.0694  0.2231
  766MPD2     H11365   2.603   1.611  15.014  1.1639  0.0785  1.6127
  766MPD2    H111366   2.188   1.571  14.947 -0.2424  2.9545 -0.6647
  766MPD2    H211367   2.338   1.621  15.341  0.0097 -2.0106  0.5442
  766MPD2    H311368   2.141   1.622  15.194  1.4190  1.4504  1.5133
  766MPD2     N11369   2.402   1.563  14.830 -0.2915  0.8134  0.2200
  766MPD2    H511370   2.320   1.576  14.772 -0.9757 -0.8616  0.8037
  766MPD2    N111371   2.602   1.622  15.261  0.3171 -0.0873 -0.6366
  766MPD2    H711372   2.686   1.588  15.215  0.9890  0.4389  0.2049
  767MPD2     C11373   2.000   1.901  14.953  0.5592 -0.3699  0.0437
  767MPD2    C111374   2.107   1.930  14.876  0.7091 -0.0106 -0.3714
  767MPD2    C211375   2.095   1.925  14.741 -0.3751 -0.1865 -0.5552
  767MPD2    C311376   1.978   1.892  14.681  0.0264  0.3578 -0.4470
  767MPD2    C411377   1.869   1.853  14.761  0.8625  0.2100 -0.1010
  767MPD2    C511378   1.881   1.864  14.899 -0.0556 -0.5064 -0.3293
  767MPD2     H11379   2.176   1.953  14.676  1.4004  1.3492  2.3135
  767MPD2    H111380   1.777   1.808  14.726 -0.3797  1.8789  1.0697
  767MPD2    H211381   1.995   1.909  15.061  1.1972  0.5144  0.0020
  767MPD2    H311382   1.805   1.825  14.965 -1.0762  0.2980 -1.0401
  767MPD2     N11383   1.978   1.887  14.540 -0.6436  0.4055  0.8373
  767MPD2    H511384   2.067   1.898  14.492 -0.3419 -3.7806  0.4098
  767MPD2    N111385   2.227   1.958  14.943 -0.0450 -0.0849  0.3987
  767MPD2    H711386   2.227   1.955  15.045 -0.8184 -1.0887  0.3647
  768MPD2     C11387   2.195   0.421  11.138 -1.2588 -1.0223  0.6744
  768MPD2    C111388   2.319   0.431  11.195 -0.0773 -0.1328 -0.2380
  768MPD2    C211389   2.412   0.333  11.185  0.2706  0.9929  0.7151
  768MPD2    C311390   2.378   0.217  11.131  0.3710 -0.8266 -0.2589
  768MPD2    C411391   2.253   0.199  11.070  0.4423  0.6757 -0.8705
  768MPD2    C511392   2.158   0.303  11.076  0.1000  0.1892  0.2015
  768MPD2     H11393   2.512   0.343  11.226  0.1350 -0.4371  1.3925
  768MPD2    H111394   2.244   0.114  11.002  3.0039 -0.3150  0.0417
  768MPD2    H211395   2.123   0.501  11.125 -0.7079 -0.6535 -0.0863
  768MPD2    H311396   2.059   0.295  11.033  0.5158  2.0179 -1.1154
  768MPD2     N11397   2.474   0.116  11.129  0.7060  0.5059 -0.2415
  768MPD2    H511398   2.562   0.148  11.167  2.0742 -0.1086 -2.8792
  768MPD2    N111399   2.372   0.544  11.258 -0.4189 -0.0700 -0.0925
  768MPD2    H711400   2.473   0.546  11.266 -0.4111 -0.0234 -0.1928
  769MPD2     C11401   3.820   3.337  14.930  0.5313  0.1915 -0.3781
  769MPD2    C111402   3.716   3.424  14.955 -0.0715  0.2434  0.1405
  769MPD2    C211403   3.718   3.503  15.075  0.7574  0.0637  0.2973
  769MPD2    C311404   3.819   3.483  15.171  0.2103  0.0609 -0.5596
  769MPD2    C411405   3.913   3.382  15.143  1.1968 -0.0982 -0.3786
  769MPD2    C511406   3.911   3.308  15.031  0.6777 -0.4589  0.0092
  769MPD2     H11407   3.650   3.587  15.077  0.7867  0.1397 -1.5649
  769MPD2    H111408   3.990   3.342  15.208  0.8032 -0.9769 -0.4591
  769MPD2    H211409   3.842   3.288  14.835 -0.2130  1.6238 -1.2841
  769MPD2    H311410   3.976   3.226  15.001  1.2797 -0.3677  1.0416
  769MPD2     N11411   3.806   3.552  15.292  0.1018 -0.0580 -0.4371
  769MPD2    H511412   3.738   3.627  15.297  1.5639  1.2503 -0.3821
  769MPD2    N111413   3.624   3.435  14.849  0.1762 -0.5111 -0.0464
  769MPD2    H711414   3.623   3.361  14.779  0.2251  0.2135 -0.8079
  770MPD2     C11415   3.377   2.754  15.180 -0.2208 -0.4666 -0.2728
  770MPD2    C111416   3.404   2.748  15.049  0.1175  0.9163  0.3479
  770MPD2    C211417   3.370   2.859  14.972  0.0988 -0.2993  0.5751
  770MPD2    C311418   3.315   2.970  15.024 -0.7231  0.0534 -0.2112
  770MPD2    C411419   3.286   2.978  15.164 -0.6402 -0.4296 -0.4675
  770MPD2    C511420   3.322   2.869  15.237 -0.3966 -0.8131  0.0056
  770MPD2     H11421   3.371   2.854  14.864  0.4441 -0.8166  0.6024
  770MPD2    H111422   3.256   3.065  15.222  2.4115  0.5996 -0.4184
  770MPD2    H211423   3.388   2.674  15.252 -0.4241 -0.0068  0.2622
  770MPD2    H311424   3.286   2.867  15.339  0.6616  0.0545  0.3921
  770MPD2     N11425   3.283   3.070  14.930 -0.3667  0.2399  0.0745
  770MPD2    H511426   3.296   3.046  14.832 -1.8160  0.5326 -0.1846
  770MPD2    N111427   3.462   2.627  14.999  0.1220  0.3307  0.4630
  770MPD2    H711428   3.479   2.550  15.063 -0.0866 -0.3243 -0.2763
  771MPD2     C11429   4.627   1.208  13.948 -0.1837 -0.8143  0.4156
  771MPD2    C111430   4.522   1.212  13.862  0.7954 -0.4070  0.4344
  771MPD2    C211431   4.461   1.100  13.819 -0.1012 -0.9756  0.0910
  771MPD2    C311432   4.520   0.976  13.835  0.6234  1.0520  0.2649
  771MPD2    C411433   4.632   0.967  13.916 -0.1206  0.2834 -0.6316
  771MPD2    C511434   4.682   1.081  13.966  0.5679 -0.4856  0.6082
  771MPD2     H11435   4.373   1.112  13.758 -0.5983  1.2919  1.2443
  771MPD2    H111436   4.672   0.870  13.943 -0.7622  0.6410  1.5925
  771MPD2    H211437   4.678   1.292  13.993 -0.0707 -0.1009 -1.0547
  771MPD2    H311438   0.035   1.081  14.027  0.3680  0.2534  0.9089
  771MPD2     N11439   4.458   0.866  13.782 -0.1088 -0.3505  0.2103
  771MPD2    H511440   4.359   0.870  13.758 -0.2683  0.6895  1.0568
  771MPD2    N111441   4.466   1.339  13.830 -0.4908 -0.0406 -0.0521
  771MPD2    H711442   4.385   1.346  13.769  0.6823 -1.7035 -1.7828
  772MPD2     C11443   3.845   1.425  13.722 -0.6370  0.4218  0.4336
  772MPD2    C111444   3.958   1.378  13.663 -0.1309  0.1469 -0.7435
  772MPD2    C211445   3.953   1.271  13.577  0.5544  0.2640 -0.0240
  772MPD2    C311446   3.826   1.204  13.556 -0.2975  0.1588  1.0456
  772MPD2    C411447   3.710   1.259  13.608 -0.2417 -0.3681  0.1282
  772MPD2    C511448   3.728   1.375  13.688 -0.0830  0.1493  0.6692
  772MPD2     H11449   4.041   1.240  13.523 -0.8632 -0.9932 -1.6253
  772MPD2    H111450   3.612   1.212  13.596  0.4082 -1.4059 -1.1454
  772MPD2    H211451   3.851   1.510  13.788 -0.0939  2.1007 -1.7566
  772MPD2    H311452   3.640   1.407  13.743 -1.3682 -3.0243  0.5029
  772MPD2     N11453   3.810   1.093  13.471  0.3383  0.2318  0.4331
  772MPD2    H511454   3.716   1.064  13.446  0.6060  0.8472 -1.3065
  772MPD2    N111455   4.084   1.441  13.690 -0.3199  0.3285  0.0499
  772MPD2    H711456   4.168   1.387  13.670  0.8005  2.3304 -0.6578
  773MPD2     C11457   3.471   2.050   0.408 -0.4127 -0.2856  0.2211
  773MPD2    C111458   3.448   1.991   0.289  0.4213 -0.0586 -0.4430
  773MPD2    C211459   3.530   1.887   0.248 -0.1956  0.3502  1.3158
  773MPD2    C311460   3.631   1.842   0.325 -0.3512  0.1534 -0.0898
  773MPD2    C411461   3.660   1.907   0.442  0.2165  0.4786 -0.1525
  773MPD2    C511462   3.572   2.007   0.485 -0.1500  0.2345 -0.2533
  773MPD2     H11463   3.503   1.848   0.151 -2.0421 -1.8396  2.6791
  773MPD2    H111464   3.748   1.874   0.495  1.4637  1.4634 -1.6057
  773MPD2    H211465   3.399   2.123   0.444 -1.8475 -2.4966  1.8537
  773MPD2    H311466   3.585   2.053   0.582  0.1957  0.0128 -0.1958
  773MPD2     N11467   3.708   1.729   0.288 -0.2196  0.3749  0.3039
  773MPD2    H511468   3.693   1.695   0.193 -0.0367  1.2810 -0.0408
  773MPD2    N111469   3.341   2.021   0.199 -0.2415  0.2704  0.0010
  773MPD2    H711470   3.323   1.965   0.117 -1.1496  1.2673 -0.4863
  774MPD2     C11471   2.247   1.339  13.199  0.7085  0.6433 -0.6902
  774MPD2    C111472   2.384   1.356  13.195  0.7829  0.2238 -0.4307
  774MPD2    C211473   2.438   1.481  13.180  0.2663 -0.3691 -0.1141
  774MPD2    C311474   2.356   1.595  13.178 -0.5542  0.5625 -0.1928
  774MPD2    C411475   2.222   1.573  13.193  0.2396  0.4460  0.2231
  774MPD2    C511476   2.175   1.452  13.202 -0.1004 -0.1813 -0.6459
  774MPD2     H11477   2.544   1.498  13.163  0.4012 -1.1513 -0.0238
  774MPD2    H111478   2.157   1.659  13.197 -2.1211 -1.3938  1.4287
  774MPD2    H211479   2.191   1.249  13.220  0.1194  1.2156  0.1746
  774MPD2    H311480   2.067   1.449  13.214 -0.2117 -0.4574 -1.6894
  774MPD2     N11481   2.400   1.732  13.169 -0.0175  0.2708  0.4567
  774MPD2    H511482   2.330   1.806  13.176  1.0158  1.1618  1.3135
  774MPD2    N111483   2.461   1.236  13.210 -0.3265 -0.3921  0.0009
  774MPD2    H711484   2.403   1.154  13.227 -1.1753  0.2032  0.0039
  775MPD2     C11485   4.095   3.051  15.676 -0.2034  0.3874  0.4643
  775MPD2    C111486   4.083   3.176  15.732  0.0218  0.1326  0.0677
  775MPD2    C211487   4.183   3.271  15.704  0.0188  0.2347  0.1987
  775MPD2    C311488   4.280   3.250  15.611  0.7692  0.0975 -0.3198
  775MPD2    C411489   4.282   3.131  15.548 -0.7617  0.3186  0.4870
  775MPD2    C511490   4.193   3.032  15.580 -0.7239 -0.0221  0.5421
  775MPD2     H11491   4.170   3.368  15.751 -1.7288  0.3189 -0.4630
  775MPD2    H111492   4.353   3.113  15.468  0.2996 -0.8765  1.7070
  775MPD2    H211493   4.031   2.965  15.694 -2.0471  1.9924  1.5953
  775MPD2    H311494   4.200   2.928  15.549 -2.3031 -0.6949  2.4641
  775MPD2     N11495   4.387   3.341  15.583 -0.0097 -0.1914 -0.0781
  775MPD2    H511496   4.457   3.310  15.517  0.3135  0.2213  0.0689
  775MPD2    N111497   3.983   3.193  15.832 -0.3459  0.2233  0.0976
  775MPD2    H711498   3.929   3.115  15.869  1.1778 -2.0257 -2.4070
  776MPD2     C11499   1.966   3.314  12.248  0.0815 -0.4056 -0.4344
  776MPD2    C111500   2.065   3.306  12.149 -1.1179 -0.3885 -0.2246
  776MPD2    C211501   2.059   3.393  12.042 -0.6648 -0.7788  0.1138
  776MPD2    C311502   1.952   3.484  12.031 -0.3227  0.3727 -0.3224
  776MPD2    C411503   1.848   3.481  12.125 -0.3343 -0.3429 -0.2956
  776MPD2    C511504   1.864   3.399  12.234 -0.4583  0.6952 -0.0102
  776MPD2     H11505   2.130   3.392  11.960  0.3747  0.9885  0.9964
  776MPD2    H111506   1.757   3.539  12.110 -0.8350 -0.8277  0.8997
  776MPD2    H211507   1.966   3.251  12.336  0.5797 -0.0220 -0.1536
  776MPD2    H311508   1.787   3.399  12.310 -2.3418 -0.5439 -1.9379
  776MPD2     N11509   1.932   3.573  11.925 -0.4829 -0.2902  0.2092
  776MPD2    H511510   1.853   3.636  11.934 -0.2528  0.1041 -0.5180
  776MPD2    N111511   2.165   3.202  12.158 -0.0451 -0.1654 -0.3121
  776MPD2    H711512   2.150   3.141  12.238  1.2334 -1.9197 -1.4031
  777MPD2     C11513   4.120   0.580   0.975  0.6251  0.0228 -0.2633
  777MPD2    C111514   4.007   0.521   1.025  0.5951  0.5357  0.3275
  777MPD2    C211515   3.923   0.446   0.943 -0.4520 -0.1130 -0.3903
  777MPD2    C311516   3.950   0.430   0.809  0.7629  0.0363 -0.5428
  777MPD2    C411517   4.059   0.503   0.757  0.1999 -0.3192  0.7834
  777MPD2    C511518   4.139   0.579   0.841 -0.4416  0.4586 -0.3599
  777MPD2     H11519   3.830   0.408   0.982 -1.2734 -0.0141 -2.2504
  777MPD2    H111520   4.092   0.504   0.654 -1.0605 -1.1889  0.3657
  777MPD2    H211521   4.194   0.634   1.033  1.7674 -2.6050  0.7175
  777MPD2    H311522   4.227   0.623   0.797  0.5792 -1.6784 -0.4770
  777MPD2     N11523   3.868   0.350   0.723  0.3656  0.2067 -0.0799
  777MPD2    H511524   3.792   0.299   0.768  0.3185 -0.1284 -0.5311
  777MPD2    N111525   3.984   0.554   1.161  0.1158 -0.9118  0.2010
  777MPD2    H711526   4.045   0.622   1.205  2.3648 -2.9735  0.2779
  778MPD2     C11527   4.512   0.551  15.348 -0.0667 -1.0052  0.0328
  778MPD2    C111528   4.493   0.529  15.213 -0.4368  0.3756  0.1352
  778MPD2    C211529   4.536   0.621  15.119  0.1111  0.2231  0.3774
  778MPD2    C311530   4.603   0.726  15.154  0.0081 -0.2099  0.2787
  778MPD2    C411531   4.613   0.755  15.289 -0.1054  0.6663 -0.4294
  778MPD2    C511532   4.575   0.669  15.386 -0.9840  0.6577  0.0426
  778MPD2     H11533   4.524   0.607  15.012  0.9080  2.8124 -0.0572
  778MPD2    H111534   4.656   0.850  15.319  1.8892 -0.8068  1.4201
  778MPD2    H211535   4.479   0.488  15.430  1.1020 -2.0932 -0.3327
  778MPD2    H311536   4.601   0.684  15.490 -0.0510  0.0907 -0.1051
  778MPD2     N11537   4.643   0.813  15.048  0.8764  0.1607 -0.0588
  778MPD2    H511538   4.624   0.786  14.952 -1.5884 -0.2250  0.5412
  778MPD2    N111539   4.443   0.405  15.160 -0.2433 -0.0255  0.1871
  778MPD2    H711540   4.450   0.395  15.059 -0.7430  0.0056  0.1533
  779MPD2     C11541   4.309   4.571  13.891 -0.0482 -0.1395  0.7849
  779MPD2    C111542   4.413   4.577  13.979  0.5293 -0.0772 -0.0184
  779MPD2    C211543   4.469   4.702  14.011 -0.0835 -0.2712 -0.1086
  779MPD2    C311544   4.424   0.082  13.946  0.0114 -0.2440 -0.0770
  779MPD2    C411545   4.315   0.067  13.855  0.6817 -0.5049  1.0967
  779MPD2    C511546   4.261   4.686  13.826 -0.7875  0.4928 -0.2595
  779MPD2     H11547   4.552   4.714  14.079 -0.6137 -0.5322  0.5780
  779MPD2    H111548   4.274   0.144  13.791  0.8079 -1.4262 -0.0862
  779MPD2    H211549   4.261   4.476  13.871 -0.1072  0.3423 -1.3392
  779MPD2    H311550   4.187   4.685  13.748  1.0265  0.1169 -1.9771
  779MPD2     N11551   4.481   0.210  13.969  0.2898  0.4820  0.2793
  779MPD2    H511552   4.568   0.221  14.019  1.0136  1.7437 -1.2627
  779MPD2    N111553   4.446   4.457  14.047 -0.3230 -0.0077  0.9004
  779MPD2    H711554   4.396   4.372  14.024  2.5262 -1.5702  0.3750
  780MPD2     C11555   4.666   0.129   1.046  0.1495 -0.2979 -0.6564
  780MPD2    C111556   4.561   0.040   1.019  0.2151  0.9090 -0.0054
  780MPD2    C211557   4.516   0.039   0.888 -0.3302  0.8887 -0.1519
  780MPD2    C311558   4.569   0.112   0.779  0.4348  0.2175  1.1079
  780MPD2    C411559   4.678   0.197   0.811 -0.8652  0.1667 -0.2862
  780MPD2    C511560   4.718   0.208   0.938 -0.0988 -0.2661 -0.0528
  780MPD2     H11561   4.438   4.704   0.864 -0.5582  0.8896  0.6007
  780MPD2    H111562   4.726   0.256   0.735 -1.1161 -0.0614 -0.6222
  780MPD2    H211563   4.714   0.133   1.143 -0.2097 -0.9390 -0.4606
  780MPD2    H311564   0.051   0.284   0.969 -0.3313 -0.0963  0.0588
  780MPD2     N11565   4.523   0.085   0.650 -0.6373 -0.2799 -0.5443
  780MPD2    H511566   4.455   0.010   0.642  1.3755 -1.9952 -1.4197
  780MPD2    N111567   4.515   4.699   1.124  0.0180  0.2265  0.1081
  780MPD2    H711568   4.563   4.698   1.213 -0.6687  0.5264  0.4852
  781MPD2     C11569   0.266   1.902  11.862 -0.2904 -0.6640  0.0064
  781MPD2    C111570   0.363   1.836  11.926  0.3436  0.5156 -0.4754
  781MPD2    C211571   0.485   1.817  11.858 -0.1719  0.4439 -0.1460
  781MPD2    C311572   0.503   1.841  11.719  0.3885 -0.0456 -0.5905
  781MPD2    C411573   0.391   1.892  11.653 -1.0539  0.5832  0.0310
  781MPD2    C511574   0.286   1.936  11.730  0.7232  0.1275 -0.3729
  781MPD2     H11575   0.561   1.760  11.910  0.1303 -0.0066 -1.0901
  781MPD2    H111576   0.384   1.917  11.547 -1.1321  1.0219  0.1412
  781MPD2    H211577   0.173   1.919  11.914 -0.4353 -0.6130 -0.2667
  781MPD2    H311578   0.205   1.989  11.680 -0.6228 -0.6215  0.9951
  781MPD2     N11579   0.621   1.832  11.645 -0.1094 -0.1545 -0.0065
  781MPD2    H511580   0.616   1.830  11.544 -1.8175  0.9856  0.0609
  781MPD2    N111581   0.367   1.799  12.063 -0.1421 -0.0975  0.3808
  781MPD2    H711582   0.440   1.736  12.095 -0.3313 -0.1361  0.7357
  782MPD2     C11583   3.464   3.440  10.373  0.0531  0.2711  0.4004
  782MPD2    C111584   3.524   3.337  10.446  0.0816  0.7231  0.3626
  782MPD2    C211585   3.603   3.367  10.554  0.1240 -0.0170 -0.1092
  782MPD2    C311586   3.610   3.500  10.600 -0.1327  0.1065  0.1041
  782MPD2    C411587   3.545   3.598  10.530  0.5501  0.3305  0.2405
  782MPD2    C511588   3.477   3.570  10.415 -0.4426 -0.2162  0.6998
  782MPD2     H11589   3.634   3.282  10.613  1.2846 -0.5500 -1.4979
  782MPD2    H111590   3.546   3.701  10.563 -0.6886  0.0729  1.0793
  782MPD2    H211591   3.404   3.435  10.283 -0.2261  2.8477  0.4583
  782MPD2    H311592   3.427   3.637  10.346  0.9403  0.1133  0.0055
  782MPD2     N11593   3.704   3.517  10.701  0.2370 -0.4813 -0.3841
  782MPD2    H511594   3.743   3.437  10.750 -0.9657 -0.7429  0.1538
  782MPD2    N111595   3.514   3.200  10.395  0.0868 -0.1092 -0.3975
  782MPD2    H711596   3.450   3.179  10.320  0.3297 -4.4903  0.6217
  783MPD2     C11597   2.967   2.583  10.828  0.7336  0.5290 -0.0386
  783MPD2    C111598   3.051   2.673  10.887 -0.3388  0.2561 -0.4036
  783MPD2    C211599   3.143   2.740  10.797  0.4326  0.2224  0.6087
  783MPD2    C311600   3.143   2.724  10.659  0.9665 -0.4753 -0.4581
  783MPD2    C411601   3.042   2.641  10.608 -0.0089  0.1165  0.0011
  783MPD2    C511602   2.962   2.571  10.693  0.0660 -1.2418  0.1602
  783MPD2     H11603   3.228   2.784  10.849 -1.5210  0.8638  3.2764
  783MPD2    H111604   3.032   2.614  10.503 -4.2644  0.5199  0.3209
  783MPD2    H211605   2.890   2.530  10.883  0.7939 -0.1864 -0.6464
  783MPD2    H311606   2.894   2.499  10.648  1.1221 -2.2942  0.2692
  783MPD2     N11607   3.247   2.781  10.586  0.0207  0.0619  0.0081
  783MPD2    H511608   3.302   2.857  10.626 -0.4180 -0.5994  1.8303
  783MPD2    N111609   3.051   2.674  11.028 -0.3839  0.0797 -0.0644
  783MPD2    H711610   3.004   2.599  11.078 -0.8298  1.7722  2.0563
  784MPD2     C11611   1.671   2.515   0.392  0.2218 -0.3947  0.1294
  784MPD2    C111612   1.723   2.629   0.456 -0.0441 -0.2168 -0.7181
  784MPD2    C211613   1.663   2.749   0.445  0.3033  0.4441  0.3497
  784MPD2    C311614   1.545   2.763   0.375 -1.0452  0.3734 -0.3963
  784MPD2    C411615   1.483   2.650   0.335 -0.1439  0.0139 -0.8328
  784MPD2    C511616   1.542   2.529   0.343 -0.3668 -0.6479 -0.5593
  784MPD2     H11617   1.709   2.837   0.489  0.2793  1.1955 -1.1419
  784MPD2    H111618   1.388   2.634   0.285 -0.3898 -0.9745 -0.0717
  784MPD2    H211619   1.721   2.420   0.376  0.8842  0.0221 -0.2337
  784MPD2    H311620   1.486   2.448   0.297 -2.6628  1.3626 -1.3421
  784MPD2     N11621   1.484   2.886   0.372  0.8674 -0.3793  0.5837
  784MPD2    H511622   1.541   2.963   0.404 -0.4260  1.3270 -1.2020
  784MPD2    N111623   1.841   2.623   0.533 -0.3819 -0.0890 -0.2732
  784MPD2    H711624   1.866   2.715   0.568 -0.2713 -1.0005  2.0266
  785MPD2     C11625   1.081   1.985  10.626 -0.3979  0.1219  0.6409
  785MPD2    C111626   0.971   1.923  10.673  0.2695 -0.3888  0.1617
  785MPD2    C211627   0.921   1.816  10.599 -0.5047 -0.1312 -0.3368
  785MPD2    C311628   0.966   1.787  10.472 -0.1455  1.1395 -0.5952
  785MPD2    C411629   1.073   1.852  10.418 -0.4911  0.4695 -0.0386
  785MPD2    C511630   1.130   1.948  10.499 -0.0442 -0.6357 -0.6606
  785MPD2     H11631   0.830   1.764  10.628 -0.6321 -0.0260 -0.5494
  785MPD2    H111632   1.109   1.820  10.321 -0.6576 -0.7698  0.3093
  785MPD2    H211633   1.144   2.052  10.683 -2.8093  1.5929  1.5705
  785MPD2    H311634   1.223   1.995  10.469 -0.1373 -1.0978 -1.6690
  785MPD2     N11635   0.899   1.686  10.400 -0.2184 -0.7201 -0.6342
  785MPD2    H511636   0.816   1.655  10.449 -0.2905 -0.4595 -0.5953
  785MPD2    N111637   0.922   1.958  10.806 -0.4102  0.1710 -0.2085
  785MPD2    H711638   0.973   2.029  10.858  0.3786 -0.8486  0.4058
  786MPD2     C11639   4.646   3.816  14.653  0.0888  0.3565 -0.2244
  786MPD2    C111640   0.014   3.747  14.611 -0.0257 -0.1408  0.7289
  786MPD2    C211641   0.118   3.724  14.697 -0.4666  0.1719 -0.9987
  786MPD2    C311642   0.116   3.779  14.824  0.0086  0.6764  0.0977
  786MPD2    C411643   0.007   3.858  14.862 -0.0636  0.2664 -0.0200
  786MPD2    C511644   4.645   3.876  14.772 -0.1270  0.0747 -0.1167
  786MPD2     H11645   0.201   3.659  14.668 -1.4112 -0.5133 -2.1664
  786MPD2    H111646   4.728   3.907  14.958 -2.3437  0.6633 -0.6016
  786MPD2    H211647   4.561   3.834  14.588 -0.1176  1.4617  0.3622
  786MPD2    H311648   4.569   3.949  14.797 -0.6156 -1.1456  1.9569
  786MPD2     N11649   0.223   3.777  14.922  0.2740 -0.3897  0.6326
  786MPD2    H511650   0.211   3.822  15.012 -2.8192 -0.0010  0.0089
  786MPD2    N111651   0.010   3.672  14.494  0.2965  0.4198  0.3194
  786MPD2    H711652   0.088   3.612  14.472 -0.7264  0.1103 -2.4400
  787MPD2     C11653   0.209   3.109  14.584  0.2048 -0.3172  0.1187
  787MPD2    C111654   0.219   3.135  14.446 -0.2908  0.6444  0.3782
  787MPD2    C211655   0.331   3.096  14.380 -0.1210 -0.6620 -0.1958
  787MPD2    C311656   0.430   3.025  14.440 -0.0727 -0.0708 -0.2488
  787MPD2    C411657   0.412   2.981  14.567  0.2267  0.3980 -0.2887
  787MPD2    C511658   0.302   3.029  14.641  0.0879  0.6662  0.0931
  787MPD2     H11659   0.348   3.146  14.285 -1.3721  0.6052  0.2511
  787MPD2    H111660   0.479   2.910  14.614 -1.5721  0.2137  2.0467
  787MPD2    H211661   0.124   3.138  14.644 -0.8800 -0.0767 -1.5373
  787MPD2    H311662   0.283   2.995  14.742  2.3055 -2.7963 -0.6192
  787MPD2     N11663   0.558   2.991  14.367 -0.2566 -0.2283  0.3371
  787MPD2    H511664   0.550   3.023  14.272  0.9507 -2.5634 -0.5637
  787MPD2    N111665   0.122   3.224  14.392 -0.2471 -0.4870 -0.4715
  787MPD2    H711666   0.063   3.269  14.461 -0.5509 -0.0405 -1.0202
  788MPD2     C11667   2.552   2.462   1.147  0.1287  1.0664  0.3848
  788MPD2    C111668   2.554   2.360   1.051 -0.4755  0.2983 -0.2492
  788MPD2    C211669   2.601   2.393   0.927 -0.7504 -0.5603  0.3972
  788MPD2    C311670   2.640   2.516   0.883 -0.6090 -0.3544  1.1649
  788MPD2    C411671   2.629   2.615   0.977  0.2885 -0.1493  0.3020
  788MPD2    C511672   2.587   2.589   1.102  0.0411  0.2318  0.2424
  788MPD2     H11673   2.608   2.315   0.851 -1.2146  0.4262 -0.6525
  788MPD2    H111674   2.646   2.718   0.949 -0.6730  0.6852  2.8166
  788MPD2    H211675   2.517   2.460   1.250 -0.0801 -4.6142  0.2000
  788MPD2    H311676   2.572   2.670   1.173 -1.9445 -0.0844  0.1948
  788MPD2     N11677   2.670   2.558   0.752  0.1958  0.0087  0.1553
  788MPD2    H511678   2.682   2.658   0.741  2.0853 -0.2463 -0.0835
  788MPD2    N111679   2.531   2.223   1.079 -0.2656 -0.3291  0.0850
  788MPD2    H711680   2.560   2.157   1.007  0.2160  0.3190 -0.3167
  789MPD2     C11681   2.689   2.151  16.042  0.6125 -0.7610 -0.0271
  789MPD2    C111682   2.666   2.074  16.152 -0.6520  0.5219 -0.3998
  789MPD2    C211683   2.613   2.124  16.274  0.1885  0.1632  0.4611
  789MPD2    C311684   2.582   2.265  16.277 -0.0649  0.2249 -0.7933
  789MPD2    C411685   2.609   2.347  16.164  0.3124  0.0156  0.6806
  789MPD2    C511686   2.654   2.284  16.049 -0.4429 -0.2908  0.5330
  789MPD2     H11687   2.592   2.066  16.364  1.6833 -1.1653 -0.0538
  789MPD2    H111688   2.597   2.455  16.161  0.3480 -0.0256 -0.9188
  789MPD2    H211689   2.734   2.113  15.951  0.6283 -0.0075 -0.3268
  789MPD2    H311690   2.662   2.349  15.963  0.7779  0.2328  1.0394
  789MPD2     N11691   2.548   2.331  16.399  0.1753  0.4338  0.2432
  789MPD2    H511692   2.520   2.428  16.391  0.2361  0.4110 -0.2503
  789MPD2    N111693   2.717   1.943  16.159  0.2340  0.6183 -0.2936
  789MPD2    H711694   2.680   1.895  16.241 -1.0783 -0.4821 -1.5368
  790MPD2     C11695   3.528   2.842  13.241  0.6010  1.3189  0.6273
  790MPD2    C111696   3.470   2.931  13.320  0.1588  0.0483 -0.2190
  790MPD2    C211697   3.356   2.993  13.259  0.3379 -0.0376  0.6237
  790MPD2    C311698   3.311   2.965  13.126 -0.2365 -0.5330 -1.0085
  790MPD2    C411699   3.380   2.869  13.049 -0.0431 -0.3932  0.3067
  790MPD2    C511700   3.489   2.814  13.111  0.5329 -0.2500  0.2640
  790MPD2     H11701   3.302   3.070  13.313  0.6101  0.2343  0.5045
  790MPD2    H111702   3.352   2.838  12.949  0.5717  1.8489 -0.5617
  790MPD2    H211703   3.611   2.779  13.272  0.6787  0.3672 -1.5597
  790MPD2    H311704   3.554   2.755  13.047  0.8269  0.9384 -0.5392
  790MPD2     N11705   3.200   3.034  13.068  0.3723  0.7639 -0.5017
  790MPD2    H511706   3.186   3.132  13.090  0.3963  0.8508 -0.8891
  790MPD2    N111707   3.517   2.945  13.450  0.2682  0.3524 -0.7763
  790MPD2    H711708   3.586   2.876  13.477  0.3152  0.6551 -0.1373
  791MPD2     C11709   2.455   3.277  12.590 -0.0234  0.8081 -0.5288
  791MPD2    C111710   2.488   3.185  12.689 -0.4929  0.2793  0.2042
  791MPD2    C211711   2.386   3.107  12.750 -0.2499  0.3118  0.1374
  791MPD2    C311712   2.253   3.118  12.718  0.6000 -0.5541 -0.0600
  791MPD2    C411713   2.223   3.201  12.614  1.1896 -0.1463  0.5154
  791MPD2    C511714   2.324   3.276  12.552 -0.2343 -0.8353  0.4822
  791MPD2     H11715   2.409   3.039  12.831 -0.7486  1.9552  1.6452
  791MPD2    H111716   2.121   3.213  12.579  1.2522 -0.6271  0.1710
  791MPD2    H211717   2.533   3.341  12.551  1.8325 -0.7754  0.5803
  791MPD2    H311718   2.298   3.336  12.466 -3.5997 -1.4415  1.0768
  791MPD2     N11719   2.161   3.038  12.789  0.3177  0.0198 -1.6341
  791MPD2    H511720   2.188   2.982  12.869 -0.3086  0.5570 -1.0530
  791MPD2    N111721   2.617   3.187  12.745 -0.3352 -0.3373  0.1273
  791MPD2    H711722   2.674   3.265  12.714 -2.0786 -0.0189 -2.3186
  792MPD2     C11723   3.371   3.890  11.574 -1.2477 -0.3018 -0.1481
  792MPD2    C111724   3.308   4.003  11.519 -0.0791 -0.1838 -0.8497
  792MPD2    C211725   3.169   4.023  11.532 -0.4550 -0.3648 -1.3937
  792MPD2    C311726   3.088   3.918  11.590 -0.3848  0.5117 -0.5892
  792MPD2    C411727   3.153   3.805  11.639  0.1104  0.2427  0.0349
  792MPD2    C511728   3.292   3.791  11.631 -0.1251 -0.0802 -0.2958
  792MPD2     H11729   3.121   4.111  11.490  0.5117 -1.5087 -4.9128
  792MPD2    H111730   3.093   3.727  11.683  0.7525 -0.8659 -1.0690
  792MPD2    H211731   3.465   3.844  11.545 -1.4117  0.7142 -2.3231
  792MPD2    H311732   3.348   3.702  11.658 -1.1333 -1.3240 -2.2702
  792MPD2     N11733   2.947   3.914  11.582 -0.0143 -0.1098  0.1547
  792MPD2    H511734   2.904   3.835  11.629  0.8633 -1.6091 -1.5978
  792MPD2    N111735   3.383   4.096  11.443 -0.1041 -0.6082 -0.8572
  792MPD2    H711736   3.477   4.076  11.409 -0.0248  0.8991 -1.4879
  793MPD2     C11737   2.421   4.151  10.830 -0.0363 -0.3645 -0.0741
  793MPD2    C111738   2.533   4.070  10.861  0.5010  0.4782  0.0965
  793MPD2    C211739   2.561   4.051  10.992  0.2425  0.1029 -0.5174
  793MPD2    C311740   2.482   4.108  11.092 -0.3558 -0.2041 -0.1611
  793MPD2    C411741   2.374   4.185  11.062 -0.9503 -0.0027 -0.5521
  793MPD2    C511742   2.350   4.213  10.930 -0.6315  0.3996  0.3434
  793MPD2     H11743   2.647   3.989  11.014  0.6525  0.1257 -2.0913
  793MPD2    H111744   2.316   4.234  11.139 -0.2518 -0.7553  0.4388
  793MPD2    H211745   2.392   4.145  10.726 -0.3457 -0.6525  0.0312
  793MPD2    H311746   2.273   4.286  10.909 -2.4050 -1.1405  1.5117
  793MPD2     N11747   2.527   4.091  11.229  0.4553 -0.2407  0.3838
  793MPD2    H511748   2.614   4.039  11.238  0.9567  0.4128 -0.8204
  793MPD2    N111749   2.623   4.015  10.766  0.1199  0.5732 -0.2090
  793MPD2    H711750   2.701   3.955  10.789 -0.2546 -0.2624 -1.1131
  794MPD2     C11751   2.944   2.658  17.575  0.8709  0.5952  0.5322
  794MPD2    C111752   3.021   2.578  17.495  0.2609  0.0122 -0.4887
  794MPD2    C211753   3.064   2.618  17.372 -0.0541  0.7875 -0.0995
  794MPD2    C311754   3.010   2.733  17.320  0.3325  0.3397  0.4338
  794MPD2    C411755   2.943   2.813  17.401 -0.3087 -0.4702  0.1647
  794MPD2    C511756   2.912   2.780  17.528  0.2538  0.0885 -0.3477
  794MPD2     H11757   3.141   2.563  17.320 -1.6534 -0.8847 -0.6887
  794MPD2    H111758   2.904   2.906  17.362 -2.1617 -1.3007  0.0629
  794MPD2    H211759   2.893   2.628  17.666  0.4234  0.3650  0.2091
  794MPD2    H311760   2.846   2.849  17.580  0.8313  0.4559 -0.1042
  794MPD2     N11761   3.023   2.779  17.187 -0.4547  0.3856  0.4035
  794MPD2    H511762   2.964   2.857  17.162 -1.0694  0.5101  2.2308
  794MPD2    N111763   3.056   2.444  17.530 -0.1620  0.6247  0.6284
  794MPD2    H711764   3.106   2.386  17.465  0.4543 -2.1298  3.5678
  795MPD2     C11765   0.763   4.476  13.210 -0.1600 -0.4967  0.1170
  795MPD2    C111766   0.714   4.403  13.320 -0.3180  0.1615  0.2883
  795MPD2    C211767   0.779   4.288  13.367 -0.5702  0.1672 -0.0495
  795MPD2    C311768   0.888   4.242  13.302 -0.5583  0.1088 -0.7682
  795MPD2    C411769   0.932   4.304  13.193  0.5392 -0.9749  0.1793
  795MPD2    C511770   0.872   4.420  13.150  0.3916  0.0520  0.3023
  795MPD2     H11771   0.741   4.234  13.453  1.7630 -1.6153 -0.1280
  795MPD2    H111772   1.006   4.270  13.121 -0.9732 -1.3478 -1.1891
  795MPD2    H211773   0.731   4.574  13.176 -1.3419 -1.8494 -2.6539
  795MPD2    H311774   0.914   4.463  13.060 -1.8359 -1.1780 -1.3401
  795MPD2     N11775   0.949   4.123  13.354 -0.1412 -0.4255  0.1405
  795MPD2    H511776   0.932   4.108  13.453  1.9276 -0.2421  0.5273
  795MPD2    N111777   0.595   4.446  13.372  0.2829  0.9027 -0.3872
  795MPD2    H711778   0.554   4.389  13.445  1.0805  0.6241 -0.1637
  796MPD2     C11779   0.266   1.668  15.829  0.5050  0.3991  0.8048
  796MPD2    C111780   0.372   1.751  15.817  0.3173  0.5274 -0.3604
  796MPD2    C211781   0.348   1.880  15.766  0.5100 -0.1904  0.9281
  796MPD2    C311782   0.217   1.925  15.752  0.0632  0.6535 -0.0332
  796MPD2    C411783   0.111   1.837  15.770  0.3994 -0.0068 -0.3692
  796MPD2    C511784   0.143   1.709  15.798 -0.0751 -0.2981 -0.5330
  796MPD2     H11785   0.433   1.941  15.736  0.2465 -0.7331 -0.8864
  796MPD2    H111786   0.008   1.872  15.761  0.2004 -1.0242 -2.0605
  796MPD2    H211787   0.293   1.565  15.850  0.4077 -0.0800 -1.3521
  796MPD2    H311788   0.061   1.639  15.803 -0.1175 -0.1743  0.6229
  796MPD2     N11789   0.198   2.060  15.713  1.2418 -0.6741  0.3082
  796MPD2    H511790   0.277   2.123  15.723 -0.7100  2.1787 -2.3100
  796MPD2    N111791   0.498   1.706  15.867  0.4026  0.1717 -0.0596
  796MPD2    H711792   0.500   1.611  15.902 -0.2009 -0.1096 -0.7692
  797MPD2     C11793   1.650   1.396  16.881 -0.1908  0.0300 -0.6240
  797MPD2    C111794   1.749   1.493  16.872  0.9622  0.6205  0.3970
  797MPD2    C211795   1.765   1.568  16.758  0.1350  0.1455  0.0136
  797MPD2    C311796   1.681   1.540  16.652  0.1945  0.0834  1.4675
  797MPD2    C411797   1.580   1.444  16.663 -0.2067  0.5791  0.2921
  797MPD2    C511798   1.564   1.371  16.776 -0.2730  0.3107 -0.3163
  797MPD2     H11799   1.835   1.650  16.744  0.3800  0.0415  0.6408
  797MPD2    H111800   1.498   1.434  16.593 -0.7497  0.8412  0.8837
  797MPD2    H211801   1.628   1.345  16.974  2.1338 -0.9392 -0.5941
  797MPD2    H311802   1.491   1.292  16.785 -0.8533  0.6282 -2.2713
  797MPD2     N11803   1.690   1.616  16.531 -0.1366 -0.2386 -0.8704
  797MPD2    H511804   1.609   1.623  16.471 -0.7946 -1.5012 -0.1305
  797MPD2    N111805   1.834   1.529  16.980  0.0036 -0.0485 -0.2976
  797MPD2    H711806   1.895   1.606  16.954 -0.3712 -0.3738 -2.1538
  798MPD2     C11807   2.293   1.990  16.665  0.2300  0.0325 -0.1776
  798MPD2    C111808   2.163   2.011  16.695 -0.3148  0.0906  0.4823
  798MPD2    C211809   2.119   1.978  16.821 -1.0042  0.1397  0.4189
  798MPD2    C311810   2.202   1.904  16.912 -0.0963 -0.0261 -0.0115
  798MPD2    C411811   2.333   1.891  16.873  0.4903 -0.4641  0.1589
  798MPD2    C511812   2.380   1.931  16.749 -0.2050 -0.2167  0.4799
  798MPD2     H11813   2.015   1.987  16.846 -1.7341  1.3734 -3.0662
  798MPD2    H111814   2.397   1.830  16.936  2.1135  1.2122  0.1502
  798MPD2    H211815   2.339   2.016  16.571  1.8762 -0.8182  0.3987
  798MPD2    H311816   2.485   1.923  16.723  0.3495  0.9444  2.3480
  798MPD2     N11817   2.148   1.849  17.031  0.0959 -0.7077  0.2762
  798MPD2    H511818   2.048   1.862  17.044  0.0807 -0.6134  0.0771
  798MPD2    N111819   2.070   2.052  16.595  0.5885  0.1405  0.6774
  798MPD2    H711820   2.103   2.060  16.499 -1.1254  0.1146  0.0922
  799MPD2     C11821   4.690   2.788  14.527 -0.5955  0.1411 -0.1104
  799MPD2    C111822   4.662   2.689  14.432 -0.1993 -0.1533 -0.6296
  799MPD2    C211823   4.608   2.725  14.313  0.3419 -0.1705 -0.0819
  799MPD2    C311824   4.582   2.861  14.286 -0.5953 -0.0832 -0.4229
  799MPD2    C411825   4.632   2.953  14.366 -0.3163  0.2911 -0.1948
  799MPD2    C511826   4.681   2.916  14.491  0.1021 -0.2592  0.0462
  799MPD2     H11827   4.594   2.646  14.240 -0.4011  0.7058 -0.8754
  799MPD2    H111828   4.630   3.059  14.343 -1.0498  0.4454  0.5634
  799MPD2    H211829   4.731   2.761  14.623  0.0128  1.1236 -0.0894
  799MPD2    H311830   4.706   2.992  14.564  1.2875 -0.7040  0.1059
  799MPD2     N11831   4.525   2.905  14.170  0.6357  0.2383  0.0929
  799MPD2    H511832   4.526   3.005  14.156  0.0698 -0.1465 -2.5841
  799MPD2    N111833   4.668   2.555  14.465 -0.0569 -0.6293  0.5743
  799MPD2    H711834   4.611   2.487  14.417 -3.3627  1.0324  2.1830
  800MPD2     C11835   0.718   3.519  13.450 -0.1864 -0.3296  0.8357
  800MPD2    C111836   0.857   3.524  13.465 -0.4483  0.0320 -0.1988
  800MPD2    C211837   0.926   3.418  13.416  0.1788  0.2899  0.3675
  800MPD2    C311838   0.860   3.315  13.344  0.0602  0.7680 -0.2891
  800MPD2    C411839   0.725   3.315  13.332  0.7110 -0.1902 -0.4074
  800MPD2    C511840   0.652   3.412  13.394 -0.5012  0.3998  0.4141
  800MPD2     H11841   1.034   3.419  13.422  0.1973 -1.0371  0.3037
  800MPD2    H111842   0.675   3.237  13.277  1.2204 -0.3009 -0.7101
  800MPD2    H211843   0.657   3.601  13.486 -1.5587 -2.0360  2.3855
  800MPD2    H311844   0.544   3.410  13.389 -0.3318 -1.3626 -2.2962
  800MPD2     N11845   0.946   3.216  13.298  0.0493  0.2280 -0.1618
  800MPD2    H511846   1.045   3.237  13.298 -0.0761  0.7749  1.0116
  800MPD2    N111847   0.915   3.635  13.529  0.2397  0.1625  0.4019
  800MPD2    H711848   0.840   3.693  13.566 -0.0650 -0.4523  0.7538
  801MPD2     C11849   0.816   4.344  13.755 -0.8273  0.4422  0.2937
  801MPD2    C111850   0.879   4.275  13.853 -0.0510  0.0883 -0.6559
  801MPD2    C211851   0.891   4.327  13.978  0.8245 -0.1282  0.3820
  801MPD2    C311852   0.820   4.440  14.011 -0.4259  0.0137  0.6475
  801MPD2    C411853   0.750   4.507  13.908  0.0559  0.6047  0.2297
  801MPD2    C511854   0.757   4.463  13.779 -0.3977 -0.8248  0.2190
  801MPD2     H11855   0.946   4.265  14.048  1.2857 -1.6506 -1.3271
  801MPD2    H111856   0.695   4.600  13.919  0.3725  0.5888  2.0043
  801MPD2    H211857   0.807   4.313  13.652  0.9199  0.8347  0.0287
  801MPD2    H311858   0.712   4.517  13.696  1.8482  1.9496  0.7893
  801MPD2     N11859   0.805   4.483  14.143 -0.3710  0.1344 -0.5803
  801MPD2    H511860   0.723   4.534  14.174 -0.0963 -0.1032  0.5649
  801MPD2    N111861   0.934   4.148  13.836 -0.8086  0.4935  0.3942
  801MPD2    H711862   0.975   4.101  13.916  1.4601  0.5306 -0.7612
  802MPD2     C11863   0.639   0.811  17.670  0.1887  0.0641  0.0862
  802MPD2    C111864   0.547   0.766  17.580 -0.0188  0.0186 -0.0602
  802MPD2    C211865   0.575   0.650  17.513 -0.5114 -0.5306  0.6998
  802MPD2    C311866   0.691   0.577  17.529  0.1489  0.2528 -0.4243
  802MPD2    C411867   0.755   0.610  17.652  0.2705  0.4357  0.0153
  802MPD2    C511868   0.733   0.727  17.720  0.1486 -0.5685 -0.0974
  802MPD2     H11869   0.494   0.624  17.445  0.0448 -1.7666  0.5022
  802MPD2    H111870   0.841   0.553  17.687  0.1023 -0.3161 -0.7826
  802MPD2    H211871   0.621   0.907  17.717 -1.8224 -0.9360  1.3374
  802MPD2    H311872   0.802   0.757   0.051  0.5208 -1.0803 -0.2318
  802MPD2     N11873   0.730   0.466  17.447  0.3727 -0.1234 -0.0735
  802MPD2    H511874   0.685   0.463  17.356 -1.6256 -1.5758  0.9844
  802MPD2    N111875   0.428   0.828  17.558  0.8024  0.2764  0.6756
  802MPD2    H711876   0.357   0.773  17.511  2.8595 -0.8974 -1.0614
  803MPD2     C11877   0.391   3.570  12.595 -0.1681  0.4080 -0.6497
  803MPD2    C111878   0.479   3.562  12.486 -0.3625  0.3197  0.6179
  803MPD2    C211879   0.562   3.452  12.469 -0.4691  0.9598 -0.2529
  803MPD2    C311880   0.558   3.349  12.566 -0.3088 -0.4282  0.4887
  803MPD2    C411881   0.472   3.352  12.678  0.6636  0.2582  1.0364
  803MPD2    C511882   0.393   3.462  12.686 -0.2766  0.4063  0.3732
  803MPD2     H11883   0.628   3.463  12.384  1.3891 -0.4545  0.9975
  803MPD2    H111884   0.466   3.276  12.754 -0.5088  1.4305  2.1139
  803MPD2    H211885   0.326   3.655  12.612  0.6031  1.0215 -0.8226
  803MPD2    H311886   0.331   3.474  12.774  1.7612 -1.0409  2.0064
  803MPD2     N11887   0.640   3.233  12.549 -0.5541 -0.0603 -0.7404
  803MPD2    H511888   0.647   3.161  12.620 -2.0267  0.0249 -0.5025
  803MPD2    N111889   0.484   3.661  12.395 -0.4940 -0.2007 -0.2555
  803MPD2    H711890   0.554   3.666  12.321 -1.0657  0.4542 -0.7425
  804MPD2     C11891   0.892   4.533  16.570 -0.7187 -0.2578 -0.2873
  804MPD2    C111892   0.901   4.486  16.698  0.6784 -0.8026  0.6494
  804MPD2    C211893   1.013   4.514  16.775 -0.4566 -0.7555 -0.2117
  804MPD2    C311894   1.118   4.576  16.715  0.3368  0.3823 -0.2799
  804MPD2    C411895   1.118   4.598  16.579 -0.0352  0.1560 -0.1243
  804MPD2    C511896   1.003   4.580  16.510 -0.0733  0.0608  0.1962
  804MPD2     H11897   1.022   4.484  16.879  3.2345  0.2578 -0.2123
  804MPD2    H111898   1.201   4.641  16.523 -0.6991  0.7170 -0.6750
  804MPD2    H211899   0.804   4.519  16.508  0.4412 -1.7614 -1.6093
  804MPD2    H311900   0.999   4.615  16.407  0.5807  0.1568  0.2028
  804MPD2     N11901   1.225   4.601  16.802 -1.0698  0.1501 -0.1195
  804MPD2    H511902   1.212   4.605  16.903 -0.0751  0.1871  0.0089
  804MPD2    N111903   0.796   4.414  16.766  0.0668 -0.1673  0.3557
  804MPD2    H711904   0.821   4.376  16.857  0.1976 -2.3456 -0.6051
  805MPD2     C11905   4.697   3.236  15.671 -0.1136 -0.1145  0.9323
  805MPD2    C111906   0.086   3.232  15.611 -0.0352  0.9884  0.0151
  805MPD2    C211907   0.202   3.258  15.684 -0.4289 -0.4927  0.4103
  805MPD2    C311908   0.193   3.286  15.819  0.0382  0.0891 -0.1729
  805MPD2    C411909   0.068   3.284  15.875  0.4393  0.5960  0.1096
  805MPD2    C511910   4.689   3.265  15.806 -0.1413  0.6684 -0.2285
  805MPD2     H11911   0.296   3.268  15.632 -0.3516 -2.8303  0.0896
  805MPD2    H111912   0.061   3.300  15.982 -3.7765 -1.1118  0.0948
  805MPD2    H211913   4.607   3.198  15.623  1.2286 -0.1301 -1.5452
  805MPD2    H311914   4.596   3.243  15.859  1.1984  1.1126  2.2976
  805MPD2     N11915   0.315   3.305  15.890  0.1729  0.6143 -0.6681
  805MPD2    H511916   0.401   3.299  15.837 -0.5137  1.1671 -1.8608
  805MPD2    N111917   0.100   3.193  15.476  1.2141 -0.1588 -0.3951
  805MPD2    H711918   0.195   3.190  15.442  1.2813 -0.2600 -0.1969
  806MPD2     C11919   0.410   2.407   0.714  0.2332 -0.4925  0.2641
  806MPD2    C111920   0.503   2.452   0.613  0.5545 -0.1082  0.8350
  806MPD2    C211921   0.517   2.371   0.498  0.1274 -0.6195 -0.5141
  806MPD2    C311922   0.450   2.255   0.488  0.3893  0.4124 -0.4041
  806MPD2    C411923   0.342   2.225   0.576 -0.5335 -0.4015 -0.3312
  806MPD2    C511924   0.326   2.301   0.686  0.0042 -0.2747  0.4890
  806MPD2     H11925   0.595   2.389   0.425  0.7095  1.8233  0.6999
  806MPD2    H111926   0.277   2.141   0.559  0.0273 -0.7511 -0.7529
  806MPD2    H211927   0.407   2.469   0.802 -0.8843  0.3952 -0.4014
  806MPD2    H311928   0.247   2.283   0.758  3.3378 -5.7307  2.7631
  806MPD2     N11929   0.490   2.172   0.386 -0.8539 -0.5796 -0.6687
  806MPD2    H511930   0.572   2.199   0.333  1.3323  0.0566  3.0223
  806MPD2    N111931   0.573   2.569   0.638 -0.2685  0.1733  0.7261
  806MPD2    H711932   0.554   2.609   0.729  0.8339  2.5875 -0.1144
  807MPD2     C11933   0.568   3.073   1.149 -0.0073 -0.2079  0.0954
  807MPD2    C111934   0.543   2.955   1.087  0.7406  1.0176  0.2566
  807MPD2    C211935   0.450   2.867   1.141  0.1085 -0.1212 -0.0937
  807MPD2    C311936   0.393   2.899   1.269 -0.2284 -0.1619  0.6039
  807MPD2    C411937   0.418   3.024   1.327 -0.0679 -0.9165  0.2197
  807MPD2    C511938   0.502   3.108   1.266 -0.1261 -0.1576  0.1231
  807MPD2     H11939   0.416   2.774   1.097  1.4499  0.6122 -2.6394
  807MPD2    H111940   0.364   3.063   1.413  1.4787 -0.2374  0.8962
  807MPD2    H211941   0.639   3.142   1.107 -0.3477 -1.3763 -2.3999
  807MPD2    H311942   0.529   3.202   1.314 -0.7491 -0.6113  1.3788
  807MPD2     N11943   0.291   2.814   1.323 -0.6481 -0.4738  0.0627
  807MPD2    H511944   0.270   2.722   1.285  0.5710 -0.5210 -0.4930
  807MPD2    N111945   0.593   2.914   0.966  0.0007 -1.3386 -0.0709
  807MPD2    H711946   0.549   2.829   0.930  0.0633 -1.0225 -0.8763
  808MPD2     C11947   1.373   4.084   9.934  0.2683  0.0250  0.3694
  808MPD2    C111948   1.321   4.203   9.887 -0.2180  0.1846 -0.2903
  808MPD2    C211949   1.386   4.323   9.918 -0.0359 -0.0916 -0.7512
  808MPD2    C311950   1.486   4.319  10.015  0.3765  0.3670  0.1510
  808MPD2    C411951   1.543   4.204  10.055 -0.7477  0.0784  0.0504
  808MPD2    C511952   1.480   4.083  10.017 -0.0988  0.5114  0.2067
  808MPD2     H11953   1.342   4.418   9.891 -2.4368 -0.7002  1.0799
  808MPD2    H111954   1.625   4.211  10.126  1.6974  0.2813 -2.8216
  808MPD2    H211955   1.332   3.989   9.902  0.5070 -0.0813  0.3768
  808MPD2    H311956   1.521   3.992  10.060 -1.0069 -0.5857 -1.2399
  808MPD2     N11957   1.539   4.441  10.057  0.4363 -0.4988 -0.3239
  808MPD2    H511958   1.576   4.441  10.151  1.7443 -1.8004 -0.8294
  808MPD2    N111959   1.199   4.210   9.814  0.2035  0.8364  0.5205
  808MPD2    H711960   1.172   4.297   9.768 -0.2212  0.3006 -0.2409
  809MPD2     C11961   1.661   0.792  10.026 -0.5852 -0.1186 -0.0177
  809MPD2    C111962   1.761   0.701   9.999  0.3934 -0.3144 -0.4020
  809MPD2    C211963   1.751   0.566  10.035  0.1014  0.8087 -0.4055
  809MPD2    C311964   1.631   0.518  10.075  0.5604 -0.3486 -0.0110
  809MPD2    C411965   1.531   0.607  10.116 -0.4713  0.0595 -0.2385
  809MPD2    C511966   1.547   0.737  10.083  0.5290  0.0501  0.1460
  809MPD2     H11967   1.834   0.501  10.008  0.6153  1.6346 -0.8181
  809MPD2    H111968   1.436   0.573  10.155 -1.1227  2.0515 -0.0894
  809MPD2    H211969   1.677   0.899  10.019 -2.1864  0.0096 -1.6265
  809MPD2    H311970   1.468   0.806  10.112  1.7739  1.0671  1.1221
  809MPD2     N11971   1.612   0.382  10.099  0.4568 -0.1715 -0.4059
  809MPD2    H511972   1.527   0.352  10.146 -0.6543  0.3552 -2.1037
  809MPD2    N111973   1.886   0.746   9.945  0.1488 -0.0875  0.4760
  809MPD2    H711974   1.954   0.672   9.933  0.3879  0.1462  0.3842
  810MPD2     C11975   0.693   3.124  10.737 -0.6505  0.2929  0.3718
  810MPD2    C111976   0.642   3.232  10.668 -0.3208  0.1781  0.0566
  810MPD2    C211977   0.735   3.324  10.614  0.1225 -0.2875  0.0362
  810MPD2    C311978   0.872   3.301  10.629 -0.0316  0.3388 -0.1174
  810MPD2    C411979   0.920   3.188  10.697  0.2534 -0.2538 -0.9168
  810MPD2    C511980   0.827   3.102  10.751 -0.4899 -0.0279 -0.8647
  810MPD2     H11981   0.705   3.415  10.563 -0.2079 -1.6571 -2.2395
  810MPD2    H111982   1.024   3.177  10.725 -0.0567 -0.6373  0.0599
  810MPD2    H211983   0.625   3.052  10.783 -0.3956  0.2890  0.7417
  810MPD2    H311984   0.859   3.015  10.808 -1.7984  1.2778  1.8988
  810MPD2     N11985   0.969   3.397  10.585  0.8017  0.8820  0.1144
  810MPD2    H511986   1.064   3.391  10.622 -0.2848 -0.8957  2.5497
  810MPD2    N111987   0.500   3.241  10.654 -0.0626  0.8514 -0.7432
  810MPD2    H711988   0.452   3.157  10.688  0.5443  0.0769 -1.8161
  811MPD2     C11989   4.479   3.608  10.285 -0.0117  0.0644 -0.8424
  811MPD2    C111990   4.613   3.589  10.261 -0.1798  0.8859  0.2105
  811MPD2    C211991   4.683   3.689  10.197  0.5784  0.1163 -0.7274
  811MPD2    C311992   4.626   3.790  10.126 -0.3508 -0.3234 -0.4375
  811MPD2    C411993   4.487   3.804  10.130 -0.0791  0.1743 -0.2638
  811MPD2    C511994   4.421   3.713  10.213  0.1321 -0.3289  0.3567
  811MPD2     H11995   0.052   3.674  10.181  0.6738  0.2402 -0.1950
  811MPD2    H111996   4.426   3.880  10.081 -0.0042  1.2436  1.3004
  811MPD2    H211997   4.413   3.543  10.341  1.4355 -0.7386 -0.0670
  811MPD2    H311998   4.314   3.716  10.224  0.1679  0.0546  0.6003
  811MPD2     N11999   4.710   3.874  10.047 -0.3587  0.3304 -0.8091
  811MPD2    H512000   0.072   3.857  10.049 -0.6356 -1.0756  0.5916
  811MPD2    N112001   4.676   3.478  10.320  0.0188 -0.2917 -0.2436
  811MPD2    H712002   4.621   3.409  10.371 -1.3550 -0.5527 -2.0964
  812MPD2     C12003   3.039   3.410  11.973  0.2807 -0.5095 -0.3283
  812MPD2    C112004   3.114   3.508  12.027 -0.3426  0.1280  0.5997
  812MPD2    C212005   3.230   3.480  12.095  1.0354 -0.0590  0.4295
  812MPD2    C312006   3.248   3.350  12.132  0.7848  0.4269  0.0483
  812MPD2    C412007   3.169   3.251  12.084  0.5763  0.5935  0.0385
  812MPD2    C512008   3.068   3.277  11.994  0.0371  0.7673  0.4120
  812MPD2     H12009   3.289   3.559  12.140 -0.3919  2.2822 -1.7886
  812MPD2    H112010   3.181   3.145  12.103  0.5419  0.4665 -0.6470
  812MPD2    H212011   2.951   3.428  11.913  0.5590  0.2589 -0.5048
  812MPD2    H312012   3.001   3.201  11.955  0.8379 -0.6174  1.7141
  812MPD2     N12013   3.363   3.318  12.216  0.2112 -0.5307 -0.3228
  812MPD2    H512014   3.429   3.389  12.246  1.9956 -1.3029 -2.4307
  812MPD2    N112015   3.078   3.643  12.006  0.0838  0.1678 -0.2462
  812MPD2    H712016   2.993   3.653  11.951  0.9158 -1.5623 -1.8298
  813MPD2     C12017   2.082   0.513  12.955  0.6293 -0.2226  0.0686
  813MPD2    C112018   2.158   0.433  13.034  0.5025  0.1403 -0.0709
  813MPD2    C212019   2.138   0.418  13.170  0.2311 -0.7187  0.1009
  813MPD2    C312020   2.056   0.509  13.236  0.2315 -0.2939  0.1864
  813MPD2    C412021   1.978   0.598  13.155 -0.1959  0.0026 -0.0184
  813MPD2    C512022   1.988   0.589  13.020  0.8394  0.4688  0.0880
  813MPD2     H12023   2.188   0.348  13.236  0.9941 -0.9880 -0.7619
  813MPD2    H112024   1.904   0.667  13.195  0.4930  0.2249  0.8864
  813MPD2    H212025   2.090   0.529  12.848  1.8745 -0.3381  0.1437
  813MPD2    H312026   1.927   0.662  12.967  0.7122  0.7803  0.6661
  813MPD2     N12027   2.061   0.513  13.382  0.8741 -0.1715  0.8841
  813MPD2    H512028   2.118   0.446  13.432 -0.6642 -2.6279 -0.6357
  813MPD2    N112029   2.267   0.377  12.968 -0.0001 -0.2576  0.2456
  813MPD2    H712030   2.271   0.386  12.867  0.0072  0.1053  0.2773
  814MPD2     C12031   3.277   1.477  12.389 -0.0020  0.1413  0.7046
  814MPD2    C112032   3.310   1.547  12.273  0.2931  0.4449 -0.0508
  814MPD2    C212033   3.351   1.677  12.290 -0.2300 -0.3445  0.2977
  814MPD2    C312034   3.349   1.736  12.416 -0.9857  0.0581  0.0754
  814MPD2    C412035   3.322   1.660  12.525  0.2417  0.1277 -0.2252
  814MPD2    C512036   3.296   1.526  12.510 -0.6068 -0.9845 -0.7109
  814MPD2     H12037   3.380   1.726  12.197 -1.4780  1.4363  0.8325
  814MPD2    H112038   3.331   1.692  12.628 -0.9471  1.9870 -0.7056
  814MPD2    H212039   3.259   1.370  12.385  1.9353 -0.1616  0.0120
  814MPD2    H312040   3.287   1.457  12.593  0.7862  0.1740  0.3995
  814MPD2     N12041   3.379   1.877  12.435 -0.8811  0.1071 -0.0051
  814MPD2    H512042   3.366   1.909  12.531 -0.6558 -0.4929  0.2282
  814MPD2    N112043   3.307   1.488  12.145  0.6119  0.1597 -0.2586
  814MPD2    H712044   3.337   1.545  12.067  2.0943 -0.2027  0.0372
  815MPD2     C12045   3.791   0.650  11.405 -0.3893 -0.4476 -0.5330
  815MPD2    C112046   3.772   0.509  11.402 -0.1300 -1.2127 -0.0272
  815MPD2    C212047   3.661   0.458  11.461 -0.6578  0.4525  0.2321
  815MPD2    C312048   3.566   0.543  11.518 -1.0240  0.1496 -0.4509
  815MPD2    C412049   3.588   0.680  11.503 -0.2507  0.1213 -0.5391
  815MPD2    C512050   3.705   0.734  11.465  0.4040  0.0782  0.5491
  815MPD2     H12051   3.647   0.350  11.458 -0.6826  0.5130 -1.6559
  815MPD2    H112052   3.519   0.752  11.546 -0.6612 -0.8604  0.4505
  815MPD2    H212053   3.874   0.683  11.344 -0.1678  1.6604  0.8988
  815MPD2    H312054   3.730   0.840  11.467 -0.6004  0.3018  0.9969
  815MPD2     N12055   3.441   0.494  11.571 -0.1532  0.1825 -0.0091
  815MPD2    H512056   3.379   0.572  11.593  2.0378  2.5477 -2.2298
  815MPD2    N112057   3.867   0.430  11.331  0.5291 -0.2352  0.8873
  815MPD2    H712058   3.949   0.474  11.291 -1.2945  0.5673 -1.9258
  816MPD2     C12059   0.118   3.878  17.128  0.3926  0.6385 -0.2677
  816MPD2    C112060   0.063   3.912  17.005 -0.0268  0.3116 -0.1980
  816MPD2    C212061   0.123   3.861  16.893  0.4594 -0.0650 -0.0254
  816MPD2    C312062   0.236   3.772  16.901  0.6906  0.3239 -0.4472
  816MPD2    C412063   0.289   3.748  17.031 -0.3709  0.7175 -1.0782
  816MPD2    C512064   0.235   3.805  17.143  0.0791  0.4793 -0.2941
  816MPD2     H12065   0.082   3.873  16.794  1.5386 -2.2893 -0.7480
  816MPD2    H112066   0.379   3.688  17.041 -1.6604 -0.8500  1.0872
  816MPD2    H212067   0.082   3.906  17.226  1.3301 -1.9540  0.8216
  816MPD2    H312068   0.275   3.779  17.240  1.2485  1.2058 -0.5817
  816MPD2     N12069   0.292   3.732  16.779  0.1445 -0.1854 -0.0411
  816MPD2    H512070   0.259   3.778  16.696  1.0322  1.8140  0.7214
  816MPD2    N112071   4.680   3.984  17.000  0.6398 -0.5267 -0.3986
  816MPD2    H712072   4.644   4.023  17.087  1.2507 -1.9728  0.4901
  817MPD2     C12073   4.057   1.557  10.056 -0.4532  0.0114  0.2708
  817MPD2    C112074   3.981   1.482   9.973 -0.5547  0.6132 -0.0611
  817MPD2    C212075   3.862   1.539   9.920 -0.7150  0.3989 -1.2355
  817MPD2    C312076   3.837   1.679   9.926 -0.2938 -0.4192  0.5363
  817MPD2    C412077   3.924   1.752  10.007  0.5400 -0.6950  0.3552
  817MPD2    C512078   4.025   1.691  10.072  0.8848  0.2880 -0.8197
  817MPD2     H12079   3.795   1.476   9.862 -0.0166  0.5381 -2.1810
  817MPD2    H112080   3.915   1.859  10.022 -2.1290 -0.6737 -1.3273
  817MPD2    H212081   4.147   1.511  10.094 -0.3939  0.4258  0.6350
  817MPD2    H312082   4.095   1.745  10.135 -0.6199  2.7087 -1.2287
  817MPD2     N12083   3.724   1.726   9.856 -0.1533  0.4657  0.6711
  817MPD2    H512084   3.669   1.654   9.809  0.4285  1.0929 -0.9713
  817MPD2    N112085   4.008   1.343   9.946  0.0353  0.1160  0.2892
  817MPD2    H712086   3.926   1.305   9.899  1.2877 -1.4034 -0.6648
  818MPD2     C12087   2.948   1.451  10.223  0.4128  0.1634 -0.1743
  818MPD2    C112088   2.865   1.413  10.318  0.4319 -0.1034 -0.1632
  818MPD2    C212089   2.797   1.295  10.298 -0.3589 -0.6113 -0.1434
  818MPD2    C312090   2.815   1.206  10.194 -0.2501  0.2158 -0.1550
  818MPD2    C412091   2.903   1.246  10.096 -0.2587 -0.4907  0.0720
  818MPD2    C512092   2.975   1.363  10.118 -0.0589  0.0212 -0.7027
  818MPD2     H12093   2.727   1.262  10.374 -0.2526  0.1681  0.2895
  818MPD2    H112094   2.931   1.172  10.022  2.6445  0.0262  0.6549
  818MPD2    H212095   3.003   1.544  10.234 -0.7109  0.7696  0.2383
  818MPD2    H312096   3.057   1.386  10.051  0.3728 -1.1169 -0.5587
  818MPD2     N12097   2.759   1.073  10.184  0.2850  0.1360  0.5631
  818MPD2    H512098   2.781   1.020  10.100 -1.1042  1.0817 -0.4122
  818MPD2    N112099   2.844   1.485  10.432  0.7736 -0.2438 -0.1548
  818MPD2    H712100   2.770   1.446  10.490 -1.0571  2.6297 -0.6005
  819MPD2     C12101   0.874   2.720  15.711  0.2741  0.1545 -0.2768
  819MPD2    C112102   0.853   2.580  15.715 -0.3242  0.3078  0.2106
  819MPD2    C212103   0.931   2.506  15.799 -0.2025  0.2411 -1.1033
  819MPD2    C312104   1.023   2.558  15.893  0.7488 -0.0018 -0.1884
  819MPD2    C412105   1.021   2.699  15.900  0.1482 -0.0322  0.4194
  819MPD2    C512106   0.947   2.777  15.814  0.1361  0.2625 -0.6690
  819MPD2     H12107   0.924   2.399  15.780  2.1527  0.2576 -2.0646
  819MPD2    H112108   1.087   2.751  15.968  0.3939  0.9220 -0.5394
  819MPD2    H212109   0.832   2.781  15.632 -0.2524 -1.6439 -1.3724
  819MPD2    H312110   0.964   2.884  15.826 -1.5176  0.8100 -3.1049
  819MPD2     N12111   1.114   2.476  15.953  0.0677  0.0794  0.1789
  819MPD2    H512112   1.094   2.377  15.968 -0.0048 -0.0011 -0.4588
  819MPD2    N112113   0.775   2.517  15.614 -0.3001 -0.1459  0.3299
  819MPD2    H712114   0.752   2.578  15.536 -1.1068 -0.4293  0.3455
  820MPD2     C12115   0.579   2.867  14.872 -0.1301 -0.2787  0.0738
  820MPD2    C112116   0.512   2.868  14.995  0.4389  0.2302  0.1518
  820MPD2    C212117   0.543   2.765  15.081 -0.8621 -0.1749 -0.3832
  820MPD2    C312118   0.624   2.662  15.053 -0.2383 -0.1273  0.0722
  820MPD2    C412119   0.677   2.656  14.927 -0.0342 -0.5987  0.8898
  820MPD2    C512120   0.656   2.761  14.839 -0.2881  0.3097  0.5545
  820MPD2     H12121   0.502   2.777  15.181  1.3489  0.4921  0.4605
  820MPD2    H112122   0.732   2.569  14.892 -0.6551 -0.0694 -1.3401
  820MPD2    H212123   0.556   2.942  14.798  0.0533  0.3026  0.6080
  820MPD2    H312124   0.706   2.759  14.742 -0.7726  2.2681  0.2464
  820MPD2     N12125   0.645   2.565  15.153 -0.5564  0.5870 -0.3352
  820MPD2    H512126   0.622   2.594  15.248  1.4290 -0.1840  0.3684
  820MPD2    N112127   0.422   2.969  15.023  0.3778 -0.1729 -0.4331
  820MPD2    H712128   0.419   3.042  14.953 -5.7600 -0.8506 -0.8614
  821MPD2     C12129   1.217   3.438  12.711 -0.0767  0.4531  0.2523
  821MPD2    C112130   1.238   3.438  12.846 -0.5878 -0.7936  0.5842
  821MPD2    C212131   1.304   3.544  12.906  0.4708  0.5160 -0.0664
  821MPD2    C312132   1.361   3.641  12.820  0.0859  0.3516 -0.4400
  821MPD2    C412133   1.315   3.655  12.696 -0.7406  0.2528  0.2333
  821MPD2    C512134   1.252   3.550  12.637 -0.3533  0.4389 -0.2149
  821MPD2     H12135   1.321   3.536  13.013  1.0550  0.6294 -0.1504
  821MPD2    H112136   1.359   3.734  12.636 -1.3260 -0.5638 -1.2784
  821MPD2    H212137   1.158   3.362  12.662  1.4019 -0.7223  0.3182
  821MPD2    H312138   1.216   3.561  12.536 -1.3250 -2.4700 -0.1871
  821MPD2     N12139   1.448   3.743  12.873 -0.1049 -0.6383 -0.0493
  821MPD2    H512140   1.474   3.814  12.806 -0.7820 -0.1690  0.1879
  821MPD2    N112141   1.208   3.328  12.929 -0.1943 -0.0549  0.7513
  821MPD2    H712142   1.232   3.343  13.027 -0.7960 -2.8395  1.3117
  822MPD2     C12143   2.126   3.665  15.458  0.2850  0.3377 -0.1485
  822MPD2    C112144   2.052   3.652  15.580 -0.3056  0.5925 -0.0783
  822MPD2    C212145   1.939   3.736  15.590  0.5002 -0.1589  0.3758
  822MPD2    C312146   1.897   3.828  15.498 -0.7701 -0.3628 -0.0888
  822MPD2    C412147   1.977   3.844  15.388 -0.0579  0.0205 -0.3624
  822MPD2    C512148   2.089   3.762  15.370  0.8673 -0.3185 -0.0832
  822MPD2     H12149   1.883   3.734  15.683 -1.3127  0.3501 -0.7082
  822MPD2    H112150   1.956   3.927  15.322 -1.0349  0.3205  0.3254
  822MPD2    H212151   2.218   3.614  15.433 -0.8922 -1.2090 -1.3272
  822MPD2    H312152   2.153   3.774  15.283  2.9354 -0.7330  1.3684
  822MPD2     N12153   1.785   3.918  15.516 -0.0138  0.4816  0.5102
  822MPD2    H512154   1.771   3.993  15.449  1.6390 -0.2072 -0.6018
  822MPD2    N112155   2.078   3.559  15.679 -0.0544  0.0425 -0.5888
  822MPD2    H712156   2.021   3.572  15.762 -0.4946 -0.3870 -0.8213
  823MPD2     C12157   1.284   4.432  16.104 -0.0486 -0.0898  0.0052
  823MPD2    C112158   1.323   4.308  16.067 -0.7107  0.5258  0.5971
  823MPD2    C212159   1.319   4.214  16.165  0.2697 -0.1344  0.4731
  823MPD2    C312160   1.260   4.241  16.292  0.5321 -0.1840 -0.0047
  823MPD2    C412161   1.234   4.367  16.329  0.5001  0.7332 -0.1125
  823MPD2    C512162   1.242   4.465  16.230  0.0061 -0.1355  0.1512
  823MPD2     H12163   1.358   4.118  16.135  1.6951  0.8554 -0.8140
  823MPD2    H112164   1.203   4.398  16.428 -1.4422 -1.4600 -0.0371
  823MPD2    H212165   1.275   4.505  16.025  0.7784 -0.4730 -0.4512
  823MPD2    H312166   1.235   4.572  16.245  0.0918 -0.4153  2.3264
  823MPD2     N12167   1.280   4.148  16.403 -0.0897 -0.3393  0.2160
  823MPD2    H512168   1.256   4.187  16.494  0.3365  2.2397 -0.7601
  823MPD2    N112169   1.385   4.284  15.946 -0.0030  0.2336  0.1495
  823MPD2    H712170   1.410   4.367  15.893  2.9297 -1.6454 -1.3906
  824MPD2     C12171   2.586   2.883  15.871 -0.4172  0.5187 -0.2051
  824MPD2    C112172   2.559   2.984  15.783 -0.0549  0.7901  0.4710
  824MPD2    C212173   2.635   2.996  15.673  0.3816  0.5603 -0.5826
  824MPD2    C312174   2.736   2.904  15.647 -0.2308 -0.5001  0.8782
  824MPD2    C412175   2.767   2.810  15.740  0.4956  0.3818 -0.4072
  824MPD2    C512176   2.685   2.796  15.852 -0.0412  1.2339 -0.2417
  824MPD2     H12177   2.610   3.075  15.603 -0.0813  1.9341  1.1285
  824MPD2    H112178   2.841   2.732  15.724  0.2901 -0.2889  2.0354
  824MPD2    H212179   2.517   2.866  15.953  1.2500  1.4694  1.3900
  824MPD2    H312180   2.702   2.717  15.924 -3.8580 -2.0751 -2.9619
  824MPD2     N12181   2.798   2.920  15.520  0.6515  0.1148 -0.6253
  824MPD2    H512182   2.764   2.985  15.451 -0.3093  0.8017  0.4925
  824MPD2    N112183   2.465   3.089  15.804  0.1677  0.1961  0.4472
  824MPD2    H712184   2.444   3.154  15.729  1.9081 -0.1279 -0.3141
  825MPD2     C12185   2.916   3.056  14.690  0.3070 -0.2459  0.8131
  825MPD2    C112186   2.937   3.100  14.817 -1.0728  0.7843  0.3215
  825MPD2    C212187   2.943   3.233  14.843  0.1272  0.3707  0.0589
  825MPD2    C312188   2.912   3.326  14.744 -0.1524  0.4159  0.8291
  825MPD2    C412189   2.888   3.283  14.624  0.6189  0.1213  0.4770
  825MPD2    C512190   2.898   3.146  14.589  0.7099 -0.1703 -0.2244
  825MPD2     H12191   2.968   3.272  14.941  1.4225 -0.4843  0.0671
  825MPD2    H112192   2.868   3.351  14.543 -3.0124 -1.1464  0.3148
  825MPD2    H212193   2.908   2.951  14.664  0.4939  0.3934 -1.8007
  825MPD2    H312194   2.889   3.108  14.488  0.4863 -1.4401  0.2650
  825MPD2     N12195   2.910   3.464  14.774  0.1782  0.4268  0.3182
  825MPD2    H512196   2.881   3.517  14.693  0.3448 -0.1200 -0.1005
  825MPD2    N112197   2.973   3.004  14.915  0.4068 -0.0561 -0.5579
  825MPD2    H712198   2.987   2.909  14.882  1.4402 -0.1994  0.3072
  826MPD2     C12199   2.004   3.097  13.954  0.2479 -0.1750 -0.2352
  826MPD2    C112200   1.982   3.167  13.835  1.0467  0.3855  0.7630
  826MPD2    C212201   1.916   3.287  13.834  0.9136  0.6534 -0.5485
  826MPD2    C312202   1.877   3.347  13.953 -0.1135 -0.3933  0.4762
  826MPD2    C412203   1.895   3.278  14.070  0.0811  0.0652  0.0363
  826MPD2    C512204   1.949   3.150  14.069  0.9217 -0.2363 -0.0506
  826MPD2     H12205   1.919   3.346  13.743  0.1506  1.1864 -0.2301
  826MPD2    H112206   1.857   3.319  14.163  0.8174 -1.0775  0.8348
  826MPD2    H212207   2.059   3.004  13.956 -1.0316 -0.8964  0.9543
  826MPD2    H312208   1.965   3.104  14.165  1.0797  0.2912  0.1786
  826MPD2     N12209   1.828   3.474  13.965  0.5355 -0.0690  0.0685
  826MPD2    H512210   1.817   3.508  14.060 -1.8972 -1.2093  0.1774
  826MPD2    N112211   2.041   3.106  13.717  0.4534 -0.4402 -0.3543
  826MPD2    H712212   2.094   3.023  13.741  0.8254  0.0905  0.6515
  827MPD2     C12213   3.342   4.715   9.491  0.0470  0.2264  0.1659
  827MPD2    C112214   3.265   4.682   9.594  0.4471 -0.6135 -0.3914
  827MPD2    C212215   3.128   4.679   9.583 -0.8728 -0.2400  0.0203
  827MPD2    C312216   3.063   4.689   9.464  0.3081 -0.3891  0.1979
  827MPD2    C412217   3.141   4.719   9.355  0.3982 -0.3013 -0.3850
  827MPD2    C512218   3.277   4.732   9.372 -0.2978 -0.1483  0.4646
  827MPD2     H12219   3.060   4.676   9.667  0.3953 -2.0898  0.9772
  827MPD2    H112220   3.099   4.732   9.257 -2.0019  0.8007  0.7986
  827MPD2    H212221   3.448   4.731   9.509  0.4720 -0.6330 -1.5489
  827MPD2    H312222   3.335   0.025   9.285 -1.2542  0.2511 -0.0329
  827MPD2     N12223   2.923   4.668   9.460  0.0103  0.2518 -0.0491
  827MPD2    H512224   2.883   4.635   9.547  1.0337 -1.6387 -0.2927
  827MPD2    N112225   3.322   4.681   9.724  0.1689  0.4807 -0.4068
  827MPD2    H712226   3.417   4.716   9.730 -0.0465  0.6058  2.3191
  828MPD2     C12227   1.520   4.429  12.291  0.6189 -0.4131  0.3029
  828MPD2    C112228   1.437   4.520  12.224  0.2608  0.0903  0.5898
  828MPD2    C212229   1.490   4.636  12.169 -0.1580  0.3493  0.3477
  828MPD2    C312230   1.620   4.668  12.188 -0.3940 -0.7189 -0.5060
  828MPD2    C412231   1.701   4.581  12.256  0.1793  0.0263  0.7900
  828MPD2    C512232   1.652   4.459  12.298  0.0443  0.0723 -0.1191
  828MPD2     H12233   1.421   4.702  12.118 -0.9306 -1.1311 -0.5156
  828MPD2    H112234   1.801   4.607  12.288  0.3154  0.2884  0.1662
  828MPD2    H212235   1.490   4.330  12.322  1.1692 -0.6903 -0.0349
  828MPD2    H312236   1.711   4.389  12.357 -1.0434  0.5800  1.5542
  828MPD2     N12237   1.675   0.052  12.150  0.7649  0.5563  0.3291
  828MPD2    H512238   1.776   0.066  12.148  0.6479  1.2241 -1.0041
  828MPD2    N112239   1.300   4.491  12.202  0.6500  0.0894  0.3338
  828MPD2    H712240   1.249   4.560  12.149  0.7067 -0.2399 -0.1477
  829MPD2     C12241   0.767   0.330  11.846 -0.3792 -0.0934  0.1462
  829MPD2    C112242   0.673   0.231  11.885  0.2172 -0.0180  0.0485
  829MPD2    C212243   0.723   0.117  11.945 -0.2723  1.0019 -0.0728
  829MPD2    C312244   0.854   0.106  11.985 -0.7706  0.7166 -0.0328
  829MPD2    C412245   0.941   0.211  11.967  0.7503 -0.3007 -1.0815
  829MPD2    C512246   0.899   0.317  11.887  0.5157  0.1838 -0.1123
  829MPD2     H12247   0.660   0.033  11.973 -1.9381  1.4946 -2.3600
  829MPD2    H112248   1.047   0.209  11.988  0.3898 -4.7283  0.2566
  829MPD2    H212249   0.743   0.412  11.779  1.0859  1.7140  1.8451
  829MPD2    H312250   0.975   0.389  11.862  0.2960  0.9557  1.4248
  829MPD2     N12251   0.903   4.725  12.051  0.8738 -0.1427  0.3492
  829MPD2    H512252   1.005   4.719  12.051  1.1123  3.5694 -2.8228
  829MPD2    N112253   0.540   0.246  11.847 -0.2551  0.5597 -0.6586
  829MPD2    H712254   0.521   0.313  11.773  1.4564  1.7531 -0.0241
  830MPD2     C12255   1.688   1.873  15.795  0.6448  0.3188 -0.2333
  830MPD2    C112256   1.608   1.983  15.780 -0.7518 -0.9794 -0.1203
  830MPD2    C212257   1.567   2.014  15.651 -0.3645  0.2988  0.1015
  830MPD2    C312258   1.609   1.939  15.541  0.6980  0.5500 -0.1015
  830MPD2    C412259   1.697   1.834  15.552 -0.1903  0.0751 -0.5505
  830MPD2    C512260   1.733   1.801  15.686  0.2460  0.5729  0.8268
  830MPD2     H12261   1.506   2.102  15.636  0.0599  0.6832  0.6594
  830MPD2    H112262   1.742   1.781  15.469  2.5494  1.0131  0.3335
  830MPD2    H212263   1.704   1.826  15.892  1.4350  1.0141 -0.0264
  830MPD2    H312264   1.796   1.716  15.712 -1.2865  0.0054  2.6578
  830MPD2     N12265   1.562   1.975  15.416  0.2596  0.7951  0.0549
  830MPD2    H512266   1.505   2.059  15.419 -0.5555  0.2844 -1.2193
  830MPD2    N112267   1.554   2.043  15.902 -0.2335 -0.2752  0.1242
  830MPD2    H712268   1.592   2.005  15.988  2.2545  1.7043 -0.1351
  831MPD2     C12269   1.866   4.168  16.067 -0.3328 -0.4057 -0.3720
  831MPD2    C112270   1.889   4.049  16.003  0.8286 -0.6162  0.2523
  831MPD2    C212271   1.787   3.956  16.005 -0.5226 -0.5376  0.8918
  831MPD2    C312272   1.679   3.982  16.086 -0.1823  0.4321  0.2850
  831MPD2    C412273   1.674   4.098  16.160 -0.2654  0.0177  0.1989
  831MPD2    C512274   1.769   4.189  16.158 -0.4840 -0.1959  1.0830
  831MPD2     H12275   1.803   3.862  15.954 -0.1842 -0.7266  1.3487
  831MPD2    H112276   1.583   4.112  16.217  0.5406 -0.6567  1.6631
  831MPD2    H212277   1.938   4.248  16.056 -0.1642 -0.3802  0.9757
  831MPD2    H312278   1.751   4.285  16.204 -0.6675  0.5807 -0.6346
  831MPD2     N12279   1.572   3.894  16.107  0.6168  0.5028 -0.7725
  831MPD2    H512280   1.495   3.935  16.160  0.7115 -1.2102  0.6858
  831MPD2    N112281   2.000   4.051  15.917  0.4915 -0.0415  0.0565
  831MPD2    H712282   2.063   4.131  15.913  1.2050 -0.5166  1.7703
  832MPD2     C12283   0.092   0.418  17.134 -0.3284 -0.2867 -0.1073
  832MPD2    C112284   0.103   0.487  17.013  0.5083 -0.0704 -0.9465
  832MPD2    C212285   4.734   0.495  16.923  0.5557 -0.0514  0.6526
  832MPD2    C312286   4.611   0.440  16.955 -0.3579 -0.0577 -0.1574
  832MPD2    C412287   4.601   0.379  17.076  0.2989  0.2823  0.4157
  832MPD2    C512288   4.710   0.356  17.161 -0.1124 -0.1551 -0.2182
  832MPD2     H12289   0.009   0.532  16.822  1.2636  0.2892  0.8652
  832MPD2    H112290   4.509   0.328  17.102  1.1945 -1.0395  1.0327
  832MPD2    H212291   0.173   0.412  17.205  0.6128 -2.1112 -1.3438
  832MPD2    H312292   4.707   0.300  17.254 -1.1435 -0.6409 -0.5448
  832MPD2     N12293   4.502   0.423  16.862 -0.6262 -0.0924  0.2455
  832MPD2    H512294   4.420   0.372  16.894 -0.7182  0.6357  1.1708
  832MPD2    N112295   0.232   0.536  16.979 -0.3655  0.1520  0.1979
  832MPD2    H712296   0.311   0.525  17.041 -0.4572  3.3962  0.8761
  833MPD2     C12297   1.883   2.334  12.355 -0.2411  0.7925 -0.3647
  833MPD2    C112298   1.791   2.392  12.275  0.5442 -0.3233  0.2615
  833MPD2    C212299   1.822   2.505  12.203  0.4967 -0.5497 -0.9812
  833MPD2    C312300   1.945   2.572  12.218 -0.3232 -0.5083 -0.6848
  833MPD2    C412301   2.033   2.505  12.300  0.2677  0.7529 -0.5796
  833MPD2    C512302   2.007   2.392  12.360 -0.9000 -0.1146  0.6589
  833MPD2     H12303   1.751   2.546  12.132  1.6968  0.4611 -1.5879
  833MPD2    H112304   2.131   2.545  12.324 -0.0658  2.2412 -1.6552
  833MPD2    H212305   1.859   2.247  12.416  0.2629  0.2187 -0.9911
  833MPD2    H312306   2.079   2.365  12.436  0.8736  1.1808 -0.5669
  833MPD2     N12307   1.980   2.688  12.147  0.4684  0.0839 -0.2401
  833MPD2    H512308   2.079   2.706  12.154  0.0827  2.1663  0.0311
  833MPD2    N112309   1.658   2.344  12.251  0.3179 -0.1067  0.0163
  833MPD2    H712310   1.603   2.394  12.182  0.4138  1.1952  0.8837
  834MPD2     C12311   2.338   2.600  11.356 -0.0263  0.2326 -0.4674
  834MPD2    C112312   2.199   2.590  11.350  0.1465 -0.1075 -0.7706
  834MPD2    C212313   2.125   2.665  11.435 -0.1013  0.8071  0.3399
  834MPD2    C312314   2.189   2.744  11.532  0.3770  0.0993  0.3025
  834MPD2    C412315   2.329   2.754  11.530 -0.1856  0.6478 -0.6082
  834MPD2    C512316   2.394   2.683  11.446  0.4763 -0.4483 -0.1112
  834MPD2     H12317   2.017   2.655  11.443 -0.2635 -0.0185 -2.8393
  834MPD2    H112318   2.386   2.810  11.603 -1.0197 -0.5790  0.9856
  834MPD2    H212319   2.404   2.545  11.290  0.1440 -0.0351 -0.0749
  834MPD2    H312320   2.501   2.696  11.451  0.4541 -0.2448 -0.1733
  834MPD2     N12321   2.104   2.807  11.627  0.3489 -0.4552 -0.5071
  834MPD2    H512322   2.005   2.801  11.606  0.4652 -1.8525 -0.6007
  834MPD2    N112323   2.138   2.490  11.265  0.3541 -0.0231  0.3744
  834MPD2    H712324   2.207   2.424  11.230 -1.0543 -0.8177 -0.8984
  835MPD2     C12325   2.449   0.419  11.575  0.6677  0.0799 -0.4760
  835MPD2    C112326   2.360   0.494  11.649 -0.9667 -1.0466  0.2985
  835MPD2    C212327   2.391   0.537  11.777  0.6807  0.4939  0.0937
  835MPD2    C312328   2.511   0.497  11.835  0.6863  0.3435  0.1483
  835MPD2    C412329   2.595   0.411  11.769 -0.0663 -0.2869 -0.4641
  835MPD2    C512330   2.565   0.381  11.640  0.4118 -0.0414 -0.0436
  835MPD2     H12331   2.323   0.597  11.836 -2.2219 -2.9318  0.2085
  835MPD2    H112332   2.691   0.376  11.805  1.3781  1.2126 -2.8229
  835MPD2    H212333   2.436   0.390  11.472 -2.3498  0.7238 -0.2666
  835MPD2    H312334   2.637   0.316  11.591 -0.7128  0.4080 -2.2965
  835MPD2     N12335   2.541   0.518  11.972 -0.0503  0.3706 -0.2095
  835MPD2    H512336   2.618   0.464  12.011  0.6182  2.2296  1.0290
  835MPD2    N112337   2.226   0.518  11.604  0.0206 -0.0855  0.0779
  835MPD2    H712338   2.174   0.591  11.650 -0.4740  0.1187 -0.7895
  836MPD2     C12339   1.862   0.687  12.187 -0.6264  0.3695 -0.2756
  836MPD2    C112340   1.905   0.570  12.248 -0.4705 -0.0172 -1.0128
  836MPD2    C212341   1.817   0.480  12.301  0.0122  0.0738 -0.3316
  836MPD2    C312342   1.683   0.506  12.296 -0.0626 -0.3629 -0.0815
  836MPD2    C412343   1.634   0.619  12.244  0.3883 -0.0632 -0.3676
  836MPD2    C512344   1.730   0.703  12.184 -0.1860 -0.3222 -0.5886
  836MPD2     H12345   1.857   0.395  12.354  1.4743  0.7495 -0.3549
  836MPD2    H112346   1.528   0.640  12.253  0.1008 -1.2476 -0.9708
  836MPD2    H212347   1.934   0.755  12.144 -0.9261 -0.8082 -2.6574
  836MPD2    H312348   1.696   0.798  12.145 -0.3120  0.1296  0.6220
  836MPD2     N12349   1.584   0.433  12.367 -0.6473  0.8368  0.0386
  836MPD2    H512350   1.494   0.479  12.377 -0.4371  1.3750 -0.5451
  836MPD2    N112351   2.045   0.555  12.263  0.9548  0.1345  0.1285
  836MPD2    H712352   2.097   0.625  12.211  0.4963  0.9987  0.8307
  837MPD2     C12353   0.534   4.419  10.141 -0.7522 -0.3392  0.0332
  837MPD2    C112354   0.420   4.457  10.075 -0.1342 -0.1797  0.5926
  837MPD2    C212355   0.395   4.589  10.057  0.0327  0.2307  0.8937
  837MPD2    C312356   0.483   4.677  10.098 -0.3247 -0.8279  0.1537
  837MPD2    C412357   0.591   4.642  10.178 -0.3555  0.0450 -0.0059
  837MPD2    C512358   0.618   4.509  10.192  0.5806 -0.6146 -0.2510
  837MPD2     H12359   0.316   4.606   9.985  0.0221 -1.4705  0.5064
  837MPD2    H112360   0.656   4.719  10.217  1.0708 -0.3208 -1.7055
  837MPD2    H212361   0.550   4.313  10.152  3.8481  0.2242 -1.3840
  837MPD2    H312362   0.716   4.481  10.229  0.6435  0.1884  0.1824
  837MPD2     N12363   0.463   0.079  10.060 -0.3453 -0.2789 -0.4545
  837MPD2    H512364   0.381   0.099  10.005 -1.2123  0.7775  1.2120
  837MPD2    N112365   0.321   4.362  10.027  0.4225  0.2162 -0.3113
  837MPD2    H712366   0.245   4.392   9.967 -1.3031  1.6543  2.5759
  838MPD2     C12367   3.400   2.832  12.028  0.5379 -0.5955  0.3920
  838MPD2    C112368   3.342   2.733  11.936  0.3074 -0.3061 -0.4244
  838MPD2    C212369   3.274   2.624  11.988 -0.3571 -0.4928  0.3089
  838MPD2    C312370   3.276   2.606  12.120  0.8640  0.2063  0.1249
  838MPD2    C412371   3.311   2.703  12.204 -0.1386  0.0835  0.3680
  838MPD2    C512372   3.387   2.813  12.164  0.4431 -0.1013 -0.3071
  838MPD2     H12373   3.242   2.549  11.916  1.4502 -0.2650 -0.7320
  838MPD2    H112374   3.302   2.682  12.310 -3.1611  1.3629  0.3442
  838MPD2    H212375   3.452   2.924  12.004  0.5078 -0.4126  1.0395
  838MPD2    H312376   3.426   2.877  12.242 -0.0601 -1.0979  0.7635
  838MPD2     N12377   3.229   2.489  12.183  0.0974 -0.1539  0.1285
  838MPD2    H512378   3.220   2.491  12.284 -2.2009 -1.3958 -0.0659
  838MPD2    N112379   3.338   2.762  11.793 -0.6388 -0.3320  0.3537
  838MPD2    H712380   3.284   2.706  11.728  0.4711 -1.3470  0.3039
  839MPD2     C12381   3.344   2.071  11.775  0.2376 -0.3486 -0.0327
  839MPD2    C112382   3.344   2.080  11.637  0.2121 -0.9816 -0.2941
  839MPD2    C212383   3.404   2.187  11.571 -0.5039  0.1439  0.1289
  839MPD2    C312384   3.451   2.293  11.643  0.2054 -0.2754  0.0605
  839MPD2    C412385   3.450   2.273  11.782  0.5263  0.1020  0.1333
  839MPD2    C512386   3.396   2.171  11.848  0.3210 -0.7116 -0.0887
  839MPD2     H12387   3.398   2.184  11.463  0.1491  0.4943  0.0833
  839MPD2    H112388   3.476   2.360  11.841 -0.6775 -0.7921  1.9745
  839MPD2    H212389   3.315   1.984  11.833  1.2399  0.1299  1.1844
  839MPD2    H312390   3.400   2.169  11.956 -0.4030 -0.6674 -0.0641
  839MPD2     N12391   3.493   2.425  11.606  0.3649  0.3041 -0.0905
  839MPD2    H512392   3.522   2.493  11.676 -3.2238  1.2793  0.4496
  839MPD2    N112393   3.309   1.979  11.547  0.2982  0.7118  0.3326
  839MPD2    H712394   3.318   1.989  11.447 -0.7373 -0.4650  0.1197
  840MPD2     C12395   3.877   0.179   9.885 -0.4408  0.1474  0.8755
  840MPD2    C112396   3.799   0.195   9.999 -0.4033  0.2215 -0.7494
  840MPD2    C212397   3.846   0.267  10.109  0.6869 -0.5029 -0.5431
  840MPD2    C312398   3.965   0.340  10.100 -0.3413 -0.1677 -0.4398
  840MPD2    C412399   4.040   0.330   9.984  0.4963  0.0261 -0.1892
  840MPD2    C512400   3.994   0.250   9.881 -0.2335 -0.0804 -0.1083
  840MPD2     H12401   3.785   0.266  10.199  0.5371  0.9485 -0.6409
  840MPD2    H112402   4.136   0.379   9.968 -0.1917  1.7600  0.9994
  840MPD2    H212403   3.847   0.114   9.804  1.1303  0.5225 -0.0083
  840MPD2    H312404   4.053   0.229   9.793 -0.6052  1.0983 -0.6326
  840MPD2     N12405   4.020   0.410  10.211 -0.3824  0.4725 -0.2789
  840MPD2    H512406   4.110   0.454  10.193  0.9717 -1.9323  0.4712
  840MPD2    N112407   3.678   0.110  10.013 -0.7913 -0.7038  0.3461
  840MPD2    H712408   3.634   0.077   9.928 -0.0678  3.0572 -1.4949
  841MPD2     C12409   3.383   4.208  14.032 -0.4224  1.1238  0.2747
  841MPD2    C112410   3.406   4.105  14.122 -0.1390 -1.2563 -0.0168
  841MPD2    C212411   3.542   4.081  14.149 -0.1782  0.0745 -0.1530
  841MPD2    C312412   3.644   4.152  14.093  0.7314 -0.8695 -0.1722
  841MPD2    C412413   3.618   4.245  13.997 -0.2166  0.2353  0.1161
  841MPD2    C512414   3.489   4.272  13.968  0.1789  0.2126 -0.1550
  841MPD2     H12415   3.562   4.013  14.232  0.8311 -3.8428 -3.5986
  841MPD2    H112416   3.699   4.297  13.948  0.2001 -0.2783  0.2596
  841MPD2    H212417   3.282   4.233  14.002 -1.8291 -1.3512  2.8912
  841MPD2    H312418   3.458   4.340  13.889 -0.6838  0.5494  0.4707
  841MPD2     N12419   3.770   4.113  14.135 -0.8047 -0.1921  0.3634
  841MPD2    H512420   3.760   4.036  14.200  1.7665  0.3815  1.4471
  841MPD2    N112421   3.299   4.030  14.178  0.4475  0.4715  0.6531
  841MPD2    H712422   3.208   4.049  14.137  1.8700 -0.0193 -2.7297
  842MPD2     C12423   4.022   0.664  16.588 -0.7362  0.2660 -0.1470
  842MPD2    C112424   3.934   0.585  16.670 -0.3671  0.6625  0.1352
  842MPD2    C212425   3.971   0.559  16.798  0.0857 -0.0462  0.0446
  842MPD2    C312426   4.087   0.599  16.857 -0.5017  0.3574 -0.0040
  842MPD2    C412427   4.167   0.684  16.779  0.1129 -0.1504  0.4697
  842MPD2    C512428   4.133   0.716  16.648  0.1806 -0.1434  0.5092
  842MPD2     H12429   3.900   0.498  16.853 -0.2170 -1.8534 -2.3393
  842MPD2    H112430   4.256   0.737  16.811 -1.4712  1.9608  1.3984
  842MPD2    H212431   4.004   0.692  16.485 -2.5679 -1.5479 -0.3297
  842MPD2    H312432   4.201   0.780  16.593 -0.3946  0.4128  0.4373
  842MPD2     N12433   4.114   0.591  16.997  0.3710 -0.2883  0.2517
  842MPD2    H512434   4.192   0.648  17.026  0.4312  0.7459 -1.8981
  842MPD2    N112435   3.816   0.548  16.603 -0.3254  0.1819  0.1447
  842MPD2    H712436   3.817   0.568  16.503 -0.9969  0.3850  0.1739
  843MPD2     C12437   1.746   1.667  17.344 -0.0616 -0.4072 -0.5675
  843MPD2    C112438   1.702   1.592  17.455  0.0344  0.0943  0.0129
  843MPD2    C212439   1.724   1.645  17.579  0.7746 -0.2032  0.0373
  843MPD2    C312440   1.799   1.757  17.599 -0.7018  0.7213 -0.2653
  843MPD2    C412441   1.856   1.818  17.488  0.8630 -0.0292 -0.1345
  843MPD2    C512442   1.814   1.785  17.362 -0.3362  0.1048  0.2610
  843MPD2     H12443   1.673   1.600  17.664 -0.5260 -0.0576 -0.6590
  843MPD2    H112444   1.922   1.904  17.499 -1.6622  1.9084 -0.2640
  843MPD2    H212445   1.721   1.639  17.242 -0.1194  0.3316 -0.7551
  843MPD2    H312446   1.856   1.836  17.276 -2.1039  1.2228  0.0596
  843MPD2     N12447   1.800   1.828  17.718  0.8549 -0.4121  0.3291
  843MPD2    H512448   1.855   1.914  17.720 -1.5616  1.1194  0.4155
  843MPD2    N112449   1.651   1.466  17.425  0.1176  0.0583 -0.2769
  843MPD2    H712450   1.643   1.442  17.327  3.4593  0.4271 -0.6338
  844MPD2     C12451   4.625   4.437  16.655 -0.6917  0.0441 -0.4337
  844MPD2    C112452   4.607   4.492  16.529  0.1306  0.8244  0.5637
  844MPD2    C212453   4.631   4.622  16.519 -0.4144  0.0101 -0.6224
  844MPD2    C312454   4.684   4.695  16.624  0.1904 -0.1388  0.3048
  844MPD2    C412455   4.712   4.639  16.745  0.3334  0.7564 -0.6065
  844MPD2    C512456   4.686   4.503  16.761 -0.5491  0.3277 -0.1503
  844MPD2     H12457   4.600   4.682  16.434 -1.4261  1.3663  0.7035
  844MPD2    H112458   0.027   4.690  16.826  1.0218  0.1672 -0.6806
  844MPD2    H212459   4.571   4.345  16.675 -1.9385  0.7900 -0.4333
  844MPD2    H312460   4.717   4.454  16.853 -0.1946 -0.4252 -0.6682
  844MPD2     N12461   4.699   0.099  16.611  0.6456 -0.2447 -0.4986
  844MPD2    H512462   0.006   0.146  16.689  0.4692 -2.0327  0.6875
  844MPD2    N112463   4.550   4.418  16.418 -0.3457 -0.2537  0.1183
  844MPD2    H712464   4.528   4.476  16.338  0.9229 -0.2843 -0.2478
  845MPD2     C12465   0.028   1.147  16.547 -0.7190 -0.9522 -1.1079
  845MPD2    C112466   0.083   1.078  16.656  0.5728  0.5248  0.2245
  845MPD2    C212467   0.107   0.946  16.649  0.3049 -0.4252  0.0658
  845MPD2    C312468   0.058   0.876  16.537  0.4676 -0.5034  1.2582
  845MPD2    C412469   0.013   0.949  16.430 -0.2484 -0.1683  0.0226
  845MPD2    C512470   4.729   1.081  16.435  0.3272 -0.0075 -0.2855
  845MPD2     H12471   0.141   0.878  16.726  1.5454  0.3239  0.1859
  845MPD2    H112472   4.721   0.894  16.341 -3.4474  2.9089 -0.8150
  845MPD2    H212473   0.013   1.254  16.553 -1.2296 -0.9130 -3.2966
  845MPD2    H312474   4.688   1.134  16.350  1.6985 -1.1600 -1.6729
  845MPD2     N12475   0.080   0.740  16.526  0.0698  0.1082  0.4811
  845MPD2    H512476   0.121   0.695  16.608  0.0041 -0.5984  0.1280
  845MPD2    N112477   0.111   1.157  16.765  0.1875  0.9480  0.4812
  845MPD2    H712478   0.084   1.255  16.764 -2.0687  0.3383  1.5840
  846MPD2     C12479   1.199   1.454  13.492  0.4928  0.2409 -0.6193
  846MPD2    C112480   1.102   1.541  13.525 -0.0008 -0.0681 -0.0959
  846MPD2    C212481   1.040   1.529  13.647 -0.0790 -0.8804 -0.5505
  846MPD2    C312482   1.078   1.426  13.737  0.2012  0.1545 -0.1327
  846MPD2    C412483   1.179   1.333  13.695  0.4482  0.0750  0.6158
  846MPD2    C512484   1.237   1.348  13.570 -0.0129  0.2551  0.5367
  846MPD2     H12485   0.961   1.596  13.681  0.8944 -0.3869  0.7137
  846MPD2    H112486   1.220   1.254  13.757 -0.5935  0.6208  1.9958
  846MPD2    H212487   1.251   1.461  13.396  1.9238 -0.1216  0.1211
  846MPD2    H312488   1.325   1.292  13.539  0.9265  0.3160  3.0930
  846MPD2     N12489   1.026   1.406  13.870  0.0733 -0.1843 -0.1547
  846MPD2    H512490   1.045   1.314  13.907 -1.4787 -0.4637 -0.0363
  846MPD2    N112491   1.058   1.640  13.435 -0.3452 -0.1629  0.3281
  846MPD2    H712492   0.991   1.709  13.468  3.4133  3.2985  0.5769
  847MPD2     C12493   2.112   2.266  15.065 -0.2874 -0.3018 -0.1584
  847MPD2    C112494   2.154   2.389  15.012 -0.3098  0.0493  0.2770
  847MPD2    C212495   2.234   2.466  15.097 -0.1915 -1.0150  0.7189
  847MPD2    C312496   2.264   2.432  15.223  0.2256 -0.3807  0.1018
  847MPD2    C412497   2.231   2.307  15.268 -0.1391 -0.3325  0.0988
  847MPD2    C512498   2.143   2.227  15.197  0.4365  0.3933 -0.1552
  847MPD2     H12499   2.277   2.560  15.065 -3.1480 -0.8080 -2.7060
  847MPD2    H112500   2.261   2.283  15.369 -1.4370  0.5228  0.6880
  847MPD2    H212501   2.040   2.206  15.011  1.2829 -1.0046 -1.4872
  847MPD2    H312502   2.118   2.134  15.246 -2.2458  2.1154  1.7548
  847MPD2     N12503   2.339   2.527  15.298  0.4482  0.2365 -0.0811
  847MPD2    H512504   2.364   2.612  15.248  2.6378  1.1611  2.5876
  847MPD2    N112505   2.113   2.444  14.891  0.0643 -0.7282 -0.3881
  847MPD2    H712506   2.140   2.536  14.858 -0.4597 -0.6787 -0.6897
  848MPD2     C12507   4.412   0.655  16.039 -0.1128  0.5259 -0.2383
  848MPD2    C112508   4.403   0.701  16.166  0.5050 -0.1985  0.2006
  848MPD2    C212509   4.395   0.835  16.187  0.1312  0.1430 -0.3585
  848MPD2    C312510   4.407   0.923  16.081  0.3182 -0.0236  0.8558
  848MPD2    C412511   4.413   0.874  15.953  0.1559  0.5868  0.4967
  848MPD2    C512512   4.433   0.745  15.934 -0.1560 -0.0915 -0.0761
  848MPD2     H12513   4.382   0.876  16.287  3.3540  0.0896  0.1074
  848MPD2    H112514   4.405   0.933  15.862  0.8056  1.0460  0.7417
  848MPD2    H212515   4.430   0.552  16.010  0.0129 -0.0456  1.9287
  848MPD2    H312516   4.459   0.714  15.833  2.5492  2.1873 -0.0843
  848MPD2     N12517   4.374   1.061  16.093 -0.5404  0.6491 -0.5366
  848MPD2    H512518   4.349   1.103  16.004 -1.5253 -0.4345 -0.7676
  848MPD2    N112519   4.388   0.623  16.278 -0.1213 -0.1279  0.0921
  848MPD2    H712520   4.374   0.674  16.364  1.2605 -1.6357  1.2104
  849MPD2     C12521   3.460   0.393  14.310  0.2439 -0.0763 -0.1490
  849MPD2    C112522   3.438   0.276  14.244  1.0122  0.9879  0.0445
  849MPD2    C212523   3.490   0.161  14.298 -0.2777  0.3795  0.0562
  849MPD2    C312524   3.572   0.166  14.413  0.6310  0.9582  0.7120
  849MPD2    C412525   3.593   0.279  14.482 -0.4787 -0.3393 -0.0156
  849MPD2    C512526   3.539   0.396  14.427 -0.1580  0.5252  0.3293
  849MPD2     H12527   3.474   0.064  14.254  0.4657  0.3354 -0.1145
  849MPD2    H112528   3.639   0.277  14.580 -0.3980  1.0121 -0.0214
  849MPD2    H212529   3.430   0.486  14.264 -0.5256  0.3013  1.1234
  849MPD2    H312530   3.561   0.496  14.464  3.9883 -0.1750 -0.2894
  849MPD2     N12531   3.620   0.041  14.450 -0.5689  0.3495  0.1941
  849MPD2    H512532   3.585   4.708  14.386  0.0793  1.1634 -1.0357
  849MPD2    N112533   3.368   0.258  14.123 -0.2999  0.4066  0.2281
  849MPD2    H712534   3.350   0.162  14.094  0.4418  0.3640 -0.0969
  850MPD2     C12535   1.610   3.704  14.724 -0.2249 -0.2245  0.1354
  850MPD2    C112536   1.673   3.589  14.744  0.2085 -0.1883 -0.4154
  850MPD2    C212537   1.804   3.581  14.729 -0.2797 -0.3179  0.0145
  850MPD2    C312538   1.877   3.695  14.709 -0.1071 -0.1425 -0.1479
  850MPD2    C412539   1.805   3.814  14.697 -0.6837  0.0127  0.0807
  850MPD2    C512540   1.672   3.815  14.688 -0.3064 -0.8061  0.6735
  850MPD2     H12541   1.855   3.486  14.723  0.2616  0.0426 -1.0999
  850MPD2    H112542   1.854   3.906  14.670 -0.0059 -1.3273 -3.2929
  850MPD2    H212543   1.504   3.717  14.743 -0.3058 -1.0641  0.2814
  850MPD2    H312544   1.619   3.908  14.674 -3.8932 -2.8595  0.7188
  850MPD2     N12545   2.020   3.697  14.693 -0.2014  0.2232 -0.2086
  850MPD2    H512546   2.064   3.788  14.687  0.5854 -0.0839  1.0356
  850MPD2    N112547   1.602   3.480  14.787  0.0560 -0.3893  0.3589
  850MPD2    H712548   1.501   3.487  14.774  0.0893  1.5821  1.2004
  851MPD2     C12549   1.831   2.794  15.152  0.0291 -0.3540 -0.1385
  851MPD2    C112550   1.706   2.785  15.090 -0.3651 -0.4043 -0.1247
  851MPD2    C212551   1.658   2.654  15.051 -0.3630  0.1950 -0.1680
  851MPD2    C312552   1.735   2.537  15.084  0.0487  0.3770 -0.5884
  851MPD2    C412553   1.858   2.554  15.152 -0.1047  0.5414  0.0377
  851MPD2    C512554   1.899   2.682  15.181 -0.7475 -0.6181  0.6072
  851MPD2     H12555   1.570   2.642  14.989 -0.1116  0.6056 -0.6051
  851MPD2    H112556   1.927   2.473  15.174  0.6233  1.4944  1.2181
  851MPD2    H212557   1.880   2.888  15.174 -0.2593 -0.6905  1.9169
  851MPD2    H312558   1.991   2.678  15.237 -1.7029  0.0965  2.2035
  851MPD2     N12559   1.689   2.416  15.036 -0.0068 -0.1993  0.1744
  851MPD2    H512560   1.618   2.427  14.965  0.2334  0.4830  0.0395
  851MPD2    N112561   1.644   2.904  15.035 -0.0782 -0.3448 -0.2138
  851MPD2    H712562   1.684   2.991  15.070  2.0958 -1.1710 -0.6682
  852MPD2     C12563   0.372   1.974   9.946 -0.7539  0.0609 -0.5308
  852MPD2    C112564   0.481   1.990  10.029  0.0538 -0.4000 -0.5309
  852MPD2    C212565   0.524   2.119  10.062 -0.4823 -0.8662 -0.1894
  852MPD2    C312566   0.450   2.225  10.019 -0.1527  1.0134 -0.6601
  852MPD2    C412567   0.346   2.207   9.935 -0.3288  0.2647 -0.0756
  852MPD2    C512568   0.305   2.081   9.903 -0.1550 -1.2293  0.0943
  852MPD2     H12569   0.604   2.132  10.134  1.0978 -2.0739 -1.7463
  852MPD2    H112570   0.280   2.282   9.892  0.7681  1.4956  0.3929
  852MPD2    H212571   0.337   1.879   9.906  0.9637 -0.2642 -1.2928
  852MPD2    H312572   0.225   2.078   9.830  0.5065 -1.0562 -0.6429
  852MPD2     N12573   0.490   2.350  10.068 -0.1868  0.0758  0.3308
  852MPD2    H512574   0.553   2.343  10.148 -0.9162 -2.6398  0.6951
  852MPD2    N112575   0.546   1.876  10.086  0.6224  0.7850  0.0685
  852MPD2    H712576   0.635   1.903  10.126  0.9106  1.0241 -0.7305
  853MPD2     C12577   2.792   0.599  12.396 -0.2746 -0.1362  0.4326
  853MPD2    C112578   2.710   0.697  12.350  0.2969 -0.0441  0.3528
  853MPD2    C212579   2.728   0.731  12.216  0.3027  0.7007 -0.4478
  853MPD2    C312580   2.826   0.675  12.136  0.2682 -0.1225 -0.1965
  853MPD2    C412581   2.920   0.595  12.196 -0.1396  0.1521 -0.7056
  853MPD2    C512582   2.901   0.554  12.323 -0.1775  0.1798  1.0816
  853MPD2     H12583   2.646   0.787  12.174 -2.2718 -1.3838  1.7801
  853MPD2    H112584   3.012   0.565  12.147  0.6317 -1.5334  1.7721
  853MPD2    H212585   2.779   0.548  12.491  1.1628 -0.6110  0.3633
  853MPD2    H312586   2.970   0.479  12.360 -0.8765 -0.8545  0.2813
  853MPD2     N12587   2.841   0.698  11.997  0.2405 -0.5347 -0.2898
  853MPD2    H512588   2.926   0.665  11.952  1.1840 -0.0009  1.0968
  853MPD2    N112589   2.612   0.754  12.445 -0.2384 -0.0609 -0.2866
  853MPD2    H712590   2.615   0.707  12.534  1.7701 -1.4070 -1.0718
  854MPD2     C12591   3.928   0.774  12.757 -0.6101 -0.1911 -0.3758
  854MPD2    C112592   4.030   0.865  12.766 -0.3970 -0.0420 -0.0289
  854MPD2    C212593   4.155   0.820  12.802 -0.1380  0.0511  0.4283
  854MPD2    C312594   4.182   0.684  12.815  0.5610 -0.4610 -0.0570
  854MPD2    C412595   4.082   0.595  12.796  0.0315 -0.2178 -0.3160
  854MPD2    C512596   3.949   0.638  12.773  0.3713  0.0133 -0.0146
  854MPD2     H12597   4.234   0.892  12.821 -0.5590  0.0462  2.2204
  854MPD2    H112598   4.103   0.489  12.809  0.8047  0.0015  0.2591
  854MPD2    H212599   3.822   0.799  12.753 -0.8387 -0.9537  0.9063
  854MPD2    H312600   3.871   0.565  12.753  0.9145 -0.4748 -0.3603
  854MPD2     N12601   4.313   0.634  12.846 -0.1698 -0.4873  0.5511
  854MPD2    H512602   4.325   0.533  12.846 -0.5570 -0.5287 -0.4111
  854MPD2    N112603   4.001   0.999  12.745  0.1091 -0.3664  0.0071
  854MPD2    H712604   3.904   1.029  12.748  0.2504  0.4463 -3.3355
  855MPD2     C12605   0.411   0.727  13.438  0.4270 -0.0183 -0.1507
  855MPD2    C112606   0.385   0.594  13.402 -0.0975  0.6302 -0.5321
  855MPD2    C212607   0.288   0.567  13.314 -0.6202  0.1134  0.2308
  855MPD2    C312608   0.209   0.670  13.260  0.0637  0.1721 -1.3165
  855MPD2    C412609   0.217   0.797  13.312  0.0297  0.1617  0.6645
  855MPD2    C512610   0.328   0.822  13.390 -0.1126  0.5554  0.1884
  855MPD2     H12611   0.272   0.463  13.285  0.3483  0.5395 -1.8577
  855MPD2    H112612   0.156   0.875  13.267  1.1537 -0.0869 -1.2785
  855MPD2    H212613   0.485   0.758  13.511  0.1239  0.1136  0.0996
  855MPD2    H312614   0.346   0.926  13.414  1.3673  0.4267 -0.3888
  855MPD2     N12615   0.119   0.661  13.147 -0.5289  0.2211  0.0779
  855MPD2    H512616   0.054   0.737  13.132  0.0946  1.3566  3.2190
  855MPD2    N112617   0.460   0.486  13.447 -0.2273  0.4657 -0.1453
  855MPD2    H712618   0.423   0.398  13.411 -0.1383  0.3921 -0.0592
  856MPD2     C12619   2.123   1.676  13.529 -0.3341  0.6485  0.2890
  856MPD2    C112620   2.200   1.765  13.600 -0.1558 -0.8751 -0.4338
  856MPD2    C212621   2.143   1.879  13.660  0.0581 -0.1720 -0.6128
  856MPD2    C312622   2.009   1.897  13.645  1.2367 -0.3224  0.0340
  856MPD2    C412623   1.940   1.822  13.559 -0.0226 -0.1757  0.8971
  856MPD2    C512624   1.994   1.711  13.508 -0.1383 -0.4029 -0.5109
  856MPD2     H12625   2.201   1.945  13.723 -2.4477  0.6223  0.8609
  856MPD2    H112626   1.836   1.843  13.539 -0.3703 -0.9879  1.8642
  856MPD2    H212627   2.165   1.590  13.479  1.0464  0.9667  0.8965
  856MPD2    H312628   1.929   1.652  13.444 -1.3807  1.4093 -0.9319
  856MPD2     N12629   1.934   2.000  13.709  0.4480 -0.2559  0.6940
  856MPD2    H512630   1.836   2.013  13.683  0.2932 -1.5160  0.6368
  856MPD2    N112631   2.343   1.744  13.617  0.5910  0.3078  0.3329
  856MPD2    H712632   2.392   1.821  13.661 -1.4892  2.6754 -1.4751
  857MPD2     C12633   3.997   4.163  12.479  0.9876 -0.1290  0.9619
  857MPD2    C112634   3.982   4.055  12.560  0.0473 -0.0974  0.1065
  857MPD2    C212635   3.983   4.076  12.699 -0.1795  0.2450 -0.2087
  857MPD2    C312636   4.003   4.196  12.759 -0.1443  0.0749 -0.9630
  857MPD2    C412637   4.031   4.301  12.677  0.1078  0.7206 -0.3708
  857MPD2    C512638   4.022   4.285  12.538 -0.5259  0.2704  0.3007
  857MPD2     H12639   3.964   3.991  12.763 -0.6780  0.2360 -0.3673
  857MPD2    H112640   4.043   4.402  12.714 -0.8306 -0.1927  2.4363
  857MPD2    H212641   3.989   4.151  12.372  0.1267  0.1108  1.0018
  857MPD2    H312642   4.035   4.374  12.477  0.1050  0.5429  0.8394
  857MPD2     N12643   4.000   4.207  12.901 -0.3750 -0.2640 -0.3066
  857MPD2    H512644   3.988   4.115  12.942 -1.5546  1.0124  2.2354
  857MPD2    N112645   3.962   3.924  12.510  0.3741  1.2217  0.0345
  857MPD2    H712646   3.944   3.911  12.411  2.1959 -0.5916 -0.0533
  858MPD2     C12647   0.238   3.084  16.601  0.1460 -0.5387  0.1402
  858MPD2    C112648   0.157   3.000  16.679  1.1617 -0.2697 -0.7761
  858MPD2    C212649   0.115   3.041  16.810 -0.3115  0.1008 -0.4461
  858MPD2    C312650   0.148   3.167  16.856 -0.5687 -0.1307  0.2979
  858MPD2    C412651   0.222   3.253  16.777 -0.4289 -0.0015 -0.3551
  858MPD2    C512652   0.265   3.207  16.655  0.2887 -0.0422  0.2506
  858MPD2     H12653   0.057   2.975  16.873 -0.6748 -0.4786 -1.3783
  858MPD2    H112654   0.242   3.355  16.809 -1.9740 -0.5242  2.2761
  858MPD2    H212655   0.295   3.057  16.512 -0.9580 -1.5381 -0.2550
  858MPD2    H312656   0.324   3.277  16.597  1.2669 -1.2230 -0.1872
  858MPD2     N12657   0.104   3.220  16.975 -0.2457  0.2573  0.9317
  858MPD2    H512658   0.131   3.316  16.994 -2.8838  0.6956  2.5195
  858MPD2    N112659   0.132   2.871  16.619  0.0344  0.4707  0.0942
  858MPD2    H712660   0.169   2.860  16.525  1.7233  1.9081  0.5828
  859MPD2     C12661   2.837   4.572  14.726  0.1837  0.0105  0.3892
  859MPD2    C112662   2.956   4.538  14.659  0.3239  0.1633 -0.3161
  859MPD2    C212663   3.016   4.412  14.689 -0.3911 -0.3666  0.2784
  859MPD2    C312664   2.956   4.326  14.781  0.6708 -0.0204 -0.3424
  859MPD2    C412665   2.836   4.361  14.841  0.5865  0.1913 -0.7021
  859MPD2    C512666   2.771   4.479  14.807  0.5870  0.1566 -0.3222
  859MPD2     H12667   3.111   4.395  14.639  0.6672  1.6591  1.5803
  859MPD2    H112668   2.806   4.294  14.920  0.5516  0.1634 -0.7390
  859MPD2    H212669   2.801   4.673  14.709 -1.3973 -0.9362 -1.9023
  859MPD2    H312670   2.680   4.512  14.855  0.5493  1.3869 -1.2376
  859MPD2     N12671   3.022   4.212  14.823 -0.6721  0.3214 -0.2462
  859MPD2    H512672   2.974   4.158  14.895 -1.1711  0.1411 -0.7091
  859MPD2    N112673   3.029   4.635  14.592 -0.5200 -0.3579  0.0276
  859MPD2    H712674   2.977   4.721  14.577  0.1941  0.4330  2.0277
  860MPD2     C12675   0.525   1.186  11.366  1.0693  0.0559  0.0605
  860MPD2    C112676   0.613   1.103  11.432  0.0350 -0.3113 -0.3145
  860MPD2    C212677   0.565   1.035  11.544  0.7173  0.1534 -0.3288
  860MPD2    C312678   0.432   1.052  11.583 -0.0802 -0.5286 -0.0649
  860MPD2    C412679   0.345   1.129  11.508 -0.1808 -0.1185 -0.2803
  860MPD2    C512680   0.393   1.201  11.407 -0.3077  0.2997  0.4097
  860MPD2     H12681   0.634   0.973  11.600  2.5846  1.7519 -0.8521
  860MPD2    H112682   0.237   1.119  11.520  0.1855 -1.7635  1.6542
  860MPD2    H212683   0.551   1.244  11.278  0.8101  0.5161  0.2803
  860MPD2    H312684   0.337   1.276  11.352 -2.4634 -1.5323  0.1193
  860MPD2     N12685   0.376   0.975  11.689 -0.3114 -0.1966 -0.2903
  860MPD2    H512686   0.280   0.997  11.716  0.1379  2.0283 -0.4476
  860MPD2    N112687   0.752   1.099  11.415 -0.7139 -0.4490  0.1276
  860MPD2    H712688   0.805   1.030  11.467  0.4831 -0.0524 -0.5861
  861MPD2     C12689   0.264   4.322  10.880 -0.0121  0.9898 -0.1864
  861MPD2    C112690   0.145   4.260  10.878  0.3415 -0.4467  0.4628
  861MPD2    C212691   0.064   4.287  10.770 -0.6340  0.3608 -0.6285
  861MPD2    C312692   0.098   4.376  10.669  0.6698  0.0178  0.6046
  861MPD2    C412693   0.224   4.440  10.676  0.4181  0.4489  0.0557
  861MPD2    C512694   0.305   4.404  10.777 -0.8841  0.6895  0.3635
  861MPD2     H12695   4.705   4.237  10.768 -1.0648  1.1981 -1.0814
  861MPD2    H112696   0.259   4.515  10.606 -1.1422 -0.5902 -1.8425
  861MPD2    H212697   0.316   4.327  10.975  1.6265  0.3912 -1.0570
  861MPD2    H312698   0.404   4.446  10.791  0.4341 -1.3882 -2.6671
  861MPD2     N12699   0.007   4.414  10.564 -0.2616 -0.3071 -0.5335
  861MPD2    H512700   0.038   4.482  10.496 -0.5556  1.6076  1.2408
  861MPD2    N112701   0.089   4.182  10.983 -0.4775  0.8395  0.0491
  861MPD2    H712702   4.727   4.162  10.973 -0.3156 -0.5830  1.1866
  862MPD2     C12703   3.909   4.286  10.367 -0.2676 -0.5030 -0.5375
  862MPD2    C112704   4.018   4.264  10.448  0.4012  0.5542 -0.2590
  862MPD2    C212705   4.004   4.189  10.560  0.4970 -0.3495  0.1539
  862MPD2    C312706   3.881   4.153  10.603 -0.4773 -0.0690 -0.3517
  862MPD2    C412707   3.775   4.169  10.519 -0.5951 -0.2451  0.0358
  862MPD2    C512708   3.786   4.233  10.397 -0.6904  0.7449 -0.1401
  862MPD2     H12709   4.095   4.174  10.616  0.4110  2.3361  1.0285
  862MPD2    H112710   3.677   4.138  10.556 -1.6792 -1.0974 -3.5493
  862MPD2    H212711   3.913   4.338  10.272 -1.5598 -0.3507 -0.5139
  862MPD2    H312712   3.702   4.235  10.329 -0.8886 -0.4806  0.0646
  862MPD2     N12713   3.861   4.092  10.729  0.0889 -0.2852  0.1345
  862MPD2    H512714   3.766   4.067  10.752 -0.5598  2.3051  0.3098
  862MPD2    N112715   4.150   4.309  10.424  0.5488 -0.2099 -1.1259
  862MPD2    H712716   4.220   4.272  10.488 -0.1892 -0.6819 -0.5837
  863MPD2     C12717   3.366   1.854  16.457 -0.8196 -0.0113 -0.2666
  863MPD2    C112718   3.284   1.906  16.551  0.3150  0.5259 -0.2670
  863MPD2    C212719   3.323   1.904  16.686  0.0274 -0.0172 -0.1543
  863MPD2    C312720   3.438   1.840  16.723 -0.0053  0.6698  1.1290
  863MPD2    C412721   3.507   1.774  16.624 -0.0237 -0.3733 -0.1949
  863MPD2    C512722   3.479   1.789  16.489 -0.2183  0.4009 -0.6722
  863MPD2     H12723   3.259   1.953  16.759 -2.5415  0.6058 -2.8137
  863MPD2    H112724   3.597   1.714  16.636 -0.4402 -0.8176  0.7198
  863MPD2    H212725   3.337   1.855  16.352  2.3685  0.7277 -1.1482
  863MPD2    H312726   3.533   1.723  16.422 -0.4138  0.8465 -1.2667
  863MPD2     N12727   3.479   1.837  16.858  0.4875 -0.0224 -0.4607
  863MPD2    H512728   3.540   1.762  16.890 -0.2454 -0.6386 -0.5127
  863MPD2    N112729   3.175   1.980  16.506 -0.7756  0.0485  0.4084
  863MPD2    H712730   3.171   1.981  16.405  0.1834  0.9349  0.3770
  864MPD2     C12731   3.662   3.446  17.420 -0.1733  0.5558  0.9985
  864MPD2    C112732   3.682   3.396  17.294 -0.1911 -0.3109  0.6724
  864MPD2    C212733   3.776   3.456  17.204  0.8208 -0.4789 -0.4918
  864MPD2    C312734   3.852   3.563  17.255  0.0398  0.0826  0.0510
  864MPD2    C412735   3.822   3.613  17.375 -0.1747  0.0972  0.1412
  864MPD2    C512736   3.735   3.553  17.459  0.1836 -0.1338  0.5523
  864MPD2     H12737   3.805   3.409  17.111  1.4381 -0.5766 -0.2493
  864MPD2    H112738   3.878   3.698  17.413  1.0557 -1.1134  1.0774
  864MPD2    H212739   3.597   3.402  17.494 -0.7248  1.1120  0.8504
  864MPD2    H312740   3.722   3.597  17.557  2.4805 -1.3404  1.4022
  864MPD2     N12741   3.944   3.631  17.173  0.8252  0.2685  0.8676
  864MPD2    H512742   3.971   3.726  17.196 -2.8409  1.3060  0.9277
  864MPD2    N112743   3.617   3.271  17.266  0.5307 -0.0620 -0.3861
  864MPD2    H712744   3.545   3.239  17.330  3.2382 -1.3671  2.0290
  865MPD2     C12745   3.877   3.867  16.213 -0.2337 -0.2626  0.0442
  865MPD2    C112746   3.848   3.763  16.297  0.1558  0.3462  0.2314
  865MPD2    C212747   3.881   3.776  16.430  0.4557 -0.5277  0.1075
  865MPD2    C312748   3.948   3.892  16.477  0.8128  0.7119 -0.3015
  865MPD2    C412749   3.976   3.992  16.387 -0.0959  0.0093 -0.0987
  865MPD2    C512750   3.950   3.973  16.253 -0.2349  0.0079  0.1700
  865MPD2     H12751   3.858   3.695  16.498  1.6799  1.2020  2.5917
  865MPD2    H112752   4.024   4.085  16.417  1.4444 -1.3939  1.7940
  865MPD2    H212753   3.851   3.862  16.108  2.2249 -2.1923 -0.4720
  865MPD2    H312754   3.980   4.045  16.178 -1.4404  1.0119  0.6424
  865MPD2     N12755   4.003   3.911  16.608 -0.0138 -0.1578 -0.7628
  865MPD2    H512756   4.079   3.974  16.633  1.0399 -1.3462 -0.9995
  865MPD2    N112757   3.803   3.646  16.235 -0.1811 -0.0332  0.2706
  865MPD2    H712758   3.796   3.648  16.133 -0.1177  1.8519  0.3120
  866MPD2     C12759   0.358   4.250  11.356 -0.4247  0.0889 -0.1801
  866MPD2    C112760   0.384   4.337  11.254 -0.3020  0.0367 -1.0680
  866MPD2    C212761   0.288   4.431  11.220 -0.3054  0.3497  0.4430
  866MPD2    C312762   0.171   4.436  11.289 -0.1996  0.5306 -0.7134
  866MPD2    C412763   0.154   4.352  11.401  0.3361  0.1242 -0.1279
  866MPD2    C512764   0.246   4.257  11.432  0.4045  0.1278  0.6642
  866MPD2     H12765   0.300   4.497  11.135 -1.7307 -1.6640 -1.3066
  866MPD2    H112766   0.066   4.345  11.463 -0.3751 -0.5499 -1.2236
  866MPD2    H212767   0.426   4.167  11.376  1.7751  2.2136  1.1527
  866MPD2    H312768   0.231   4.193  11.518 -0.6942  0.2281  0.5471
  866MPD2     N12769   0.062   4.525  11.250 -0.0678 -0.4017 -0.4576
  866MPD2    H512770   4.710   4.515  11.296 -0.5866 -0.4922 -1.4749
  866MPD2    N112771   0.497   4.315  11.173  0.0809 -0.4280 -0.3119
  866MPD2    H712772   0.561   4.237  11.189 -0.2145 -0.1435  2.2848
  867MPD2     C12773   3.425   3.301  16.649  0.5906 -0.2550 -0.5931
  867MPD2    C112774   3.368   3.285  16.779 -0.0654 -0.1984  0.2059
  867MPD2    C212775   3.389   3.382  16.877 -0.4153 -0.4843 -0.4748
  867MPD2    C312776   3.487   3.476  16.853 -0.0757  0.0837 -0.4897
  867MPD2    C412777   3.555   3.476  16.729 -0.7661 -0.3743  0.2499
  867MPD2    C512778   3.519   3.387  16.630  0.3031 -0.4143  0.1215
  867MPD2     H12779   3.341   3.377  16.974  0.1183  1.7004 -0.0939
  867MPD2    H112780   3.637   3.541  16.703 -0.7590 -0.7105 -0.5441
  867MPD2    H212781   3.406   3.232  16.568 -0.8907  0.6504 -1.0078
  867MPD2    H312782   3.564   3.395  16.532 -0.3961 -1.2191 -0.2703
  867MPD2     N12783   3.529   3.571  16.947  0.1397  0.4376  0.2606
  867MPD2    H512784   3.609   3.631  16.927 -1.0966  1.6961 -0.8676
  867MPD2    N112785   3.271   3.179  16.789  0.7428 -0.2577 -0.6295
  867MPD2    H712786   3.257   3.126  16.703 -0.4525  0.4290 -0.8482
  868MPD2     C12787   3.640   1.885  12.804 -0.1503  0.1261  0.3137
  868MPD2    C112788   3.667   2.019  12.818 -0.2774 -0.0049  0.0400
  868MPD2    C212789   3.569   2.100  12.881  0.1308  0.8077 -0.2551
  868MPD2    C312790   3.454   2.053  12.928 -0.2296  0.1320 -0.7632
  868MPD2    C412791   3.429   1.916  12.916 -0.0254 -0.1769  0.3057
  868MPD2    C512792   3.522   1.833  12.857 -0.3978 -0.4369  0.1377
  868MPD2     H12793   3.595   2.204  12.900 -0.6286  0.5916  1.9355
  868MPD2    H112794   3.330   1.876  12.935  0.3660 -1.3167 -0.1035
  868MPD2    H212795   3.714   1.818  12.762  1.1532  1.0728  1.0783
  868MPD2    H312796   3.500   1.730  12.830  1.3229 -0.7310 -0.1515
  868MPD2     N12797   3.366   2.140  12.997  0.0172 -0.0641  0.3240
  868MPD2    H512798   3.391   2.238  12.992 -0.1136 -0.0127  0.6670
  868MPD2    N112799   3.796   2.070  12.777  0.1364 -0.5156 -0.2286
  868MPD2    H712800   3.864   2.005  12.740  0.0654 -1.0829  0.6180
  869MPD2     C12801   0.799   4.542   0.335  0.2422 -0.4073  0.5322
  869MPD2    C112802   0.823   4.642   0.246 -0.2702  0.1077  0.9533
  869MPD2    C212803   0.955   4.692   0.238 -0.5433  0.0281 -0.9398
  869MPD2    C312804   1.055   4.649   0.329 -0.0301  0.3395 -0.2611
  869MPD2    C412805   1.025   4.549   0.415  0.9904 -0.5403  0.4641
  869MPD2    C512806   0.902   4.490   0.412 -0.1243 -0.1212 -0.3834
  869MPD2     H12807   0.957   0.046   0.180 -2.9583  1.1048  0.6512
  869MPD2    H112808   1.098   4.506   0.483  0.3319  0.7039  1.9634
  869MPD2    H212809   0.700   4.500   0.346  0.4648 -0.9027  0.6532
  869MPD2    H312810   0.878   4.414   0.485  2.4616  1.4514  2.1125
  869MPD2     N12811   1.180   4.717   0.349 -0.1484  0.3287  0.1783
  869MPD2    H512812   1.248   4.678   0.413  0.9022  1.8110 -0.0373
  869MPD2    N112813   0.713   4.698   0.172 -0.4169  0.2306  0.3036
  869MPD2    H712814   0.624   4.687   0.220 -1.0672 -1.0850 -1.2087
  870MPD2     C12815   1.522   4.047   1.076  0.1044  0.3015 -0.0439
  870MPD2    C112816   1.431   4.017   0.980  0.4395  0.0708  0.2572
  870MPD2    C212817   1.313   4.088   0.978  0.4004  0.1727 -1.0363
  870MPD2    C312818   1.275   4.174   1.077 -0.7353  0.0042  0.3432
  870MPD2    C412819   1.366   4.194   1.177 -0.1236 -0.0714  0.0816
  870MPD2    C512820   1.490   4.133   1.178 -0.1263 -0.4581 -0.3553
  870MPD2     H12821   1.237   4.062   0.905 -1.6124  3.7052 -0.1780
  870MPD2    H112822   1.343   4.251   1.266  0.0915 -0.7099  0.5519
  870MPD2    H212823   1.620   4.006   1.093  0.6205  1.5581  0.0187
  870MPD2    H312824   1.566   4.149   1.254  0.7033 -0.1235 -1.2511
  870MPD2     N12825   1.146   4.242   1.073 -0.0108  0.1897 -0.3209
  870MPD2    H512826   1.086   4.230   0.992 -0.2011  1.1731 -0.3239
  870MPD2    N112827   1.466   3.915   0.887  0.5989  0.1421  0.0086
  870MPD2    H712828   1.555   3.866   0.885  0.7303  0.3246  1.6963
  871MPD2     C12829   1.820   3.630  16.313  0.2686  0.0160 -0.2746
  871MPD2    C112830   1.760   3.615  16.436 -0.6873  0.0358 -0.2582
  871MPD2    C212831   1.749   3.482  16.480  0.0935 -0.0818 -0.4976
  871MPD2    C312832   1.799   3.368  16.407 -0.1368 -0.3267  0.3476
  871MPD2    C412833   1.870   3.404  16.295  0.5617 -0.2324  0.0675
  871MPD2    C512834   1.886   3.533  16.250 -0.2109 -0.3083  0.2246
  871MPD2     H12835   1.702   3.459  16.575  0.7868  1.9487  0.3399
  871MPD2    H112836   1.911   3.330  16.227  2.3163  2.4588 -1.8005
  871MPD2    H212837   1.817   3.728  16.268  3.8465  1.4411  2.5044
  871MPD2    H312838   1.926   3.556  16.152  1.8471 -2.4422  0.5592
  871MPD2     N12839   1.797   3.238  16.462  0.0430  0.5436 -0.2978
  871MPD2    H512840   1.729   3.231  16.537  0.7550  1.9041  0.4646
  871MPD2    N112841   1.696   3.720  16.498  0.0320 -0.5017 -0.4326
  871MPD2    H712842   1.698   3.806  16.445  2.3021 -0.3377 -0.0881
  872MPD2     C12843   2.617   1.138  13.823 -0.1951  0.1500 -0.7392
  872MPD2    C112844   2.528   1.099  13.726  0.3582 -0.8581  0.0139
  872MPD2    C212845   2.398   1.141  13.748 -0.2865  0.3840 -0.8180
  872MPD2    C312846   2.360   1.219  13.858  0.8667 -0.1891  0.1348
  872MPD2    C412847   2.459   1.253  13.948 -0.2214 -0.2143  0.3225
  872MPD2    C512848   2.590   1.216  13.927 -0.1747  0.1832  0.2897
  872MPD2     H12849   2.325   1.097  13.680 -1.1954  2.5318 -1.2188
  872MPD2    H112850   2.423   1.295  14.041  1.9247 -1.3199  1.6763
  872MPD2    H212851   2.721   1.112  13.807 -0.2577 -1.2161  1.1157
  872MPD2    H312852   2.671   1.242  13.995  1.0949 -0.3644 -1.0099
  872MPD2     N12853   2.224   1.254  13.884  0.1411  0.1107  0.2969
  872MPD2    H512854   2.218   1.286  13.980 -3.0120 -1.2171  0.5339
  872MPD2    N112855   2.552   1.032  13.606  0.3073  0.1288 -0.0507
  872MPD2    H712856   2.478   1.040  13.537 -0.5566  1.0045  0.9755
  873MPD2     C12857   4.692   0.760   0.873  0.1297 -0.4031  0.1574
  873MPD2    C112858   4.605   0.744   0.984 -0.0872  0.1958  0.9710
  873MPD2    C212859   4.526   0.624   0.988  0.4507  0.0219 -0.1583
  873MPD2    C312860   4.543   0.526   0.892  0.4962 -0.6718 -0.1079
  873MPD2    C412861   4.628   0.545   0.784  0.6432 -0.2535  0.1949
  873MPD2    C512862   4.686   0.673   0.773 -0.1736 -0.9980  0.2122
  873MPD2     H12863   4.451   0.620   1.066  2.3439 -1.8653  1.5660
  873MPD2    H112864   4.639   0.481   0.697 -0.6014 -1.0865  0.6600
  873MPD2    H212865   4.736   0.858   0.860  0.0108 -0.4840 -0.8695
  873MPD2    H312866   0.001   0.696   0.680 -0.5484  0.2094  0.2973
  873MPD2     N12867   4.465   0.400   0.905 -0.5945 -0.7989 -0.2153
  873MPD2    H512868   4.481   0.331   0.832 -2.5310  0.7913 -2.1359
  873MPD2    N112869   4.611   0.843   1.080  0.1992  0.1304 -0.0522
  873MPD2    H712870   4.673   0.922   1.064  0.3700 -0.5797 -3.0632
  874MPD2     C12871   3.556   1.021  16.085  0.2062  1.0803 -0.2394
  874MPD2    C112872   3.632   0.949  16.177  0.5833 -0.0694 -0.5684
  874MPD2    C212873   3.759   1.001  16.201 -0.2776  0.0535  0.2100
  874MPD2    C312874   3.798   1.123  16.138 -0.2649 -0.2778  0.1388
  874MPD2    C412875   3.714   1.188  16.051  0.3958 -0.1451  0.5319
  874MPD2    C512876   3.593   1.133  16.025 -0.8968 -0.1695 -0.3084
  874MPD2     H12877   3.832   0.948  16.261  1.9506 -0.2911 -2.8094
  874MPD2    H112878   3.730   1.284  16.003  0.2210  1.0318  2.7838
  874MPD2    H212879   3.456   0.985  16.061  1.7805 -1.7863 -2.4539
  874MPD2    H312880   3.522   1.179  15.957 -0.2703 -1.0214 -1.5532
  874MPD2     N12881   3.921   1.177  16.176 -0.3948 -0.4680 -0.4443
  874MPD2    H512882   3.983   1.113  16.224 -0.4187 -1.6553 -2.0049
  874MPD2    N112883   3.569   0.844  16.246 -0.5838 -0.3079  0.0960
  874MPD2    H712884   3.470   0.825  16.233 -0.2255 -1.3573 -1.0274
  875MPD2     C12885   4.414   4.297  14.812 -0.3643 -0.1104 -0.5577
  875MPD2    C112886   4.531   4.348  14.752 -0.1746  0.4792 -0.2764
  875MPD2    C212887   4.607   4.445  14.811 -0.0913 -0.2722  0.9327
  875MPD2    C312888   4.577   4.490  14.936  0.6979  0.5069 -0.1721
  875MPD2    C412889   4.460   4.443  14.995 -0.4931  0.2574 -0.5511
  875MPD2    C512890   4.372   4.360  14.929 -0.3959  0.4251 -0.2597
  875MPD2     H12891   4.710   4.441  14.777 -0.4998 -2.3394 -0.0658
  875MPD2    H112892   4.429   4.487  15.089  0.6475  0.8523 -0.4533
  875MPD2    H212893   4.350   4.217  14.777 -1.2775  0.7908 -0.9533
  875MPD2    H312894   4.285   4.314  14.975 -0.3874  1.5796  0.9135
  875MPD2     N12895   4.680   4.544  15.025 -0.0004  0.6945 -0.0994
  875MPD2    H512896   4.648   4.549  15.122  0.0082 -1.6333  0.0124
  875MPD2    N112897   4.571   4.297  14.623  0.1396 -0.1010 -0.8080
  875MPD2    H712898   4.652   4.337  14.577  0.4852  0.9912  0.7622
  876MPD2     C12899   4.042   1.262  15.362  0.0048 -0.4020 -0.1447
  876MPD2    C112900   3.996   1.132  15.352 -0.5896  0.1103 -0.3930
  876MPD2    C212901   3.990   1.056  15.466  0.0502  0.1423  0.1111
  876MPD2    C312902   4.034   1.102  15.588 -0.5956 -0.0326 -0.9069
  876MPD2    C412903   4.088   1.227  15.602 -0.3383 -0.0751  0.5198
  876MPD2    C512904   4.079   1.307  15.490 -0.5191 -0.4897  0.3890
  876MPD2     H12905   3.955   0.954  15.468 -1.1113  0.5295 -0.5034
  876MPD2    H112906   4.129   1.271  15.692 -0.9167 -2.0712  1.7724
  876MPD2    H212907   4.054   1.326  15.275 -0.4745 -2.3060 -1.5997
  876MPD2    H312908   4.115   1.408  15.505 -2.0274  0.3196 -1.3996
  876MPD2     N12909   4.034   1.010  15.692  0.4589 -0.0478 -0.0638
  876MPD2    H512910   3.985   0.923  15.671  2.8931 -0.7383 -2.9599
  876MPD2    N112911   3.967   1.080  15.229 -0.2384  0.9392  0.0830
  876MPD2    H712912   3.963   1.149  15.154  0.4845  0.6362 -0.2295
  877MPD2     C12913   3.902   1.133  14.440 -0.1138  0.3328 -0.2822
  877MPD2    C112914   3.925   1.001  14.467  0.4535 -0.6630  0.2900
  877MPD2    C212915   3.927   0.910  14.366  0.1942 -0.6741  0.6951
  877MPD2    C312916   3.893   0.950  14.240  0.6320 -0.1404 -0.1371
  877MPD2    C412917   3.852   1.075  14.215  0.9749  0.3072  0.5496
  877MPD2    C512918   3.853   1.167  14.316  0.9352  0.0172 -0.0213
  877MPD2     H12919   3.964   0.811  14.389  0.6023 -0.4339  1.0966
  877MPD2    H112920   3.835   1.112  14.115 -2.1653 -2.9055 -0.1170
  877MPD2    H212921   3.903   1.213  14.513  0.6873 -0.1663  0.2558
  877MPD2    H312922   3.851   1.270  14.282  0.8175  0.2586  0.7265
  877MPD2     N12923   3.884   0.855  14.134 -0.3305 -0.1941 -0.7574
  877MPD2    H512924   3.836   0.890  14.052  1.9260  2.6469 -0.8703
  877MPD2    N112925   3.955   0.955  14.595 -0.1633  0.1056  0.2316
  877MPD2    H712926   3.969   0.856  14.613 -0.1053  0.5522  2.6915
  878MPD2     C12927   2.530   0.326  13.458 -0.3774  0.8203  0.2167
  878MPD2    C112928   2.649   0.300  13.392 -0.0211 -0.0008  0.0381
  878MPD2    C212929   2.765   0.286  13.468  0.5194  0.0593  1.5290
  878MPD2    C312930   2.761   0.291  13.604 -0.5705  0.3708  0.3263
  878MPD2    C412931   2.644   0.334  13.660 -0.4387  0.8163 -0.3213
  878MPD2    C512932   2.528   0.348  13.592 -0.1955 -0.4358 -0.2882
  878MPD2     H12933   2.861   0.264  13.422  0.3713 -0.2306  1.3568
  878MPD2    H112934   2.629   0.329  13.767 -0.5050 -1.2816 -0.4319
  878MPD2    H212935   2.440   0.324  13.399 -0.5075  0.8240  0.4171
  878MPD2    H312936   2.435   0.362  13.644  0.3326  4.2391 -0.5808
  878MPD2     N12937   2.876   0.257  13.682 -0.1615 -0.4442 -0.8462
  878MPD2    H512938   2.959   0.212  13.645  1.7927  2.1332  0.3936
  878MPD2    N112939   2.653   0.286  13.253  0.2602 -0.3491 -0.0923
  878MPD2    H712940   2.562   0.297  13.210  0.2556  0.1074  0.0291
  879MPD2     C12941   3.846   2.181  17.078  0.1202  0.3439  0.1912
  879MPD2    C112942   3.871   2.056  17.130  1.0193  0.0427  0.2839
  879MPD2    C212943   3.860   1.944  17.051  0.0578  0.4356  0.6913
  879MPD2    C312944   3.827   1.965  16.915 -0.2939  0.0706 -0.4945
  879MPD2    C412945   3.785   2.088  16.872  0.0751  0.2335  0.1918
  879MPD2    C512946   3.796   2.200  16.949 -0.3546  0.1008 -0.2201
  879MPD2     H12947   3.889   1.848  17.093  0.0229 -0.2380 -0.8092
  879MPD2    H112948   3.749   2.100  16.770 -2.7732 -0.2697  1.1362
  879MPD2    H212949   3.858   2.266  17.144 -1.1291 -0.6957  1.7500
  879MPD2    H312950   3.756   2.294  16.914  0.7019  0.3225 -0.8124
  879MPD2     N12951   3.832   1.864  16.817 -0.4749  0.2557  0.3368
  879MPD2    H512952   3.783   1.886  16.731  0.6420 -3.2174 -1.1847
  879MPD2    N112953   3.918   2.055  17.263 -0.3891 -0.2900 -0.6337
  879MPD2    H712954   3.946   2.147  17.295  2.0077 -1.2370 -0.0071
  880MPD2     C12955   0.703   3.499   0.001 -0.1638 -0.6111 -0.6267
  880MPD2    C112956   0.762   3.582   0.093  0.4004 -0.2911  0.5535
  880MPD2    C212957   0.849   3.522   0.182 -0.1994  0.6892  0.1661
  880MPD2    C312958   0.874   3.387   0.175 -0.0977 -0.5491  0.1356
  880MPD2    C412959   0.825   3.310   0.077  0.2409 -0.8591  0.6459
  880MPD2    C512960   0.733   3.365  17.739  0.3373 -0.3341 -0.5551
  880MPD2     H12961   0.896   3.588   0.254 -0.6014 -0.0540  1.1077
  880MPD2    H112962   0.852   3.207   0.054 -1.2939 -0.8692 -1.0944
  880MPD2    H212963   0.632   3.538  17.676 -0.2047  0.7584  0.1416
  880MPD2    H312964   0.689   3.315  17.654 -1.1232  0.5671 -0.3323
  880MPD2     N12965   0.985   3.348   0.249 -0.3106 -0.2038  0.3133
  880MPD2    H512966   1.033   3.417   0.305 -2.1847  0.5542  0.9887
  880MPD2    N112967   0.734   3.724   0.079  0.0304  0.3362 -0.4721
  880MPD2    H712968   0.660   3.750   0.014 -2.5214 -1.8692  1.5364
  881MPD2     C12969   0.471   4.529  17.321  0.1882 -0.0854  0.8215
  881MPD2    C112970   0.485   4.389  17.299 -0.4092 -0.7846  0.3745
  881MPD2    C212971   0.516   4.306  17.409 -0.1376 -0.3859 -0.7171
  881MPD2    C312972   0.503   4.352  17.537  0.8068 -0.4003 -0.0568
  881MPD2    C412973   0.472   4.486  17.554 -0.7118  0.6523 -0.1924
  881MPD2    C512974   0.463   4.574  17.450  0.2002  0.0029  0.5085
  881MPD2     H12975   0.538   4.201  17.391  0.6497  0.0018 -2.0512
  881MPD2    H112976   0.441   4.534  17.646  1.6573  0.7312  0.5585
  881MPD2    H212977   0.436   4.589  17.238 -1.1143 -0.4617  1.0942
  881MPD2    H312978   0.413   4.667  17.474  0.5729  0.0610  1.0478
  881MPD2     N12979   0.524   4.276  17.656  0.0119  0.1219  0.3550
  881MPD2    H512980   0.511   4.321  17.746  0.2493 -0.2493  0.5787
  881MPD2    N112981   0.494   4.335  17.171  0.4509 -0.5965 -0.0147
  881MPD2    H712982   0.483   4.405  17.099  1.5061  0.9478  1.3315
  882MPD2     C12983   3.368   0.390  13.626  1.3611  0.1727 -0.2355
  882MPD2    C112984   3.391   0.484  13.725  0.3912  0.0213  0.3917
  882MPD2    C212985   3.293   0.563  13.770  0.1004  0.1280  0.1995
  882MPD2    C312986   3.162   0.550  13.724  0.1112  0.2567 -0.1307
  882MPD2    C412987   3.141   0.459  13.627  1.0963  0.5743  0.3757
  882MPD2    C512988   3.239   0.380  13.580  1.0247  0.5229  0.2140
  882MPD2     H12989   3.316   0.642  13.841  0.3733 -1.3180  1.7206
  882MPD2    H112990   3.041   0.426  13.600 -0.1433  3.2739  1.7108
  882MPD2    H212991   3.446   0.325  13.588  0.8607 -0.3360 -0.3947
  882MPD2    H312992   3.227   0.299  13.509  0.3958  0.3408  0.5313
  882MPD2     N12993   3.045   0.600  13.791  0.0704  0.3141 -0.3126
  882MPD2    H512994   2.956   0.586  13.745  1.2459 -3.8536 -1.3715
  882MPD2    N112995   3.523   0.483  13.781  0.0383 -0.1935 -0.5058
  882MPD2    H712996   3.593   0.420  13.743  2.2479 -0.0918  3.3814
  883MPD2     C12997   1.008   0.934  16.070 -0.1608  0.1358 -0.7017
  883MPD2    C112998   1.043   0.962  15.939 -0.3335 -0.1522 -0.0505
  883MPD2    C212999   1.182   0.978  15.919  0.2453 -0.1278  0.2314
  883MPD2    C313000   1.274   0.965  16.026 -0.3855  0.0500  0.1667
  883MPD2    C413001   1.234   0.937  16.150 -0.0482 -0.6068 -0.2563
  883MPD2    C513002   1.100   0.925  16.174 -0.7622 -0.5821  0.1517
  883MPD2     H13003   1.224   0.996  15.821  1.6019 -0.4169  0.7568
  883MPD2    H113004   1.298   0.943  16.237  1.1925 -0.7706 -1.1545
  883MPD2    H213005   0.907   0.940  16.108  0.5247 -1.5390  1.3672
  883MPD2    H313006   1.061   0.900  16.272 -1.2182 -0.6710 -0.0537
  883MPD2     N13007   1.410   0.979  15.999 -0.2816  0.5538 -0.1963
  883MPD2    H513008   1.426   1.011  15.904  1.3427 -2.3337 -0.8966
  883MPD2    N113009   0.950   0.969  15.829  0.2107 -0.6160  0.2635
  883MPD2    H713010   0.983   0.973  15.733 -3.3739  0.7563 -0.8828
  884MPD2     C13011   3.295   1.906  14.987 -0.0567  0.3633  0.6748
  884MPD2    C113012   3.249   2.035  14.960  0.3034  0.3579  0.9988
  884MPD2    C213013   3.113   2.057  14.990  0.0566  0.1395  0.0928
  884MPD2    C313014   3.031   1.953  15.029 -0.0523 -0.5799  0.5510
  884MPD2    C413015   3.085   1.826  15.057  0.4601 -0.0295 -0.7710
  884MPD2    C513016   3.214   1.808  15.025 -0.2705  0.2492 -0.3353
  884MPD2     H13017   3.083   2.161  14.979 -1.7280 -0.4324 -0.3815
  884MPD2    H113018   3.022   1.741  15.084  2.2357 -1.6941 -1.8269
  884MPD2    H213019   3.397   1.873  14.966 -0.9147 -1.2440 -1.0288
  884MPD2    H313020   3.254   1.709  15.041  0.5729  1.0614  2.5095
  884MPD2     N13021   2.892   1.988  15.053 -0.7841  0.0181 -0.0464
  884MPD2    H513022   2.864   2.083  15.032 -0.8655 -0.0910 -0.4206
  884MPD2    N113023   3.329   2.138  14.905 -0.2882 -0.3548  0.4407
  884MPD2    H713024   3.282   2.225  14.880  2.2939  1.8631  3.3101
  885MPD2     C13025   1.319   1.674   0.262  0.0789 -0.2990  0.1015
  885MPD2    C113026   1.366   1.801   0.258  0.1145  0.0966  0.7701
  885MPD2    C213027   1.405   1.854   0.135  0.5973 -0.8400 -0.8776
  885MPD2    C313028   1.395   1.787   0.012 -0.3792 -0.0965  0.6847
  885MPD2    C413029   1.337   1.667   0.021  0.0473 -0.8334  0.5815
  885MPD2    C513030   1.297   1.609   0.144  0.4926  0.0494  0.1911
  885MPD2     H13031   1.451   1.952   0.142  1.2358 -1.3603  2.1719
  885MPD2    H113032   1.303   1.619  17.677  0.6056  0.4758 -0.3139
  885MPD2    H213033   1.288   1.615   0.348  1.5886 -1.7863 -0.3834
  885MPD2    H313034   1.247   1.513   0.148  0.1710  0.1796 -0.5663
  885MPD2     N13035   1.432   1.836  17.631 -0.3442  0.1585 -0.3075
  885MPD2    H513036   1.414   1.779  17.549  2.8057 -0.9143 -0.2626
  885MPD2    N113037   1.396   1.865   0.380  0.5287 -0.1445 -0.1905
  885MPD2    H713038   1.399   1.805   0.462 -0.4574 -1.4419 -1.1174
  886MPD2     C13039   2.274   0.615  15.130 -0.3722  0.3790  0.1688
  886MPD2    C113040   2.402   0.653  15.156 -0.9265  0.1502 -0.1370
  886MPD2    C213041   2.464   0.750  15.079 -0.4894 -0.2854 -0.2025
  886MPD2    C313042   2.396   0.815  14.978  0.0778 -0.6098  0.1212
  886MPD2    C413043   2.264   0.775  14.956 -0.0704 -0.3461  0.2929
  886MPD2    C513044   2.200   0.686  15.036  0.4248 -0.4530  0.7935
  886MPD2     H13045   2.569   0.771  15.095  0.0237 -2.3478 -0.9067
  886MPD2    H113046   2.207   0.824  14.877  0.1295 -2.7093 -1.3365
  886MPD2    H213047   2.215   0.550  15.193  0.3745  0.1614  0.6410
  886MPD2    H313048   2.094   0.666  15.027  0.4821 -0.3439 -0.1197
  886MPD2     N13049   2.450   0.921  14.897 -0.3375 -0.2397  0.7220
  886MPD2    H513050   2.380   0.954  14.832 -0.1084 -1.1710 -0.0061
  886MPD2    N113051   2.479   0.597  15.260 -1.4786  0.2918 -0.1487
  886MPD2    H713052   2.571   0.635  15.279 -0.4221 -2.0884 -0.4718
  887MPD2     C13053   2.904   0.758  15.806 -0.5508  0.1030  0.8044
  887MPD2    C113054   2.940   0.703  15.687  0.2323 -0.2543 -0.0802
  887MPD2    C213055   3.068   0.730  15.633 -0.2376 -0.0994 -0.3492
  887MPD2    C313056   3.166   0.798  15.708 -0.4862  0.5937  0.3439
  887MPD2    C413057   3.130   0.851  15.831  0.0779  0.0249  0.7407
  887MPD2    C513058   3.004   0.828  15.877 -0.1279  0.1480 -0.1437
  887MPD2     H13059   3.087   0.693  15.533  0.2529 -1.7892  0.3863
  887MPD2    H113060   3.201   0.907  15.891 -0.7365  2.2637 -0.3828
  887MPD2    H213061   2.810   0.746  15.858 -0.3229 -0.4154  1.0909
  887MPD2    H313062   2.987   0.877  15.972  0.6645  0.4525 -0.1635
  887MPD2     N13063   3.295   0.813  15.651  0.6068  0.9574  0.7468
  887MPD2    H513064   3.322   0.785  15.558  0.4074 -3.0238  1.8745
  887MPD2    N113065   2.866   0.614  15.612  0.4366  0.1241 -0.8554
  887MPD2    H713066   2.890   0.609  15.514  2.3997 -2.5969 -0.2623
  888MPD2     C13067   0.207   0.483  15.070 -0.3101  0.3989  0.2821
  888MPD2    C113068   0.178   0.525  15.199 -0.3924  0.4321 -0.3223
  888MPD2    C213069   0.219   0.655  15.231 -0.3233  0.2251  0.5195
  888MPD2    C313070   0.298   0.724  15.140  0.6164 -0.9026 -0.3809
  888MPD2    C413071   0.336   0.669  15.022 -0.5768  0.7366  0.0122
  888MPD2    C513072   0.289   0.547  14.990 -0.5408  0.8994 -0.4498
  888MPD2     H13073   0.189   0.697  15.327  3.0873  0.6860  1.3734
  888MPD2    H113074   0.404   0.718  14.954  0.0691  2.5468  1.9430
  888MPD2    H213075   0.198   0.380  15.039  2.4897  0.0351  0.6679
  888MPD2    H313076   0.319   0.491  14.902 -0.7093 -0.2205  0.1958
  888MPD2     N13077   0.328   0.859  15.165  0.1681 -0.2733 -0.1642
  888MPD2    H513078   0.306   0.902  15.254 -0.2195 -1.6973  0.4161
  888MPD2    N113079   0.107   0.440  15.292  0.3539  0.4597  0.3900
  888MPD2    H713080   0.084   0.480  15.382 -0.3809  1.1101 -0.0876
  889MPD2     C13081   4.410   4.548  13.500  0.2926 -0.5046  0.3641
  889MPD2    C113082   4.288   4.603  13.492 -0.3612  0.0810  0.1160
  889MPD2    C213083   4.276   0.004  13.488 -0.0210  0.0043 -0.1652
  889MPD2    C313084   4.384   0.078  13.535 -0.4168 -0.0727  0.1547
  889MPD2    C413085   4.506   0.020  13.549 -0.7092 -0.9643  0.1125
  889MPD2    C513086   4.514   4.622  13.531  0.6059 -0.1881  0.2294
  889MPD2     H13087   4.183   0.053  13.462  1.3821  2.8056  0.0924
  889MPD2    H113088   4.594   0.077  13.576  0.5667 -0.0284 -6.1209
  889MPD2    H213089   4.423   4.444  13.472  0.7244 -0.5226  0.6293
  889MPD2    H313090   4.615   4.583  13.535 -0.0994 -2.0380 -0.0273
  889MPD2     N13091   4.374   0.217  13.543 -0.3729 -0.0048  0.2323
  889MPD2    H513092   4.282   0.253  13.520  0.0455 -0.2059 -1.7466
  889MPD2    N113093   4.188   4.517  13.438 -0.1457 -0.1215  0.2125
  889MPD2    H713094   4.208   4.417  13.437  2.4615  0.4046  1.7914
  890MPD2     C13095   3.897   2.144  14.482 -0.6087  0.2524  0.0189
  890MPD2    C113096   4.007   2.210  14.535  0.1664 -0.0348 -0.7289
  890MPD2    C213097   4.048   2.177  14.659  0.2680  0.3075 -0.4789
  890MPD2    C313098   3.993   2.072  14.729 -0.5319 -0.1286  0.5600
  890MPD2    C413099   3.897   1.989  14.670  0.3280 -0.3261  0.4770
  890MPD2    C513100   3.849   2.032  14.546  0.0156  0.3156 -0.1215
  890MPD2     H13101   4.110   2.242  14.720 -1.6554  1.5898  0.1372
  890MPD2    H113102   3.847   1.913  14.728 -0.5600  1.8826  2.6059
  890MPD2    H213103   3.854   2.174  14.388  1.3951  1.6685 -0.4501
  890MPD2    H313104   3.766   1.976  14.504  2.4181 -0.7947 -3.3754
  890MPD2     N13105   4.046   2.041  14.853 -0.1493  0.1276 -0.0985
  890MPD2    H513106   4.125   2.095  14.886  0.7054 -0.9971 -0.3048
  890MPD2    N113107   4.087   2.308  14.462 -0.3099 -0.5902  0.1394
  890MPD2    H713108   4.042   2.321  14.372  1.1781  0.8812 -0.3872
  891MPD2     C13109   2.127   0.093  16.233 -0.2368  0.8165  0.2661
  891MPD2    C113110   2.105   0.100  16.369 -0.1322  0.0977 -0.5991
  891MPD2    C213111   2.181   0.017  16.454 -0.5081  0.1817 -0.6838
  891MPD2    C313112   2.282   4.676  16.408 -0.9853 -0.0562  0.4945
  891MPD2    C413113   2.314   4.691  16.272  0.0737 -0.3984  0.3101
  891MPD2    C513114   2.243   0.031  16.183 -0.2413 -0.0132  0.2424
  891MPD2     H13115   2.156   0.015  16.559 -0.0742  1.9690 -0.5424
  891MPD2    H113116   2.391   4.632  16.224  0.1194  0.1708 -0.3100
  891MPD2    H213117   2.060   0.155  16.175 -0.1955 -1.6700 -2.4517
  891MPD2    H313118   2.274   0.036  16.079 -0.5623 -1.8553  0.0586
  891MPD2     N13119   2.359   4.602  16.504  0.0036 -0.3858  0.5795
  891MPD2    H513120   2.327   4.598  16.600 -1.4474 -1.3108  0.0545
  891MPD2    N113121   1.996   0.182  16.405  0.1310 -0.1118  0.0668
  891MPD2    H713122   1.950   0.235  16.331  0.3056 -1.3937 -0.9640
  892MPD2     C13123   3.060   1.483  14.266 -0.8005 -1.0048  0.1984
  892MPD2    C113124   2.951   1.414  14.324 -0.7551 -0.3173  0.2257
  892MPD2    C213125   2.934   1.283  14.295  0.1875 -0.6989  0.3888
  892MPD2    C313126   3.006   1.219  14.193 -0.6202  0.6456 -0.6775
  892MPD2    C413127   3.118   1.282  14.142 -0.2686 -0.8679 -0.1085
  892MPD2    C513128   3.144   1.419  14.179 -0.1916 -0.2795  0.2067
  892MPD2     H13129   2.854   1.225  14.339 -3.4977  2.8347 -1.6328
  892MPD2    H113130   3.185   1.225  14.079  2.1315  2.4971 -0.5832
  892MPD2    H213131   3.081   1.587  14.289 -0.8364 -0.9093 -0.1875
  892MPD2    H313132   3.237   1.469  14.155 -1.2984  1.9130  0.4685
  892MPD2     N13133   2.974   1.088  14.146  0.4650  0.0289 -0.2539
  892MPD2    H513134   3.049   1.045  14.092 -1.2208 -1.5867 -1.3143
  892MPD2    N113135   2.859   1.473  14.408  0.1957 -0.6743 -0.0223
  892MPD2    H713136   2.788   1.413  14.450  0.3038  0.2944  1.5257
  893MPD2     C13137   0.030   0.447   1.223  0.3090 -0.5119 -0.1112
  893MPD2    C113138   0.116   0.350   1.268  0.1780 -0.1206  0.6114
  893MPD2    C213139   0.081   0.272   1.374 -0.3462  0.1291 -0.4469
  893MPD2    C313140   4.697   0.290   1.439 -0.1989 -0.2632  0.1669
  893MPD2    C413141   4.613   0.390   1.398 -0.1279  0.0316 -0.0478
  893MPD2    C513142   4.643   0.465   1.291  0.9613 -0.3271 -0.5431
  893MPD2     H13143   0.148   0.194   1.408 -0.7681 -0.0214  0.0471
  893MPD2    H113144   4.514   0.409   1.438 -0.2348 -0.6374  0.0033
  893MPD2    H213145   0.051   0.495   1.128  1.2930 -0.5517  0.0852
  893MPD2    H313146   4.577   0.548   1.266  1.0773  0.0959  0.5417
  893MPD2     N13147   4.654   0.224   1.558 -0.2176 -0.0994 -0.0399
  893MPD2    H513148   4.566   0.259   1.595 -0.3419  2.2362 -2.5076
  893MPD2    N113149   0.242   0.349   1.202  0.2569  0.1785  0.4307
  893MPD2    H713150   0.262   0.426   1.140 -0.1676 -2.0514 -2.4723
  894MPD2     C13151   2.806   2.031   1.446  0.2958 -0.4501  0.7250
  894MPD2    C113152   2.741   2.146   1.466  0.1776  0.3884 -0.4306
  894MPD2    C213153   2.784   2.265   1.401  0.1175 -0.0412  0.3222
  894MPD2    C313154   2.891   2.256   1.318  0.6420  0.6779  0.6185
  894MPD2    C413155   2.964   2.142   1.305 -0.1755 -0.2683  0.6637
  894MPD2    C513156   2.923   2.033   1.373 -0.0348 -0.1230  0.0553
  894MPD2     H13157   2.725   2.354   1.421  0.4859  0.4573 -0.8339
  894MPD2    H113158   3.061   2.135   1.257 -0.2712  0.0630  0.4286
  894MPD2    H213159   2.774   1.934   1.484 -1.3436  1.6052  4.6393
  894MPD2    H313160   2.981   1.944   1.354  1.5711  1.1419 -0.9750
  894MPD2     N13161   2.932   2.374   1.253  0.6644 -0.2568  0.2729
  894MPD2    H513162   2.878   2.459   1.269 -1.4159 -1.0998 -2.1526
  894MPD2    N113163   2.626   2.156   1.548 -0.6757  0.0322 -0.1750
  894MPD2    H713164   2.574   2.243   1.545 -0.6366 -0.0262 -2.2596
  895MPD2     C13165   0.965   0.710  13.472 -0.1436 -0.0931 -0.4147
  895MPD2    C113166   0.925   0.607  13.396 -0.2901  0.0887  0.0057
  895MPD2    C213167   0.998   0.490  13.402 -0.4478 -0.1742 -0.3650
  895MPD2    C313168   1.115   0.475  13.478  0.4755  0.1110  0.7661
  895MPD2    C413169   1.148   0.578  13.567  0.0281 -0.3479  0.6800
  895MPD2    C513170   1.069   0.694  13.559  0.7751 -0.4916  0.1141
  895MPD2     H13171   0.958   0.414  13.336  0.9064  0.2461 -1.6611
  895MPD2    H113172   1.228   0.580  13.641 -1.0085  3.2113  1.7058
  895MPD2    H213173   0.919   0.808  13.469 -0.1536 -0.1471 -2.1334
  895MPD2    H313174   1.093   0.780  13.622 -1.6961  0.8899 -0.8167
  895MPD2     N13175   1.200   0.364  13.461  0.4538  0.7226 -0.5925
  895MPD2    H513176   1.170   0.297  13.390  0.3676  1.4782 -1.2651
  895MPD2    N113177   0.820   0.609  13.300 -0.9723 -0.0456 -0.6971
  895MPD2    H713178   0.795   0.514  13.271  1.8044 -1.0992  0.3432
  896MPD2     C13179   4.715   3.460   0.880 -0.4361  0.2240 -0.0765
  896MPD2    C113180   0.006   3.383   0.776 -0.3558 -0.1610  0.3909
  896MPD2    C213181   4.689   3.260   0.767 -0.2576  0.4182  0.2610
  896MPD2    C313182   4.606   3.219   0.872  0.3719  0.0464 -0.6590
  896MPD2    C413183   4.565   3.305   0.974 -0.6124 -0.1676 -0.3676
  896MPD2    C513184   4.627   3.424   0.980  0.3009 -0.8747  0.4169
  896MPD2     H13185   4.719   3.192   0.688 -0.9195 -0.3070  0.6388
  896MPD2    H113186   4.498   3.274   1.053 -0.7687  0.3813 -0.2891
  896MPD2    H213187   0.038   3.548   0.902  0.1287 -0.1673 -0.0693
  896MPD2    H313188   4.615   3.486   1.068 -0.4864  0.1754 -0.4154
  896MPD2     N13189   4.545   3.088   0.873 -0.2801 -0.1665  0.6252
  896MPD2    H513190   4.479   3.068   0.947 -0.6658 -1.6473 -0.1266
  896MPD2    N113191   0.103   3.419   0.676 -0.0512  0.1420 -0.6323
  896MPD2    H713192   0.123   3.355   0.600  1.3822  1.1090 -1.0824
  897MPD2     C13193   1.003   0.612  10.417 -0.4517  0.2388 -0.7217
  897MPD2    C113194   0.911   0.717  10.419  0.3487  0.4593  0.0370
  897MPD2    C213195   0.794   0.697  10.496 -0.4711  0.9858 -0.3393
  897MPD2    C313196   0.757   0.573  10.543 -0.4642 -0.9583 -0.3417
  897MPD2    C413197   0.842   0.466  10.530  0.5912  0.5751 -0.1258
  897MPD2    C513198   0.967   0.490  10.472 -0.4173  0.3946  0.2145
  897MPD2     H13199   0.716   0.772  10.499  0.2973  1.7566  0.4205
  897MPD2    H113200   0.811   0.368  10.564 -0.7634  1.5445  1.4352
  897MPD2    H213201   1.094   0.609  10.357 -0.2396  1.1295 -0.4511
  897MPD2    H313202   1.047   0.419  10.454  0.0180  1.1079 -0.6329
  897MPD2     N13203   0.630   0.564  10.602 -0.3195 -0.0395  0.0843
  897MPD2    H513204   0.576   0.650  10.604 -1.5994 -0.9097  2.8807
  897MPD2    N113205   0.941   0.841  10.353 -0.2773 -0.4262 -0.1655
  897MPD2    H713206   1.012   0.845  10.281  1.5416  2.0611  1.7953
  898MPD2     C13207   2.848   0.711  17.560  0.3102  0.0640 -0.0559
  898MPD2    C113208   2.967   0.768  17.520 -0.3256  0.3228 -0.2198
  898MPD2    C213209   2.961   0.888  17.449 -0.3573 -0.1586 -0.5241
  898MPD2    C313210   2.839   0.946  17.423 -0.6878 -0.3901  0.6342
  898MPD2    C413211   2.722   0.871  17.442 -0.3648  0.2250  0.3979
  898MPD2    C513212   2.729   0.752  17.508 -0.3283 -0.3435 -0.4180
  898MPD2     H13213   3.050   0.946  17.424  0.2903 -0.5758  0.8074
  898MPD2    H113214   2.625   0.900  17.405 -0.2721 -0.3671 -0.3093
  898MPD2    H213215   2.839   0.620  17.619 -0.0244  0.0035 -0.2012
  898MPD2    H313216   2.638   0.698  17.534  0.2687 -1.5368 -0.8064
  898MPD2     N13217   2.849   1.085  17.376  0.1032 -0.3493  0.6176
  898MPD2    H513218   2.940   1.127  17.363 -0.8696  1.4231 -0.4643
  898MPD2    N113219   3.095   0.736  17.568  0.0237 -0.1184  0.2167
  898MPD2    H713220   3.170   0.786  17.522 -0.6540  0.7795  0.0987
  899MPD2     C13221   3.485   1.279  17.138 -0.3775 -0.2804  0.1461
  899MPD2    C113222   3.516   1.363  17.241 -0.1822 -0.1944  0.5722
  899MPD2    C213223   3.531   1.316  17.366  0.5381  0.6199 -0.1880
  899MPD2    C313224   3.533   1.181  17.391 -0.0507  0.9238  0.2183
  899MPD2    C413225   3.505   1.090  17.287 -0.5454  0.0068  0.5769
  899MPD2    C513226   3.494   1.145  17.160  0.3418  0.2890  0.1065
  899MPD2     H13227   3.535   1.380  17.454 -1.7388  0.0463  0.3513
  899MPD2    H113228   3.498   0.983  17.301 -1.4596  0.0744  0.6384
  899MPD2    H213229   3.483   1.315  17.036 -2.0397 -1.5814 -0.2805
  899MPD2    H313230   3.473   1.086  17.072  1.8937 -1.5371  0.9557
  899MPD2     N13231   3.540   1.130  17.523 -0.2725  0.2132 -0.5524
  899MPD2    H513232   3.527   1.029  17.526 -0.3843  0.2028 -1.2480
  899MPD2    N113233   3.515   1.499  17.214  0.2572 -0.2693  0.0589
  899MPD2    H713234   3.516   1.529  17.117 -3.2975  0.2436  0.1686
  900MPD2     C13235   2.446   2.753  12.538  0.2656  0.7429  0.2217
  900MPD2    C113236   2.357   2.663  12.592 -0.5083 -0.9827 -0.7160
  900MPD2    C213237   2.221   2.679  12.580  0.1386  0.0023 -1.0255
  900MPD2    C313238   2.175   2.801  12.522 -0.5409  0.3176  0.2322
  900MPD2    C413239   2.263   2.893  12.480  0.4021  0.2440  0.3234
  900MPD2    C513240   2.396   2.868  12.489 -0.9794  0.4804 -0.2752
  900MPD2     H13241   2.140   2.615  12.612  0.1198  1.5599  2.0397
  900MPD2    H113242   2.234   2.988  12.435 -1.9871 -0.4156  0.5049
  900MPD2    H213243   2.553   2.744  12.553  0.2336  0.6913  0.4256
  900MPD2    H313244   2.466   2.944  12.455 -0.9903  0.4710 -0.3188
  900MPD2     N13245   2.035   2.815  12.503 -0.0571 -0.3556 -0.3065
  900MPD2    H513246   1.978   2.748  12.555  0.3132 -1.4229 -1.2682
  900MPD2    N113247   2.413   2.551  12.650 -0.5390 -0.4358  0.1235
  900MPD2    H713248   2.515   2.543  12.649 -0.3624  1.7206  1.1490
  901MPD2     C13249   2.273   1.490  12.758 -0.3241 -0.1683  0.4426
  901MPD2    C113250   2.391   1.517  12.690 -0.3871  0.3030 -0.1226
  901MPD2    C213251   2.447   1.645  12.695 -0.7174 -0.1473  0.0125
  901MPD2    C313252   2.380   1.739  12.768 -0.6200  0.7094  0.0840
  901MPD2    C413253   2.272   1.710  12.848 -0.1619  0.5264 -0.4920
  901MPD2    C513254   2.220   1.585  12.840 -0.2775 -0.0706  0.7020
  901MPD2     H13255   2.530   1.681  12.635 -0.3535  0.8170  1.0851
  901MPD2    H113256   2.234   1.779  12.923  2.2781  0.5785  0.7115
  901MPD2    H213257   2.228   1.392  12.755  0.7927 -0.6730  0.2136
  901MPD2    H313258   2.132   1.567  12.900 -0.5034  1.9275  0.9679
  901MPD2     N13259   2.423   1.874  12.752 -0.1861  0.2384  0.3220
  901MPD2    H513260   2.489   1.892  12.678 -0.5229 -0.7230 -0.2108
  901MPD2    N113261   2.448   1.411  12.610  0.2760 -0.3400  0.1093
  901MPD2    H713262   2.396   1.325  12.597  0.4529 -0.5113  0.5269
  902MPD2     C13263   1.347   0.924  12.957  0.7677 -0.4520  0.0693
  902MPD2    C113264   1.362   1.066  12.975  0.0833 -0.3031 -0.1651
  902MPD2    C213265   1.397   1.139  12.858  0.0826  0.0768  0.2278
  902MPD2    C313266   1.421   1.075  12.735  0.1610 -0.4118  0.7118
  902MPD2    C413267   1.407   0.940  12.726 -0.3034  0.4361  0.0399
  902MPD2    C513268   1.369   0.866  12.835 -0.5222 -0.1866 -0.4012
  902MPD2     H13269   1.424   1.243  12.869 -3.3726  1.0494 -0.7721
  902MPD2    H113270   1.434   0.895  12.632 -2.3731 -0.0570 -0.2937
  902MPD2    H213271   1.328   0.856  13.040  0.6921 -0.0230  0.3989
  902MPD2    H313272   1.366   0.758  12.827 -0.3818 -0.3281  1.6441
  902MPD2     N13273   1.455   1.150  12.619 -0.1548 -0.0865  0.0810
  902MPD2    H513274   1.494   1.098  12.541  0.6953  0.9493 -0.1868
  902MPD2    N113275   1.361   1.111  13.112 -0.3901  0.2439 -0.2860
  902MPD2    H713276   1.373   1.033  13.176 -2.2722  0.4158  0.2804
  903MPD2     C13277   1.470   1.677  11.850  0.8503 -0.7207 -0.6038
  903MPD2    C113278   1.389   1.596  11.929 -0.3921  0.2039 -0.0357
  903MPD2    C213279   1.284   1.525  11.864 -0.1739 -1.1692  0.5554
  903MPD2    C313280   1.263   1.533  11.728 -0.1476  0.7213  0.0351
  903MPD2    C413281   1.346   1.615  11.655  0.3251  0.5821  0.1491
  903MPD2    C513282   1.444   1.689  11.712  0.4059  0.3222 -0.0998
  903MPD2     H13283   1.220   1.462  11.926  0.4482 -1.5797  0.7900
  903MPD2    H113284   1.342   1.629  11.548  0.7075  1.1030  0.1974
  903MPD2    H213285   1.545   1.741  11.895  0.6884  1.0566 -2.8557
  903MPD2    H313286   1.506   1.754  11.652  0.3571  1.0798  0.6694
  903MPD2     N13287   1.170   1.443  11.671 -0.1020  0.4190 -0.5418
  903MPD2    H513288   1.120   1.380  11.733  0.1911  0.0643 -0.6661
  903MPD2    N113289   1.425   1.584  12.064  0.0314 -0.6547 -0.4157
  903MPD2    H713290   1.514   1.623  12.094  0.2734 -1.0293 -0.6379
  904MPD2     C13291   1.365   4.241  14.135 -0.5116 -0.2043  0.5149
  904MPD2    C113292   1.425   4.364  14.087  0.4555 -0.0368  0.2570
  904MPD2    C213293   1.547   4.413  14.142  0.0496  0.6172  0.5807
  904MPD2    C313294   1.615   4.332  14.234  0.2264  0.6603  0.7334
  904MPD2    C413295   1.561   4.212  14.276  0.4425 -0.2093  0.6265
  904MPD2    C513296   1.441   4.170  14.221 -0.2763 -0.2906 -0.1815
  904MPD2     H13297   1.578   4.510  14.105 -3.1767  1.9290  1.2884
  904MPD2    H113298   1.619   4.151  14.345  2.1988 -0.1665 -0.8076
  904MPD2    H213299   1.270   4.197  14.105 -1.0330 -0.7601  2.9767
  904MPD2    H313300   1.405   4.073  14.257  0.0465 -0.5045 -0.4380
  904MPD2     N13301   1.743   4.377  14.285 -0.6206 -0.0474  0.1736
  904MPD2    H513302   1.767   4.329  14.372  4.4516 -0.7895 -1.6637
  904MPD2    N113303   1.358   4.439  13.990 -0.7567  0.0301  0.8251
  904MPD2    H713304   1.404   4.529  13.977  1.6931 -1.3222  0.1976
  905MPD2     C13305   1.303   4.357  13.274  0.4241 -0.0257  0.1315
  905MPD2    C113306   1.259   4.477  13.330 -0.3709  0.3605  0.6467
  905MPD2    C213307   1.297   4.599  13.268  0.3865 -0.2421  0.4181
  905MPD2    C313308   1.389   4.595  13.161  0.0048  0.8220 -0.4309
  905MPD2    C413309   1.423   4.475  13.104  0.5702  0.4585 -0.2328
  905MPD2    C513310   1.383   4.355  13.158 -0.3871  0.5549  0.2446
  905MPD2     H13311   1.268   4.697  13.305  0.3384 -0.1887  0.2367
  905MPD2    H113312   1.492   4.471  13.021  0.4797 -0.1639 -0.2792
  905MPD2    H213313   1.271   4.260  13.311  2.2122 -0.8694 -0.5342
  905MPD2    H313314   1.430   4.264  13.121 -1.1508  0.1899  0.1646
  905MPD2     N13315   1.439   4.706  13.090  0.1793  0.4527 -0.2960
  905MPD2    H513316   1.466   4.684  12.995 -1.1093 -1.2281 -0.2673
  905MPD2    N113317   1.181   4.477  13.452  0.2196  0.3666  0.3688
  905MPD2    H713318   1.175   4.388  13.501  2.4198 -0.0637 -0.1724
  906MPD2     C13319   3.788   0.723  10.984  0.3566  0.7117 -0.2034
  906MPD2    C113320   3.813   0.604  10.915  0.2371  0.4633  0.9138
  906MPD2    C213321   3.760   0.484  10.964  0.3903  0.4804  0.7692
  906MPD2    C313322   3.667   0.491  11.071  0.1729 -0.3796  0.2892
  906MPD2    C413323   3.634   0.611  11.133  0.2111 -0.5529 -0.1665
  906MPD2    C513324   3.698   0.724  11.082  0.2799  0.4874  0.2047
  906MPD2     H13325   3.794   0.394  10.913  0.9947  1.4631 -0.5660
  906MPD2    H113326   3.576   0.634  11.221  0.3636 -0.7354 -0.0207
  906MPD2    H213327   3.833   0.818  10.957  3.2311 -1.0241 -1.6143
  906MPD2    H313328   3.690   0.817  11.137 -2.0550  0.3070  0.1786
  906MPD2     N13329   3.612   0.373  11.125 -0.0624  0.4987  0.2378
  906MPD2    H513330   3.554   0.380  11.208  0.1856 -0.4500  0.4960
  906MPD2    N113331   3.888   0.593  10.797 -0.3651  0.2463 -0.0357
  906MPD2    H713332   3.895   0.499  10.759 -0.7767  0.4728 -0.6832
  907MPD2     C13333   3.040   4.137  15.295 -0.3071 -0.2212  0.1274
  907MPD2    C113334   3.006   4.006  15.309  0.6841  0.1172 -0.1660
  907MPD2    C213335   3.037   3.946  15.430 -0.5582  0.1267 -0.1987
  907MPD2    C313336   3.077   4.016  15.544  0.4772 -0.8234 -0.3964
  907MPD2    C413337   3.090   4.156  15.532  0.4274  0.0356 -0.1066
  907MPD2    C513338   3.083   4.210  15.403 -0.5365 -0.9106 -0.2149
  907MPD2     H13339   3.018   3.840  15.442 -0.2096 -0.0995 -1.6747
  907MPD2    H113340   3.128   4.218  15.612 -0.5006  0.8866 -0.3113
  907MPD2    H213341   3.017   4.197  15.208 -0.5575  0.2569  0.5200
  907MPD2    H313342   3.114   4.313  15.389  0.2239 -1.0738  0.2805
  907MPD2     N13343   3.065   3.953  15.675  0.5316  0.4440 -0.0587
  907MPD2    H513344   3.039   3.855  15.678 -1.6898  1.1711  4.5052
  907MPD2    N113345   2.953   3.933  15.202 -0.1013 -0.0669 -0.0346
  907MPD2    H713346   2.938   3.834  15.221  1.6956 -0.6967 -1.9320
  908MPD2     C13347   0.747   0.649   9.470 -0.3524  0.4299  0.0627
  908MPD2    C113348   0.619   0.671   9.515  0.4869 -0.0081  0.2423
  908MPD2    C213349   0.611   0.748   9.632  0.4449 -0.2531  0.3531
  908MPD2    C313350   0.716   0.808   9.700  0.2051  0.6222  0.1432
  908MPD2    C413351   0.837   0.794   9.631 -0.4236 -0.3367 -0.2690
  908MPD2    C513352   0.853   0.721   9.523 -0.1055  0.2028 -0.0530
  908MPD2     H13353   0.512   0.768   9.670  0.8306  0.3917  1.0269
  908MPD2    H113354   0.930   0.839   9.663 -2.0966  0.2488  3.6789
  908MPD2    H213355   0.769   0.582   9.388  0.0715  0.2983  0.2831
  908MPD2    H313356   0.953   0.716   9.481  0.5794  1.0299  1.4964
  908MPD2     N13357   0.702   0.875   9.820 -0.3383 -0.6556 -0.4278
  908MPD2    H513358   0.608   0.898   9.851  0.4901 -0.5279  1.9793
  908MPD2    N113359   0.514   0.604   9.446  0.0932  0.2492 -0.2673
  908MPD2    H713360   0.548   0.525   9.391  2.2223  1.0423 -0.0798
  909MPD2     C13361   0.609   3.040  11.368 -0.6544 -0.3545  0.0813
  909MPD2    C113362   0.640   3.164  11.408 -0.0060 -0.2698  0.3289
  909MPD2    C213363   0.589   3.208  11.531 -0.4148  0.3319 -0.1496
  909MPD2    C313364   0.505   3.135  11.611  0.2329 -0.7728 -0.0108
  909MPD2    C413365   0.468   3.005  11.568  0.0767  0.8522  0.1948
  909MPD2    C513366   0.523   2.964  11.447  0.2915 -0.2278  0.1165
  909MPD2     H13367   0.636   3.296  11.574  1.0219  0.3047 -1.6743
  909MPD2    H113368   0.401   2.938  11.620  1.4855  0.5342  1.6106
  909MPD2    H213369   0.646   2.995  11.277  0.9553 -0.6108  0.8601
  909MPD2    H313370   0.489   2.870  11.404 -0.9503  0.2878 -0.0334
  909MPD2     N13371   0.458   3.193  11.735  0.1395 -0.6976 -1.1995
  909MPD2    H513372   0.485   3.289  11.755 -1.4616 -0.6508  0.7277
  909MPD2    N113373   0.735   3.249  11.344  1.0320 -0.1769 -0.0721
  909MPD2    H713374   0.749   3.342  11.383  0.4977  0.6341 -1.7981
  910MPD2     C13375   2.538   0.187  15.898 -0.3317  0.1111 -0.6861
  910MPD2    C113376   2.521   0.061  15.851 -0.9543 -0.4430  0.8378
  910MPD2    C213377   2.423   0.036  15.756  0.3144 -0.4522  0.2411
  910MPD2    C313378   2.357   0.139  15.697 -1.0966 -0.6453 -0.4523
  910MPD2    C413379   2.377   0.265  15.744 -0.0668  0.1736 -0.4246
  910MPD2    C513380   2.470   0.290  15.842  0.4020 -0.6451  0.7654
  910MPD2     H13381   2.423   4.674  15.711  2.4546 -1.4061  2.3116
  910MPD2    H113382   2.321   0.348  15.702 -0.5335  0.7275  1.3042
  910MPD2    H213383   2.605   0.213  15.978  0.9915 -0.0308 -1.7502
  910MPD2    H313384   2.486   0.392  15.874  0.7112  0.1486 -1.9769
  910MPD2     N13385   2.266   0.117  15.591 -0.4264 -0.8711  0.2021
  910MPD2    H513386   2.196   0.189  15.579  1.1151  0.0080 -3.5014
  910MPD2    N113387   2.577   4.681  15.908  0.0031  0.3980  0.0306
  910MPD2    H713388   2.544   4.589  15.881 -1.0309  0.5282  0.8513
  911MPD2     C13389   0.374   0.091  16.355 -0.9019  0.1619  0.0489
  911MPD2    C113390   0.410   0.214  16.312  0.4086  0.4157 -1.0132
  911MPD2    C213391   0.322   0.282  16.228  0.2717 -1.0260 -0.0543
  911MPD2    C313392   0.197   0.226  16.197 -0.5308  0.6016 -0.6061
  911MPD2    C413393   0.168   0.097  16.235  0.0039  0.7933 -0.3500
  911MPD2    C513394   0.257   0.025  16.312 -0.1837 -1.1527  0.1500
  911MPD2     H13395   0.352   0.384  16.211 -0.8569 -0.8997 -1.2451
  911MPD2    H113396   0.069   0.054  16.232  1.5074 -2.7122  0.1124
  911MPD2    H213397   0.441   0.033  16.417  1.4824  0.9362 -1.7772
  911MPD2    H313398   0.236   4.664  16.352 -0.6729 -0.8193  0.6987
  911MPD2     N13399   0.095   0.297  16.122  0.3906  0.2553 -0.2041
  911MPD2    H513400   0.011   0.243  16.103 -0.8631  2.1926 -0.1512
  911MPD2    N113401   0.545   0.247  16.337  0.2422  0.1279  0.3383
  911MPD2    H713402   0.594   0.188  16.404  1.7422  0.4469 -0.4758
  912MPD2     C13403   4.296   0.006  15.667 -0.5628 -0.5126  0.6373
  912MPD2    C113404   4.390   0.025  15.767  0.1372  0.0233  0.8259
  912MPD2    C213405   4.401   4.658  15.863 -0.1820 -0.3693  0.0994
  912MPD2    C313406   4.337   4.540  15.857  0.2645  0.4395 -0.2587
  912MPD2    C413407   4.240   4.529  15.753 -0.1634 -0.4337  0.2634
  912MPD2    C513408   4.217   4.629  15.658  0.8476 -0.0574  0.2962
  912MPD2     H13409   4.474   4.682  15.939  1.4550 -1.0484 -1.2281
  912MPD2    H113410   4.179   4.440  15.752 -0.7478 -0.0468  1.3428
  912MPD2    H213411   4.272   0.092  15.605 -1.8708 -0.8438  0.6905
  912MPD2    H313412   4.145   4.607  15.580  1.2309 -0.2847  0.0102
  912MPD2     N13413   4.364   4.447  15.955  0.9119  0.0877 -0.2304
  912MPD2    H513414   4.439   4.467  16.020  1.8421 -2.4294 -0.5289
  912MPD2    N113415   4.463   0.150  15.767  0.6313 -0.4391  0.1086
  912MPD2    H713416   4.435   0.226  15.707 -0.2540  0.3558  1.5178
  913MPD2     C13417   4.414   2.229  10.237 -0.6640 -0.0660  0.1626
  913MPD2    C113418   4.484   2.322  10.299  0.1862  0.0040  0.3825
  913MPD2    C213419   4.475   2.454  10.253  0.8294  1.0855 -0.4377
  913MPD2    C313420   4.393   2.486  10.155 -0.1968  0.5523 -0.4140
  913MPD2    C413421   4.308   2.390  10.101  0.2831 -0.3761  0.5595
  913MPD2    C513422   4.327   2.256  10.136  0.3412  0.0411  0.3888
  913MPD2     H13423   4.544   2.524  10.299 -0.4435  0.8335  1.8422
  913MPD2    H113424   4.236   2.424  10.027  1.4285  0.2794 -0.2615
  913MPD2    H213425   4.415   2.126  10.272 -0.6187  0.1812  0.8886
  913MPD2    H313426   4.256   2.185  10.096  0.2112  0.7261 -0.5920
  913MPD2     N13427   4.381   2.605  10.090  0.3449  0.3435  0.1019
  913MPD2    H513428   4.310   2.602  10.017 -0.3552 -1.9120  0.8813
  913MPD2    N113429   4.562   2.286  10.417 -0.6054  0.6764 -0.5079
  913MPD2    H713430   4.553   2.192  10.454 -3.2913  1.2396  0.2579
  914MPD2     C13431   3.072   1.737  12.010 -0.2745  0.0722 -0.0328
  914MPD2    C113432   3.031   1.763  12.134  0.0901 -0.8208  0.2232
  914MPD2    C213433   2.967   1.667  12.212  0.1805 -0.0210  0.1044
  914MPD2    C313434   2.959   1.541  12.170  0.1013  0.8428 -0.3716
  914MPD2    C413435   2.984   1.518  12.036 -0.3354 -0.2051 -0.0296
  914MPD2    C513436   3.044   1.616  11.955  0.1615  0.4233 -0.1036
  914MPD2     H13437   2.933   1.687  12.313 -0.5707  1.9951 -0.5448
  914MPD2    H113438   2.975   1.418  11.995  0.3167 -1.8496  3.8632
  914MPD2    H213439   3.110   1.818  11.947  0.8987  1.1929  2.1252
  914MPD2    H313440   3.057   1.588  11.851  1.2806  0.5413  0.0084
  914MPD2     N13441   2.898   1.448  12.249 -0.7223 -0.0213 -0.3812
  914MPD2    H513442   2.873   1.471  12.345  0.1116  2.4138 -0.7718
  914MPD2    N113443   3.039   1.897  12.172 -0.2270 -0.1893  1.1697
  914MPD2    H713444   3.070   1.958  12.097 -0.9693 -0.9139  0.2790
  915MPD2     C13445   1.100   1.833  15.742 -0.3225 -0.8073  0.0155
  915MPD2    C113446   0.982   1.875  15.681  0.1066  0.3772 -0.3693
  915MPD2    C213447   0.905   1.970  15.741  0.1746 -0.4288  0.0554
  915MPD2    C313448   0.949   2.052  15.839 -1.0203 -0.3973  0.3734
  915MPD2    C413449   1.066   2.010  15.898  0.1645  0.4365 -0.7056
  915MPD2    C513450   1.142   1.906  15.848 -1.0252  0.3985 -0.1555
  915MPD2     H13451   0.803   1.974  15.705 -0.2242  2.7240  1.4995
  915MPD2    H113452   1.100   2.065  15.985  1.7451 -1.5007 -0.0966
  915MPD2    H213453   1.156   1.748  15.706  0.9811 -0.5505  1.4628
  915MPD2    H313454   1.238   1.886  15.894 -1.5372  0.0961  0.7775
  915MPD2     N13455   0.860   2.151  15.891 -0.5216 -0.6355  0.1266
  915MPD2    H513456   0.774   2.154  15.836 -0.0376 -0.8871 -0.6499
  915MPD2    N113457   0.951   1.793  15.571  0.1916  0.0186  0.6068
  915MPD2    H713458   1.016   1.717  15.552 -0.4077 -0.5773  0.9045
  916MPD2     C13459   4.198   0.622  15.293 -0.5559 -0.1934 -0.0359
  916MPD2    C113460   4.150   0.556  15.404 -0.1707  0.2098  0.1587
  916MPD2    C213461   4.071   0.441  15.384 -0.0421 -0.7752 -0.1959
  916MPD2    C313462   4.052   0.395  15.258  0.0658  0.0683  0.2239
  916MPD2    C413463   4.089   0.470  15.144  0.8234 -0.1287 -0.6102
  916MPD2    C513464   4.163   0.582  15.165 -0.1404  0.4326 -0.1666
  916MPD2     H13465   4.029   0.385  15.467 -1.2016 -0.4111 -0.5389
  916MPD2    H113466   4.050   0.456  15.044 -0.6568  0.0570 -0.0680
  916MPD2    H213467   4.256   0.713  15.302 -3.2161  1.4720  0.5548
  916MPD2    H313468   4.197   0.644  15.082  2.4999  0.4499  0.9411
  916MPD2     N13469   3.952   0.291  15.250 -0.1424  0.4816  0.4991
  916MPD2    H513470   3.908   0.264  15.337 -1.5960  0.3318 -0.2873
  916MPD2    N113471   4.181   0.624  15.530 -0.0683  0.5833 -0.3196
  916MPD2    H713472   4.222   0.717  15.527 -0.8077  0.9657  1.9362
  917MPD2     C13473   3.792   2.419  11.283  0.8645 -0.1133 -0.3026
  917MPD2    C113474   3.856   2.453  11.400  0.0628  0.5909  0.2588
  917MPD2    C213475   3.951   2.551  11.399 -0.0389 -0.4331  0.3088
  917MPD2    C313476   3.967   2.628  11.286  0.0946 -0.2617  0.6523
  917MPD2    C413477   3.902   2.590  11.168 -0.1398  0.1698  0.2376
  917MPD2    C513478   3.814   2.485  11.165 -0.1900  0.0350 -0.1379
  917MPD2     H13479   4.006   2.572  11.490 -2.2117 -1.1800  1.8124
  917MPD2    H113480   3.916   2.634  11.070 -0.2074 -1.4389 -0.4846
  917MPD2    H213481   3.720   2.337  11.282 -0.5690  1.1391  1.6097
  917MPD2    H313482   3.763   2.457  11.075 -1.6263 -1.9922  1.3185
  917MPD2     N13483   4.044   2.746  11.274 -0.0568  0.2689 -0.7013
  917MPD2    H513484   4.054   2.794  11.185  1.7213 -0.1165 -0.7188
  917MPD2    N113485   3.828   2.369  11.512  0.5609 -0.7086 -0.4838
  917MPD2    H713486   3.762   2.295  11.493  0.9073 -1.5885  1.7795
  918MPD2     C13487   3.606   2.682  12.393  0.2695 -0.4394  0.2015
  918MPD2    C113488   3.730   2.707  12.324  0.2738 -0.1067 -0.1286
  918MPD2    C213489   3.768   2.614  12.224  0.0845 -0.4917  0.5686
  918MPD2    C313490   3.686   2.507  12.199  0.3280  0.7297 -0.7997
  918MPD2    C413491   3.566   2.490  12.267  0.3549  0.1795 -0.3618
  918MPD2    C513492   3.530   2.568  12.373  0.6397  0.7268  0.3020
  918MPD2     H13493   3.855   2.619  12.161 -0.0679 -1.1587  0.3010
  918MPD2    H113494   3.504   2.406  12.240  1.2718 -0.3266 -0.8998
  918MPD2    H213495   3.569   2.741  12.477  1.8317  0.0641  0.5377
  918MPD2    H313496   3.445   2.547  12.438  0.7749  0.3883  0.3657
  918MPD2     N13497   3.728   2.431  12.096  0.1958 -0.1091 -0.6809
  918MPD2    H513498   3.819   2.458  12.060  0.3164 -0.5538 -0.7137
  918MPD2    N113499   3.823   2.808  12.358 -0.4449 -0.7643 -0.7252
  918MPD2    H713500   3.916   2.804  12.317  0.1432  0.8528  0.4723
  919MPD2     C13501   4.658   1.729  11.970  0.0168  2.0087 -0.0051
  919MPD2    C113502   4.598   1.615  11.905 -0.0503  0.7097  0.1338
  919MPD2    C213503   4.512   1.633  11.796 -0.0102 -0.1322  0.8052
  919MPD2    C313504   4.491   1.753  11.737 -0.0306  0.8031 -0.4189
  919MPD2    C413505   4.552   1.867  11.797 -0.0176  0.6721 -0.0939
  919MPD2    C513506   4.617   1.850  11.918  0.2645 -0.4077  0.1404
  919MPD2     H13507   4.469   1.542  11.755  0.9729 -0.4738  0.5215
  919MPD2    H113508   4.543   1.966  11.754 -0.0128  0.6551 -0.1344
  919MPD2    H213509   4.731   1.730  12.050 -0.4545 -0.6223  0.4797
  919MPD2    H313510   4.668   1.932  11.967 -1.1152  0.4049  0.2150
  919MPD2     N13511   4.423   1.772  11.618 -0.5048 -0.1075 -0.4535
  919MPD2    H513512   4.415   1.861  11.570 -1.2180 -0.6025 -1.2493
  919MPD2    N113513   4.615   1.481  11.953 -0.2698 -0.2489  0.1489
  919MPD2    H713514   4.570   1.405  11.902  0.6256 -0.3252 -0.5399
  920MPD2     C13515   4.434   2.346  10.810  0.0077  0.4990 -0.2202
  920MPD2    C113516   4.337   2.252  10.781  0.6222  0.0388 -0.4321
  920MPD2    C213517   4.307   2.154  10.874 -0.1561 -0.0104 -0.2006
  920MPD2    C313518   4.384   2.140  10.985 -0.5202 -0.3071  0.2544
  920MPD2    C413519   4.483   2.232  11.017  0.4680  0.0452  0.0023
  920MPD2    C513520   4.495   2.338  10.932  0.3947  0.3182  0.4691
  920MPD2     H13521   4.238   2.073  10.858 -0.1833  0.0491 -0.3838
  920MPD2    H113522   4.557   2.212  11.094  1.6388  2.7996 -0.3954
  920MPD2    H213523   4.477   2.413  10.736  1.7881 -0.5997 -0.1922
  920MPD2    H313524   4.576   2.410  10.942 -1.0407  1.8554  0.9825
  920MPD2     N13525   4.361   2.021  11.058  0.5233  0.8622 -0.1306
  920MPD2    H513526   4.295   1.954  11.021  0.2667  0.3763  1.1927
  920MPD2    N113527   4.259   2.250  10.672  0.5260 -0.0151 -0.4411
  920MPD2    H713528   4.192   2.174  10.674  1.0539 -0.4747 -0.2443
  921MPD2     C13529   1.290   0.202  16.869 -0.7039 -0.6878  0.5889
  921MPD2    C113530   1.320   0.254  16.744  0.0432 -0.4682 -0.4391
  921MPD2    C213531   1.218   0.249  16.644  0.0340  0.4476 -0.1970
  921MPD2    C313532   1.092   0.199  16.679  0.0195  0.3022  0.7874
  921MPD2    C413533   1.061   0.166  16.808  0.5269  0.2385 -0.1504
  921MPD2    C513534   1.161   0.162  16.903 -0.4993 -0.9284  0.1100
  921MPD2     H13535   1.235   0.283  16.543 -1.6439 -0.0505 -0.6377
  921MPD2    H113536   0.965   0.119  16.827 -0.3378  2.7435  1.6236
  921MPD2    H213537   1.368   0.207  16.944  0.9326 -2.5329 -1.0067
  921MPD2    H313538   1.135   0.131  17.004 -0.0930 -0.4956  0.3452
  921MPD2     N13539   0.989   0.185  16.584 -0.0589 -0.4782 -0.8240
  921MPD2    H513540   0.901   0.147  16.615 -0.2489  1.9267  1.5697
  921MPD2    N113541   1.452   0.296  16.722  0.1324 -0.2558 -0.0937
  921MPD2    H713542   1.512   0.269  16.800 -1.5453  0.2170  1.3533
  922MPD2     C13543   1.805   2.979   0.116 -0.5582 -0.6575  0.2984
  922MPD2    C113544   1.808   3.102   0.049  0.9024  0.1619 -0.5812
  922MPD2    C213545   1.707   3.135  17.709  0.2398 -0.1325  0.9367
  922MPD2    C313546   1.602   3.052  17.682  0.2537  0.5030  0.3855
  922MPD2    C413547   1.601   2.931   0.002 -0.4136  0.0335 -0.4987
  922MPD2    C513548   1.709   2.894   0.081 -0.5919 -0.3134 -0.3630
  922MPD2     H13549   1.712   3.226  17.650  0.5255 -1.7462 -1.5276
  922MPD2    H113550   1.520   2.860  17.734 -1.7509  1.6099 -0.7956
  922MPD2    H213551   1.877   2.942   0.188 -2.3825  0.0930  2.4873
  922MPD2    H313552   1.700   2.798   0.129 -0.6184 -0.3831 -0.5068
  922MPD2     N13553   1.517   3.090  17.574  0.3954  0.5572  0.5733
  922MPD2    H513554   1.523   3.179  17.527  0.8625 -0.7347 -1.8117
  922MPD2    N113555   1.915   3.194   0.051  0.0581 -0.1724  0.5654
  922MPD2    H713556   1.914   3.272  17.733  0.0816  1.0322  1.9945
  923MPD2     C13557   2.970   0.866   9.103  0.3398 -0.1148  0.2597
  923MPD2    C113558   2.968   0.861   9.239  0.0318 -0.0857 -0.4601
  923MPD2    C213559   3.064   0.935   9.307 -0.0543 -0.6095  0.2518
  923MPD2    C313560   3.147   1.024   9.243  0.1886 -0.1705  0.8416
  923MPD2    C413561   3.132   1.038   9.108  0.4333 -0.1479 -0.6474
  923MPD2    C513562   3.045   0.956   9.037  0.0484  0.3822  0.3574
  923MPD2     H13563   3.070   0.921   9.415  0.9139  1.1994  0.4229
  923MPD2    H113564   3.194   1.116   9.066  2.5589 -0.0921  2.6430
  923MPD2    H213565   2.898   0.808   9.046  0.2539  0.8121 -0.5687
  923MPD2    H313566   3.038   0.965   8.930  0.0110  0.2135  0.3456
  923MPD2     N13567   3.252   1.099   9.305 -0.5798 -0.4554 -0.7703
  923MPD2    H513568   3.317   1.151   9.247  1.9716 -0.4029  2.1232
  923MPD2    N113569   2.865   0.780   9.301  0.0731 -0.1246  0.8237
  923MPD2    H713570   2.814   0.719   9.238 -1.8331  2.0448  0.2746
  924MPD2     C13571   2.996   3.109  15.869 -0.1473 -0.4503 -0.0325
  924MPD2    C113572   2.946   3.178  15.975  0.2802  0.3203  0.3744
  924MPD2    C213573   2.975   3.311  15.991  0.0719 -0.2806 -0.1832
  924MPD2    C313574   3.056   3.379  15.898 -0.1868 -0.4957  0.8723
  924MPD2    C413575   3.094   3.316  15.785 -0.5510 -0.4197 -0.0672
  924MPD2    C513576   3.074   3.179  15.782 -0.1981 -0.1213 -0.3595
  924MPD2     H13577   2.929   3.359  16.076  0.5712  0.1672 -0.1712
  924MPD2    H113578   3.146   3.358  15.699 -1.8425  0.5946 -0.3346
  924MPD2    H213579   2.968   3.006  15.849 -0.5457 -0.1850 -0.8551
  924MPD2    H313580   3.097   3.118  15.695  1.3175  1.3907 -1.0136
  924MPD2     N13581   3.080   3.517  15.909  0.3701  0.1245 -1.2941
  924MPD2    H513582   3.131   3.570  15.839 -0.1137  1.2751 -0.7738
  924MPD2    N113583   2.853   3.098  16.051  0.1240  0.7942  0.3192
  924MPD2    H713584   2.865   2.997  16.041 -1.6714  0.7048 -0.9206
  925MPD2     C13585   1.751   1.468  14.462  0.0409  0.0640  0.4387
  925MPD2    C113586   1.771   1.334  14.437 -0.3988 -0.7828 -0.3912
  925MPD2    C213587   1.749   1.237  14.540  0.7245  0.3773  1.2209
  925MPD2    C313588   1.708   1.281  14.667 -0.3162  0.4490  0.0705
  925MPD2    C413589   1.681   1.417  14.688 -0.0009  0.4156  0.1518
  925MPD2    C513590   1.700   1.504  14.582 -0.9506 -0.2070  0.1470
  925MPD2     H13591   1.743   1.130  14.522  0.1427  0.7364 -0.8025
  925MPD2    H113592   1.644   1.459  14.781  0.0465 -0.6714  0.6695
  925MPD2    H213593   1.768   1.543  14.385 -1.0376  0.2681  0.4045
  925MPD2    H313594   1.698   1.605  14.622  0.4023  0.0286 -0.3742
  925MPD2     N13595   1.685   1.193  14.781 -0.3380  0.6480 -0.3780
  925MPD2    H513596   1.641   1.229  14.865  0.5689 -1.4770  1.0220
  925MPD2    N113597   1.805   1.280  14.310  0.1298 -0.1966  0.0553
  925MPD2    H713598   1.798   1.179  14.305 -2.0075  0.0340 -1.3040
  926MPD2     C13599   0.514   3.869  13.397  0.4204 -0.3608 -0.9393
  926MPD2    C113600   0.439   3.990  13.404  0.1108  0.4531  0.0521
  926MPD2    C213601   0.460   4.081  13.306 -0.1021 -0.0807  0.1843
  926MPD2    C313602   0.554   4.059  13.207  1.0219  0.1291  0.6705
  926MPD2    C413603   0.637   3.950  13.216  0.5491  0.2078  0.4271
  926MPD2    C513604   0.622   3.857  13.313 -0.5734 -0.0915 -0.6839
  926MPD2     H13605   0.398   4.170  13.303  0.3175  0.2182  0.3582
  926MPD2    H113606   0.713   3.929  13.142 -2.0956 -1.4404 -1.8467
  926MPD2    H213607   0.495   3.783  13.459 -0.0731  1.1775  1.0463
  926MPD2    H313608   0.686   3.771  13.324 -0.1874  0.3677  0.5843
  926MPD2     N13609   0.569   4.140  13.087 -0.2452  0.0267 -0.1505
  926MPD2    H513610   0.650   4.129  13.026  1.0765  0.7890  1.4693
  926MPD2    N113611   0.338   4.013  13.503  0.1815 -0.4885 -0.0873
  926MPD2    H713612   0.283   4.099  13.501  1.0355  0.0896  1.3389
  927MPD2     C13613   0.331   1.816  17.661  0.3648  0.6677  0.0330
  927MPD2    C113614   0.352   1.687  17.620 -0.0650  0.7383  0.2596
  927MPD2    C213615   0.414   1.647  17.502  0.3418  0.7702 -0.5276
  927MPD2    C313616   0.459   1.745  17.420 -0.0259  0.8818 -0.0349
  927MPD2    C413617   0.443   1.879  17.456  0.0421  0.5882 -0.0364
  927MPD2    C513618   0.379   1.909  17.572  1.0612 -0.6720 -0.5060
  927MPD2     H13619   0.438   1.543  17.485 -1.0883  0.5600 -1.2671
  927MPD2    H113620   0.490   1.964  17.408  2.5705 -1.7072 -1.6332
  927MPD2    H213621   0.281   1.839   0.006  0.2685  2.7541 -0.5322
  927MPD2    H313622   0.362   2.014  17.591  0.2296 -1.0798  0.9713
  927MPD2     N13623   0.537   1.712  17.303  0.2530  0.0038  0.4797
  927MPD2    H513624   0.565   1.614  17.301  0.6926  0.1954 -2.4342
  927MPD2    N113625   0.289   1.595  17.702 -0.0212  0.7721 -0.8275
  927MPD2    H713626   0.233   1.632   0.030 -1.1578 -1.4471 -0.5968
  928MPD2     C13627   3.103   4.500   0.727 -0.8303 -0.2896  0.0063
  928MPD2    C113628   3.167   4.595   0.815  0.5117 -0.4053  0.1065
  928MPD2    C213629   3.285   4.651   0.773 -1.0223  0.1312 -0.8666
  928MPD2    C313630   3.337   4.606   0.655  0.2147 -0.0261 -0.1288
  928MPD2    C413631   3.281   4.509   0.576 -0.3759  0.0294  0.3718
  928MPD2    C513632   3.162   4.460   0.616  0.8844  0.4245  0.3509
  928MPD2     H13633   3.339   4.728   0.826  0.4375 -0.6557 -1.2198
  928MPD2    H113634   3.307   4.473   0.477  2.9316 -0.8157  1.5598
  928MPD2    H213635   3.004   4.464   0.753 -0.7134 -0.4173  0.2805
  928MPD2    H313636   3.111   4.374   0.575 -0.8914  1.5405  0.2062
  928MPD2     N13637   3.457   4.664   0.601 -0.5223 -0.3418 -0.4579
  928MPD2    H513638   3.469   4.631   0.505  0.5995 -0.9201 -0.1119
  928MPD2    N113639   3.106   4.636   0.933  0.3189  0.2756 -0.1324
  928MPD2    H713640   3.009   4.613   0.949 -0.0568  1.9411 -0.0399
  929MPD2     C13641   3.000   0.462   9.604  0.2498 -0.8631 -0.0209
  929MPD2    C113642   2.900   0.402   9.677  0.4807  0.2636  0.3110
  929MPD2    C213643   2.837   0.463   9.787 -0.4314 -0.4064  0.7599
  929MPD2    C313644   2.870   0.583   9.824  0.2745  0.3269 -0.5952
  929MPD2    C413645   2.962   0.656   9.753 -0.4743  0.3530 -0.1506
  929MPD2    C513646   3.018   0.592   9.648  0.4091 -0.1422 -0.1876
  929MPD2     H13647   2.741   0.423   9.817 -0.3867 -2.7197 -2.1523
  929MPD2    H113648   3.006   0.751   9.782 -0.9911  0.3898  0.5173
  929MPD2    H213649   3.069   0.412   9.536  0.4371 -0.2668 -0.2733
  929MPD2    H313650   3.108   0.645   9.620  1.0122 -0.2078  1.5757
  929MPD2     N13651   2.820   0.650   9.936  0.1831  0.4785 -0.0962
  929MPD2    H513652   2.863   0.737   9.965 -1.1973  0.7198  1.1941
  929MPD2    N113653   2.874   0.270   9.646  0.1903 -0.7318  0.1897
  929MPD2    H713654   2.880   0.245   9.547  1.2968 -0.0231  0.0879
  930MPD2     C13655   0.052   2.114  13.996 -0.5428  0.2138 -0.0665
  930MPD2    C113656   0.025   2.225  13.924 -0.8729 -0.2444  0.1715
  930MPD2    C213657   4.733   2.211  13.788 -0.0774 -0.1544 -0.2382
  930MPD2    C313658   0.017   2.095  13.724 -0.3788 -0.5290 -1.0635
  930MPD2    C413659   0.053   1.981  13.797 -0.1294 -0.0665  0.3671
  930MPD2    C513660   0.067   1.991  13.927 -0.1797 -0.3217 -0.4951
  930MPD2     H13661   4.688   2.299  13.744  1.6100 -0.2692 -2.1401
  930MPD2    H113662   0.063   1.889  13.741  2.6335  0.6461 -0.2895
  930MPD2    H213663   0.080   2.118  14.100  1.7863 -2.0389 -0.6238
  930MPD2    H313664   0.089   1.905  13.989 -0.9527 -0.1318  0.0432
  930MPD2     N13665   0.002   2.081  13.588 -0.3191  0.1722 -0.5753
  930MPD2    H513666   0.034   1.995  13.546 -2.1375 -1.4579  1.3278
  930MPD2    N113667   0.030   2.357  13.964 -0.0070 -0.3635 -0.1649
  930MPD2    H713668   0.002   2.422  13.892 -0.5378  0.9382  1.2130
  931MPD2     C13669   0.422   0.825   0.189  0.3607 -0.1080 -0.5420
  931MPD2    C113670   0.414   0.923   0.276 -1.0099  0.0927  0.0923
  931MPD2    C213671   0.471   0.915   0.407 -0.1217  0.8166 -0.6272
  931MPD2    C313672   0.551   0.800   0.428 -0.3310  0.7074 -0.6942
  931MPD2    C413673   0.570   0.703   0.333 -0.4028  0.7563  0.5799
  931MPD2    C513674   0.493   0.716   0.218  0.7111  0.0466 -0.6548
  931MPD2     H13675   0.442   0.989   0.481 -0.3863  0.3867 -0.3008
  931MPD2    H113676   0.616   0.608   0.357  1.3414  1.1864 -1.0303
  931MPD2    H213677   0.389   0.850   0.089  3.0315  0.9546 -1.1701
  931MPD2    H313678   0.519   0.640   0.146  1.7938 -1.3216  1.2120
  931MPD2     N13679   0.610   0.784   0.560 -0.0614  0.0976  0.2087
  931MPD2    H513680   0.680   0.710   0.556 -0.9181 -0.8326  2.2483
  931MPD2    N113681   0.361   1.042   0.227  0.4822  0.3605  0.1054
  931MPD2    H713682   0.359   1.052   0.126  1.9476  1.1332  0.1521
  932MPD2     C13683   1.793   1.877  11.633  0.0463  0.0727  0.8924
  932MPD2    C113684   1.860   1.840  11.520  0.0772 -0.7741 -0.4384
  932MPD2    C213685   1.935   1.727  11.527  0.5328  0.0896  0.3726
  932MPD2    C313686   1.953   1.656  11.640  0.4378 -0.3867 -0.1706
  932MPD2    C413687   1.894   1.699  11.755  0.2003  0.3905  0.8046
  932MPD2    C513688   1.806   1.801  11.749  0.8895 -0.0829  0.4807
  932MPD2     H13689   1.999   1.687  11.449  1.7739 -0.1046  1.5012
  932MPD2    H113690   1.915   1.652  11.850  0.8539 -0.0657  0.4338
  932MPD2    H213691   1.726   1.962  11.633  1.3693  1.1045 -1.2842
  932MPD2    H313692   1.751   1.837  11.835  0.7202 -0.4199  0.5098
  932MPD2     N13693   2.042   1.545  11.659 -1.0613  0.5198  0.0752
  932MPD2    H513694   2.047   1.504  11.751 -1.2880  1.9309  0.7164
  932MPD2    N113695   1.860   1.922  11.405 -0.3320  0.0182  0.4791
  932MPD2    H713696   1.927   1.890  11.336  0.4523  0.9810  0.7893
  933MPD2     C13697   2.603   0.294   0.778 -0.5114 -0.3974 -0.3140
  933MPD2    C113698   2.687   0.334   0.880  0.5431 -0.1739  0.6174
  933MPD2    C213699   2.729   0.464   0.893 -0.5428 -0.4137  0.0613
  933MPD2    C313700   2.678   0.562   0.806 -0.2763  0.4721  0.5932
  933MPD2    C413701   2.589   0.521   0.707 -1.0344 -0.1474 -0.1922
  933MPD2    C513702   2.549   0.387   0.689 -0.5130 -0.3181  0.0311
  933MPD2     H13703   2.791   0.503   0.972 -3.6013  2.3919  1.0643
  933MPD2    H113704   2.536   0.593   0.645  1.0462  1.7964  0.3007
  933MPD2    H213705   2.581   0.190   0.755 -1.6174 -0.1412 -0.4367
  933MPD2    H313706   2.479   0.370   0.607  1.1614 -0.5336 -1.3640
  933MPD2     N13707   2.711   0.702   0.826 -0.3372 -0.4373 -0.2868
  933MPD2    H513708   2.779   0.714   0.901 -0.5259  0.6691 -0.2853
  933MPD2    N113709   2.749   0.237   0.960  0.3645 -0.0061 -0.1861
  933MPD2    H713710   2.785   0.155   0.912 -0.3660 -0.0835 -0.6029
  934MPD2     C13711   4.603   2.986   1.330  0.4213 -0.6601  0.7015
  934MPD2    C113712   4.645   2.926   1.215 -0.1011 -0.3632 -0.0413
  934MPD2    C213713   4.564   2.820   1.171 -0.8926  0.7501  0.4836
  934MPD2    C313714   4.443   2.783   1.235 -0.2310  0.0807  0.0678
  934MPD2    C413715   4.406   2.857   1.343 -0.8771  0.6881 -0.6275
  934MPD2    C513716   4.485   2.958   1.389 -0.8288 -0.3710 -0.0097
  934MPD2     H13717   4.601   2.765   1.085 -2.1836  0.1905  0.2906
  934MPD2    H113718   4.313   2.843   1.398 -0.0481  3.0746  1.4130
  934MPD2    H213719   4.669   3.052   1.386 -0.2690 -0.0540  0.8135
  934MPD2    H313720   4.473   3.003   1.487  1.1839 -0.0005  0.0580
  934MPD2     N13721   4.361   2.676   1.193 -0.3754  0.0770  0.0467
  934MPD2    H513722   4.271   2.671   1.239 -0.9947 -0.3845 -1.2472
  934MPD2    N113723   0.021   2.957   1.143  0.0327  0.2611 -0.0699
  934MPD2    H713724   0.050   2.891   1.071 -2.1914 -0.6437 -0.1380
  935MPD2     C13725   4.465   1.728   0.837  0.3291 -0.2260 -0.5202
  935MPD2    C113726   4.336   1.738   0.880 -0.2061  0.3410 -0.6787
  935MPD2    C213727   4.290   1.863   0.915 -0.4980  0.1595  0.3671
  935MPD2    C313728   4.366   1.981   0.911 -0.3068  0.1848 -0.3491
  935MPD2    C413729   4.499   1.962   0.882 -0.2622  0.2939 -0.2711
  935MPD2    C513730   4.544   1.841   0.846 -0.6784 -0.0503  0.1399
  935MPD2     H13731   4.194   1.859   0.965 -1.0575  0.2122 -0.7166
  935MPD2    H113732   4.572   2.042   0.888 -1.3643  1.0827  2.5595
  935MPD2    H213733   4.511   1.638   0.797  0.1834 -1.0095  1.0803
  935MPD2    H313734   4.648   1.836   0.815 -1.4041  0.9614 -2.4950
  935MPD2     N13735   4.319   2.110   0.954  0.5968 -0.9209  0.5384
  935MPD2    H513736   4.387   2.185   0.958 -2.0025  1.3806  1.4525
  935MPD2    N113737   4.246   1.632   0.898  0.3723  0.0163 -0.7200
  935MPD2    H713738   4.148   1.646   0.923  0.5906  1.4537 -0.6847
  936MPD2     C13739   2.164   4.488  12.322 -0.0405 -0.3871 -0.2567
  936MPD2    C113740   2.276   4.416  12.349  0.4967  0.7073  0.2276
  936MPD2    C213741   2.369   4.471  12.433  0.0290  0.1849  0.0081
  936MPD2    C313742   2.356   4.597  12.487 -0.3366 -0.0431  0.1010
  936MPD2    C413743   2.241   4.666  12.464 -0.4652  0.1344  0.2633
  936MPD2    C513744   2.148   4.609  12.384 -0.1464 -0.1992 -0.4280
  936MPD2     H13745   2.464   4.423  12.450 -0.2825 -0.4094  0.0934
  936MPD2    H113746   2.216   0.026  12.506  0.5552 -0.5097  2.3839
  936MPD2    H213747   2.091   4.447  12.253 -0.5679 -2.8522  1.8065
  936MPD2    H313748   2.065   4.674  12.362  0.8536  1.2599  0.1349
  936MPD2     N13749   2.464   4.654  12.557 -0.8320 -0.8488 -0.0514
  936MPD2    H513750   2.541   4.590  12.579  1.4392  1.7979 -0.2959
  936MPD2    N113751   2.314   4.293  12.289 -0.1649 -0.3228 -0.3538
  936MPD2    H713752   2.404   4.254  12.314 -0.6820 -2.1382 -1.2490
  937MPD2     C13753   4.562   1.053  11.584  0.2632 -0.4727  0.4726
  937MPD2    C113754   4.684   1.110  11.606  0.4620  0.4717 -0.3116
  937MPD2    C213755   4.723   1.204  11.516  0.4088  0.0482  0.0953
  937MPD2    C313756   4.654   1.226  11.393 -0.3148 -0.1796  0.0898
  937MPD2    C413757   4.527   1.175  11.380 -0.0798  0.3340  0.5359
  937MPD2    C513758   4.488   1.094  11.479  0.2446 -0.6101  0.3468
  937MPD2     H13759   0.083   1.251  11.528 -0.8360  3.0085 -1.3952
  937MPD2    H113760   4.467   1.187  11.291 -0.2083 -0.2930  0.5432
  937MPD2    H213761   4.512   0.999  11.664 -0.0261 -0.3726  0.3589
  937MPD2    H313762   4.392   1.046  11.469  0.2342 -0.9229  2.0073
  937MPD2     N13763   4.725   1.288  11.284  0.2393  0.3325  0.0160
  937MPD2    H513764   0.080   1.325  11.304 -0.3086  1.7287 -0.0425
  937MPD2    N113765   4.737   1.123  11.736  0.4596  0.1044  0.3291
  937MPD2    H713766   0.063   1.199  11.755 -0.8641  0.6617  2.5009
  938MPD2     C13767   3.845   1.435   1.076  0.7353  0.6183  0.8017
  938MPD2    C113768   3.740   1.504   1.035 -1.4368 -0.2370 -0.6182
  938MPD2    C213769   3.615   1.445   1.036  0.0097  0.3500  0.0451
  938MPD2    C313770   3.602   1.314   1.062  0.0377 -0.6609  0.0581
  938MPD2    C413771   3.712   1.237   1.091  0.1099  0.2089 -0.8665
  938MPD2    C513772   3.827   1.295   1.091  0.0715  0.1409 -0.5842
  938MPD2     H13773   3.535   1.510   1.002 -0.9132 -0.3300  0.9007
  938MPD2    H113774   3.696   1.131   1.106  0.9640  0.2367  0.2021
  938MPD2    H213775   3.948   1.468   1.073  1.3495 -1.4036 -0.7592
  938MPD2    H313776   3.917   1.235   1.082 -0.9845 -1.5139  0.0601
  938MPD2     N13777   3.478   1.257   1.066 -0.1547 -0.0904  0.0675
  938MPD2    H513778   3.468   1.159   1.091 -0.7511 -0.1401 -0.3630
  938MPD2    N113779   3.747   1.645   0.999 -0.9357 -0.1358  0.2766
  938MPD2    H713780   3.666   1.703   0.979 -1.2613 -0.1125  1.6866
  939MPD2     C13781   4.105   3.519   1.271  0.7575  0.1101 -0.4512
  939MPD2    C113782   4.183   3.630   1.261  0.4470 -0.3098 -0.2010
  939MPD2    C213783   4.245   3.640   1.140 -0.2591 -0.5867  0.1062
  939MPD2    C313784   4.234   3.542   1.040  0.0806 -0.3394  0.4642
  939MPD2    C413785   4.158   3.435   1.060 -1.1635 -0.0511  0.4258
  939MPD2    C513786   4.087   3.424   1.174  0.1496  0.1510  0.5237
  939MPD2     H13787   4.302   3.730   1.120 -0.9880  0.2737  1.9329
  939MPD2    H113788   4.154   3.352   0.990  1.8222 -0.3842  0.6559
  939MPD2    H213789   4.039   3.504   1.356 -0.3283  0.8303 -1.1726
  939MPD2    H313790   4.018   3.343   1.196  1.2337 -1.4010 -1.8029
  939MPD2     N13791   4.292   3.574   0.912 -0.0534 -0.0430 -0.4152
  939MPD2    H513792   4.343   3.661   0.904 -0.8779  0.2731 -2.0017
  939MPD2    N113793   4.194   3.728   1.364  0.3601 -0.8371 -0.5429
  939MPD2    H713794   4.145   3.711   1.452  1.7654 -1.5096  0.1066
  940MPD2     C13795   3.005   3.903  12.578  0.1219 -1.0002  0.6466
  940MPD2    C113796   2.902   3.850  12.653 -0.2319 -0.1814 -0.3941
  940MPD2    C213797   2.796   3.781  12.598  0.2537 -0.2763 -0.0401
  940MPD2    C313798   2.790   3.767  12.459 -0.5122 -0.0250 -0.1100
  940MPD2    C413799   2.894   3.830  12.386  0.4915  0.4873  0.0159
  940MPD2    C513800   2.996   3.898  12.446  0.4047  0.4219  0.2156
  940MPD2     H13801   2.724   3.733  12.664  1.0121 -1.9856 -0.4525
  940MPD2    H113802   2.878   3.826  12.279  0.6099  0.5761 -0.0040
  940MPD2    H213803   3.087   3.957  12.624 -0.1805  0.8592 -0.9794
  940MPD2    H313804   3.069   3.945  12.381  0.4671 -0.2503 -0.1941
  940MPD2     N13805   2.690   3.695  12.388 -0.5234 -0.3944 -0.8531
  940MPD2    H513806   2.710   3.669  12.292  1.5904  2.2893 -1.1760
  940MPD2    N113807   2.913   3.854  12.794  0.7960 -0.0610 -0.0564
  940MPD2    H713808   2.827   3.855  12.848 -0.2416  0.4564 -1.7320
  941MPD2     C13809   2.161   3.918  10.276  0.5505 -0.0581  0.7153
  941MPD2    C113810   2.286   3.937  10.329  0.2507 -0.0799 -0.1933
  941MPD2    C213811   2.321   3.868  10.441  0.2289  0.2249  0.1711
  941MPD2    C313812   2.229   3.789  10.503  0.0757 -0.1753 -0.7682
  941MPD2    C413813   2.102   3.765  10.454  0.5763  0.4294  0.1469
  941MPD2    C513814   2.076   3.835  10.337  0.3922  0.1652  0.4956
  941MPD2     H13815   2.417   3.894  10.484  0.7417 -1.5565  0.1264
  941MPD2    H113816   2.041   3.698  10.513  0.1643  1.8609  1.3621
  941MPD2    H213817   2.115   3.967  10.191 -0.4606 -1.3126  0.5420
  941MPD2    H313818   1.974   3.830  10.302  0.3836  3.2365  0.0781
  941MPD2     N13819   2.260   3.717  10.619  0.3610  0.1421 -0.5293
  941MPD2    H513820   2.178   3.685  10.669  0.4338 -1.0951 -1.2012
  941MPD2    N113821   2.382   4.021  10.274 -0.1712  0.4884 -0.0925
  941MPD2    H713822   2.455   4.045  10.339 -0.9561 -1.6142  1.5787
  942MPD2     C13823   2.865   0.439   8.936  0.2543 -0.4957  0.3321
  942MPD2    C113824   2.753   0.464   8.868  0.2330 -0.2505  0.0153
  942MPD2    C213825   2.716   0.401   8.747 -0.7131 -0.2392 -0.0586
  942MPD2    C313826   2.818   0.320   8.695 -0.7076 -0.8714  0.1941
  942MPD2    C413827   2.932   0.288   8.767  0.7333  0.5357  0.0017
  942MPD2    C513828   2.959   0.353   8.887  0.2009  0.1282  0.7111
  942MPD2     H13829   2.620   0.417   8.700 -0.2784 -1.3993 -1.3301
  942MPD2    H113830   2.991   0.202   8.737 -0.4713 -0.2443 -0.1137
  942MPD2    H213831   2.879   0.464   9.040  2.2837 -3.0881  0.6845
  942MPD2    H313832   3.049   0.325   8.940  0.5747  1.8124  0.9623
  942MPD2     N13833   2.808   0.257   8.572  0.0883 -0.1770 -0.1682
  942MPD2    H513834   2.889   0.216   8.528  0.1810 -0.4085  0.2154
  942MPD2    N113835   2.650   0.541   8.927 -0.3619 -0.1051 -0.2584
  942MPD2    H713836   2.573   0.568   8.867 -0.7256  1.1480  0.7914
  943MPD2     C13837   0.797   3.910   9.369 -0.9368  0.4183  0.4932
  943MPD2    C113838   0.735   3.826   9.459  0.3960  0.2451 -0.5036
  943MPD2    C213839   0.815   3.777   9.561 -0.1457 -0.4603 -0.0336
  943MPD2    C313840   0.946   3.812   9.573  0.4311  0.2548 -0.3513
  943MPD2    C413841   1.007   3.885   9.487 -0.2665 -0.2427  0.0421
  943MPD2    C513842   0.935   3.926   9.376  0.1001 -0.0971 -0.2626
  943MPD2     H13843   0.779   3.707   9.635  0.8642  0.2377  1.1116
  943MPD2    H113844   1.108   3.921   9.503  0.2944 -0.8315 -2.1348
  943MPD2    H213845   0.730   3.958   9.298 -1.2271 -0.5386  0.1170
  943MPD2    H313846   0.977   3.975   9.289  4.0670 -3.4577 -0.2564
  943MPD2     N13847   1.034   3.769   9.675 -0.1717  0.2739  0.0863
  943MPD2    H513848   1.130   3.796   9.660 -0.2354  0.5349  0.1604
  943MPD2    N113849   0.601   3.785   9.438 -0.0510  0.5455  0.5807
  943MPD2    H713850   0.556   3.810   9.350  1.5592 -0.8874 -0.6635
  944MPD2     C13851   0.293   3.199  11.313 -0.1658 -0.5937  0.3851
  944MPD2    C113852   0.186   3.130  11.354 -0.3807  0.2588  0.5280
  944MPD2    C213853   0.077   3.192  11.411 -0.3137 -0.0006  0.1079
  944MPD2    C313854   0.077   3.332  11.426  0.3236  0.0405  0.6904
  944MPD2    C413855   0.185   3.396  11.376  0.9330 -0.0843  0.0420
  944MPD2    C513856   0.294   3.335  11.325  0.2337 -0.3008 -0.1138
  944MPD2     H13857   4.732   3.133  11.448  0.5422 -1.6906 -0.6928
  944MPD2    H113858   0.187   3.504  11.374 -0.3397 -0.0370  1.2237
  944MPD2    H213859   0.380   3.161  11.260 -1.7119 -2.0606 -1.0745
  944MPD2    H313860   0.384   3.390  11.301  0.7961 -0.6739  1.1031
  944MPD2     N13861   4.691   3.399  11.462  0.3680  0.3541  0.1108
  944MPD2    H513862   4.619   3.338  11.499  0.4025  0.0090 -0.3928
  944MPD2    N113863   0.182   2.989  11.337  0.0856 -0.2551  0.0609
  944MPD2    H713864   0.258   2.958  11.278  1.3822  1.7367  0.6914
    1TMC1    C113865   3.449   2.742  14.387 -1.1616  0.8800 -0.5536
    1TMC1    C213866   3.341   2.800  14.436 -0.2792  0.2687 -0.2210
    1TMC1    C313867   3.257   2.733  14.525 -0.1166  0.4564  0.0275
    1TMC1    C413868   3.476   2.614  14.418  0.0384 -0.8917 -0.3975
    1TMC1    C513869   3.381   2.544  14.495 -0.3989 -0.2834 -0.3343
    1TMC1    C613870   3.269   2.599  14.551 -0.4985 -0.5401 -0.6521
    1TMC1     C13871   3.564   2.827  14.373 -0.1384 -0.3077 -0.6975
    1TMC1     O13872   3.674   2.784  14.407  0.2817 -0.2742 -0.2275
    1TMC1     H13873   3.350   2.908  14.433  0.8984  0.1206 -1.8052
    1TMC1    H113874   3.573   2.571  14.394  0.7219  0.6634 -0.3979
    1TMC1    H213875   3.201   2.542  14.614  1.6381 -2.5548 -0.1467
    1TMC1    C713876   3.403   2.395  14.506  0.0923 -0.5505 -0.1304
    1TMC1    C813877   3.213   2.827  14.623 -0.1387  0.3546  0.4390
    1TMC1    O113878   3.353   2.332  14.593  0.7683  0.0308 -0.4058
    1TMC1    O213879   3.274   2.930  14.644  0.0606  0.6784  0.2461
    1TMC1    O313880   3.428   2.350  14.380  0.2259  0.1382  1.1343
    1TMC1    H313881   3.423   2.417  14.308 -0.0628  0.5807  1.5601
    1TMC1    O513882   3.139   2.763  14.722 -0.1746 -0.0153 -0.4736
    1TMC1    H513883   3.082   2.694  14.681 -3.7142  2.2071  0.6915
    2MPD2     C13884   3.781   3.261  14.256 -0.2285 -0.1137  0.5484
    2MPD2    C113885   3.661   3.264  14.191  1.0708  0.9187  0.5359
    2MPD2    C213886   3.578   3.158  14.215 -0.4010 -0.6397  0.1741
    2MPD2    C313887   3.622   3.047  14.290  0.9202  0.5217  0.1262
    2MPD2    C413888   3.749   3.044  14.338  0.7492 -0.4802  0.0797
    2MPD2    C513889   3.822   3.153  14.329  0.3386  0.2217  0.2899
    2MPD2     H13890   3.481   3.159  14.167 -1.7416  1.5526  2.8687
    2MPD2    H113891   3.802   2.963  14.386  2.4253  1.4436  1.4280
    2MPD2    H213892   3.852   3.342  14.244 -1.4121  0.8621  0.0462
    2MPD2    H313893   3.917   3.160  14.382  0.1876  0.8266  0.4777
    2MPD2     N13894   3.539   2.940  14.297 -0.6647 -0.0933 -0.0996
    2MPD2    H513895   3.448   2.942  14.252 -0.5300 -2.5792 -0.4886
    2MPD2    N113896   3.643   3.356  14.091  0.2579 -0.2752  0.0615
    2MPD2    H713897   3.728   3.405  14.067 -0.2524  0.6650  0.1806
    3TMC2    C113898   3.564   3.479  13.912 -0.3355  0.2036  0.1638
    3TMC2    C213899   3.600   3.598  13.969 -0.2387 -0.3238  0.3596
    3TMC2    C313900   3.598   3.707  13.888 -0.9995 -0.9619 -0.6500
    3TMC2    C413901   3.520   3.462  13.779 -0.6865  0.0707 -0.2160
    3TMC2    C513902   3.524   3.577  13.706  0.2984 -0.0868 -0.4207
    3TMC2    C613903   3.565   3.705  13.755 -1.0006 -0.0679  0.3161
    3TMC2     C13904   3.548   3.359  13.990 -0.2862  0.3788 -0.1305
    3TMC2     O13905   3.440   3.303  13.981 -0.1967 -0.2238  0.3724
    3TMC2     H13906   3.599   3.605  14.077 -2.7288 -0.4428  0.3303
    3TMC2    H113907   3.489   3.363  13.748  1.1306 -0.8107  0.7876
    3TMC2    H213908   3.570   3.793  13.692  1.1159 -0.7503 -0.4799
    3TMC2    C713909   3.518   3.559  13.562  0.6176  0.1160 -0.1216
    3TMC2    C813910   3.627   3.828  13.960  0.7023 -0.0027  0.0594
    3TMC2    O113911   3.552   3.454  13.514  0.3231  0.2115  0.7233
    3TMC2    O213912   3.683   3.815  14.066 -0.4576 -0.7884  0.0270
    3TMC2    O513913   3.665   3.915  13.859 -0.4475  0.2892 -0.9129
    3TMC2    H513914   3.583   3.948  13.816 -1.6802  0.1099  1.2965
    4TMC2    C113915   3.073   4.293  13.067 -0.2965 -0.0419  0.6436
    4TMC2    C213916   3.092   4.322  12.938  0.2215 -0.5224 -0.5848
    4TMC2    C313917   3.174   4.230  12.873  0.2997 -0.5294 -0.5758
    4TMC2    C413918   3.139   4.209  13.147  0.7426  0.8255 -0.1229
    4TMC2    C513919   3.224   4.124  13.083  0.2451  0.6784  0.6854
    4TMC2    C613920   3.238   4.130  12.949  0.0299 -1.1936  0.3785
    4TMC2     C13921   2.998   4.389  13.149  0.2618 -0.1148 -0.3207
    4TMC2     O13922   3.019   4.389  13.267 -0.4689  0.4053  0.3143
    4TMC2     H13923   3.035   4.399  12.888 -1.7389 -0.1113  2.3033
    4TMC2    H113924   3.121   4.198  13.254  1.3194 -0.1221 -0.1203
    4TMC2    H213925   3.316   4.067  12.909 -1.4453 -1.8481 -1.4294
    4TMC2    C713926   3.310   4.030  13.163  0.1415 -0.1205  0.2863
    4TMC2    C813927   3.206   4.248  12.735 -0.5013  0.1552 -0.3981
    4TMC2    O113928   3.336   4.073  13.272  0.3859 -0.2768 -0.6538
    4TMC2    O213929   3.211   4.161  12.651 -0.3475  0.0163 -0.4454
    4TMC2    O513930   3.198   4.379  12.709 -0.5191 -0.0872  0.3424
    4TMC2    H513931   3.206   4.440  12.786  2.4551 -0.0730  0.0434
    5MPD2     C13932   2.606   4.691  13.254  0.2420  0.7821 -0.5064
    5MPD2    C113933   2.568   4.620  13.137  0.5612 -0.4636  0.3586
    5MPD2    C213934   2.659   4.540  13.075 -0.5321  0.1817 -0.6480
    5MPD2    C313935   2.781   4.520  13.139  0.5219  0.6662 -0.0702
    5MPD2    C413936   2.820   4.585  13.253 -0.0826 -0.7591 -0.0795
    5MPD2    C513937   2.729   4.666  13.305 -0.1615  0.3216 -1.1397
    5MPD2     H13938   2.631   4.490  12.983  0.9318 -1.0434 -0.4261
    5MPD2    H113939   2.915   4.575  13.304  0.8883 -1.7441 -2.1111
    5MPD2    H213940   2.532   0.014  13.306  0.1664  0.3137 -0.0709
    5MPD2    H313941   2.753   4.707  13.403 -0.0139 -2.3275 -0.0648
    5MPD2     N13942   2.874   4.427  13.084  0.0606  0.0786  0.2432
    5MPD2    H513943   2.855   4.379  12.997 -1.2655 -1.3465  1.3177
    5MPD2    N113944   2.432   4.640  13.091  0.2257  0.2009  0.0713
    5MPD2    H713945   2.383   4.709  13.147  2.6471  0.5578  1.7517
    6MPD1     C13946   1.809   1.320  13.474  0.3191 -0.6443 -0.2534
    6MPD1    C113947   1.680   1.289  13.432 -0.3097 -0.1435  0.4896
    6MPD1    C213948   1.648   1.158  13.407  0.2305 -0.3267  0.0867
    6MPD1    C313949   1.738   1.058  13.418 -0.7120 -0.7643 -0.2415
    6MPD1    C413950   1.868   1.091  13.449 -0.2900 -0.5243 -0.2956
    6MPD1    C513951   1.899   1.217  13.487  0.0077  0.6507 -0.3849
    6MPD1     H13952   1.542   1.132  13.403  0.7591 -2.4318 -0.0808
    6MPD1    H113953   1.948   1.018  13.454  0.1640  0.0885  1.4801
    6MPD1    H213954   1.830   1.421  13.507  1.8641 -1.0451  0.0044
    6MPD1    H313955   2.000   1.243  13.513  0.8096 -0.3762 -2.4454
    6MPD1     N13956   1.709   0.925  13.385 -0.5747 -0.7665  0.4800
    6MPD1    H513957   1.771   0.853  13.420  1.8009  1.2244  0.4409
    6MPD1    N113958   1.571   1.383  13.454 -0.0995 -0.0015 -0.1538
    6MPD1    H613959   1.605   1.476  13.431 -0.3486 -0.1716 -1.2090
    6MPD1    H713960   1.495   1.368  13.387  0.0494 -1.6023  0.0347
    7MPD2     C13961   1.885   0.219  13.557  1.3513 -0.5139  0.0537
    7MPD2    C113962   1.852   0.232  13.424  0.1390  0.1214 -0.0074
    7MPD2    C213963   1.886   0.130  13.344  0.3050  0.4859 -0.1438
    7MPD2    C313964   1.955   0.016  13.385  0.5403  0.6385  0.7701
    7MPD2    C413965   1.991   0.018  13.516  0.2872 -0.2643 -0.3389
    7MPD2    C513966   1.959   0.115  13.604  0.2818 -0.3659 -0.4118
    7MPD2     H13967   1.870   0.136  13.236 -0.9907  0.3066  0.0333
    7MPD2    H113968   2.042   4.666  13.551  1.4708  0.8702  0.7991
    7MPD2    H213969   1.870   0.300  13.627 -0.6825 -0.7880 -0.0848
    7MPD2    H313970   1.970   0.093  13.709  1.2406 -2.7701 -1.0317
    7MPD2     N13971   1.994   4.656  13.292  0.1680 -0.0993 -0.1236
    7MPD2    H513972   2.073   4.596  13.315  0.0813 -0.6034 -1.1237
    7MPD2    N113973   1.789   0.346  13.369  0.5123  0.5858  0.5248
    7MPD2    H713974   1.779   0.352  13.268 -0.6978 -0.1990  0.5958
    8TMC3    C113975   2.019   4.594  13.057  0.0924  0.5093  0.2829
    8TMC3    C213976   2.154   4.617  13.081 -0.3718  0.6252  0.1611
    8TMC3    C313977   2.235   4.630  12.972 -0.1580  0.6337  0.2573
    8TMC3    C413978   1.964   4.609  12.929  0.2258  0.8962 -0.3496
    8TMC3    C513979   2.046   4.640  12.826 -0.1308  1.0093 -0.1072
    8TMC3    C613980   2.185   4.628  12.841  0.1137  0.6504  0.4286
    8TMC3     C13981   1.927   4.649  13.167  0.3640 -0.5657 -0.0395
    8TMC3     O13982   1.836   4.711  13.121  0.3423  0.1160  0.2144
    8TMC3     H13983   2.199   4.597  13.177 -0.3909  2.1463  0.4937
    8TMC3    H113984   1.857   4.595  12.932  0.4003 -0.4985 -0.4603
    8TMC3    H213985   2.246   4.660  12.757 -1.3203  1.6469 -0.2311
    8TMC3    C713986   2.012   0.025  12.755  0.1521 -0.4110 -0.3636
    8TMC3    C813987   2.376   4.592  12.975 -0.0880 -0.0188 -0.0772
    8TMC3    O113988   2.096   0.081  12.676  0.6347 -0.2226 -0.1809
    8TMC3    O213989   2.419   4.526  12.883  0.1836 -0.0210 -1.3567
    9TMC3    C113990   1.589   0.745  13.302 -0.1705 -0.1262 -0.1081
    9TMC3    C213991   1.559   0.701  13.177 -0.1040  0.2701 -0.0712
    9TMC3    C313992   1.585   0.574  13.133 -0.2605  0.8986 -0.2279
    9TMC3    C413993   1.647   0.660  13.388  0.4564  0.3337  1.1660
    9TMC3    C513994   1.672   0.533  13.343 -0.4608 -0.2632 -0.0733
    9TMC3    C613995   1.633   0.483  13.224 -0.1155  0.2205  0.4895
    9TMC3     C13996   1.599   0.886  13.322  0.3101  0.2035 -0.1784
    9TMC3     O13997   1.527   0.946  13.242 -0.1472 -0.0692  0.3219
    9TMC3     H13998   1.510   0.768  13.107 -2.0727 -2.8126 -1.6574
    9TMC3    H113999   1.656   0.683  13.494  0.5329 -2.9690  1.8683
    9TMC3    H214000   1.620   0.379  13.196  2.1810 -0.3783  1.6798
    9TMC3    C714001   1.721   0.442  13.438  0.0495  0.7324  0.5966
    9TMC3    C814002   1.603   0.552  12.992  0.1328 -0.3252  0.2469
    9TMC3    O114003   1.718   0.475  13.555  0.5171  0.2113  0.3235
    9TMC3    O214004   1.594   0.648  12.920  0.6019 -0.4725 -0.1427
   10MPD2     C14005   1.896   0.293  12.673  0.1855 -0.1111  0.0182
   10MPD2    C114006   1.848   0.208  12.774  0.1504  0.3993  0.1383
   10MPD2    C214007   1.743   0.244  12.857  0.6755  0.5596 -0.4977
   10MPD2    C314008   1.697   0.374  12.859  0.2515  0.0820 -0.1036
   10MPD2    C414009   1.745   0.462  12.765  0.0824 -0.4367  0.2234
   10MPD2    C514010   1.831   0.416  12.673 -0.1444  0.0288 -0.1406
   10MPD2     H14011   1.714   0.175  12.935 -1.0428  1.1408 -0.6157
   10MPD2    H114012   1.711   0.565  12.758 -2.2132 -1.1983  0.1849
   10MPD2    H214013   1.981   0.279  12.608  0.9406  0.9554  0.7663
   10MPD2    H314014   1.868   0.491  12.604  0.3390  0.1302  0.2347
   10MPD2     N14015   1.629   0.417  12.965  0.0419 -0.6914 -0.5844
   10MPD2    H514016   1.606   0.345  13.033  2.6998 -1.3609 -0.4184
   10MPD2    N114017   1.904   0.080  12.808  0.0916 -0.4103 -0.4004
   10MPD2    H714018   1.855   0.037  12.886  0.3177 -0.1536 -0.1231
   11MPD2     C14019   3.515   3.585  13.269  0.1428 -0.1261 -0.1521
   11MPD2    C114020   3.468   3.686  13.354 -0.5418  0.1629 -0.0846
   11MPD2    C214021   3.400   3.797  13.300  0.1396  0.2123 -0.1690
   11MPD2    C314022   3.404   3.805  13.160 -0.2524  0.2008  0.2232
   11MPD2    C414023   3.450   3.702  13.082 -0.6084  0.5125  0.3483
   11MPD2    C514024   3.503   3.593  13.136  0.1495 -0.1023 -0.0574
   11MPD2     H14025   3.346   3.870  13.360 -2.6152 -2.5010  0.6205
   11MPD2    H114026   3.436   3.692  12.975 -0.6610  0.6855  0.3392
   11MPD2    H214027   3.586   3.509  13.299  1.2630 -0.5999 -4.0212
   11MPD2    H314028   3.543   3.512  13.077 -0.7456 -1.2480  0.8960
   11MPD2     N14029   3.348   3.916  13.094  0.0492  0.3041  0.3266
   11MPD2    H514030   3.331   3.910  12.994  0.6867 -3.8816  0.4715
   11MPD2    N114031   3.479   3.674  13.499 -0.3710  0.3159  0.1919
   11MPD2    H714032   3.445   3.754  13.552 -3.8665 -0.4765 -0.8895
    1MPD1     C14033   2.344   1.905  16.163  0.2268 -0.2724  0.4136
    1MPD1    C114034   2.255   1.862  16.064  0.1114 -0.3898 -0.3215
    1MPD1    C214035   2.187   1.742  16.087 -0.4382 -0.5553  0.1140
    1MPD1    C314036   2.191   1.685  16.212 -0.0087  0.0010 -0.0257
    1MPD1    C414037   2.271   1.735  16.312 -0.9138  0.5576 -0.4701
    1MPD1    C514038   2.344   1.847  16.285 -0.5643 -0.1675 -0.2576
    1MPD1     H14039   2.130   1.714  15.999 -1.9417 -1.9488  1.5529
    1MPD1    H114040   2.269   1.706  16.416  1.1949 -1.5672 -1.0244
    1MPD1    H214041   2.411   1.990  16.151 -0.7161  0.2374 -1.1702
    1MPD1    H314042   2.410   1.886  16.361  1.1330 -0.8208 -1.3938
    1MPD1     N14043   2.104   1.585  16.255  0.6501  0.3305  0.4148
    1MPD1    H514044   2.114   1.547  16.349 -1.2724  0.6363  0.7415
    1MPD1    N114045   2.256   1.934  15.935  0.4496 -0.1434 -0.6219
    1MPD1    H614046   2.268   2.034  15.950 -1.0031 -0.0814  0.0949
    1MPD1    H714047   2.174   1.922  15.876 -0.5171 -1.3969  0.9675
    2MPD1     C14048   1.067   1.257  16.233 -0.2264 -0.5983  0.0710
    2MPD1    C114049   1.122   1.217  16.352 -0.5088 -0.2933 -0.0111
    2MPD1    C214050   1.260   1.243  16.380 -0.5130 -0.1914  0.5596
    2MPD1    C314051   1.336   1.288  16.277 -0.1753 -0.5834 -0.4485
    2MPD1    C414052   1.281   1.322  16.159 -0.3602 -0.2055  0.3305
    2MPD1    C514053   1.143   1.308  16.137 -0.1558  0.5859 -0.4162
    2MPD1     H14054   1.301   1.232  16.479 -1.3125 -0.5926  0.8529
    2MPD1    H114055   1.334   1.363  16.073 -0.1411 -0.3616  0.3903
    2MPD1    H214056   0.961   1.253  16.210 -0.0181  0.1255 -1.0269
    2MPD1    H314057   1.101   1.351  16.046 -2.0702 -0.6085 -0.0964
    2MPD1     N14058   1.476   1.290  16.303  0.5719 -0.1082  0.2402
    2MPD1    H514059   1.505   1.249  16.391 -0.2113 -1.0075  0.0726
    2MPD1    N114060   1.031   1.182  16.455 -0.1673 -0.1823  0.4943
    2MPD1    H614061   0.946   1.136  16.423 -0.0105 -0.5691  0.6444
    2MPD1    H714062   1.070   1.120  16.525  1.3123 -0.7176 -0.8015
    3TMC3    C114063   1.710   1.335  16.257 -0.1817 -0.1598 -0.3036
    3TMC3    C214064   1.741   1.291  16.381 -0.3900 -0.0480  0.0554
    3TMC3    C314065   1.861   1.320  16.431  0.6379 -0.4518  0.1653
    3TMC3    C414066   1.806   1.402  16.180 -0.6299  0.5158  0.0156
    3TMC3    C514067   1.918   1.435  16.243 -0.3775  0.1224  0.2321
    3TMC3    C614068   1.952   1.396  16.370 -0.3912  0.0711  0.9173
    3TMC3     C14069   1.573   1.342  16.218  0.0849 -0.2858  0.2104
    3TMC3     O14070   1.554   1.391  16.108  0.0169  0.7146 -0.2785
    3TMC3     H14071   1.672   1.235  16.444 -0.2341  0.3730  0.6046
    3TMC3    H114072   1.787   1.441  16.080  0.3320  0.9074 -0.0120
    3TMC3    H214073   2.057   1.389  16.393 -0.1408 -0.4250 -0.3349
    3TMC3    C714074   2.001   1.538  16.176 -0.5196  0.1004 -0.0991
    3TMC3    C814075   1.893   1.287  16.565 -0.5870 -0.5157  0.6569
    3TMC3    O114076   1.958   1.579  16.071  0.2184  0.2303 -0.1445
    3TMC3    O214077   1.848   1.183  16.610 -0.3484 -0.3629  0.7855
    4MPD1     C14078   2.210   1.330  16.965  0.2154  1.0753 -0.0808
    4MPD1    C114079   2.218   1.443  16.891  0.0274  0.3116  0.4524
    4MPD1    C214080   2.137   1.461  16.772 -0.2808 -0.2521  0.0483
    4MPD1    C314081   2.050   1.363  16.742 -0.9311  0.1374  0.3998
    4MPD1    C414082   2.038   1.252  16.827  0.4244 -0.6326 -0.0825
    4MPD1    C514083   2.117   1.239  16.941 -0.4778 -0.4439 -0.2325
    4MPD1     H14084   2.154   1.545  16.705  0.9703  0.0874  0.7908
    4MPD1    H114085   1.966   1.175  16.801 -0.8101  0.4319  0.2178
    4MPD1    H214086   2.282   1.311  17.043 -0.3019 -0.4206  0.0253
    4MPD1    H314087   2.130   1.149  17.001 -1.6197 -0.8612 -0.6031
    4MPD1     N14088   1.982   1.374  16.619 -0.0708  0.6295  0.1967
    4MPD1    H514089   1.987   1.463  16.570 -2.4183  0.1012 -1.0055
    4MPD1    N114090   2.330   1.529  16.897 -0.2057 -0.2343 -0.7142
    4MPD1    H614091   2.375   1.533  16.988 -0.9140 -2.0124 -0.2881
    4MPD1    H714092   2.315   1.617  16.849 -2.0806 -0.7633 -1.1230
    1TCq1    O114093   3.065   2.210  10.804  0.0891  0.4253  0.0329
    1TCq1    C114094   2.940   2.163  10.792  0.1864 -0.9057 -0.9589
    1TCq1    O214095   2.899   2.085  10.706  0.3879  0.1665 -0.2021
    1TCq1    C214096   2.866   2.178  10.919 -0.2798 -0.0401  0.0937
    1TCq1    C314097   2.758   2.103  10.934  0.2523 -0.1386 -0.2751
    1TCq1    C414098   2.645   2.139  11.009  0.1098 -0.3064  0.3556
    1TCq1    C514099   2.666   2.238  11.104 -0.5571 -0.7176  0.1560
    1TCq1    C614100   2.787   2.303  11.096  0.2909  0.8752 -0.8110
    1TCq1    C714101   2.881   2.288  10.996  0.3384  0.2666  0.0688
    1TCq1    C814102   2.816   2.396  11.208 -0.4967 -0.2820  0.1960
    1TCq1    O414103   2.885   2.492  11.175  0.5630  0.3247  0.6410
    1TCq1    C914104   2.542   2.038  11.030  0.6209 -0.0901 -0.0646
    1TCq1    O514105   2.538   1.943  10.950  0.0453 -0.2293  0.4393
    1TCq1    O614106   2.482   2.036  11.141  0.0857 -0.4121  0.1746
    1TCq1    H114107   3.081   2.245  10.894 -0.7060 -0.1763  0.4035
    1TCq1    H214108   2.749   2.018  10.868 -0.6217 -0.8359  0.7424
    1TCq1    H314109   2.588   2.259  11.176 -1.0553  0.2558 -0.6611
    1TCq1    H414110   2.958   2.364  10.997 -0.9737  1.5843  0.6154
    2MPD1     C14111   2.689   2.627  11.636  0.8548  0.3853 -0.0929
    2MPD1    C114112   2.636   2.502  11.642 -0.4323  0.4078 -0.0396
    2MPD1    C214113   2.680   2.408  11.545 -0.8307 -0.0679  0.4464
    2MPD1    C314114   2.751   2.452  11.435  0.1802 -0.5366  0.0562
    2MPD1    C414115   2.789   2.581  11.426  0.1818  0.0981 -0.2139
    2MPD1    C514116   2.758   2.668  11.531  0.2103  0.3650 -0.3968
    2MPD1     H14117   2.651   2.304  11.551 -0.9382 -0.0353  0.5035
    2MPD1    H114118   2.824   2.630  11.336 -1.0001 -0.6522 -1.0700
    2MPD1    H214119   2.673   2.696  11.719 -1.6767  0.8385 -0.9636
    2MPD1    H314120   2.788   2.772  11.526 -0.5675  0.4999 -2.2947
    2MPD1     N14121   2.753   2.365  11.322 -0.1909 -0.2663 -0.5200
    2MPD1    H514122   2.699   2.279  11.322 -2.9741  1.4735  0.5468
    2MPD1    N114123   2.566   2.461  11.752  0.6387  0.0007 -0.1674
    2MPD1    H614124   2.497   2.390  11.731  0.4573  0.7945 -2.2569
    2MPD1    H714125   2.515   2.534  11.801  0.4719 -0.1308 -0.1475
    1TMC1    C114126   1.281   2.364   1.031 -0.2935  0.8053  0.4264
    1TMC1    C214127   1.301   2.487   1.077 -0.4143  0.3498  0.6137
    1TMC1    C314128   1.248   2.591   1.011  0.4411  0.4398 -0.0618
    1TMC1    C414129   1.193   2.338   0.928  0.3734 -0.5245  0.4699
    1TMC1    C514130   1.118   2.441   0.891 -0.2000  0.1968  0.0556
    1TMC1    C614131   1.152   2.573   0.916 -0.1585  0.1019  0.2733
    1TMC1     C14132   1.351   2.259   1.097  0.2275  0.2270  0.2380
    1TMC1     O14133   1.427   2.295   1.190  0.2928  0.4439 -0.7460
    1TMC1     H14134   1.350   2.502   1.173 -0.7882  0.8141  0.7326
    1TMC1    H114135   1.166   2.237   0.899  0.4249 -0.3927 -0.0319
    1TMC1    H214136   1.089   2.654   0.882 -0.6140  0.0363  0.9484
    1TMC1    C714137   1.015   2.406   0.793 -0.7098  0.5029  0.4316
    1TMC1    C814138   1.268   2.724   1.063  0.3218  0.0062  0.2252
    1TMC1    O114139   1.025   2.302   0.728  0.1984 -0.1100 -0.2203
    1TMC1    O214140   1.188   2.812   1.038 -0.5073 -0.5482 -0.1437
    1TMC1    O314141   0.955   2.519   0.746  0.3919 -0.1434  0.5375
    1TMC1    H314142   0.946   2.579   0.823  0.0064 -0.4401  0.7243
    1TMC1    O514143   1.401   2.747   1.073 -0.0947 -0.2343  0.0756
    1TMC1    H514144   1.448   2.661   1.062 -0.7972 -0.7353  0.9732
    2MPD1     C14145   1.462   1.769   1.182 -0.0693  0.5571 -0.0441
    2MPD1    C114146   1.341   1.772   1.120 -0.5371  0.0774 -0.6520
    2MPD1    C214147   1.301   1.896   1.072 -0.0749  0.1378 -0.6125
    2MPD1    C314148   1.374   2.012   1.101  0.4314 -0.8390 -0.1537
    2MPD1    C414149   1.487   2.000   1.177  1.0130  0.0137 -0.0319
    2MPD1    C514150   1.537   1.878   1.215 -0.5110 -0.3897  0.7527
    2MPD1     H14151   1.202   1.899   1.028 -0.8208  0.8899  1.1442
    2MPD1    H114152   1.556   2.081   1.193  0.9529  0.2171 -0.8132
    2MPD1    H214153   1.504   1.678   1.223  0.5695  1.2829  0.9291
    2MPD1    H314154   1.625   1.856   1.275 -0.2383  1.6561  1.0904
    2MPD1     N14155   1.319   2.131   1.053 -0.0926  0.1392  0.3857
    2MPD1    H514156   1.241   2.133   0.988  0.1926 -0.0597  0.0413
    2MPD1    N114157   1.267   1.655   1.094  0.5222  0.0610 -0.5064
    2MPD1    H614158   1.169   1.665   1.121  0.3007 -0.4688 -1.1219
    2MPD1    H714159   1.298   1.578   1.154  0.4476 -0.0182 -0.5695
    1MPD1     C14160   4.052   4.619  11.720  0.0353  0.0777  0.0679
    1MPD1    C114161   3.969   4.731  11.727  0.4085  0.4184  0.1260
    1MPD1    C214162   4.023   0.115  11.679 -0.5960  0.0133 -0.2431
    1MPD1    C314163   4.152   0.128  11.635  0.5795  0.1598  0.3229
    1MPD1    C414164   4.230   0.009  11.627 -0.9525 -0.3576  0.2607
    1MPD1    C514165   4.178   4.632  11.670  0.3731  0.5676 -0.9473
    1MPD1     H14166   3.958   0.202  11.677 -0.4168  0.1881  1.7178
    1MPD1    H114167   4.335   0.006  11.600 -0.6525 -4.0580  1.9255
    1MPD1    H214168   4.034   4.517  11.751 -0.7264 -0.1578 -1.1416
    1MPD1    H314169   4.244   4.547  11.666  0.3560  0.5737 -1.3688
    1MPD1     N14170   4.199   0.255  11.592 -0.0579 -0.3713  0.0295
    1MPD1    H514171   4.127   0.326  11.601  0.0869 -0.5192  2.2643
    1MPD1    N114172   3.855   4.728  11.806  0.3496 -0.0522  0.5220
    1MPD1    H614173   3.773   0.043  11.775  0.5309 -0.0764  0.0010
    1MPD1    H714174   3.829   4.630  11.803  2.6782 -0.5984 -2.0367
    2MPD1     C14175   3.341   0.279  10.643  0.1550 -0.1181  0.2929
    2MPD1    C114176   3.283   0.316  10.524 -0.7296 -0.2428  0.4952
    2MPD1    C214177   3.363   0.360  10.420  0.0427  0.6331 -1.2312
    2MPD1    C314178   3.500   0.379  10.438  0.6388 -0.2644 -0.6124
    2MPD1    C414179   3.560   0.336  10.555  0.5512 -0.2928  0.2938
    2MPD1    C514180   3.479   0.286  10.657  0.1263  0.7115  0.5046
    2MPD1     H14181   3.317   0.381  10.324 -0.2926  0.6450 -1.0703
    2MPD1    H114182   3.667   0.337  10.573  0.1951  2.2639  2.3376
    2MPD1    H214183   3.282   0.247  10.728  1.9919  1.1096  2.0473
    2MPD1    H314184   3.526   0.257  10.750 -0.8763  0.3035  0.8890
    2MPD1     N14185   3.578   0.432  10.324  0.2047 -0.2378 -0.0199
    2MPD1    H514186   3.673   0.460  10.345  1.0618 -2.0661 -1.4958
    2MPD1    N114187   3.144   0.324  10.509 -0.2631  0.0662 -0.0321
    2MPD1    H614188   3.088   0.249  10.549  1.5091 -1.7129 -0.8826
    2MPD1    H714189   3.116   0.328  10.411  0.0610  0.4583 -0.1067
    3MPD1     C14190   3.936   0.534   9.293 -0.1620 -0.3681  0.4480
    3MPD1    C114191   4.031   0.562   9.386 -0.0314  0.4657  0.2646
    3MPD1    C214192   3.990   0.576   9.521 -0.6067  0.3002 -0.1133
    3MPD1    C314193   3.873   0.528   9.565  0.0078 -0.2006 -0.8927
    3MPD1    C414194   3.779   0.497   9.468  0.5210 -0.0577  0.6809
    3MPD1    C514195   3.813   0.503   9.337 -0.4532  0.9028  0.3991
    3MPD1     H14196   4.059   0.626   9.587  1.0042 -0.3955 -1.2797
    3MPD1    H114197   3.674   0.483   9.488  0.6671 -0.9969  0.7727
    3MPD1    H214198   3.958   0.524   9.187 -1.0770  0.5254  0.1769
    3MPD1    H314199   3.740   0.489   9.258  0.9423  1.8836 -1.0501
    3MPD1     N14200   3.840   0.542   9.705 -0.1349 -0.7887  0.1244
    3MPD1    H514201   3.905   0.571   9.777 -0.3256  0.0556 -0.0406
    3MPD1    N114202   4.156   0.617   9.350  0.4746  0.1921 -0.2516
    3MPD1    H614203   4.227   0.601   9.422 -0.0290  1.5989  0.5616
    3MPD1    H714204   4.185   0.567   9.267 -0.3682 -1.4295  0.4367
    4MPD2     C14205   4.039   0.908  11.419  0.2061  0.3780 -0.6010
    4MPD2    C114206   4.170   0.869  11.376  0.2043  1.0298 -0.1939
    4MPD2    C214207   4.200   0.908  11.247  0.8111 -0.2495 -0.4389
    4MPD2    C314208   4.129   0.996  11.172  0.2934 -0.3592  0.0115
    4MPD2    C414209   4.006   1.035  11.219 -0.2198 -0.4610 -0.2782
    4MPD2    C514210   3.961   0.988  11.342  0.2818 -0.4076  0.0072
    4MPD2     H14211   4.291   0.871  11.202  0.2214 -0.4184 -1.4887
    4MPD2    H114212   3.946   1.107  11.165  0.9025  0.6478 -0.0440
    4MPD2    H214213   4.008   0.868  11.514  0.4755  0.2968 -0.5470
    4MPD2    H314214   3.860   1.012  11.373 -0.6329 -0.2839 -3.1072
    4MPD2     N14215   4.193   1.049  11.051  0.3164  0.1715  0.6777
    4MPD2    H514216   4.288   1.016  11.033  0.1442 -0.2356  0.5184
    4MPD2    N114217   4.257   0.788  11.451  0.3268 -0.0090  0.0668
    4MPD2    H714218   4.347   0.761  11.413 -0.7015 -1.7743 -1.0785
    5TMC3    C114219   4.343   0.634  11.591 -0.7760  0.1988 -0.4092
    5TMC3    C214220   4.304   0.508  11.605  0.4297  0.2565 -0.8896
    5TMC3    C314221   4.365   0.415  11.528  0.0187  0.3354 -0.1297
    5TMC3    C414222   4.454   0.671  11.526 -0.4021  0.4741  0.0416
    5TMC3    C514223   4.510   0.579  11.446  0.3318 -0.0201 -0.1438
    5TMC3    C614224   4.465   0.445  11.442  0.1967 -0.4906  0.4411
    5TMC3     C14225   4.235   0.728  11.571 -0.2056  0.8542  0.2698
    5TMC3     O14226   4.134   0.723  11.637 -0.3055  0.0411  0.1706
    5TMC3     H14227   4.211   0.484  11.656 -0.0680  1.6966 -1.1143
    5TMC3    H114228   4.505   0.766  11.537  2.1395 -1.0484  1.3871
    5TMC3    H214229   4.505   0.373  11.372 -1.8011 -1.5914  0.4216
    5TMC3    C714230   4.532   0.632  11.315  0.8676  0.2537 -0.5685
    5TMC3    C814231   4.319   0.276  11.525  0.6257 -0.2286 -0.2916
    5TMC3    O114232   4.505   0.753  11.306 -0.2394  0.1456 -0.3500
    5TMC3    O214233   4.396   0.195  11.475 -0.5682  0.2954  0.5477
    6TMC3    C114234   3.623   0.530  10.112  0.1323 -0.1744  0.6691
    6TMC3    C214235   3.624   0.501   9.983 -0.3106  0.2938  0.3905
    6TMC3    C314236   3.715   0.556   9.901  0.1660  0.0107  0.1751
    6TMC3    C414237   3.703   0.630  10.167 -0.3087  0.2401  0.1027
    6TMC3    C514238   3.786   0.697  10.085 -0.2291 -0.5760 -0.0375
    6TMC3    C614239   3.797   0.657   9.951  0.2227  0.5523 -0.3895
    6TMC3     C14240   3.530   0.453  10.198 -0.4362 -0.1722 -0.0085
    6TMC3     O14241   3.429   0.414  10.143  0.5403  0.1239  0.4921
    6TMC3     H14242   3.571   0.414   9.945  1.0550 -0.0110 -0.8139
    6TMC3    H114243   3.702   0.643  10.275  1.8624 -0.4407  0.2063
    6TMC3    H214244   3.851   0.721   9.883  1.0512  1.2579  0.9313
    6TMC3    C714245   3.894   0.753  10.161  0.0918 -0.2250  0.3538
    6TMC3    C814246   3.714   0.530   9.759 -0.3267  0.0007 -0.1032
    6TMC3    O114247   3.867   0.781  10.274 -0.0100  0.1096 -0.1361
    6TMC3    O214248   3.609   0.484   9.720 -0.3112  0.5367 -0.6155
    7MPD2     C14249   4.586   0.588  10.814 -0.7324 -1.0649  0.4285
    7MPD2    C114250   4.554   0.700  10.886  0.0615 -0.2196 -0.2180
    7MPD2    C214251   4.546   0.677  11.024  0.2860  0.0589  0.0125
    7MPD2    C314252   4.591   0.559  11.086  0.3435  0.1176  0.6542
    7MPD2    C414253   4.630   0.450  11.008 -0.0312  0.2998  0.1444
    7MPD2    C514254   4.619   0.465  10.874 -0.5009  0.3860 -0.7378
    7MPD2     H14255   4.502   0.752  11.088  1.2742  0.2079  0.5113
    7MPD2    H114256   4.648   0.352  11.051 -0.2811  0.1715 -0.0439
    7MPD2    H214257   4.575   0.589  10.706 -0.7461 -0.7427  0.4326
    7MPD2    H314258   4.649   0.379  10.816  2.3579  1.7054 -1.2506
    7MPD2     N14259   4.573   0.537  11.221 -0.3847 -0.4208  0.1916
    7MPD2    H514260   4.608   0.448  11.254 -1.2338 -1.0904 -0.6963
    7MPD2    N114261   4.500   0.815  10.819  0.8241 -0.3092 -0.6518
    7MPD2    H714262   4.478   0.819  10.720 -0.6757 -0.7063 -0.3292
    8TMC3    C114263   4.428   1.051  10.809 -0.6544 -0.6376 -1.2166
    8TMC3    C214264   4.378   1.022  10.687 -0.1019  0.3064  0.2680
    8TMC3    C314265   4.249   1.074  10.661  0.6337 -0.2025 -0.2438
    8TMC3    C414266   4.363   1.123  10.900 -0.5724 -0.1676  0.2786
    8TMC3    C514267   4.240   1.177  10.872  0.0751 -0.5798  0.0231
    8TMC3    C614268   4.184   1.161  10.749 -0.2938 -0.5395 -0.3901
    8TMC3     C14269   4.505   0.942  10.870  0.0328 -0.1304  0.2587
    8TMC3     O14270   4.549   0.974  10.978 -0.8131 -0.3997  0.1904
    8TMC3     H14271   4.440   0.964  10.620 -0.3673  0.8144 -0.4219
    8TMC3    H114272   4.407   1.144  10.997 -1.6642  2.0209  0.3083
    8TMC3    H214273   4.082   1.192  10.729 -0.6251 -0.8046  0.8709
    8TMC3    C714274   4.141   1.147  10.968 -0.2263  0.5119  0.5392
    8TMC3    C814275   4.187   1.043  10.533  0.1082 -0.3382  1.0290
    8TMC3    O114276   4.026   1.183  10.956  0.2716  0.2525  0.0740
    8TMC3    O214277   4.067   1.019  10.542 -0.2180  0.2225  0.1594
    9MPD2     C14278   4.362   0.961  10.221 -0.3647  0.7676 -0.6535
    9MPD2    C114279   4.253   0.976  10.297  0.5939 -0.6277 -0.2943
    9MPD2    C214280   4.130   0.920  10.253  0.3564  0.0390 -0.3803
    9MPD2    C314281   4.124   0.841  10.137 -0.0459  0.8887  0.0787
    9MPD2    C414282   4.238   0.830  10.062  0.6331 -0.4726  0.2349
    9MPD2    C514283   4.357   0.886  10.106  0.0969 -0.2028 -0.3800
    9MPD2     H14284   4.038   0.950  10.302 -0.3807  1.0326 -2.3664
    9MPD2    H114285   4.236   0.777   9.968  1.3594  0.9362 -0.5784
    9MPD2    H214286   4.459   1.001  10.246 -1.0950  1.2875  1.3555
    9MPD2    H314287   4.437   0.885  10.033 -0.2194  1.9673 -0.7694
    9MPD2     N14288   4.011   0.776  10.089 -0.6200 -0.5456  0.4626
    9MPD2    H514289   4.026   0.727  10.001  1.1716 -3.6077  2.4945
    9MPD2    N114290   4.276   1.039  10.425  0.0493  0.6233 -0.5407
    9MPD2    H714291   4.373   1.065  10.435  0.6935 -1.2641 -1.8986
    1MPD1     C14292   3.851   4.695  16.326  0.2441 -0.1462  0.4798
    1MPD1    C114293   3.744   4.617  16.361 -0.5038 -0.0880  0.2407
    1MPD1    C214294   3.665   4.556  16.263 -0.1446  0.6375  0.2787
    1MPD1    C314295   3.687   4.583  16.127 -0.4375  0.4652  0.2477
    1MPD1    C414296   3.789   4.672  16.092  0.2983 -0.4279 -0.2703
    1MPD1    C514297   3.868   4.726  16.189 -0.2441 -0.1754  0.1885
    1MPD1     H14298   3.578   4.496  16.287 -1.9302  2.6233 -1.1262
    1MPD1    H114299   3.807   4.708  15.992 -1.1285  2.1097  0.3955
    1MPD1    H214300   3.914   0.008  16.398  2.1552  0.7947 -1.8438
    1MPD1    H314301   3.948   0.058  16.163  0.2918 -1.3456 -1.3048
    1MPD1     N14302   3.607   4.530  16.025 -0.8337  0.4998  0.2976
    1MPD1    H514303   3.618   4.571  15.932  2.1624 -0.5449  0.1769
    1MPD1    N114304   3.708   4.607  16.499 -0.3863  0.6136 -0.5735
    1MPD1    H614305   3.781   4.616  16.570  0.4266 -1.0252 -1.2152
    1MPD1    H714306   3.665   4.518  16.524  1.9702 -0.5679 -0.8016
    2TMC2    C114307   3.429   4.170  15.778 -0.4064 -0.4501 -0.0218
    2TMC2    C214308   3.400   4.252  15.671  0.4545  0.2365 -0.2077
    2TMC2    C314309   3.418   4.384  15.688 -0.1283 -0.6402 -0.2009
    2TMC2    C414310   3.459   4.230  15.898  0.7986 -0.7397  0.0269
    2TMC2    C514311   3.485   4.362  15.913 -0.3531  0.2494  0.0240
    2TMC2    C614312   3.447   4.441  15.810  0.3783 -0.0480 -0.2023
    2TMC2     C14313   3.423   4.022  15.772 -0.5893 -0.2257  0.6260
    2TMC2     O14314   3.416   3.961  15.881 -0.0344 -0.0764  0.2378
    2TMC2     H14315   3.365   4.211  15.577 -0.7263  1.8823 -0.4751
    2TMC2    H114316   3.493   4.173  15.984 -0.5096 -1.6980 -0.0830
    2TMC2    H214317   3.450   4.550  15.816  1.5638 -0.0376 -0.9249
    2TMC2    C714318   3.534   4.413  16.035 -0.2515 -0.1803  0.3965
    2TMC2    C814319   3.395   4.475  15.583 -1.4583  0.1637  0.1265
    2TMC2    O114320   3.531   4.337  16.129  0.4103 -0.2522 -0.0858
    2TMC2    O214321   3.387   4.593  15.612  0.5329  0.2266  0.8787
    2TMC2    O514322   3.465   4.422  15.484 -0.5555 -0.4324 -0.6158
    2TMC2    H514323   3.476   4.325  15.479  0.1379 -0.5658  3.5791
    3MPD1     C14324   3.428   3.571  15.523 -0.2821 -0.4251  0.3372
    3MPD1    C114325   3.439   3.674  15.433 -0.6916  0.0567  0.2699
    3MPD1    C214326   3.431   3.800  15.479 -0.5415  0.2870 -0.5286
    3MPD1    C314327   3.413   3.829  15.613 -0.3913  0.0487 -0.2117
    3MPD1    C414328   3.410   3.722  15.697  0.0450 -0.3986 -0.0466
    3MPD1    C514329   3.397   3.596  15.650 -0.3587  0.2364  0.2238
    3MPD1     H14330   3.445   3.879  15.407  2.4263 -0.1346 -0.4165
    3MPD1    H114331   3.399   3.731  15.805  0.1832  2.1861 -0.2490
    3MPD1    H214332   3.444   3.469  15.489  2.4208 -0.7291  2.5479
    3MPD1    H314333   3.382   3.517  15.722 -1.0486 -0.1226 -0.3099
    3MPD1     N14334   3.420   3.966  15.643 -0.3796  0.3729  0.2486
    3MPD1    H514335   3.440   4.031  15.568  1.4133 -0.5954 -0.1040
    3MPD1    N114336   3.474   3.654  15.301  0.0068 -0.3473  0.1344
    3MPD1    H614337   3.426   3.722  15.243 -1.0432 -0.9218  0.3391
    3MPD1    H714338   3.466   3.560  15.264 -1.1940  0.2949 -1.2072
    1TMC1    C114339   1.905   3.438  12.849  0.3934 -0.5055 -0.1942
    1TMC1    C214340   1.817   3.352  12.902 -0.3665  0.7819  0.4192
    1TMC1    C314341   1.688   3.362  12.871  0.6489  0.3585 -0.0614
    1TMC1    C414342   1.872   3.540  12.764 -0.0829  0.2493 -0.0072
    1TMC1    C514343   1.741   3.543  12.733 -0.4431  0.3459 -0.2442
    1TMC1    C614344   1.651   3.461  12.782  0.0471 -0.0255  0.0610
    1TMC1     C14345   2.044   3.423  12.881  0.1461 -0.0273 -0.3080
    1TMC1     O14346   2.114   3.446  12.784 -0.2810  0.3298 -0.3078
    1TMC1     H14347   1.853   3.258  12.943 -3.3627 -0.1611  0.8774
    1TMC1    H114348   1.953   3.597  12.720  0.0073  0.3783  0.3273
    1TMC1    H214349   1.552   3.453  12.739  0.8455 -0.4100 -1.6811
    1TMC1    C714350   1.714   3.630  12.623 -0.2905  0.5280 -0.3798
    1TMC1    C814351   1.600   3.274  12.938 -0.0301  0.2123 -0.1478
    1TMC1    O114352   1.743   3.748  12.637  0.3088 -0.4059 -0.3089
    1TMC1    O214353   1.640   3.163  12.982  0.8971 -0.1037  0.3836
    1TMC1    O314354   1.741   3.547  12.518 -0.0777  0.0526 -0.4009
    1TMC1    H314355   1.717   3.453  12.536  1.1530 -0.3520 -0.8496
    1TMC1    O514356   1.523   3.355  13.021 -0.4244 -0.3576  0.2939
    1TMC1    H514357   1.535   3.449  12.999  2.3670 -0.5581  0.9719
    2MPD2     C14358   2.297   3.367  12.992  0.5936 -0.3438 -0.4563
    2MPD2    C114359   2.189   3.398  13.075 -0.4076 -0.4747 -0.0924
    2MPD2    C214360   2.201   3.407  13.212  0.6758  0.1258 -0.0523
    2MPD2    C314361   2.334   3.379  13.262 -0.2060  0.1329 -0.5013
    2MPD2    C414362   2.441   3.343  13.182  0.1012  0.0665 -0.2191
    2MPD2    C514363   2.421   3.330  13.048  0.8010  0.1724 -0.1247
    2MPD2     H14364   2.110   3.423  13.269 -0.7629 -1.3554 -1.9645
    2MPD2    H114365   2.536   3.316  13.227  0.1451 -0.8304 -0.8495
    2MPD2    H214366   2.291   3.352  12.885  1.6273 -0.0080 -0.5585
    2MPD2    H314367   2.507   3.303  12.988  0.8127  0.0006 -0.0275
    2MPD2     N14368   2.336   3.383  13.402 -0.1845 -0.3941 -0.0339
    2MPD2    H514369   2.259   3.413  13.461  0.9152  0.5064  0.9413
    2MPD2    N114370   2.065   3.414  13.019  0.0402 -0.3827  0.0913
    2MPD2    H714371   1.988   3.438  13.080 -0.1800 -0.3669 -0.1935
    3TCq1    O114372   2.173   3.513  13.964 -0.6764  0.5263 -0.0304
    3TCq1    C114373   2.176   3.522  13.829  0.5842 -0.3129  0.4365
    3TCq1    O214374   2.114   3.601  13.759  0.3402  0.7298 -0.7308
    3TCq1    C214375   2.261   3.411  13.773 -0.0887  0.0947 -0.3188
    3TCq1    C314376   2.288   3.308  13.854  0.1007  0.2232  0.2244
    3TCq1    C414377   2.389   3.223  13.806 -0.0625 -0.0296  0.4245
    3TCq1    C514378   2.446   3.237  13.689  0.2441 -0.1375 -0.8162
    3TCq1    C614379   2.420   3.347  13.609  0.8729  0.4243  0.8839
    3TCq1    C714380   2.319   3.435  13.646  0.0796  0.3120  0.4471
    3TCq1    C814381   2.439   3.327  13.469 -0.6601 -0.1286  0.7998
    3TCq1    O414382   2.533   3.254  13.439 -0.0952  0.1451  0.2006
    3TCq1    C914383   2.428   3.102  13.875  0.4841 -0.3348  0.3149
    3TCq1    O514384   2.351   3.060  13.959 -0.2410  0.3874 -0.1927
    3TCq1    O614385   2.534   3.043  13.846  0.0123 -0.3223 -0.3832
    3TCq1    H114386   2.256   3.473  13.998 -1.1369  0.7474  1.3359
    3TCq1    H214387   2.240   3.285  13.949 -1.8439  1.5297 -0.4498
    3TCq1    H314388   2.512   3.160  13.650  1.4665  0.7159 -0.4123
    3TCq1    H414389   2.286   3.522  13.590 -0.8382  0.1288  0.7065
    1MPD2     C14390   1.815   4.202  14.944 -0.0697 -0.6060  0.2902
    1MPD2    C114391   1.689   4.181  15.000 -0.2132  0.0678 -0.2220
    1MPD2    C214392   1.657   4.054  15.050 -0.1458  0.0573 -0.2516
    1MPD2    C314393   1.754   3.953  15.034  0.0268  0.5504 -0.2313
    1MPD2    C414394   1.883   3.988  14.996 -0.1417 -0.0448  0.0110
    1MPD2    C514395   1.910   4.107  14.941 -0.7601  0.4203 -0.2648
    1MPD2     H14396   1.564   4.019  15.092 -0.2407 -1.7144 -1.8976
    1MPD2    H114397   1.956   3.909  14.980 -1.0733 -0.7314 -0.8705
    1MPD2    H214398   1.849   4.302  14.921  0.7557 -0.7676  0.8096
    1MPD2    H314399   2.010   4.132  14.906  0.8209 -1.7222  2.7399
    1MPD2     N14400   1.728   3.817  15.061 -0.6790  0.2069 -0.6797
    1MPD2    H514401   1.812   3.761  15.059 -0.9568 -0.2502  0.2937
    1MPD2    N114402   1.590   4.281  14.995 -0.6877  0.0337  0.1985
    1MPD2    H714403   1.630   4.372  14.972  0.1290 -0.7414 -1.4448
    2TMC3    C114404   1.392   4.394  15.027 -0.5603 -0.3326 -0.7303
    2TMC3    C214405   1.284   4.382  15.102  0.9064 -0.2285  0.4685
    2TMC3    C314406   1.166   4.386  15.037  0.4311  0.0915 -0.5770
    2TMC3    C414407   1.388   4.448  14.903  0.1566  0.1648 -0.3108
    2TMC3    C514408   1.266   4.473  14.852 -0.0766 -0.6272  0.2598
    2TMC3    C614409   1.153   4.438  14.909  0.0470 -0.8357 -0.2508
    2TMC3     C14410   1.461   4.270  15.041  0.0677 -0.2413 -1.0849
    2TMC3     O14411   1.412   4.183  15.107  0.1100  0.2831  0.1430
    2TMC3     H14412   1.288   4.350  15.205 -3.5532  0.3700  0.8273
    2TMC3    H114413   1.479   4.448  14.845 -0.1407 -2.1429 -0.7700
    2TMC3    H214414   1.058   4.428  14.858  0.2867 -0.2393 -0.8073
    2TMC3    C714415   1.260   4.549  14.733  0.3896  0.1764  0.0886
    2TMC3    C814416   1.075   4.282  15.080 -0.9955 -0.0726 -0.3641
    2TMC3    O114417   1.163   4.526  14.665 -0.1088  0.1239 -0.4173
    2TMC3    O214418   0.956   4.304  15.074 -0.1506 -0.0348 -0.4597
    3TCq1    O114419   2.150   0.430  14.879 -0.0531  0.2788  0.3321
    3TCq1    C114420   2.016   0.447  14.870  0.1569 -0.2059 -0.4940
    3TCq1    O214421   1.946   0.491  14.965  0.0159 -0.1691  0.4651
    3TCq1    C214422   1.973   0.455  14.725  0.0593 -0.1462  0.7488
    3TCq1    C314423   2.036   0.542  14.636 -0.0453 -0.5605  0.2851
    3TCq1    C414424   1.962   0.601  14.538 -0.4778 -0.1555  0.1391
    3TCq1    C514425   1.829   0.570  14.526  0.0571  0.2409 -0.8826
    3TCq1    C614426   1.770   0.476  14.610  0.1524 -0.0429 -0.5104
    3TCq1    C714427   1.842   0.429  14.714 -0.0046  0.0809 -0.1186
    3TCq1    C814428   1.654   0.410  14.565  0.0183  0.6879 -0.4473
    3TCq1    O414429   1.581   0.472  14.491 -0.3025 -0.0964 -0.5648
    3TCq1    C914430   2.019   0.709  14.456  0.5206 -0.0583 -0.7493
    3TCq1    O514431   1.954   0.761  14.360  0.4078  0.4736 -0.1341
    3TCq1    O614432   2.132   0.745  14.488 -0.4612 -0.0683 -0.1115
    3TCq1    H114433   2.198   0.413  14.795 -1.4086  1.9412 -0.7868
    3TCq1    H214434   2.138   0.576  14.647  0.0844 -0.7272 -0.3963
    3TCq1    H314435   1.770   0.617  14.449  1.4164  0.1778 -1.9557
    3TCq1    H414436   1.800   0.356  14.782 -0.4715 -1.4790 -2.0871
    4MPD2     C14437   1.434   0.232  14.473  0.1622 -0.2290  0.2023
    4MPD2    C114438   1.508   0.214  14.587  0.9072  0.6716  0.0997
    4MPD2    C214439   1.473   0.115  14.671 -0.7621  0.1984  0.0069
    4MPD2    C314440   1.375   0.023  14.645  0.8170 -0.1892  0.2847
    4MPD2    C414441   1.307   0.033  14.521  0.0416 -0.5696  0.7072
    4MPD2    C514442   1.339   0.134  14.433  0.1374  0.3472  0.0345
    4MPD2     H14443   1.524   0.110  14.767  0.0674 -0.4187 -0.4561
    4MPD2    H114444   1.237   4.694  14.490 -0.9842  0.6121  0.0853
    4MPD2    H214445   1.467   0.304  14.400  0.7091 -1.7486 -1.0631
    4MPD2    H314446   1.280   0.161  14.347  1.5904  2.7987 -0.2095
    4MPD2     N14447   1.354   4.650  14.734  0.0948  0.1585 -0.2240
    4MPD2    H514448   1.414   4.646  14.815  0.0482  0.5380 -0.1743
    4MPD2    N114449   1.618   0.292  14.626  0.4294 -0.1521 -0.5488
    4MPD2    H714450   1.678   0.258  14.701 -0.0934  0.5046  0.1786
    5TMC2    C114451   1.403   3.554  15.252  0.1491 -0.2284 -0.6814
    5TMC2    C214452   1.474   3.538  15.362  0.5276  0.1010 -1.2290
    5TMC2    C314453   1.604   3.582  15.367  0.7525 -0.1691  0.1580
    5TMC2    C414454   1.471   3.600  15.142  0.0792 -0.7742  0.0995
    5TMC2    C514455   1.602   3.636  15.136  0.3311 -0.4981  0.1827
    5TMC2    C614456   1.668   3.627  15.260 -0.2559  0.4576 -0.0263
    5TMC2     C14457   1.277   3.607  15.271  0.1461  0.0894  0.4296
    5TMC2     O14458   1.215   3.574  15.371 -0.2043 -0.2530 -0.2378
    5TMC2     H14459   1.428   3.519  15.458  2.1232  0.9126 -0.2888
    5TMC2    H114460   1.421   3.594  15.046 -0.3258  1.0444  0.1979
    5TMC2    H214461   1.773   3.654  15.261  0.3391 -1.9120  2.1492
    5TMC2    C714462   1.604   3.762  15.067 -0.6408  0.5189  0.1233
    5TMC2    C814463   1.685   3.530  15.478 -0.4898 -0.9867 -0.3645
    5TMC2    O114464   1.497   3.809  15.030 -0.9748 -0.4574  0.1939
    5TMC2    O214465   1.642   3.518  15.592 -0.0855  0.5137  0.1393
    5TMC2    O514466   1.791   3.464  15.425  0.0965  0.1409  0.0094
    5TMC2    H514467   1.799   3.449  15.329 -0.3529  0.2080 -0.0374
    6MPD2     C14468   0.978   4.029  15.216 -0.2365 -0.2201  0.1635
    6MPD2    C114469   1.099   4.045  15.156  0.6275  0.4507 -0.3215
    6MPD2    C214470   1.186   3.938  15.146 -0.1229 -0.6413 -0.0146
    6MPD2    C314471   1.158   3.816  15.193  0.5693  0.3209 -0.6133
    6MPD2    C414472   1.041   3.799  15.266 -0.1947  0.0014  0.1697
    6MPD2    C514473   0.952   3.907  15.269 -0.0358 -0.1554  0.6532
    6MPD2     H14474   1.280   3.943  15.091 -0.3133 -0.5152 -0.3309
    6MPD2    H114475   1.019   3.699  15.300  0.9674  0.0400  1.0593
    6MPD2    H214476   0.912   4.112  15.239  1.6336  1.2932  0.0883
    6MPD2    H314477   0.852   3.900  15.311 -0.0078  0.9667  0.9033
    6MPD2     N14478   1.258   3.716  15.189  0.4153 -0.1837 -0.0302
    6MPD2    H514479   1.332   3.734  15.123 -1.8815  0.8651 -2.3146
    6MPD2    N114480   1.147   4.169  15.107 -0.2584 -0.4331 -0.5663
    6MPD2    H714481   1.246   4.177  15.089 -0.2869  2.5183  0.5555
  945NH3     N114482   1.939   4.210   0.586 -0.4024 -0.8445 -0.0560
  945NH3     H214483   1.949   4.127   0.529  1.2935 -2.5530  2.7602
  945NH3     H314484   1.896   4.276   0.523  1.3813 -0.8583 -1.2884
  945NH3     H414485   1.863   4.198   0.652  0.8998  1.0300  1.7776
  946SOD     NA14486   0.130   0.755  13.748  0.1542  0.4792 -0.5177
  947SOD     NA14487   0.956   3.950  12.573 -0.3530 -0.4121 -0.5092
  948SOD     NA14488   1.136   1.400   9.423  0.1303  0.1071 -0.1334
  949SOD     NA14489   3.265   1.554  15.804  0.7812 -0.0999 -0.0594
  950SOD     NA14490   2.793   0.939  10.717  0.3783  0.1787  0.1312
  951SOD     NA14491   1.858   3.947   7.093  0.0218 -0.1980 -0.0067
  952SOD     NA14492   2.889   1.963  17.285  0.4476 -0.1810  0.1312
  953SOD     NA14493   3.344   0.713  14.086 -0.2324 -0.2032 -0.0522
  954SOL     OW14494   1.007   3.770  14.879 -0.3787 -0.1657 -0.7353
  954SOL    HW114495   0.934   3.832  14.874  0.7926  1.3353  0.6813
  954SOL    HW214496   0.963   3.699  14.927  1.3814 -1.2100 -0.6749
  955SOL     OW14497   1.241   3.653  14.834 -0.0628 -0.0061  0.0004
  955SOL    HW114498   1.222   3.563  14.858 -0.7546  0.6637  1.9771
  955SOL    HW214499   1.163   3.702  14.858  0.6599  0.4688  1.3952
  956SOL     OW14500   1.538   2.715   3.242 -0.1462 -0.2200  0.1233
  956SOL    HW114501   1.564   2.802   3.212 -1.7607  0.5054  0.8246
  956SOL    HW214502   1.497   2.733   3.327  2.2135  4.4667  0.2807
  957SOL     OW14503   3.666   2.373   9.108 -0.2502  0.1550 -0.0894
  957SOL    HW114504   3.732   2.389   9.041 -1.0555  1.3258 -0.6192
  957SOL    HW214505   3.646   2.461   9.141  0.0673  1.0497 -2.3291
  958SOL     OW14506   2.312   4.512   5.912  0.2552  0.1529  0.2984
  958SOL    HW114507   2.338   4.593   5.868  1.9775 -0.9701 -0.7401
  958SOL    HW214508   2.345   4.537   5.998 -0.2871  1.7430  0.0428
  959SOL     OW14509   0.365   2.885   4.112  0.1777  0.0534  0.1180
  959SOL    HW114510   0.418   2.929   4.178  1.2758  0.6272 -1.1454
  959SOL    HW214511   0.328   2.961   4.067 -1.6084 -0.4728  0.7157
  960SOL     OW14512   0.005   3.002  11.926 -0.2676 -0.4625  0.2877
  960SOL    HW114513   0.025   3.038  12.012  2.4610 -2.1125  0.3307
  960SOL    HW214514   4.667   2.955  11.962 -2.2403  0.7486 -2.2528
  961SOL     OW14515   2.171   0.458   9.367 -0.1899 -0.4553 -0.3163
  961SOL    HW114516   2.160   0.409   9.286  0.3319 -0.5495 -0.3258
  961SOL    HW214517   2.266   0.455   9.377 -0.1819  0.1798 -0.1919
  962SOL     OW14518   2.324   4.289   7.882  0.5165 -0.0560  0.5356
  962SOL    HW114519   2.417   4.265   7.874  0.5511  0.2831 -0.1096
  962SOL    HW214520   2.307   4.325   7.795 -1.2954  0.4412  1.1104
  963SOL     OW14521   2.002   1.297  14.957  0.2804 -0.1998 -0.0402
  963SOL    HW114522   1.987   1.247  14.878  1.6518 -0.8887  0.1375
  963SOL    HW214523   1.966   1.385  14.943  1.5318  0.2095 -0.6720
  964SOL     OW14524   3.444   3.972   5.126  0.0197 -0.2161  0.4179
  964SOL    HW114525   3.492   4.019   5.058  0.4170  0.3792  1.1196
  964SOL    HW214526   3.372   3.943   5.070  1.9458 -0.5693 -1.8776
  965SOL     OW14527   2.365   3.177   9.540 -0.2871 -0.1359  0.2278
  965SOL    HW114528   2.325   3.263   9.534 -0.4864 -0.2271  0.2564
  965SOL    HW214529   2.311   3.130   9.603  1.2908 -2.7153 -0.3210
  966SOL     OW14530   3.104   3.100   3.880  0.5307 -0.1386  0.0770
  966SOL    HW114531   3.165   3.032   3.853  0.8588 -1.1566  3.3035
  966SOL    HW214532   3.125   3.177   3.828  1.2841 -0.5949 -0.2896
  967SOL     OW14533   1.491   0.816   5.660 -0.9474  0.5242 -0.1967
  967SOL    HW114534   1.446   0.738   5.692 -1.8145  0.4479 -1.5859
  967SOL    HW214535   1.509   0.843   5.750 -0.0568  1.5564 -0.6888
  968SOL     OW14536   1.812   1.146   1.092 -0.1594 -0.4084  0.3015
  968SOL    HW114537   1.756   1.091   1.038 -2.1719 -0.2611  2.2066
  968SOL    HW214538   1.896   1.112   1.062 -1.4687 -1.2304 -2.3944
  969SOL     OW14539   1.365   0.755   9.487  0.8480 -0.5736 -0.2072
  969SOL    HW114540   1.378   0.665   9.458  0.2448 -0.8277  0.3204
  969SOL    HW214541   1.337   0.792   9.403  0.6114 -0.7241 -0.1918
  970SOL     OW14542   1.389   4.212  12.568  0.2295 -0.2417 -0.5164
  970SOL    HW114543   1.356   4.279  12.508 -2.4794  0.0408  1.2426
  970SOL    HW214544   1.483   4.204  12.552  0.2619 -0.0007 -0.4496
  971SOL     OW14545   1.005   4.100  12.740 -0.1890  0.3294 -0.1785
  971SOL    HW114546   1.084   4.144  12.771 -0.5064  1.4698 -0.9923
  971SOL    HW214547   0.953   4.180  12.746  0.0328  0.4285  0.4426
  972SOL     OW14548   2.261   1.306   9.875 -0.3311  0.5355 -0.9041
  972SOL    HW114549   2.236   1.314   9.967  2.7913  1.0784 -0.1183
  972SOL    HW214550   2.356   1.313   9.876 -0.3881  1.0347  0.2071
  973SOL     OW14551   3.733   3.735   9.243 -0.7139 -0.2102  0.2479
  973SOL    HW114552   3.656   3.696   9.284  0.0909 -0.1672  1.8136
  973SOL    HW214553   3.801   3.673   9.269  0.5484  0.9841 -0.2274
  974SOL     OW14554   1.342   2.699  15.301  0.7725 -0.1306  0.1164
  974SOL    HW114555   1.323   2.700  15.207  1.4035 -0.8410 -0.0149
  974SOL    HW214556   1.285   2.632  15.339  0.2466 -0.0248 -0.4675
  975SOL     OW14557   3.783   2.499   2.233  0.1615  0.3954 -0.0397
  975SOL    HW114558   3.799   2.437   2.162 -1.3040  1.4230 -1.2619
  975SOL    HW214559   3.731   2.565   2.188  0.1579  1.3809  1.4195
  976SOL     OW14560   1.230   3.998   8.623  0.0206 -0.4416  0.2649
  976SOL    HW114561   1.254   3.919   8.672 -0.8023 -0.1369  1.1512
  976SOL    HW214562   1.135   3.985   8.615 -0.1242  0.5286  0.5068
  977SOL     OW14563   4.355   0.231   3.798 -0.1282 -0.0498  0.0830
  977SOL    HW114564   4.282   0.183   3.758 -1.7903  1.2225  1.5957
  977SOL    HW214565   4.381   0.284   3.723  0.4524  1.0964  1.1116
  978SOL     OW14566   1.300   3.875   9.669  0.0428 -0.1126 -0.1806
  978SOL    HW114567   1.339   3.957   9.638 -0.3546  0.1818  0.0884
  978SOL    HW214568   1.374   3.817   9.683  0.7801  0.4150 -1.9130
  979SOL     OW14569   3.222   3.811   2.272  0.0771  0.1276  0.2188
  979SOL    HW114570   3.190   3.802   2.182 -0.3225  0.1188  0.3611
  979SOL    HW214571   3.148   3.851   2.317 -0.1849  2.1501 -2.0007
  980SOL     OW14572   4.325   0.504   8.423  0.4364  0.6183 -0.1898
  980SOL    HW114573   4.327   0.586   8.374 -0.1285  1.0069  0.4269
  980SOL    HW214574   4.388   0.514   8.495 -1.0759  1.3308  1.0459
  981SOL     OW14575   4.296   1.040  16.703  0.4905  0.3137  0.3659
  981SOL    HW114576   4.216   0.994  16.679  2.1550 -0.9868 -2.7108
  981SOL    HW214577   4.278   1.052  16.796 -0.7301  0.1555  0.1492
  982SOL     OW14578   0.904   1.294   1.879 -0.1041  0.1891 -0.3932
  982SOL    HW114579   0.905   1.207   1.919 -1.6540  0.7464  0.8768
  982SOL    HW214580   0.874   1.351   1.949 -1.1587 -0.2810 -0.4513
  983SOL     OW14581   2.180   3.509   4.124 -0.3310 -0.0054  0.5422
  983SOL    HW114582   2.137   3.459   4.194  1.3676 -2.9647 -0.5206
  983SOL    HW214583   2.160   3.445   4.056 -0.8493  0.9124 -0.1649
  984SOL     OW14584   0.020   1.810   4.852 -0.6856 -0.5090  0.7414
  984SOL    HW114585   4.716   1.887   4.889 -1.7075 -1.8348  2.3850
  984SOL    HW214586   0.111   1.807   4.882 -0.1468 -1.4280 -0.9684
  985SOL     OW14587   2.648   3.519   6.613  0.0928 -0.1597 -0.0192
  985SOL    HW114588   2.626   3.439   6.566  1.0448 -0.4928  0.1002
  985SOL    HW214589   2.592   3.581   6.567 -1.1808 -1.4069 -0.1604
  986SOL     OW14590   4.114   4.664   4.026  0.3411  0.5097  0.5992
  986SOL    HW114591   4.081   4.734   3.970  0.9833  1.3888  1.3168
  986SOL    HW214592   4.039   4.607   4.044 -0.0487  1.5638  2.3558
  987SOL     OW14593   0.450   4.731  10.915 -0.1545  0.2769 -0.3190
  987SOL    HW114594   0.448   4.654  10.970 -1.7046 -0.1280 -0.9637
  987SOL    HW214595   0.380   0.047  10.952  1.2069  1.9353 -0.1211
  988SOL     OW14596   0.435   4.449   1.082 -0.4662  0.0413  0.8987
  988SOL    HW114597   0.484   4.368   1.091 -1.5723 -0.9325 -1.7870
  988SOL    HW214598   0.351   4.421   1.045 -0.4133 -0.0622  0.8605
  989SOL     OW14599   3.780   2.995   8.280  0.0673 -0.7173  0.2013
  989SOL    HW114600   3.714   2.951   8.333 -1.0720  1.7094  0.7900
  989SOL    HW214601   3.747   2.970   8.194 -0.9883 -1.9127  0.9664
  990SOL     OW14602   3.197   3.636   6.195 -0.3429 -0.0808  0.1283
  990SOL    HW114603   3.136   3.563   6.207  1.3127 -1.2854  1.1082
  990SOL    HW214604   3.158   3.671   6.114  1.9270 -0.8330 -1.2805
  991SOL     OW14605   0.334   3.499   3.518 -0.4181 -0.6264 -0.1946
  991SOL    HW114606   0.413   3.547   3.543 -1.0642 -0.3543  1.3674
  991SOL    HW214607   0.288   3.573   3.479 -0.5792  0.4218  2.0067
  992SOL     OW14608   0.114   4.300   5.988 -0.1868 -0.1490 -0.6362
  992SOL    HW114609   0.184   4.271   5.931  1.0616 -0.7410  1.1902
  992SOL    HW214610   0.046   4.236   5.965  0.7501 -1.3640 -0.0294
  993SOL     OW14611   3.067   2.401   6.914  0.8324  0.1032  0.4248
  993SOL    HW114612   3.056   2.375   6.823  1.8542 -3.2254  1.2353
  993SOL    HW214613   3.135   2.338   6.942 -0.2211 -1.5106 -0.6376
  994SOL     OW14614   2.042   4.343   8.406 -0.3343  0.1184  0.0206
  994SOL    HW114615   1.957   4.324   8.444  0.2424 -0.8053  0.8531
  994SOL    HW214616   2.090   4.261   8.417  1.1320  0.7010 -1.8431
  995SOL     OW14617   2.151   2.116   7.720 -0.2095  0.5668  0.6503
  995SOL    HW114618   2.119   2.198   7.758  0.8484  0.8648  0.8911
  995SOL    HW214619   2.230   2.142   7.671 -2.4030 -0.8708 -3.6467
  996SOL     OW14620   1.804   0.217   9.235  0.0238 -0.3539  0.3168
  996SOL    HW114621   1.892   0.247   9.211  0.1313  1.3412  2.8526
  996SOL    HW214622   1.810   0.122   9.239 -1.2949 -0.4696 -0.3459
  997SOL     OW14623   0.728   0.452   5.747  0.5264 -0.5743 -0.3131
  997SOL    HW114624   0.666   0.504   5.799 -0.5083 -1.5373 -0.5708
  997SOL    HW214625   0.691   0.480   5.663  0.0089  0.7249  0.3407
  998SOL     OW14626   2.263   1.613  12.286  0.5699  0.0128  0.1503
  998SOL    HW114627   2.199   1.612  12.357  1.5057 -1.9495  0.9755
  998SOL    HW214628   2.255   1.521  12.259  0.5462  0.4828 -1.4616
  999SOL     OW14629   1.267   1.790  10.916  0.3095 -0.0677  0.3763
  999SOL    HW114630   1.213   1.740  10.855  0.4536  2.9506 -2.2603
  999SOL    HW214631   1.200   1.843  10.961  1.8690  1.3667  1.0253
 1000SOL     OW14632   3.807   2.473   8.639  0.8850 -0.0294  0.1691
 1000SOL    HW114633   3.734   2.487   8.579  0.7970 -0.5136  0.1622
 1000SOL    HW214634   3.878   2.451   8.579  0.0391  2.6880 -1.8062
 1001SOL     OW14635   4.380   4.024   6.710  0.3829 -0.1518 -0.2419
 1001SOL    HW114636   4.294   3.983   6.718 -0.1988  1.3203  1.2384
 1001SOL    HW214637   4.433   3.944   6.703 -0.7683 -0.8350 -1.0060
 1002SOL     OW14638   2.871   3.293   1.152 -0.2522  0.7971  0.0346
 1002SOL    HW114639   2.869   3.236   1.075  1.1913  1.5986 -0.5959
 1002SOL    HW214640   2.951   3.344   1.140  1.2635 -1.1567  1.8295
 1003SOL     OW14641   1.322   2.368   9.733 -0.2016 -0.1513 -0.4195
 1003SOL    HW114642   1.346   2.460   9.743  2.8599 -1.1917  1.6763
 1003SOL    HW214643   1.278   2.370   9.648 -0.1484  0.0323 -0.4414
 1004SOL     OW14644   2.200   0.849  15.911 -0.5155 -0.3025  0.2347
 1004SOL    HW114645   2.116   0.832  15.955 -1.6166  1.9569 -0.9686
 1004SOL    HW214646   2.203   0.943  15.892  0.1340 -0.3587  0.0631
 1005SOL     OW14647   4.158   2.747  13.211  0.2928 -0.1981 -0.0355
 1005SOL    HW114648   4.249   2.766  13.236 -0.0193  1.1656  0.1086
 1005SOL    HW214649   4.148   2.774  13.120  1.8404  0.2687 -0.0704
 1006SOL     OW14650   0.268   3.064  10.240  0.0608 -0.0778 -0.3835
 1006SOL    HW114651   0.257   2.969  10.247  1.1126 -0.2462 -1.0138
 1006SOL    HW214652   0.186   3.092  10.199  0.6536 -1.1169 -2.2567
 1007SOL     OW14653   0.107   2.716   0.995  0.3287  0.1156 -0.2705
 1007SOL    HW114654   0.093   2.685   0.905  0.8119  0.1896 -0.3712
 1007SOL    HW214655   0.160   2.642   1.022 -1.1435 -1.2415 -1.0959
 1008SOL     OW14656   2.151   2.728   6.786  0.1309  0.5792  0.9243
 1008SOL    HW114657   2.209   2.684   6.848  1.5543 -3.2735 -3.2337
 1008SOL    HW214658   2.209   2.788   6.739 -0.9498  0.4757 -0.5514
 1009SOL     OW14659   1.672   0.186   9.744 -0.6145 -0.0938  0.0454
 1009SOL    HW114660   1.715   0.219   9.665  0.8380  2.8508  2.0567
 1009SOL    HW214661   1.728   0.222   9.813 -0.5877  0.8521 -0.4713
 1010SOL     OW14662   4.245   1.250   9.530  0.3473 -0.3383  0.0933
 1010SOL    HW114663   4.264   1.331   9.482 -1.3832  0.0818  0.1243
 1010SOL    HW214664   4.169   1.280   9.580  2.0774  0.6727  2.0983
 1011SOL     OW14665   1.266   3.772   1.814  0.3855  0.3419 -0.1678
 1011SOL    HW114666   1.292   3.715   1.741  1.1125  0.0000  0.3538
 1011SOL    HW214667   1.353   3.782   1.852  0.5715  1.3079 -0.8424
 1012SOL     OW14668   0.593   3.460   2.857 -0.2742 -0.2493 -0.3588
 1012SOL    HW114669   0.546   3.376   2.854 -1.2493  0.2191  1.5766
 1012SOL    HW214670   0.671   3.441   2.909 -1.7471 -0.3842  1.8466
 1013SOL     OW14671   1.076   0.123   8.905 -0.4968  0.4768 -0.2546
 1013SOL    HW114672   1.053   0.175   8.829  2.1649  0.3095 -1.1920
 1013SOL    HW214673   1.170   0.107   8.899 -0.6687 -0.4651 -0.5453
 1014SOL     OW14674   1.638   3.744   4.071  0.6305 -0.2948 -0.5065
 1014SOL    HW114675   1.574   3.771   4.137  1.4583  2.0236 -0.6828
 1014SOL    HW214676   1.653   3.654   4.102 -0.2459 -0.3792 -0.3078
 1015SOL     OW14677   4.021   2.242   7.282  0.0398 -0.2178  0.2530
 1015SOL    HW114678   4.084   2.197   7.339  1.5462  1.5293 -0.0191
 1015SOL    HW214679   3.968   2.169   7.251 -1.8286  0.4801  1.7725
 1016SOL     OW14680   2.757   1.098   3.165  0.4213  0.2910 -0.1809
 1016SOL    HW114681   2.763   1.005   3.187  0.0295 -0.0354 -1.4525
 1016SOL    HW214682   2.772   1.147   3.246 -2.0036 -1.0059  1.0630
 1017SOL     OW14683   3.962   0.091   3.411  0.3585  0.5602 -0.2334
 1017SOL    HW114684   3.914   0.140   3.478  0.0008  0.6851 -0.5792
 1017SOL    HW214685   3.903   0.017   3.397  1.7453 -0.3623 -1.1288
 1018SOL     OW14686   0.640   2.605   4.263  0.0298  0.3159  0.2800
 1018SOL    HW114687   0.562   2.649   4.228  1.0053  0.8253 -1.2426
 1018SOL    HW214688   0.680   2.582   4.179  0.3516  1.2631  0.1787
 1019SOL     OW14689   4.528   3.262   8.691  0.0049 -0.5956  0.0705
 1019SOL    HW114690   4.622   3.272   8.705  0.2902 -0.5418 -1.8843
 1019SOL    HW214691   4.492   3.351   8.690 -0.6196 -0.8905 -3.1557
 1020SOL     OW14692   4.009   3.908  17.240 -0.2401 -0.0714  0.1029
 1020SOL    HW114693   4.081   3.931  17.298  0.5444 -2.2233 -0.0386
 1020SOL    HW214694   3.942   3.964  17.281 -0.0337 -1.6119  2.5078
 1021SOL     OW14695   0.165   1.183   4.758  0.2078 -0.3540  0.2250
 1021SOL    HW114696   0.249   1.226   4.743 -0.0411 -0.4014 -1.2191
 1021SOL    HW214697   0.130   1.262   4.801  1.5868  0.4798 -0.1780
 1022SOL     OW14698   1.163   0.717  14.539 -0.5224 -0.4262 -0.7532
 1022SOL    HW114699   1.238   0.692  14.485 -0.6423 -2.7013  0.1516
 1022SOL    HW214700   1.206   0.684  14.618  2.5955  1.2579 -1.7509
 1023SOL     OW14701   4.600   1.038   9.447 -0.4964  0.3312  0.5165
 1023SOL    HW114702   4.509   1.008   9.444 -0.4046 -0.1329  2.5688
 1023SOL    HW214703   4.597   1.123   9.492  0.0864 -0.0571  1.2919
 1024SOL     OW14704   0.503   3.972   5.759 -0.6004 -0.0900  0.0845
 1024SOL    HW114705   0.504   3.893   5.813 -1.3727  0.2905  0.6443
 1024SOL    HW214706   0.591   4.004   5.778 -0.1395 -1.3972  0.1490
 1025SOL     OW14707   2.676   2.038   0.923  0.3322  0.0231  0.3161
 1025SOL    HW114708   2.764   2.061   0.893  0.9027 -0.1509  1.8485
 1025SOL    HW214709   2.623   2.034   0.844  1.9158  0.1507 -0.7580
 1026SOL     OW14710   0.650   0.387   8.844 -0.0260 -0.5401 -0.1383
 1026SOL    HW114711   0.701   0.455   8.888 -1.6579 -0.6440  1.8797
 1026SOL    HW214712   0.719   0.353   8.787 -0.5559  0.5856 -1.4680
 1027SOL     OW14713   3.130   2.916   0.350  0.0152 -0.5318 -0.2716
 1027SOL    HW114714   3.111   2.853   0.420  1.3008  0.6221  1.1023
 1027SOL    HW214715   3.221   2.938   0.370 -0.2270 -0.5971  0.8865
 1028SOL     OW14716   4.723   3.223  11.750  0.1107  0.2757  0.0141
 1028SOL    HW114717   0.025   3.153  11.803 -1.2945 -0.4462  0.0912
 1028SOL    HW214718   4.687   3.175  11.675  0.9609 -1.4591  0.6934
 1029SOL     OW14719   3.275   2.583   0.389  0.3465 -0.3734  0.0118
 1029SOL    HW114720   3.332   2.651   0.424  0.1170 -1.1000  1.8024
 1029SOL    HW214721   3.262   2.608   0.297 -0.7989  0.6382  0.4353
 1030SOL     OW14722   3.056   3.409   4.816 -0.4656 -0.3051  0.5789
 1030SOL    HW114723   3.027   3.403   4.725  2.6170  0.4353 -0.4432
 1030SOL    HW214724   3.017   3.326   4.845 -0.1217 -0.5763  0.2622
 1031SOL     OW14725   3.971   1.668   6.111 -0.1576 -0.0455 -0.1708
 1031SOL    HW114726   3.959   1.750   6.063  3.5937 -1.0986 -2.8732
 1031SOL    HW214727   3.881   1.636   6.099  1.0152 -2.8100 -1.4538
 1032SOL     OW14728   4.691   3.358  12.133  0.0308 -0.2327 -0.2691
 1032SOL    HW114729   4.624   3.333  12.071 -0.9102  0.8777  0.3087
 1032SOL    HW214730   4.688   3.272  12.175  0.6475  0.9252  2.1511
 1033SOL     OW14731   4.293   2.080   1.658  0.4949  0.4188 -0.1054
 1033SOL    HW114732   4.205   2.045   1.645  0.1378  1.2672  0.0078
 1033SOL    HW214733   4.295   2.155   1.598 -0.4511 -0.6350 -1.4543
 1034SOL     OW14734   3.147   2.829   5.151  0.9388 -0.1486  0.1998
 1034SOL    HW114735   3.224   2.868   5.109 -0.0423 -0.3632 -1.8173
 1034SOL    HW214736   3.181   2.743   5.175  2.9887  0.5788 -0.1403
 1035SOL     OW14737   1.958   3.035   8.339 -0.1759 -0.2756  0.5044
 1035SOL    HW114738   1.969   3.103   8.406 -1.0213  0.2942  0.0664
 1035SOL    HW214739   1.982   3.088   8.262  0.6268 -2.8000 -0.9775
 1036SOL     OW14740   0.047   3.286   8.560  0.4011 -0.0938  0.6473
 1036SOL    HW114741   0.049   3.191   8.568 -2.1715 -0.1162  0.9795
 1036SOL    HW214742   0.095   3.307   8.640  0.0853  1.2118  0.4953
 1037SOL     OW14743   3.546   1.136   1.377  0.2208  0.1556 -0.0663
 1037SOL    HW114744   3.561   1.097   1.463  2.0591  1.3369  0.1420
 1037SOL    HW214745   3.614   1.093   1.325 -0.8741 -2.1753  0.4425
 1038SOL     OW14746   3.465   1.836  11.982  0.2374  0.3617 -0.3117
 1038SOL    HW114747   3.481   1.884  12.063  4.0282 -1.2415 -0.1316
 1038SOL    HW214748   3.542   1.843  11.925 -0.2937  1.8354 -0.8446
 1039SOL     OW14749   0.505   0.345   7.593 -0.0494 -0.1554 -0.5090
 1039SOL    HW114750   0.433   0.365   7.534  1.3261  1.0625 -1.7785
 1039SOL    HW214751   0.555   0.426   7.579  3.1704 -1.8614  1.0372
 1040SOL     OW14752   0.278   0.747  17.316 -0.0695 -0.0008  0.3763
 1040SOL    HW114753   0.281   0.806  17.241  0.7587 -1.2023 -0.5338
 1040SOL    HW214754   0.340   0.679  17.289  0.4976  0.9280 -0.6413
 1041SOL     OW14755   2.478   3.409  16.814  0.4377 -0.3959  0.1041
 1041SOL    HW114756   2.390   3.439  16.791  0.6860  0.5093  0.3164
 1041SOL    HW214757   2.459   3.337  16.874 -2.3883 -0.2905 -0.6919
 1042SOL     OW14758   0.380   2.489  10.513 -0.4226  0.1817  0.1974
 1042SOL    HW114759   0.379   2.441  10.597  0.9702 -1.0908 -0.4927
 1042SOL    HW214760   0.355   2.573  10.551  2.3109  0.5061  1.3229
 1043SOL     OW14761   3.342   4.635   3.733  0.1588  0.2089  0.8633
 1043SOL    HW114762   3.331   4.727   3.711  2.3473  0.3573  0.4418
 1043SOL    HW214763   3.252   4.606   3.751 -0.1994 -1.1588 -3.1505
 1044SOL     OW14764   4.529   4.253   6.815  0.1856  0.6491 -0.5329
 1044SOL    HW114765   4.486   4.175   6.780  1.9851  0.4205 -2.2027
 1044SOL    HW214766   4.574   4.286   6.737 -0.7945  1.6595 -0.6733
 1045SOL     OW14767   2.344   2.009   5.298 -0.7083 -0.1248  0.5840
 1045SOL    HW114768   2.275   1.958   5.255 -1.5296 -0.5817  2.4289
 1045SOL    HW214769   2.418   1.961   5.260 -1.7450 -0.6886 -0.7378
 1046SOL     OW14770   2.817   1.105   6.024 -0.2004  0.8810 -0.0182
 1046SOL    HW114771   2.778   1.035   5.971  0.1197  0.3227  0.4726
 1046SOL    HW214772   2.820   1.053   6.104  1.2431  0.1436 -0.5532
 1047SOL     OW14773   4.243   2.771  15.247 -0.3153  0.5565 -0.0462
 1047SOL    HW114774   4.294   2.734  15.174  0.9455  0.7403  0.7348
 1047SOL    HW214775   4.314   2.815  15.293  0.9389 -0.6596 -0.8210
 1048SOL     OW14776   1.251   2.677  15.036 -0.5321 -0.9302  0.2876
 1048SOL    HW114777   1.293   2.731  14.969 -0.5100  0.6136  1.5395
 1048SOL    HW214778   1.174   2.640  14.992  0.3854 -1.7061 -0.6634
 1049SOL     OW14779   3.228   2.456   4.624 -0.5556  0.6466  0.5339
 1049SOL    HW114780   3.262   2.379   4.671  2.0109  0.3391 -1.8692
 1049SOL    HW214781   3.186   2.419   4.547  0.9186 -0.6803  0.3691
 1050SOL     OW14782   1.353   3.237   2.694  0.5422  0.0401 -0.3359
 1050SOL    HW114783   1.361   3.303   2.625 -1.3305 -1.8587 -2.4199
 1050SOL    HW214784   1.364   3.154   2.647 -1.9361 -1.1091  1.1363
 1051SOL     OW14785   0.337   1.532   7.579 -0.6052 -0.4141  0.2717
 1051SOL    HW114786   0.309   1.610   7.531  2.8538  0.2460 -0.6411
 1051SOL    HW214787   0.432   1.530   7.568 -0.4458 -1.2131  1.7298
 1052SOL     OW14788   2.293   1.154   1.151  0.0823 -0.0621 -0.6396
 1052SOL    HW114789   2.352   1.197   1.213  0.0411 -2.1231  0.8213
 1052SOL    HW214790   2.307   1.189   1.063 -1.7700 -1.6955 -1.5887
 1053SOL     OW14791   1.000   0.366   2.755  0.0734  0.3070  0.1694
 1053SOL    HW114792   1.020   0.311   2.680  0.9713  1.3085 -0.3225
 1053SOL    HW214793   1.083   0.376   2.801  0.3273 -0.6623 -0.0698
 1054SOL     OW14794   2.373   1.386   6.606  0.4308  0.3209 -0.0119
 1054SOL    HW114795   2.441   1.429   6.657 -0.2246  1.7527 -0.3718
 1054SOL    HW214796   2.294   1.431   6.632 -1.5406 -2.8569 -0.4455
 1055SOL     OW14797   3.655   1.088   3.082  0.1061  0.0817  0.1197
 1055SOL    HW114798   3.637   1.182   3.081 -2.3051 -0.3693 -0.2097
 1055SOL    HW214799   3.680   1.076   3.174  1.6440 -0.8173 -0.4333
 1056SOL     OW14800   2.082   3.632  17.089  0.6030  0.1615 -0.2218
 1056SOL    HW114801   2.054   3.639  16.997 -0.7989 -0.1816  0.1787
 1056SOL    HW214802   2.005   3.675  17.127 -0.6464 -0.5689 -1.9340
 1057SOL     OW14803   4.404   3.216   4.189 -0.3335  0.0444 -0.4060
 1057SOL    HW114804   4.364   3.215   4.102  1.7214  0.1391 -1.3556
 1057SOL    HW214805   4.446   3.130   4.186  0.1199  0.3309 -2.6911
 1058SOL     OW14806   3.317   2.258   4.837 -0.0789  0.3527 -0.2736
 1058SOL    HW114807   3.222   2.242   4.831 -0.5489  2.6655  0.9273
 1058SOL    HW214808   3.345   2.168   4.852 -2.6880 -0.3535  0.3707
 1059SOL     OW14809   1.888   1.992  10.683  0.2122 -0.3614 -0.6051
 1059SOL    HW114810   1.817   1.938  10.650 -1.4539  1.5976 -0.2254
 1059SOL    HW214811   1.956   1.968  10.619  0.0920 -1.5084 -0.3089
 1060SOL     OW14812   2.377   3.794   3.296 -0.1408  0.0253 -0.9488
 1060SOL    HW114813   2.452   3.854   3.304 -1.0329  0.9890  0.0856
 1060SOL    HW214814   2.375   3.772   3.203  0.9196 -1.2115 -0.6905
 1061SOL     OW14815   1.284   2.825   9.135 -0.0191 -0.1387 -0.3674
 1061SOL    HW114816   1.219   2.865   9.193 -1.8040 -0.9631 -1.7921
 1061SOL    HW214817   1.310   2.910   9.101 -1.2516  0.4526  0.1542
 1062SOL     OW14818   4.096   1.587   8.321  0.2810  0.8450 -0.6406
 1062SOL    HW114819   4.161   1.629   8.378  0.6625 -1.6734  0.7705
 1062SOL    HW214820   4.127   1.498   8.308  2.4337  1.4820  0.0831
 1063SOL     OW14821   3.244   3.352  13.147  0.7060  0.5388 -0.3023
 1063SOL    HW114822   3.280   3.340  13.235  0.1632  0.6163 -0.0725
 1063SOL    HW214823   3.179   3.422  13.153 -1.3886 -1.4369 -0.1824
 1064SOL     OW14824   2.219   4.278   4.727  0.0096 -0.3693 -0.5874
 1064SOL    HW114825   2.272   4.266   4.648 -1.6063 -2.0984 -1.4157
 1064SOL    HW214826   2.149   4.341   4.711  0.0259  0.2252  1.7369
 1065SOL     OW14827   1.670   1.293   9.135  0.2678  0.2564 -0.1209
 1065SOL    HW114828   1.603   1.361   9.128 -0.6241 -0.4439  1.7602
 1065SOL    HW214829   1.738   1.325   9.075 -1.2688 -0.1057 -2.0468
 1066SOL     OW14830   1.783   2.595   7.799 -0.2194  0.6596 -0.0688
 1066SOL    HW114831   1.786   2.512   7.751  2.0581 -0.6903  2.4020
 1066SOL    HW214832   1.730   2.564   7.872  0.6473 -2.0292 -0.5880
 1067SOL     OW14833   1.494   0.992   7.106 -0.1143  0.4145  0.4071
 1067SOL    HW114834   1.431   0.929   7.073  0.7151 -0.6835  0.9371
 1067SOL    HW214835   1.446   1.075   7.100 -0.2543  0.2335 -0.8801
 1068SOL     OW14836   3.362   4.382  16.674 -0.2256  0.6955 -0.8780
 1068SOL    HW114837   3.295   4.449  16.663 -0.8322  0.2701  0.2048
 1068SOL    HW214838   3.398   4.405  16.759  0.3091 -2.1445 -0.3291
 1069SOL     OW14839   2.647   2.970  14.600  0.0279 -0.1165 -0.0826
 1069SOL    HW114840   2.595   2.995  14.676 -0.3916 -0.6227 -0.1974
 1069SOL    HW214841   2.679   3.058  14.579  0.8394 -0.7565 -1.5570
 1070SOL     OW14842   2.125   1.562  13.839 -0.0391  0.1797  0.4386
 1070SOL    HW114843   2.177   1.591  13.914  0.7007 -0.9044  0.3456
 1070SOL    HW214844   2.152   1.633  13.782 -0.5096  0.9943  1.2354
 1071SOL     OW14845   1.520   3.974  10.584 -0.0709 -0.0785 -0.3050
 1071SOL    HW114846   1.502   4.050  10.528  0.8085  1.0816  0.9734
 1071SOL    HW214847   1.597   4.011  10.627 -0.2924  0.5362 -0.4368
 1072SOL     OW14848   0.833   3.958   4.075 -0.1988 -0.4018  0.8111
 1072SOL    HW114849   0.889   3.887   4.106  1.0106 -0.0005 -0.4222
 1072SOL    HW214850   0.765   3.916   4.023  2.6022 -1.1918 -2.1996
 1073SOL     OW14851   1.913   3.530   2.579 -0.1871  0.1002 -0.2591
 1073SOL    HW114852   1.900   3.455   2.637 -1.5261  0.9036  0.4758
 1073SOL    HW214853   1.990   3.575   2.614 -1.0991  0.9434  0.6567
 1074SOL     OW14854   4.656   1.023   0.472  0.6280 -0.0518  0.2942
 1074SOL    HW114855   4.583   0.963   0.484 -0.2684  0.9986  0.0639
 1074SOL    HW214856   4.639   1.092   0.536  1.7856 -0.1199  0.6754
 1075SOL     OW14857   0.719   0.671  11.915  0.1337  0.1682 -0.2340
 1075SOL    HW114858   0.776   0.634  11.848  0.2109  0.9434 -0.6020
 1075SOL    HW214859   0.646   0.682  11.853 -0.7715 -0.2120  0.7557
 1076SOL     OW14860   2.100   0.381  17.107 -0.0809 -0.5765 -0.4668
 1076SOL    HW114861   2.102   0.420  17.194  2.3008  0.1303 -0.8366
 1076SOL    HW214862   2.179   0.409  17.060 -1.5752 -1.1519 -3.3203
 1077SOL     OW14863   4.125   1.978  10.690  0.2472  0.0844 -0.0420
 1077SOL    HW114864   4.147   1.940  10.775 -0.7532 -1.2400 -0.3713
 1077SOL    HW214865   4.044   1.936  10.661 -0.4753  0.2778  1.6683
 1078SOL     OW14866   1.098   3.814   3.275 -0.1714 -0.1880  0.0941
 1078SOL    HW114867   1.028   3.796   3.337  1.7550 -1.1661  1.9551
 1078SOL    HW214868   1.112   3.732   3.227  2.7291 -0.1230  0.7932
 1079SOL     OW14869   2.065   0.695   0.468 -0.0596  0.3228 -0.4189
 1079SOL    HW114870   2.081   0.745   0.388  1.8727  0.8485  0.2873
 1079SOL    HW214871   2.047   0.758   0.538 -1.1522 -2.7060  2.0292
 1080SOL     OW14872   2.366   0.642  15.862 -0.0258  0.0450  0.2597
 1080SOL    HW114873   2.405   0.675  15.781  0.5815  4.4059  2.3115
 1080SOL    HW214874   2.294   0.705  15.871  0.1422  0.2118  0.4430
 1081SOL     OW14875   3.389   0.255  12.894  0.0583 -0.0620  0.1486
 1081SOL    HW114876   3.450   0.208  12.951  1.3571  0.0743 -1.1499
 1081SOL    HW214877   3.411   0.348  12.903 -0.3274  0.1090 -0.7374
 1082SOL     OW14878   3.858   2.474   8.925 -0.0962  0.3857  0.3331
 1082SOL    HW114879   3.837   2.484   8.832  0.1892 -1.2549  0.0985
 1082SOL    HW214880   3.949   2.496   8.943 -0.0292  0.4526 -0.0870
 1083SOL     OW14881   2.005   3.314   2.982  0.8537 -0.4114 -0.0353
 1083SOL    HW114882   2.014   3.410   2.986 -0.9424 -0.1862 -1.4768
 1083SOL    HW214883   2.092   3.283   2.955  0.1464 -2.4877  0.0952
 1084SOL     OW14884   4.206   1.342   8.636 -0.3057 -0.2108  0.5389
 1084SOL    HW114885   4.196   1.325   8.730 -2.2753  0.9780  0.5366
 1084SOL    HW214886   4.163   1.270   8.591 -0.3908  1.3327 -1.8701
 1085SOL     OW14887   2.066   2.440   2.289  0.2128  0.4675  0.1607
 1085SOL    HW114888   2.023   2.488   2.360  1.8941  1.9283  0.1640
 1085SOL    HW214889   2.158   2.458   2.309  0.5098 -0.9852  0.1281
 1086SOL     OW14890   4.676   2.994   7.892  0.0968  0.0392 -0.6945
 1086SOL    HW114891   4.585   2.968   7.877 -0.2300  0.4510  0.6032
 1086SOL    HW214892   4.664   3.008   7.986 -0.3323 -1.1160 -0.5803
 1087SOL     OW14893   3.385   0.511  12.996  0.0976 -0.3322  0.0452
 1087SOL    HW114894   3.309   0.459  13.023  0.9597 -1.9781 -0.7368
 1087SOL    HW214895   3.422   0.531  13.082 -1.4873 -0.1437  0.6869
 1088SOL     OW14896   0.804   0.126   2.004 -0.6238 -0.0210 -0.1418
 1088SOL    HW114897   0.867   0.090   2.066 -0.5751 -1.0340 -0.7741
 1088SOL    HW214898   0.739   0.056   2.011 -1.7701  1.2368  1.7425
 1089SOL     OW14899   0.990   1.030   0.873  0.6239 -0.5791 -0.3608
 1089SOL    HW114900   1.015   1.078   0.952 -0.7004  1.1449 -0.9743
 1089SOL    HW214901   0.927   1.091   0.834 -1.3833  0.1581  4.0863
 1090SOL     OW14902   0.691   2.213  14.325 -0.6048  0.1753 -0.3381
 1090SOL    HW114903   0.613   2.158  14.328 -0.3581 -0.3321 -3.2274
 1090SOL    HW214904   0.731   2.215  14.411 -2.7315  0.4388  0.6568
 1091SOL     OW14905   2.049   4.193  11.145  0.2738  0.6821  0.2959
 1091SOL    HW114906   2.011   4.206  11.231 -0.3287 -0.2716  0.1726
 1091SOL    HW214907   1.984   4.143  11.096  0.3055 -1.0511  2.0329
 1092SOL     OW14908   4.198   3.769   2.273 -0.3552 -0.4506  0.3045
 1092SOL    HW114909   4.222   3.734   2.187  1.9076  3.2115 -0.5375
 1092SOL    HW214910   4.145   3.840   2.235 -2.0492 -0.8052  2.0257
 1093SOL     OW14911   1.009   3.333   3.159 -0.0129 -0.3812 -0.6885
 1093SOL    HW114912   1.029   3.253   3.110 -1.0166 -1.0130 -0.0453
 1093SOL    HW214913   0.990   3.282   3.238  1.4731  0.6624  0.3367
 1094SOL     OW14914   3.798   1.261  10.649 -0.4246 -0.4825  0.0505
 1094SOL    HW114915   3.835   1.346  10.672  0.2636 -0.9282  0.6125
 1094SOL    HW214916   3.815   1.205  10.724  1.2909 -1.1000 -0.7983
 1095SOL     OW14917   2.968   3.833   4.781  0.6066 -0.5266 -0.2892
 1095SOL    HW114918   3.001   3.760   4.834 -0.8736 -0.5700  0.5738
 1095SOL    HW214919   2.906   3.871   4.843 -0.8182 -1.3194 -1.2459
 1096SOL     OW14920   2.513   1.915   2.722 -0.0209 -0.2236  0.6140
 1096SOL    HW114921   2.528   1.960   2.639  0.6928 -3.7770 -1.1825
 1096SOL    HW214922   2.554   1.829   2.712 -1.8699 -1.5043  3.9398
 1097SOL     OW14923   1.061   2.141   9.275  0.1775 -0.1702 -0.2918
 1097SOL    HW114924   0.999   2.109   9.340 -1.2991  3.5694  0.0852
 1097SOL    HW214925   0.998   2.170   9.209  0.9947  0.4656 -0.7911
 1098SOL     OW14926   2.126   4.574   7.784 -0.2089 -0.1495 -0.4064
 1098SOL    HW114927   2.098   4.508   7.720  1.4593 -0.7700 -0.4984
 1098SOL    HW214928   2.222   4.567   7.784 -0.3918 -2.6961 -0.4973
 1099SOL     OW14929   0.972   0.704  10.845 -0.1637  0.0865 -0.2044
 1099SOL    HW114930   0.974   0.731  10.937  0.2524 -0.4548 -0.0537
 1099SOL    HW214931   0.934   0.616  10.844  0.2404 -0.1161  1.6385
 1100SOL     OW14932   0.969   1.118   2.566  0.1224 -0.2805 -0.2195
 1100SOL    HW114933   1.022   1.048   2.604  1.2039  1.5572  1.7264
 1100SOL    HW214934   0.893   1.063   2.552 -0.8557  1.0157  0.0198
 1101SOL     OW14935   3.213   0.619   4.777 -0.3006 -0.5301 -0.4244
 1101SOL    HW114936   3.252   0.678   4.842  4.5520 -0.7921 -3.0697
 1101SOL    HW214937   3.276   0.640   4.707 -0.7855  0.0928 -0.6725
 1102SOL     OW14938   1.851   3.670   1.442 -0.5383 -0.0780 -0.1404
 1102SOL    HW114939   1.796   3.645   1.367  1.1379 -0.6338 -1.1739
 1102SOL    HW214940   1.779   3.669   1.506 -1.5197  0.4823 -1.2313
 1103SOL     OW14941   3.450   2.919  10.766  0.0528  0.3754  0.5489
 1103SOL    HW114942   3.478   2.827  10.767 -0.9811  0.0503 -1.0138
 1103SOL    HW214943   3.526   2.964  10.729 -0.6562 -0.3450 -1.7471
 1104SOL     OW14944   0.452   0.366   5.199 -0.2807 -0.1788 -0.0511
 1104SOL    HW114945   0.404   0.431   5.250 -2.4074 -1.1315 -0.8791
 1104SOL    HW214946   0.453   0.288   5.255 -0.9105 -0.0354  0.1560
 1105SOL     OW14947   4.162   4.659  12.895  0.0138 -0.1656 -0.2478
 1105SOL    HW114948   4.095   4.696  12.839 -0.8213 -1.2629  0.0367
 1105SOL    HW214949   4.140   4.566  12.885  1.5939 -0.4169 -1.4379
 1106SOL     OW14950   3.128   0.979  14.767 -0.0269 -0.1921  0.0838
 1106SOL    HW114951   3.045   0.950  14.729 -0.9208 -1.5234  3.0145
 1106SOL    HW214952   3.144   0.927  14.846 -0.1484  1.9356  1.5068
 1107SOL     OW14953   1.565   4.424  15.520 -0.2414  0.5211 -0.4183
 1107SOL    HW114954   1.530   4.350  15.471 -0.6907 -0.1787  0.9563
 1107SOL    HW214955   1.509   4.420  15.598  0.2138 -0.6327 -0.1474
 1108SOL     OW14956   4.634   4.405   1.450 -0.4414 -0.4319  0.3432
 1108SOL    HW114957   4.558   4.381   1.503 -1.3686 -0.1473 -0.8652
 1108SOL    HW214958   4.698   4.350   1.495 -1.1037 -1.0866  0.4813
 1109SOL     OW14959   1.393   1.136   4.584  0.5735  0.2017  0.3054
 1109SOL    HW114960   1.329   1.205   4.604  2.1539  2.2039 -1.5266
 1109SOL    HW214961   1.468   1.169   4.634  1.8400  0.0039 -1.4591
 1110SOL     OW14962   1.568   4.035   9.045  0.2775 -0.2847 -0.3452
 1110SOL    HW114963   1.479   4.048   9.076  0.4114 -1.5030  0.5579
 1110SOL    HW214964   1.593   3.947   9.073  0.9696  0.5386  1.6518
 1111SOL     OW14965   2.925   3.025   6.906 -0.0065 -0.2326 -0.2726
 1111SOL    HW114966   3.003   3.080   6.898 -1.7848  2.2956 -0.2433
 1111SOL    HW214967   2.879   3.031   6.822 -0.0440  6.2598  0.2082
 1112SOL     OW14968   1.752   2.958   0.825  0.0458  0.0702 -0.4837
 1112SOL    HW114969   1.801   2.940   0.745 -1.8817 -2.6925 -1.0336
 1112SOL    HW214970   1.715   3.043   0.799 -0.3626 -0.6229 -2.2006
 1113SOL     OW14971   2.109   0.703   3.754 -0.1552  0.6849 -0.5719
 1113SOL    HW114972   2.195   0.745   3.747 -0.4447  0.9062 -2.6147
 1113SOL    HW214973   2.133   0.617   3.789 -0.1827  0.0517 -2.1190
 1114SOL     OW14974   0.207   0.565   6.160 -0.2866  0.3885  0.4550
 1114SOL    HW114975   0.297   0.541   6.139  0.0138  1.4167  0.5816
 1114SOL    HW214976   0.160   0.522   6.089 -1.5247 -0.3929  1.7330
 1115SOL     OW14977   4.192   3.214   8.807 -0.4738 -0.3190 -0.4092
 1115SOL    HW114978   4.104   3.244   8.831  0.2607  1.1270  0.5309
 1115SOL    HW214979   4.193   3.242   8.715  1.5954  0.0509 -0.2719
 1116SOL     OW14980   4.443   4.176   4.841  0.0414 -0.5322 -0.0820
 1116SOL    HW114981   4.517   4.119   4.820  0.3727 -0.0141 -0.3158
 1116SOL    HW214982   4.373   4.136   4.791  0.0379  1.4266 -1.6601
 1117SOL     OW14983   1.051   2.877   4.739 -0.0244 -0.2414 -0.1004
 1117SOL    HW114984   1.094   2.893   4.655  0.8426  1.5142  0.6667
 1117SOL    HW214985   1.079   2.957   4.784  2.9831 -1.8406  0.8600
 1118SOL     OW14986   2.283   0.086   1.527  0.2881  0.6411  0.6136
 1118SOL    HW114987   2.308   0.138   1.450  0.6877 -1.0897 -0.4145
 1118SOL    HW214988   2.188   0.081   1.513  0.9769 -2.9873 -2.8030
 1119SOL     OW14989   3.445   1.226   2.708 -0.2214 -0.4696 -0.7114
 1119SOL    HW114990   3.458   1.185   2.793  1.4589  0.5617 -0.4569
 1119SOL    HW214991   3.365   1.180   2.684 -0.7014 -0.0737  0.1465
 1120SOL     OW14992   3.734   4.194   7.151  0.5914 -0.1198 -0.2324
 1120SOL    HW114993   3.812   4.235   7.188 -0.1388  1.5150 -0.4766
 1120SOL    HW214994   3.767   4.109   7.124 -1.1692 -1.0594  0.5446
 1121SOL     OW14995   2.654   2.805  10.681  0.3615 -0.3858  0.7038
 1121SOL    HW114996   2.580   2.855  10.716  0.8256 -2.0996  4.1037
 1121SOL    HW214997   2.691   2.754  10.753  2.6841 -0.8319 -0.7987
 1122SOL     OW14998   3.127   3.585   4.505  0.2881 -0.2002 -0.1757
 1122SOL    HW114999   3.152   3.569   4.414  1.4686 -0.7139  0.2370
 1122SOL    HW215000   3.192   3.533   4.551  0.3016  0.0252  0.0612
 1123SOL     OW15001   3.717   1.656   6.496 -0.2200 -0.2010 -0.1815
 1123SOL    HW115002   3.774   1.595   6.543  1.9187  1.3156 -0.7535
 1123SOL    HW215003   3.726   1.735   6.550 -0.6677  0.6667 -1.3848
 1124SOL     OW15004   0.243   1.982  14.357  0.2644 -0.1319 -0.2334
 1124SOL    HW115005   0.153   2.008  14.380  0.8577  0.9368  0.8974
 1124SOL    HW215006   0.221   1.910  14.298 -1.6580 -0.9861  1.5069
 1125SOL     OW15007   3.632   0.825   8.314  0.4985  0.7025  0.4768
 1125SOL    HW115008   3.660   0.787   8.397  3.3530  1.0108 -0.3213
 1125SOL    HW215009   3.651   0.919   8.319 -0.1921  0.8170  0.9674
 1126SOL     OW15010   4.200   2.614   6.574  0.8841 -0.1261  0.1483
 1126SOL    HW115011   4.279   2.581   6.617  2.0331  2.1727 -0.1855
 1126SOL    HW215012   4.134   2.553   6.609 -0.0061 -0.5194 -2.2346
 1127SOL     OW15013   2.918   2.215   6.418  0.0213  0.4134 -0.2742
 1127SOL    HW115014   2.863   2.275   6.367 -1.3924  0.7659  1.6727
 1127SOL    HW215015   2.947   2.153   6.351 -2.6369  0.0863 -1.1407
 1128SOL     OW15016   2.089   2.532   6.299 -0.3311  0.2950  0.0618
 1128SOL    HW115017   2.032   2.456   6.293  1.1592 -0.8078 -0.0221
 1128SOL    HW215018   2.094   2.542   6.394 -2.8623 -3.8986  0.6024
 1129SOL     OW15019   2.813   2.939   7.907 -0.4896  0.2418  0.7587
 1129SOL    HW115020   2.850   2.852   7.922  2.2607  1.4655  0.9864
 1129SOL    HW215021   2.734   2.941   7.962  0.1822  1.1364  1.6949
 1130SOL     OW15022   2.836   1.566   2.453  0.2730  0.2304 -1.0888
 1130SOL    HW115023   2.820   1.650   2.496  1.0258  0.4075 -1.1605
 1130SOL    HW215024   2.759   1.553   2.398 -1.3248  2.5611  0.6187
 1131SOL     OW15025   2.055   1.838   2.480 -0.7407  0.0094  0.5876
 1131SOL    HW115026   2.113   1.882   2.543  0.3710 -0.6178  0.0184
 1131SOL    HW215027   2.044   1.761   2.535 -2.4808 -0.0896  0.0888
 1132SOL     OW15028   4.052   2.695   4.064 -0.1196 -0.1927 -0.1380
 1132SOL    HW115029   4.085   2.610   4.094  0.9402  0.4131  0.3983
 1132SOL    HW215030   4.115   2.703   3.992  0.7526 -4.2096  0.1671
 1133SOL     OW15031   4.518   3.425  12.410 -0.1174 -0.7852 -0.1207
 1133SOL    HW115032   4.471   3.441  12.329 -1.3209  0.9479  0.9214
 1133SOL    HW215033   4.590   3.487  12.396 -0.0567 -0.7600  0.2746
 1134SOL     OW15034   1.703   3.934   1.568 -0.3043 -0.6756 -0.0047
 1134SOL    HW115035   1.610   3.952   1.558 -0.0140  0.6527 -0.2822
 1134SOL    HW215036   1.726   3.900   1.481  0.2468  1.7600 -0.8033
 1135SOL     OW15037   0.991   4.031   6.887  0.2650  0.5880 -0.7325
 1135SOL    HW115038   0.946   3.961   6.935  2.5846  0.0679  0.7111
 1135SOL    HW215039   1.070   4.042   6.940  0.7692  2.1903 -1.8404
 1136SOL     OW15040   2.203   3.283   5.310  0.7200  0.5316 -0.2379
 1136SOL    HW115041   2.272   3.338   5.275 -0.0934  0.9181 -1.2145
 1136SOL    HW215042   2.159   3.343   5.370 -1.3533  0.3522 -1.5734
 1137SOL     OW15043   0.579   0.813   7.738  0.0910 -0.4729  0.0463
 1137SOL    HW115044   0.603   0.889   7.789  1.7276  0.4122 -2.0503
 1137SOL    HW215045   0.662   0.790   7.697  0.3182 -1.0280  0.8327
 1138SOL     OW15046   0.278   2.246   0.153  0.5207  0.1663 -0.4293
 1138SOL    HW115047   0.218   2.319   0.170  1.1378  0.6904 -0.4993
 1138SOL    HW215048   0.357   2.294   0.127  0.6839 -0.6316 -1.4225
 1139SOL     OW15049   3.587   3.787  16.688 -0.4256 -0.1561  0.0091
 1139SOL    HW115050   3.567   3.788  16.595  0.6325 -0.9996 -0.2351
 1139SOL    HW215051   3.679   3.762  16.680 -1.1521 -2.3694 -1.5620
 1140SOL     OW15052   0.999   1.831   3.128  0.4540  0.5228 -0.2328
 1140SOL    HW115053   0.989   1.828   3.224 -0.7799 -1.2807 -0.4228
 1140SOL    HW215054   1.075   1.775   3.116  2.1691  1.9870  3.8440
 1141SOL     OW15055   1.500   4.573   2.068 -0.8524  0.2802 -0.0046
 1141SOL    HW115056   1.554   4.584   1.990 -1.8036 -2.7550 -1.0956
 1141SOL    HW215057   1.565   4.573   2.139 -1.1870  0.6249  0.3065
 1142SOL     OW15058   4.603   3.303   7.924  0.7478 -0.3308  0.1357
 1142SOL    HW115059   4.638   3.250   7.852 -2.1226 -1.8465 -0.1240
 1142SOL    HW215060   4.586   3.231   7.985 -1.9202 -1.1035 -1.5271
 1143SOL     OW15061   3.776   2.613   3.942 -0.1857  0.4962 -0.3097
 1143SOL    HW115062   3.865   2.637   3.968 -0.1145  1.8459 -1.7838
 1143SOL    HW215063   3.788   2.540   3.881 -0.2042 -0.2200  0.5481
 1144SOL     OW15064   0.386   3.629  10.718  0.2431  0.5870  0.2344
 1144SOL    HW115065   0.316   3.690  10.697  1.0026  1.7041  0.9166
 1144SOL    HW215066   0.445   3.631  10.642  1.2455  2.1249  1.0436
 1145SOL     OW15067   1.375   3.403   6.661  0.5062 -0.2211 -0.3227
 1145SOL    HW115068   1.309   3.424   6.726  0.6131 -2.0985  0.3857
 1145SOL    HW215069   1.442   3.359   6.712  0.5758  0.5896  0.2820
 1146SOL     OW15070   3.375   4.653   4.181 -0.2158  0.3634 -0.1388
 1146SOL    HW115071   3.419   4.588   4.237  0.6410  0.5890 -0.5420
 1146SOL    HW215072   3.358   4.733   4.231  3.5104  1.3466 -0.4581
 1147SOL     OW15073   0.264   3.432   2.280  0.0754  0.1278 -0.2594
 1147SOL    HW115074   0.358   3.422   2.297  0.2134  1.4389 -0.2931
 1147SOL    HW215075   0.239   3.513   2.325  0.0535 -0.3940  0.6841
 1148SOL     OW15076   0.105   1.328   8.513  0.0717  0.1571  0.0291
 1148SOL    HW115077   0.070   1.399   8.459 -1.7363 -0.0806  0.8749
 1148SOL    HW215078   0.176   1.376   8.556  1.5861 -1.4071 -0.7319
 1149SOL     OW15079   3.312   1.129   7.036  0.7693  0.2991  0.0769
 1149SOL    HW115080   3.362   1.050   7.055  1.3030  1.0493  1.7623
 1149SOL    HW215081   3.383   1.193   7.031  0.1811  1.2349  3.5710
 1150SOL     OW15082   3.328   2.395   0.883  0.3818 -0.2886  0.8123
 1150SOL    HW115083   3.383   2.317   0.893  2.0946  1.1235  2.1828
 1150SOL    HW215084   3.340   2.424   0.973  0.3242  1.5613  0.2091
 1151SOL     OW15085   3.712   1.060  12.711  0.5541  0.0705  0.1347
 1151SOL    HW115086   3.687   1.017  12.793  0.4414 -2.4505 -1.1986
 1151SOL    HW215087   3.633   1.047  12.659  1.4023 -0.0699 -1.1121
 1152SOL     OW15088   3.750   4.222  10.071 -0.5174 -0.1820 -0.0882
 1152SOL    HW115089   3.660   4.198  10.093 -0.9632 -0.1024 -1.8093
 1152SOL    HW215090   3.803   4.144  10.088  0.7817  0.1480 -2.6359
 1153SOL     OW15091   3.821   2.754   6.961  0.0648 -0.3878 -0.1045
 1153SOL    HW115092   3.881   2.820   6.996 -1.1060  0.3096  0.5896
 1153SOL    HW215093   3.819   2.776   6.868  1.1799  1.1703  0.2393
 1154SOL     OW15094   3.481   3.368   8.483 -0.4422  0.2487  0.4483
 1154SOL    HW115095   3.459   3.447   8.533 -0.6578 -0.5067  1.5533
 1154SOL    HW215096   3.454   3.396   8.395  0.6862  0.9565  0.3279
 1155SOL     OW15097   1.223   0.476   2.921 -0.0318 -0.0988  0.7111
 1155SOL    HW115098   1.230   0.571   2.917  1.3926 -0.2665 -0.8980
 1155SOL    HW215099   1.189   0.449   3.007 -0.9369 -1.2439  0.0038
 1156SOL     OW15100   3.369   2.122   3.727  0.6264  0.0488  0.1357
 1156SOL    HW115101   3.411   2.040   3.754  1.8372  0.7424  0.3807
 1156SOL    HW215102   3.420   2.167   3.659 -1.6492 -1.4482 -2.5720
 1157SOL     OW15103   2.267   1.471   0.498  0.1153  0.3896  0.1410
 1157SOL    HW115104   2.232   1.402   0.554 -1.0102 -0.4954 -1.6705
 1157SOL    HW215105   2.329   1.424   0.443 -0.5561  0.5009 -0.7015
 1158SOL     OW15106   1.997   0.528   1.163 -0.3293 -0.3418 -0.1548
 1158SOL    HW115107   2.074   0.581   1.184  0.0094 -1.8755  2.4716
 1158SOL    HW215108   2.026   0.499   1.076 -0.3157 -2.3039  0.5076
 1159SOL     OW15109   2.083   0.476   1.809 -0.6274  0.1306 -0.1897
 1159SOL    HW115110   2.135   0.431   1.742 -1.4092 -0.1951 -0.5663
 1159SOL    HW215111   2.112   0.422   1.884 -1.8126 -0.4664 -0.1693
 1160SOL     OW15112   1.128   1.000   2.256 -0.2231 -0.4339  0.3029
 1160SOL    HW115113   1.132   0.979   2.163 -0.0528 -3.6263  1.0303
 1160SOL    HW215114   1.032   1.003   2.260 -0.1617  1.2670  0.5781
 1161SOL     OW15115   3.064   2.569   7.108 -0.2450 -0.2565  0.4017
 1161SOL    HW115116   3.060   2.517   7.189  0.1541 -0.1862  0.4662
 1161SOL    HW215117   3.062   2.502   7.040  1.8802  0.4059 -0.2948
 1162SOL     OW15118   0.379   0.980   9.478 -0.2421 -0.6065  0.4732
 1162SOL    HW115119   0.371   0.889   9.504  1.2072 -0.0385  2.8958
 1162SOL    HW215120   0.289   1.006   9.456  0.2450 -1.4002 -2.5365
 1163SOL     OW15121   3.190   1.009  14.448 -0.0379 -0.1450  0.2920
 1163SOL    HW115122   3.253   1.078  14.470  1.9729 -1.5684 -1.0214
 1163SOL    HW215123   3.105   1.048  14.468 -1.3168 -1.6816 -2.1664
 1164SOL     OW15124   1.826   1.811   6.776 -0.3228 -0.7192  0.2570
 1164SOL    HW115125   1.898   1.803   6.839 -0.4983  1.6297  0.7660
 1164SOL    HW215126   1.811   1.905   6.764 -1.3394 -0.7091  1.4867
 1165SOL     OW15127   3.496   3.627   5.151 -0.3584 -0.0116 -0.2810
 1165SOL    HW115128   3.541   3.689   5.093  0.3835 -1.0541 -0.8104
 1165SOL    HW215129   3.440   3.578   5.092 -0.9226  0.2676  0.0213
 1166SOL     OW15130   2.104   0.483  16.726 -0.8268  0.4526 -0.2207
 1166SOL    HW115131   2.031   0.543  16.717 -1.8964 -0.5675  1.5658
 1166SOL    HW215132   2.160   0.503  16.651 -1.8718 -1.1838 -1.4137
 1167SOL     OW15133   1.011   1.422   4.477 -0.1910 -0.4414 -0.0209
 1167SOL    HW115134   0.934   1.436   4.422 -0.1085 -3.5903 -0.9863
 1167SOL    HW215135   1.019   1.506   4.521  0.6458 -0.2062 -0.6239
 1168SOL     OW15136   4.576   3.690   5.285  0.3655 -0.0434 -0.3298
 1168SOL    HW115137   4.499   3.730   5.326  0.9299  1.9549 -1.1708
 1168SOL    HW215138   4.628   3.692   5.366  0.8050 -0.2264 -0.6038
 1169SOL     OW15139   0.913   1.328   9.952  0.1504 -0.4579  0.6707
 1169SOL    HW115140   0.943   1.257   9.895 -0.7434 -1.1490  1.0551
 1169SOL    HW215141   0.855   1.360   9.884  3.2731  0.9974 -1.2746
 1170SOL     OW15142   0.882   3.725   8.347  0.0113  0.1899 -0.2388
 1170SOL    HW115143   0.927   3.803   8.381 -1.9360  0.8298  0.8331
 1170SOL    HW215144   0.854   3.756   8.261  0.1261  0.4671 -0.1766
 1171SOL     OW15145   0.411   3.761  13.881 -0.1744  0.4074 -0.1696
 1171SOL    HW115146   0.412   3.786  13.788 -1.5004  1.3744  0.0719
 1171SOL    HW215147   0.456   3.679  13.861  0.1737  0.8994 -1.4067
 1172SOL     OW15148   4.111   0.191   3.003  1.0540  0.9821 -0.3009
 1172SOL    HW115149   4.046   0.250   2.966 -0.7489  0.2694  1.7433
 1172SOL    HW215150   4.131   0.242   3.082 -2.8649  1.3638  0.4364
 1173SOL     OW15151   3.059   1.622   5.493 -0.3179 -0.5033  0.0098
 1173SOL    HW115152   3.039   1.610   5.585  4.3244 -1.8711  0.8468
 1173SOL    HW215153   3.059   1.529   5.470 -1.3862 -0.4740 -0.1103
 1174SOL     OW15154   2.612   0.115   6.181  0.6441 -0.0665 -0.6140
 1174SOL    HW115155   2.625   0.021   6.166  0.0618 -0.3182  0.4414
 1174SOL    HW215156   2.699   0.148   6.158  1.5098 -2.8902 -1.3453
 1175SOL     OW15157   0.850   3.673   6.532  0.1591 -0.3881  0.5928
 1175SOL    HW115158   0.777   3.662   6.592 -1.6543 -0.2299 -1.5906
 1175SOL    HW215159   0.911   3.717   6.591  2.2474 -1.2386 -0.9346
 1176SOL     OW15160   2.624   0.495   2.390 -0.1716 -0.2702 -0.9699
 1176SOL    HW115161   2.570   0.543   2.452 -0.7818 -1.7033 -0.3889
 1176SOL    HW215162   2.627   0.417   2.445 -2.3396 -0.5622 -1.2529
 1177SOL     OW15163   0.419   0.814   8.804 -0.1034 -0.4452  0.2062
 1177SOL    HW115164   0.341   0.762   8.788 -0.4693  0.9154 -2.4802
 1177SOL    HW215165   0.478   0.756   8.851  0.4570  0.0570  0.1298
 1178SOL     OW15166   1.649   4.429   5.245 -0.5834 -0.4577  0.4102
 1178SOL    HW115167   1.596   4.437   5.324  0.9895  0.6591  1.3376
 1178SOL    HW215168   1.575   4.399   5.192  0.3360 -1.1161 -0.4940
 1179SOL     OW15169   1.885   4.430   5.340  0.3870  0.0978  0.8581
 1179SOL    HW115170   1.883   4.489   5.415 -2.4857 -0.7876  1.4716
 1179SOL    HW215171   1.793   4.429   5.313  0.7923  0.9166 -0.5507
 1180SOL     OW15172   1.404   2.647   9.723  0.2158 -0.1265  0.2276
 1180SOL    HW115173   1.372   2.736   9.711 -1.2915 -1.2568 -4.2151
 1180SOL    HW215174   1.402   2.668   9.816  0.5375 -1.4637  0.5405
 1181SOL     OW15175   0.441   2.035   4.030 -0.4944 -0.0321 -0.3480
 1181SOL    HW115176   0.522   2.083   4.014 -0.9626  0.8595 -0.0146
 1181SOL    HW215177   0.377   2.104   4.043 -1.3626 -1.0424  0.7127
 1182SOL     OW15178   2.717   4.441   4.973  0.9482 -0.3531  0.0671
 1182SOL    HW115179   2.695   4.430   4.880  1.7069  0.5978 -0.2297
 1182SOL    HW215180   2.750   4.531   4.968 -1.0214  0.4733  1.8165
 1183SOL     OW15181   2.787   3.620   5.460 -0.6357 -0.3384 -0.0548
 1183SOL    HW115182   2.777   3.620   5.555 -3.3600  0.0983 -0.3626
 1183SOL    HW215183   2.867   3.672   5.447 -0.7474  0.6627  3.1116
 1184SOL     OW15184   2.142   2.577   8.192 -0.0792  0.4772 -0.0446
 1184SOL    HW115185   2.081   2.522   8.241  1.0105 -2.1080 -1.6011
 1184SOL    HW215186   2.082   2.607   8.124  0.1998  1.0310 -0.0432
 1185SOL     OW15187   3.971   3.110  10.505 -0.2594 -0.5642 -0.3134
 1185SOL    HW115188   4.005   3.041  10.561 -1.4559 -0.6168  0.3426
 1185SOL    HW215189   3.882   3.119  10.541 -0.1526 -0.1008 -0.1665
 1186SOL     OW15190   1.244   0.867   5.016  0.0617 -0.2629 -0.0357
 1186SOL    HW115191   1.157   0.904   5.000  0.3070  0.5878  0.6218
 1186SOL    HW215192   1.230   0.775   4.992 -3.9667  0.1303  0.6682
 1187SOL     OW15193   1.245   2.177   1.833  0.8434 -0.3849  0.7349
 1187SOL    HW115194   1.305   2.243   1.797  1.3700 -1.4213 -0.2773
 1187SOL    HW215195   1.213   2.226   1.909 -1.1249  0.4684 -0.6322
 1188SOL     OW15196   1.398   0.144   6.353 -0.2727  0.2608 -0.0182
 1188SOL    HW115197   1.364   0.103   6.273  1.2398  1.3762 -1.2490
 1188SOL    HW215198   1.324   0.131   6.412  1.1973 -0.3548  1.6808
 1189SOL     OW15199   4.292   1.784   2.736 -0.1301 -0.3380  0.3002
 1189SOL    HW115200   4.214   1.732   2.752 -0.8591  0.0792 -1.9722
 1189SOL    HW215201   4.346   1.779   2.815  1.4671  0.1107 -0.7727
 1190SOL     OW15202   1.333   1.897   3.354  0.7350 -0.0188 -0.0788
 1190SOL    HW115203   1.393   1.893   3.280  1.2180 -0.9510  0.3644
 1190SOL    HW215204   1.377   1.960   3.411 -0.0646 -0.5145  1.1080
 1191SOL     OW15205   1.467   0.860   2.016 -0.2059  0.0499  0.3793
 1191SOL    HW115206   1.496   0.945   1.981 -0.9737  1.3408  2.8945
 1191SOL    HW215207   1.540   0.805   1.989 -0.4377 -0.4051  0.6806
 1192SOL     OW15208   0.231   1.989   8.048 -0.4077 -0.1453  0.1178
 1192SOL    HW115209   0.202   1.965   7.961  2.1740  1.2327 -1.1402
 1192SOL    HW215210   0.321   2.017   8.030 -1.1542  1.0490 -1.7265
 1193SOL     OW15211   1.762   0.881  12.903 -0.5280  0.1445 -0.4850
 1193SOL    HW115212   1.709   0.802  12.916 -0.8825  0.7730  1.9144
 1193SOL    HW215213   1.708   0.957  12.921 -1.4544 -0.5744 -0.2420
 1194SOL     OW15214   4.417   4.177  17.366  0.2009 -0.7271  0.1044
 1194SOL    HW115215   4.439   4.261  17.406 -0.0887 -0.4676 -0.2781
 1194SOL    HW215216   4.350   4.139  17.423 -1.1685  3.4875  1.2807
 1195SOL     OW15217   3.641   3.694   6.105 -0.1047 -0.1886 -0.2198
 1195SOL    HW115218   3.596   3.737   6.032  2.2111  0.5906 -1.2105
 1195SOL    HW215219   3.573   3.638   6.142 -3.1169  2.6354 -1.4868
 1196SOL     OW15220   1.111   2.354   4.907 -0.7482 -0.1248 -0.5524
 1196SOL    HW115221   1.191   2.404   4.921 -1.4794  0.8062  0.2880
 1196SOL    HW215222   1.108   2.295   4.982 -1.0122  1.1977  0.4650
 1197SOL     OW15223   4.058   1.373   3.879  0.3410  0.2546 -0.3601
 1197SOL    HW115224   4.103   1.437   3.933 -0.8990  0.5764  0.2909
 1197SOL    HW215225   3.966   1.398   3.884  0.0568 -1.1257  1.2794
 1198SOL     OW15226   4.542   3.674   2.191  0.2415 -0.0364  0.6466
 1198SOL    HW115227   4.572   3.749   2.242  0.0411  0.0371  0.6554
 1198SOL    HW215228   4.463   3.644   2.236 -0.2669  1.0597  0.4578
 1199SOL     OW15229   2.418   3.641   5.028  0.5649 -0.7854 -0.0795
 1199SOL    HW115230   2.512   3.642   5.008  0.8354  0.1220  1.2521
 1199SOL    HW215231   2.379   3.625   4.942 -1.2797 -0.1482  0.6252
 1200SOL     OW15232   3.578   0.383   3.558 -0.2066 -0.0862 -0.0426
 1200SOL    HW115233   3.510   0.391   3.491 -0.4538  0.1649  0.2363
 1200SOL    HW215234   3.548   0.451   3.619 -2.4731 -0.6420 -0.5785
 1201SOL     OW15235   4.109   0.899   9.338 -0.0195 -0.2436 -0.0515
 1201SOL    HW115236   4.113   0.804   9.333 -1.5947 -0.3032 -0.1137
 1201SOL    HW215237   4.106   0.913   9.243  1.8613  0.0100 -0.0922
 1202SOL     OW15238   3.038   1.376   9.650  0.6844  0.1396 -0.1564
 1202SOL    HW115239   3.026   1.469   9.672 -1.6107  0.2164 -1.7600
 1202SOL    HW215240   2.966   1.373   9.588  1.2001 -1.6579 -0.6605
 1203SOL     OW15241   0.888   1.850   4.525  0.0496  0.2790 -0.2141
 1203SOL    HW115242   0.845   1.866   4.610  0.2131 -0.6568  0.0387
 1203SOL    HW215243   0.830   1.898   4.465  0.2301  0.4558 -0.2483
 1204SOL     OW15244   1.168   4.187   1.491 -0.2673 -0.5555 -0.2705
 1204SOL    HW115245   1.096   4.206   1.551  0.0321  0.0234 -0.0986
 1204SOL    HW215246   1.160   4.244   1.415  0.4236 -0.9530 -0.6385
 1205SOL     OW15247   0.107   1.032   7.458  0.0764  0.4147  0.4356
 1205SOL    HW115248   0.055   1.012   7.380 -2.3581 -1.4934  2.5611
 1205SOL    HW215249   0.038   1.050   7.522 -1.4561 -2.8194 -0.3306
 1206SOL     OW15250   4.717   2.426   9.583  0.4490 -0.1138 -0.1672
 1206SOL    HW115251   4.660   2.471   9.646 -0.3415 -0.5235 -0.5997
 1206SOL    HW215252   4.666   2.347   9.565 -0.9362  0.7153  0.1026
 1207SOL     OW15253   4.236   1.726   4.575 -0.1034 -0.1514 -0.5067
 1207SOL    HW115254   4.219   1.712   4.482 -0.4811  1.0322 -0.6197
 1207SOL    HW215255   4.154   1.757   4.612  0.6186  2.0614 -0.7401
 1208SOL     OW15256   3.442   4.335  14.769  0.4410  0.6979 -0.4873
 1208SOL    HW115257   3.390   4.400  14.816 -0.0413 -0.8060  1.0684
 1208SOL    HW215258   3.374   4.292  14.718  1.0298 -0.7004 -0.0992
 1209SOL     OW15259   0.304   3.370   6.497  0.3984 -0.3202  0.1821
 1209SOL    HW115260   0.306   3.369   6.592 -1.7033  0.6543  0.2398
 1209SOL    HW215261   0.287   3.463   6.488  0.9963  0.0297  2.5964
 1210SOL     OW15262   3.211   4.603   5.916 -0.3489 -0.2064 -0.0849
 1210SOL    HW115263   3.262   4.522   5.927  3.0500  1.8756 -0.5553
 1210SOL    HW215264   3.207   4.621   5.823 -2.4883 -0.7498 -0.0952
 1211SOL     OW15265   1.344   1.007  14.000 -0.1233 -0.2244 -0.0512
 1211SOL    HW115266   1.372   1.094  13.971 -1.4724  0.4437  0.6571
 1211SOL    HW215267   1.416   0.956  13.962  0.0717  0.9758 -1.2849
 1212SOL     OW15268   0.430   1.184   2.746 -0.0089  0.1156  0.1513
 1212SOL    HW115269   0.449   1.101   2.790 -1.4683  0.6125  1.7098
 1212SOL    HW215270   0.450   1.246   2.817  2.8234  0.6802 -1.1405
 1213SOL     OW15271   2.893   3.032  13.430  0.2089  0.3096 -0.1722
 1213SOL    HW115272   2.815   3.020  13.376 -1.0166  1.4406  1.3551
 1213SOL    HW215273   2.879   3.123  13.454  2.0819  0.8152 -1.0150
 1214SOL     OW15274   0.798   2.990   4.672 -0.0375 -0.5046 -0.4655
 1214SOL    HW115275   0.876   2.938   4.692 -0.4356 -1.2145 -0.7622
 1214SOL    HW215276   0.831   3.060   4.616  0.4747  0.5001  1.1039
 1215SOL     OW15277   3.178   2.540   1.818 -0.5402  0.1362 -0.1924
 1215SOL    HW115278   3.259   2.494   1.837 -1.0984 -1.1974 -1.0048
 1215SOL    HW215279   3.149   2.570   1.904  0.1242  0.2640 -0.0151
 1216SOL     OW15280   0.497   3.274  14.133 -0.0735 -0.3719 -0.1624
 1216SOL    HW115281   0.447   3.336  14.079 -0.3353  1.7343  2.5134
 1216SOL    HW215282   0.514   3.212  14.061  0.5671 -1.2924  0.7815
 1217SOL     OW15283   1.433   3.774   5.472  0.7156  0.1096 -0.3671
 1217SOL    HW115284   1.374   3.712   5.515  0.1114  0.3830 -0.8105
 1217SOL    HW215285   1.503   3.779   5.537 -0.1081  1.1362  0.4382
 1218SOL     OW15286   3.257   3.859   5.628  0.2466 -0.3549 -0.3628
 1218SOL    HW115287   3.342   3.820   5.606  0.4265 -0.1942  0.0510
 1218SOL    HW215288   3.277   3.911   5.705  0.8993 -0.9177 -0.1426
 1219SOL     OW15289   4.358   2.285   7.143  0.2535 -0.3176 -0.3048
 1219SOL    HW115290   4.267   2.258   7.125 -0.4864  2.1755 -0.3570
 1219SOL    HW215291   4.400   2.278   7.058  0.6995  1.2786 -0.2159
 1220SOL     OW15292   3.380   3.730   1.890 -0.1609 -0.7932 -0.2149
 1220SOL    HW115293   3.310   3.673   1.859 -0.2211 -0.8548  0.0395
 1220SOL    HW215294   3.333   3.802   1.933  2.0083  0.9212 -0.6856
 1221SOL     OW15295   4.244   0.677   8.881  0.5762 -0.4164 -0.4228
 1221SOL    HW115296   4.201   0.746   8.832 -2.9671 -1.9675  0.5005
 1221SOL    HW215297   4.331   0.663   8.843  1.5040  0.3391  1.4593
 1222SOL     OW15298   1.670   2.716   6.499  0.6775 -0.3037 -0.1138
 1222SOL    HW115299   1.703   2.743   6.413 -0.5580  0.0305 -0.4789
 1222SOL    HW215300   1.730   2.645   6.522  1.2773  0.4504  0.6376
 1223SOL     OW15301   0.609   3.282   4.254 -0.0147 -0.7932 -0.7213
 1223SOL    HW115302   0.524   3.295   4.296 -0.1083 -1.8067 -0.6028
 1223SOL    HW215303   0.641   3.203   4.297 -0.9756 -0.1634  1.1530
 1224SOL     OW15304   1.547   4.344  16.410 -0.5129  0.2050  0.0815
 1224SOL    HW115305   1.476   4.322  16.349  0.8672 -0.3661 -1.3204
 1224SOL    HW215306   1.538   4.439  16.417 -1.8885  0.1302 -0.6033
 1225SOL     OW15307   0.499   2.852   7.709 -0.1842 -0.4086 -0.0079
 1225SOL    HW115308   0.560   2.814   7.771  1.6297  1.5374 -0.6104
 1225SOL    HW215309   0.422   2.843   7.765 -0.0557 -1.2403  0.0287
 1226SOL     OW15310   3.208   2.819   3.417 -0.3325 -0.5087  0.3465
 1226SOL    HW115311   3.189   2.766   3.495 -2.0092 -0.2758  0.0913
 1226SOL    HW215312   3.302   2.834   3.418 -0.4665  0.2765  1.0367
 1227SOL     OW15313   3.209   3.978  13.841 -0.1712  0.3667  0.2092
 1227SOL    HW115314   3.169   3.893  13.855  0.1012 -0.3124 -3.1636
 1227SOL    HW215315   3.146   4.031  13.890  1.3208  1.2248  1.2001
 1228SOL     OW15316   1.510   0.493   9.707  0.1371 -0.0830 -0.3563
 1228SOL    HW115317   1.547   0.405   9.718  0.3034  0.1749  1.0722
 1228SOL    HW215318   1.467   0.518   9.788 -0.2036 -1.0858 -0.2294
 1229SOL     OW15319   1.823   0.104   7.632 -0.0796  0.2432 -0.5299
 1229SOL    HW115320   1.821   0.044   7.706 -2.8592 -0.9140 -1.5512
 1229SOL    HW215321   1.918   0.110   7.623 -0.1471  0.9622 -0.7858
 1230SOL     OW15322   3.029   1.520   6.063  0.1212  0.1652  0.6333
 1230SOL    HW115323   2.961   1.563   6.011 -1.2360  0.8050  2.9583
 1230SOL    HW215324   2.984   1.440   6.090 -1.1219  0.9670  0.9188
 1231SOL     OW15325   1.183   4.474   7.286  0.0205 -0.3664  0.6679
 1231SOL    HW115326   1.233   4.409   7.238  0.0878 -0.2024  0.5146
 1231SOL    HW215327   1.093   4.465   7.253  0.1839 -0.1506  0.1700
 1232SOL     OW15328   0.130   1.671  13.055  0.6460  0.0105  0.7586
 1232SOL    HW115329   0.220   1.644  13.035  0.8029  2.3104 -1.6384
 1232SOL    HW215330   0.154   1.763  13.053 -0.1252  0.1498 -1.9108
 1233SOL     OW15331   1.468   2.100   5.294  0.8094  0.0953  0.1927
 1233SOL    HW115332   1.435   2.053   5.218 -0.1620  0.3238  0.4733
 1233SOL    HW215333   1.462   2.040   5.368 -1.1714  0.7632  0.5588
 1234SOL     OW15334   1.362   2.256  14.361 -0.5813 -0.0730  0.4370
 1234SOL    HW115335   1.318   2.318  14.419  0.4709  0.9823  0.1144
 1234SOL    HW215336   1.369   2.310  14.283  2.8784  0.8232  1.3754
 1235SOL     OW15337   3.727   3.349  12.928  0.0670  0.5038  0.2869
 1235SOL    HW115338   3.652   3.319  12.980  0.6356  0.1316  0.8840
 1235SOL    HW215339   3.763   3.401  12.999  3.5769 -0.5139 -0.7483
 1236SOL     OW15340   1.996   4.590   4.266 -0.8474 -0.2495  0.1323
 1236SOL    HW115341   1.977   4.683   4.249  0.7656 -0.1863 -1.3305
 1236SOL    HW215342   2.000   4.599   4.361 -1.7933 -0.6044  0.2072
 1237SOL     OW15343   3.472   0.671  12.797  0.2145 -0.0767  0.2466
 1237SOL    HW115344   3.427   0.652  12.880  0.4146  0.8368  0.5674
 1237SOL    HW215345   3.538   0.738  12.816 -0.4950  0.4573  0.8303
 1238SOL     OW15346   1.994   0.831  11.128  0.2835 -0.0862 -0.4540
 1238SOL    HW115347   2.053   0.780  11.183 -1.4342 -0.7163  0.8109
 1238SOL    HW215348   1.917   0.838  11.184 -0.9682 -0.8372 -2.0804
 1239SOL     OW15349   1.342   3.310   6.411  0.5798  1.2284 -0.2351
 1239SOL    HW115350   1.435   3.289   6.419 -0.0979 -1.0978  1.6064
 1239SOL    HW215351   1.340   3.349   6.498 -0.3242 -0.0038  0.2977
 1240SOL     OW15352   3.953   2.956   7.451 -0.0901 -0.1387 -0.1878
 1240SOL    HW115353   3.976   2.890   7.385 -0.0997 -0.3121 -0.0170
 1240SOL    HW215354   3.858   2.965   7.436  0.1034  0.2810 -1.1922
 1241SOL     OW15355   2.614   0.405   3.849  0.1168 -0.0983  0.4235
 1241SOL    HW115356   2.642   0.442   3.765 -0.3024 -2.6759 -0.8553
 1241SOL    HW215357   2.700   0.378   3.879  0.8130  2.5744  0.8342
 1242SOL     OW15358   0.210   0.805   9.050  0.3291 -0.1799 -0.1870
 1242SOL    HW115359   0.166   0.884   9.018  3.4334  2.2945  1.6863
 1242SOL    HW215360   0.160   0.742   8.998 -0.5650  1.3631 -1.2270
 1243SOL     OW15361   2.824   2.803  13.617 -0.2370 -0.2217 -0.3587
 1243SOL    HW115362   2.854   2.875  13.560 -0.0146  0.5006  0.6679
 1243SOL    HW215363   2.731   2.827  13.616 -0.3263 -0.5244  1.1365
 1244SOL     OW15364   2.896   0.289   9.333 -0.2089  0.2510  0.2726
 1244SOL    HW115365   2.976   0.332   9.304  0.8045 -0.3368  2.1732
 1244SOL    HW215366   2.914   0.207   9.286  2.7972  0.6576  0.7076
 1245SOL     OW15367   1.991   3.517  13.496 -0.4675  0.1997 -0.0022
 1245SOL    HW115368   1.984   3.422  13.492 -0.7303  0.2217 -0.0948
 1245SOL    HW215369   1.952   3.532  13.582  0.7120 -1.0921  0.7415
 1246SOL     OW15370   1.930   1.476   5.676 -0.3373  0.1961 -0.1824
 1246SOL    HW115371   1.840   1.444   5.670 -0.7153  1.3315 -0.6126
 1246SOL    HW215372   1.955   1.500   5.587 -0.9988  1.6315  0.0224
 1247SOL     OW15373   0.103   3.281   4.845 -0.6239 -0.0188 -0.7844
 1247SOL    HW115374   0.030   3.333   4.878  0.5658  1.3044 -0.2348
 1247SOL    HW215375   0.183   3.332   4.858  0.1391 -1.9309  1.8818
 1248SOL     OW15376   3.157   2.536   7.910  0.4717  0.3189  0.2210
 1248SOL    HW115377   3.225   2.480   7.946  1.3151  1.4020  0.2864
 1248SOL    HW215378   3.200   2.567   7.830 -0.2370 -0.3742 -0.4372
 1249SOL     OW15379   4.564   0.822  16.846 -1.0977 -0.1585 -0.4100
 1249SOL    HW115380   4.572   0.776  16.763  1.1135  2.0960 -1.4642
 1249SOL    HW215381   4.472   0.804  16.864 -1.2501 -1.1360 -2.1990
 1250SOL     OW15382   3.909   2.084   6.210 -0.0802  0.4587  0.4719
 1250SOL    HW115383   3.981   2.043   6.258  1.3276 -0.1401 -2.1380
 1250SOL    HW215384   3.913   2.177   6.230  0.8259  0.9935 -2.1700
 1251SOL     OW15385   0.408   2.277  13.897  0.1202  0.0672 -0.1750
 1251SOL    HW115386   0.481   2.302  13.955  0.5277  0.2951 -0.7885
 1251SOL    HW215387   0.364   2.216  13.956  1.4149 -1.7408 -1.0899
 1252SOL     OW15388   0.294   1.166   0.971 -0.2877 -0.3943 -0.3532
 1252SOL    HW115389   0.367   1.218   1.004  1.0942 -1.4043 -1.7622
 1252SOL    HW215390   0.272   1.212   0.889  1.1037 -0.5791 -0.8355
 1253SOL     OW15391   0.489   3.513   6.093  0.2784 -0.1071  0.4256
 1253SOL    HW115392   0.549   3.454   6.047 -2.2247 -1.2144 -1.4082
 1253SOL    HW215393   0.415   3.459   6.121 -2.1170  1.6445 -2.5612
 1254SOL     OW15394   1.353   4.480   7.709  0.1040  0.2949 -0.3703
 1254SOL    HW115395   1.349   4.568   7.671 -2.7361  0.7091  0.8825
 1254SOL    HW215396   1.436   4.491   7.756  0.7680 -0.5777 -1.3687
 1255SOL     OW15397   0.749   4.548  16.254  0.2020 -0.1432 -0.2619
 1255SOL    HW115398   0.788   4.467  16.222 -2.4170 -1.7438  0.5985
 1255SOL    HW215399   0.656   4.528  16.265 -0.1423  2.0572  0.9318
 1256SOL     OW15400   3.197   3.102  11.307 -0.0328 -0.0105 -0.1576
 1256SOL    HW115401   3.159   3.105  11.219  0.5095  0.3882 -0.3716
 1256SOL    HW215402   3.286   3.134  11.300 -0.3467  0.7817 -0.5276
 1257SOL     OW15403   1.617   4.662   3.294  1.1227  0.1476 -0.1919
 1257SOL    HW115404   1.526   4.637   3.312  0.7205  0.4503 -1.7765
 1257SOL    HW215405   1.665   4.579   3.291 -1.5862 -1.4266  0.1554
 1258SOL     OW15406   1.900   2.835   3.310  0.3293 -0.6420  0.0098
 1258SOL    HW115407   1.819   2.864   3.266  0.3811  1.4929  1.3084
 1258SOL    HW215408   1.959   2.909   3.295 -0.9950  0.2460 -0.9086
 1259SOL     OW15409   3.916   3.114   5.274  0.0885  0.0687 -0.1878
 1259SOL    HW115410   3.962   3.179   5.221 -0.1498 -1.2765 -2.0112
 1259SOL    HW215411   3.972   3.038   5.262 -0.0872 -0.4997  2.4586
 1260SOL     OW15412   4.680   2.398   9.282 -0.4620  0.1640  0.1893
 1260SOL    HW115413   4.696   2.326   9.343 -1.3894 -0.8915 -0.8044
 1260SOL    HW215414   4.584   2.399   9.277 -0.4306 -0.6040 -0.5882
 1261SOL     OW15415   1.010   1.801  17.351 -0.5491 -0.4753  0.5710
 1261SOL    HW115416   0.934   1.755  17.386 -1.4193 -0.5101 -1.3618
 1261SOL    HW215417   1.027   1.872  17.414 -2.0175  0.1349  0.2660
 1262SOL     OW15418   1.520   2.000   3.820  0.2077 -0.2161  0.7846
 1262SOL    HW115419   1.568   2.048   3.752 -0.4542 -0.7833 -0.0846
 1262SOL    HW215420   1.461   1.945   3.769  0.9919 -1.0620  0.7737
 1263SOL     OW15421   2.479   3.212   9.193  0.1622  0.1605 -0.0359
 1263SOL    HW115422   2.522   3.242   9.273 -0.3567 -0.6623  0.5535
 1263SOL    HW215423   2.433   3.134   9.225 -0.0654  0.9540  1.6209
 1264SOL     OW15424   4.387   3.976   3.360  0.6744  0.1943 -0.0510
 1264SOL    HW115425   4.330   4.051   3.379  1.1674  0.8488 -1.1471
 1264SOL    HW215426   4.353   3.902   3.411  0.4022  0.5619  0.3059
 1265SOL     OW15427   0.230   0.001   0.903  0.4223  0.4260 -0.2230
 1265SOL    HW115428   0.164   4.685   0.859 -0.2861  0.4831  0.7794
 1265SOL    HW215429   0.180   0.021   0.981  2.3663 -1.0224  1.3894
 1266SOL     OW15430   0.757   4.574   6.909 -0.2266 -0.2907 -0.2794
 1266SOL    HW115431   0.663   4.560   6.918 -0.3272  0.4736 -0.1136
 1266SOL    HW215432   0.757   4.515   6.834 -1.1641  0.1473 -0.6292
 1267SOL     OW15433   1.395   0.503   7.155 -0.3129  0.4177 -0.0957
 1267SOL    HW115434   1.352   0.544   7.079  0.8605  0.6606 -0.6361
 1267SOL    HW215435   1.422   0.588   7.191  1.2298  0.3641 -1.1326
 1268SOL     OW15436   2.626   3.694  16.920 -0.1494  0.2758 -0.0492
 1268SOL    HW115437   2.676   3.739  16.988  0.4450 -1.4572  0.6740
 1268SOL    HW215438   2.560   3.646  16.970  0.2906  0.4983  0.7415
 1269SOL     OW15439   3.457   0.773  17.164  0.5693  0.1044 -0.4931
 1269SOL    HW115440   3.439   0.692  17.116 -1.3867 -0.4261  1.1872
 1269SOL    HW215441   3.531   0.741  17.216  1.7824  0.9024 -1.7293
 1270SOL     OW15442   3.332   4.723   7.824  0.7092  0.2511  0.0819
 1270SOL    HW115443   3.271   4.661   7.865  2.1493  0.1504  2.0827
 1270SOL    HW215444   3.395   4.662   7.787  0.4312  0.0969 -0.1422
 1271SOL     OW15445   4.567   4.241   8.285 -0.3679  0.0056 -0.0378
 1271SOL    HW115446   4.586   4.324   8.328  1.6402  0.9021 -2.7084
 1271SOL    HW215447   4.658   4.232   8.255 -0.1954 -2.6405  1.1958
 1272SOL     OW15448   2.328   0.344   1.043 -0.2874 -0.1042 -0.2235
 1272SOL    HW115449   2.239   0.369   1.016  0.7756  0.5392 -3.1517
 1272SOL    HW215450   2.370   0.376   0.963 -0.9869  0.3175 -0.4283
 1273SOL     OW15451   4.180   3.759  10.420  0.0873 -0.1027  0.0041
 1273SOL    HW115452   4.201   3.743  10.512 -2.3870 -0.7339  0.4668
 1273SOL    HW215453   4.178   3.669  10.386 -0.1712 -0.5013  1.0606
 1274SOL     OW15454   3.078   1.776  16.265  0.1729 -0.0656  0.8534
 1274SOL    HW115455   3.096   1.682  16.265  1.1552  0.1123 -0.9331
 1274SOL    HW215456   3.148   1.810  16.209 -1.3419 -0.6924 -1.4194
 1275SOL     OW15457   4.411   1.984   2.239  0.3548 -0.2976 -0.5773
 1275SOL    HW115458   4.376   1.913   2.186  0.7609 -1.6148  0.9332
 1275SOL    HW215459   4.489   2.001   2.185 -0.3909 -0.7663 -1.7951
 1276SOL     OW15460   0.876   4.359  15.319  0.1789  0.1769  0.9831
 1276SOL    HW115461   0.898   4.330  15.231 -0.8426 -1.1939  1.1793
 1276SOL    HW215462   0.789   4.398  15.304 -0.6975 -0.9260  3.2678
 1277SOL     OW15463   1.792   4.209   9.132  0.0158 -0.1471  0.5066
 1277SOL    HW115464   1.791   4.218   9.227  4.4081  0.9885  0.4583
 1277SOL    HW215465   1.720   4.148   9.113 -0.2556  0.2266  0.3464
 1278SOL     OW15466   0.810   0.774   7.000 -0.5058 -0.5232  0.2357
 1278SOL    HW115467   0.872   0.833   7.043 -0.0280 -0.8216 -0.0498
 1278SOL    HW215468   0.763   0.823   6.932  0.2729  0.4817  0.4125
 1279SOL     OW15469   3.626   0.117   3.319 -0.6490 -0.3778 -0.3524
 1279SOL    HW115470   3.603   0.181   3.387  2.1462  1.1473 -0.8152
 1279SOL    HW215471   3.599   0.167   3.242  2.9306  1.8737 -0.1510
 1280SOL     OW15472   0.599   3.957   6.552  0.0709 -0.2521 -0.2257
 1280SOL    HW115473   0.570   4.048   6.553 -2.1715 -0.9581 -0.5317
 1280SOL    HW215474   0.688   3.959   6.587 -0.3976  1.6381  0.8729
 1281SOL     OW15475   3.473   0.999  13.370  0.0599  0.1340 -0.0986
 1281SOL    HW115476   3.451   1.090  13.389  1.7765  0.6755 -0.6843
 1281SOL    HW215477   3.404   0.954  13.419 -0.6877  1.8090  0.4008
 1282SOL     OW15478   4.379   0.209   5.405 -0.4529  0.4159 -0.8443
 1282SOL    HW115479   4.338   0.132   5.445 -0.3059  0.4497 -0.6321
 1282SOL    HW215480   4.352   0.273   5.470 -0.1671 -1.9307  1.5619
 1283SOL     OW15481   2.479   1.877   5.907 -0.1632 -0.5775  0.0341
 1283SOL    HW115482   2.497   1.911   5.819 -1.0621  0.3566  0.2172
 1283SOL    HW215483   2.566   1.837   5.913  0.0548 -0.2033 -0.6483
 1284SOL     OW15484   3.482   1.846  14.677  0.2977 -0.3760 -0.5879
 1284SOL    HW115485   3.517   1.891  14.753  0.4126 -1.8052  0.2164
 1284SOL    HW215486   3.390   1.871  14.684 -0.0132 -1.4559 -0.7497
 1285SOL     OW15487   3.951   3.663   3.851  0.0485  0.0435  0.4976
 1285SOL    HW115488   3.943   3.749   3.893 -0.7068 -1.4901  3.4683
 1285SOL    HW215489   3.873   3.659   3.796  0.4625 -1.2312  0.0089
 1286SOL     OW15490   1.854   1.005  14.314 -0.6027  0.4339  0.2714
 1286SOL    HW115491   1.775   0.957  14.286 -0.3587 -0.6865  1.4938
 1286SOL    HW215492   1.914   0.935  14.340  1.3565  1.6042 -1.1518
 1287SOL     OW15493   3.286   4.080   6.847  0.0468 -0.7097  0.4657
 1287SOL    HW115494   3.234   4.001   6.864  1.4493 -1.0103  3.4096
 1287SOL    HW215495   3.216   4.135   6.812  0.3493  0.1192  1.1667
 1288SOL     OW15496   2.715   4.146   5.344 -0.2820  0.2762 -0.2078
 1288SOL    HW115497   2.766   4.196   5.281 -0.9748 -0.9401 -1.7332
 1288SOL    HW215498   2.704   4.211   5.414 -0.8779  0.0839 -0.1178
 1289SOL     OW15499   2.390   3.517   4.454 -0.5564  0.7501 -0.5424
 1289SOL    HW115500   2.425   3.507   4.365  1.2159  1.5992  0.0473
 1289SOL    HW215501   2.467   3.497   4.507 -0.9863 -0.4537 -0.3867
 1290SOL     OW15502   0.215   0.325   7.128  0.1165 -0.5545 -0.6988
 1290SOL    HW115503   0.138   0.380   7.139 -0.8416 -1.6457 -1.8272
 1290SOL    HW215504   0.281   0.365   7.184 -2.4006 -1.2788  2.7556
 1291SOL     OW15505   1.345   0.948   6.539 -0.1174  0.2781 -0.6508
 1291SOL    HW115506   1.371   0.887   6.470 -0.9337 -0.7151 -0.0804
 1291SOL    HW215507   1.323   0.889   6.611  2.4262  0.5074  0.3354
 1292SOL     OW15508   3.522   0.251   5.962 -0.5186 -0.4912  0.5003
 1292SOL    HW115509   3.557   0.335   5.990 -1.2582 -0.1949  0.5520
 1292SOL    HW215510   3.431   0.262   5.990 -0.8076 -1.7559  0.0487
 1293SOL     OW15511   3.469   1.559   5.573  0.6507  0.1715  0.4517
 1293SOL    HW115512   3.511   1.507   5.504  0.0518 -1.6763  1.5002
 1293SOL    HW215513   3.533   1.628   5.591 -0.4310  1.5760 -1.0400
 1294SOL     OW15514   2.936   2.401  14.433 -0.0537  0.5846  0.1635
 1294SOL    HW115515   2.872   2.419  14.364 -0.2601  0.5634  0.3472
 1294SOL    HW215516   3.019   2.362  14.407  0.3767  0.9903  0.9393
 1295SOL     OW15517   3.445   2.937   3.324 -0.5218  0.3085 -0.1095
 1295SOL    HW115518   3.399   2.964   3.245  0.1346  0.2780 -0.5089
 1295SOL    HW215519   3.530   2.915   3.285 -0.0703  1.7429  0.0647
 1296SOL     OW15520   3.712   3.358   5.992  1.0799 -0.3684  0.1785
 1296SOL    HW115521   3.750   3.360   5.903  0.1248 -1.2513 -0.2479
 1296SOL    HW215522   3.687   3.266   5.985 -0.8155  0.1489  0.1856
 1297SOL     OW15523   4.572   2.388   8.401  0.4849  0.2003  0.8146
 1297SOL    HW115524   4.584   2.481   8.385  0.4488  0.3382  1.6365
 1297SOL    HW215525   4.537   2.387   8.490 -1.0385  0.4632  0.2118
 1298SOL     OW15526   3.319   4.639   0.236  0.2333  0.2202 -0.0856
 1298SOL    HW115527   3.391   4.702   0.226 -0.6382  1.0760 -0.8917
 1298SOL    HW215528   3.247   4.685   0.193  0.0273 -1.0854 -1.1409
 1299SOL     OW15529   2.011   1.583   3.367 -0.4070 -0.5688  0.6173
 1299SOL    HW115530   1.980   1.513   3.424  0.7544 -1.9976 -0.5048
 1299SOL    HW215531   2.021   1.654   3.430 -0.8695 -0.0730  0.1333
 1300SOL     OW15532   1.261   1.608   3.407  0.1964  0.4841  0.5935
 1300SOL    HW115533   1.345   1.643   3.440  0.5411 -0.1073  0.3365
 1300SOL    HW215534   1.216   1.570   3.482 -1.5005 -0.6380 -1.0190
 1301SOL     OW15535   4.708   1.521   4.382 -0.7315  0.1311  0.5902
 1301SOL    HW115536   4.710   1.589   4.449  0.8264  0.9228 -0.2741
 1301SOL    HW215537   0.029   1.553   4.314 -1.2529  0.3358  0.2375
 1302SOL     OW15538   2.066   3.904  10.827  0.0068 -0.3322  0.0934
 1302SOL    HW115539   2.030   3.960  10.896 -1.1029  1.7820 -2.2058
 1302SOL    HW215540   2.160   3.918  10.817 -0.3031  3.4473  2.5128
 1303SOL     OW15541   1.621   3.422   1.690 -0.0484  0.4221  0.2402
 1303SOL    HW115542   1.661   3.510   1.692  0.5883  0.1528 -0.7528
 1303SOL    HW215543   1.529   3.437   1.670 -0.1508  1.7552  1.7038
 1304SOL     OW15544   1.920   4.503  16.573  0.1745  0.1309  0.1248
 1304SOL    HW115545   1.939   4.412  16.553  1.4026  0.3369  0.3460
 1304SOL    HW215546   1.893   4.502  16.665 -2.6360  2.8336 -0.6473
 1305SOL     OW15547   2.025   1.254   0.612 -0.4617 -0.1872  0.2780
 1305SOL    HW115548   1.984   1.292   0.690 -1.4240  0.3334 -0.4863
 1305SOL    HW215549   1.952   1.204   0.576 -1.9589  2.7327 -0.7633
 1306SOL     OW15550   3.405   1.255  14.485  0.2678 -0.0483 -0.0575
 1306SOL    HW115551   3.479   1.279  14.542 -1.0036  2.1713  0.6312
 1306SOL    HW215552   3.384   1.342  14.452  2.5296  0.6166  0.2012
 1307SOL     OW15553   2.008   2.225   9.085  0.1064  0.6109  0.6467
 1307SOL    HW115554   2.035   2.145   9.131 -0.1070 -0.2630 -0.7370
 1307SOL    HW215555   2.012   2.287   9.157  1.7578  1.2931 -0.0109
 1308SOL     OW15556   4.459   2.636  14.739 -0.0651 -0.0995  0.1111
 1308SOL    HW115557   4.395   2.586  14.790 -1.0620 -0.7305 -1.7680
 1308SOL    HW215558   4.513   2.661  14.814 -2.6351  0.0890  1.9361
 1309SOL     OW15559   3.726   4.231  11.617  0.4718 -0.4698  0.2379
 1309SOL    HW115560   3.784   4.255  11.689 -0.4103  1.6660  0.2300
 1309SOL    HW215561   3.728   4.306  11.557 -1.7067  0.1309  0.9308
 1310SOL     OW15562   3.240   1.498   2.843 -0.6091 -0.6109  0.1804
 1310SOL    HW115563   3.279   1.582   2.867  1.4602 -1.2181 -1.1258
 1310SOL    HW215564   3.281   1.479   2.759 -1.3117 -2.1819  0.1840
 1311SOL     OW15565   2.212   4.082   3.256 -0.3721  0.0794 -0.4140
 1311SOL    HW115566   2.167   3.998   3.269  1.4351 -0.8417 -0.0396
 1311SOL    HW215567   2.163   4.130   3.190  2.9604  1.2694 -2.0169
 1312SOL     OW15568   2.490   3.599  17.436 -0.0748 -0.9752 -0.8630
 1312SOL    HW115569   2.406   3.619  17.394 -0.2963  0.3515  0.1799
 1312SOL    HW215570   2.513   3.688  17.462 -0.2516 -1.4370  0.8764
 1313SOL     OW15571   0.667   2.406   3.231 -0.4246 -0.2031  0.4405
 1313SOL    HW115572   0.713   2.351   3.295 -0.8088 -1.0479 -0.0201
 1313SOL    HW215573   0.615   2.343   3.181 -0.7855  1.0665 -0.7715
 1314SOL     OW15574   0.809   3.432   5.271 -0.1054  0.1168 -0.4699
 1314SOL    HW115575   0.841   3.507   5.322  0.1135 -0.5732  0.4016
 1314SOL    HW215576   0.891   3.388   5.250 -1.0328 -2.2032  0.8466
 1315SOL     OW15577   0.757   1.711   3.735  0.2342 -0.4393 -0.5321
 1315SOL    HW115578   0.690   1.773   3.763 -1.4609 -2.2725 -0.5113
 1315SOL    HW215579   0.802   1.688   3.816 -0.5456  0.9210  0.2755
 1316SOL     OW15580   4.435   1.913  14.357 -0.5201  0.1683  0.1164
 1316SOL    HW115581   4.357   1.952  14.396 -0.3973  0.8697 -0.3358
 1316SOL    HW215582   4.419   1.922  14.263 -0.4865 -1.9058 -0.0759
 1317SOL     OW15583   1.031   2.355   6.290  0.3424  0.0616  0.0821
 1317SOL    HW115584   1.097   2.299   6.332 -0.2756 -0.8290 -0.1319
 1317SOL    HW215585   1.091   2.415   6.247  1.2512 -0.9078 -0.0157
 1318SOL     OW15586   4.134   3.187   9.551  0.2421 -0.9207 -0.1646
 1318SOL    HW115587   4.135   3.128   9.626  1.6811 -0.0157  0.5374
 1318SOL    HW215588   4.219   3.231   9.543  1.3975 -3.1336 -0.0196
 1319SOL     OW15589   1.469   2.335  13.033 -0.2441  0.1791 -0.7155
 1319SOL    HW115590   1.428   2.386  12.963  0.5189 -0.1089 -1.3775
 1319SOL    HW215591   1.443   2.243  13.021 -0.3212 -0.1653  2.0701
 1320SOL     OW15592   0.624   3.751   2.072  0.0158 -0.2541 -0.3389
 1320SOL    HW115593   0.659   3.727   2.158  1.7450 -1.2191 -1.3201
 1320SOL    HW215594   0.694   3.804   2.036 -0.0582 -0.5219 -0.8770
 1321SOL     OW15595   1.353   1.792   5.437  0.1998 -1.1141  0.0712
 1321SOL    HW115596   1.260   1.814   5.423  1.1194  0.8121 -3.1647
 1321SOL    HW215597   1.381   1.764   5.350  0.0706 -1.2914  0.0872
 1322SOL     OW15598   0.174   3.594   7.194  0.0650 -0.0400 -0.0572
 1322SOL    HW115599   0.255   3.622   7.151  0.4259  0.4516  0.9280
 1322SOL    HW215600   0.179   3.505   7.159 -1.5504  0.2692 -1.0592
 1323SOL     OW15601   3.577   2.686   6.308  0.1092  0.0339  0.0055
 1323SOL    HW115602   3.533   2.756   6.258 -0.8785  1.1372  2.4412
 1323SOL    HW215603   3.602   2.728   6.390 -0.0518 -0.7293  0.4398
 1324SOL     OW15604   4.256   2.699  10.451  0.1061  0.3128  0.0492
 1324SOL    HW115605   4.253   2.621  10.506  0.4951  0.4785  0.3093
 1324SOL    HW215606   4.345   2.695  10.415 -0.1344 -1.0131 -0.3874
 1325SOL     OW15607   0.504   1.132   1.940  0.1471 -0.3250 -0.2088
 1325SOL    HW115608   0.434   1.132   2.005 -0.4827 -0.8747 -0.8961
 1325SOL    HW215609   0.451   1.178   1.876  0.3048  2.6069  1.7736
 1326SOL     OW15610   3.664   1.810   8.798  0.1359  0.1972 -0.0462
 1326SOL    HW115611   3.655   1.905   8.803 -0.8516  0.0746  0.5889
 1326SOL    HW215612   3.582   1.780   8.758  0.2251  1.1740 -0.9660
 1327SOL     OW15613   2.411   2.155   5.517  0.7986  0.3274 -0.2293
 1327SOL    HW115614   2.441   2.096   5.585  0.0954 -0.0670 -0.2645
 1327SOL    HW215615   2.364   2.091   5.464  2.9547 -1.3880 -0.0996
 1328SOL     OW15616   1.027   0.794  16.538  0.2798 -0.1104  0.0740
 1328SOL    HW115617   1.052   0.702  16.544  2.2147  0.4817  1.1446
 1328SOL    HW215618   0.949   0.784  16.484 -0.9065  1.0628  1.5646
 1329SOL     OW15619   0.365   3.554   4.541 -0.1762 -0.4706 -0.0636
 1329SOL    HW115620   0.447   3.602   4.551 -1.2645  0.9902  1.7831
 1329SOL    HW215621   0.351   3.521   4.630 -1.0091  0.6280  0.2121
 1330SOL     OW15622   4.031   2.970   2.906 -0.1543 -0.5169 -0.0710
 1330SOL    HW115623   4.069   2.935   2.825 -2.2518 -2.2541 -0.3003
 1330SOL    HW215624   3.961   3.023   2.869  0.3468 -0.0635 -0.3732
 1331SOL     OW15625   2.021   4.343   3.582 -0.0577 -0.0239  0.6585
 1331SOL    HW115626   2.023   4.416   3.643 -2.2878  2.5428 -2.3701
 1331SOL    HW215627   2.079   4.282   3.627 -2.7255 -2.7132  0.4717
 1332SOL     OW15628   0.201   2.696  14.803  0.0050 -0.3997 -0.6597
 1332SOL    HW115629   0.189   2.655  14.717  0.2489  1.3520 -1.5428
 1332SOL    HW215630   0.167   2.785  14.793 -1.0346 -0.8352 -0.9553
 1333SOL     OW15631   0.953   0.696   2.528 -0.4490 -0.5730 -0.0198
 1333SOL    HW115632   0.924   0.664   2.442 -0.4112  0.3668 -0.3894
 1333SOL    HW215633   1.046   0.678   2.517 -0.2980  1.0495 -1.4636
 1334SOL     OW15634   0.770   2.040   4.361 -0.2955  0.2102  0.8801
 1334SOL    HW115635   0.679   2.072   4.362 -0.6973 -0.9038  0.2128
 1334SOL    HW215636   0.776   2.020   4.268  2.4864  1.1616  0.8569
 1335SOL     OW15637   4.336   1.514   9.522  0.1036  0.1541  0.4990
 1335SOL    HW115638   4.388   1.593   9.535 -1.5828  1.0984  1.4923
 1335SOL    HW215639   4.310   1.537   9.433 -2.5098 -0.3306  1.1249
 1336SOL     OW15640   2.722   3.471   0.256 -0.6978 -0.4426  0.1043
 1336SOL    HW115641   2.733   3.552   0.206  0.3106 -1.0277 -0.6378
 1336SOL    HW215642   2.640   3.444   0.214 -0.6690 -0.5893  0.1417
 1337SOL     OW15643   1.728   4.404   5.721 -0.8765  0.5408 -0.1762
 1337SOL    HW115644   1.758   4.491   5.696  0.3521 -0.4941 -2.2718
 1337SOL    HW215645   1.656   4.402   5.658  0.0856  1.4308 -1.2840
 1338SOL     OW15646   1.151   2.022  14.466  0.4149 -0.2232 -0.4531
 1338SOL    HW115647   1.165   2.003  14.373 -0.3459  0.3572 -0.6870
 1338SOL    HW215648   1.131   2.115  14.465  1.0431 -0.0872 -0.3669
 1339SOL     OW15649   1.872   1.058   7.422  0.1680  0.1327  0.1927
 1339SOL    HW115650   1.935   0.987   7.414 -1.6636 -1.2322 -2.0605
 1339SOL    HW215651   1.808   1.012   7.476  1.1608 -0.2855  0.9984
 1340SOL     OW15652   1.420   3.718   2.818 -0.0431  0.5470  0.1299
 1340SOL    HW115653   1.466   3.639   2.791  0.9924  1.2289 -0.0762
 1340SOL    HW215654   1.362   3.721   2.742  1.4699 -1.4602 -1.1157
 1341SOL     OW15655   2.492   0.591   4.792 -0.0395  0.4374  0.3637
 1341SOL    HW115656   2.450   0.592   4.706 -2.1338 -2.7798  1.3204
 1341SOL    HW215657   2.457   0.667   4.840 -0.1111  1.2179 -0.9204
 1342SOL     OW15658   1.590   3.837   8.385  0.3613 -0.1538 -0.5095
 1342SOL    HW115659   1.561   3.765   8.329 -0.6785 -0.7166  0.7645
 1342SOL    HW215660   1.661   3.873   8.332  1.1640 -1.0592 -0.0588
 1343SOL     OW15661   4.513   3.156   8.152 -0.0247  0.1613  0.4367
 1343SOL    HW115662   4.519   3.207   8.233 -2.2695  0.6152  0.3184
 1343SOL    HW215663   4.429   3.111   8.164 -0.5484  1.4463  1.4941
 1344SOL     OW15664   2.125   2.091  12.147 -0.0658 -0.5540  0.2285
 1344SOL    HW115665   2.169   2.022  12.098 -0.3527 -0.5146 -0.0843
 1344SOL    HW215666   2.094   2.149  12.078 -0.9933 -0.4950  0.6990
 1345SOL     OW15667   0.710   3.619   8.787  0.1323  0.4608  0.4617
 1345SOL    HW115668   0.692   3.569   8.707 -1.7797 -0.0571  1.2262
 1345SOL    HW215669   0.623   3.609   8.824 -0.1398  0.6964 -0.1161
 1346SOL     OW15670   2.661   1.322  12.872 -0.4170  0.3190 -0.1847
 1346SOL    HW115671   2.651   1.415  12.852 -1.4655  0.4012  0.7363
 1346SOL    HW215672   2.647   1.313  12.966 -0.8431  0.6246 -0.2211
 1347SOL     OW15673   4.259   1.023  13.570  0.2182  0.7956  0.6676
 1347SOL    HW115674   4.290   1.033  13.480 -2.1845  2.7040  0.0665
 1347SOL    HW215675   4.165   1.033  13.554  0.0079 -1.9484  0.1931
 1348SOL     OW15676   2.304   1.738   9.074  0.0633  0.3098 -0.3983
 1348SOL    HW115677   2.223   1.715   9.119  1.8750 -0.4927  2.4330
 1348SOL    HW215678   2.266   1.772   8.993  1.0976  1.5594 -0.3673
 1349SOL     OW15679   2.804   3.462   1.924  0.1227 -0.2175  0.3471
 1349SOL    HW115680   2.717   3.491   1.897  0.8121  2.8426  1.4155
 1349SOL    HW215681   2.800   3.381   1.873 -1.6255 -0.2508  0.5306
 1350SOL     OW15682   0.102   4.655   4.076  0.8392  0.4083 -0.0516
 1350SOL    HW115683   0.015   4.660   4.115  0.3150 -1.9795 -0.9009
 1350SOL    HW215684   0.139   0.005   4.084 -2.0832  1.7556 -1.2473
 1351SOL     OW15685   3.452   1.979   8.181 -0.5379 -0.2153  0.0929
 1351SOL    HW115686   3.411   1.904   8.139  1.3434 -1.8711  1.2024
 1351SOL    HW215687   3.433   2.046   8.116 -0.8613 -0.7451 -0.3603
 1352SOL     OW15688   4.273   1.459  14.629 -0.0195 -0.0193 -0.1594
 1352SOL    HW115689   4.318   1.515  14.565 -1.7959  0.7010 -0.7904
 1352SOL    HW215690   4.252   1.525  14.695 -1.0674 -0.1339 -0.3825
 1353SOL     OW15691   4.707   3.573  16.940  0.0086  0.4310  0.6569
 1353SOL    HW115692   0.021   3.653  16.928  0.7255  0.0277  0.9979
 1353SOL    HW215693   4.658   3.569  16.858  2.4008 -4.0846 -0.5649
 1354SOL     OW15694   1.085   3.070   8.376  0.2473  0.0871  0.0163
 1354SOL    HW115695   1.177   3.053   8.357 -0.3089 -0.2990 -2.3428
 1354SOL    HW215696   1.081   3.116   8.460  0.8567  3.2801 -1.7003
 1355SOL     OW15697   0.929   2.414  11.071  0.5108 -0.8482 -0.0197
 1355SOL    HW115698   1.000   2.364  11.030  0.4236  0.6413 -1.9467
 1355SOL    HW215699   0.981   2.494  11.068 -1.8148  0.6856  1.3632
 1356SOL     OW15700   0.803   0.065   8.384 -0.1358 -0.1583 -0.1019
 1356SOL    HW115701   0.895   0.039   8.393  0.1787  1.1905  0.5421
 1356SOL    HW215702   0.820   0.121   8.308  1.2927  0.0325  0.3493
 1357SOL     OW15703   1.170   0.265   6.807 -0.3850  0.3510 -0.0380
 1357SOL    HW115704   1.130   0.311   6.733 -0.1746 -2.2957 -1.8072
 1357SOL    HW215705   1.263   0.283   6.793 -0.1176 -0.2438  0.9681
 1358SOL     OW15706   4.189   3.483  10.362 -0.2839 -0.1350 -0.3912
 1358SOL    HW115707   4.161   3.417  10.298 -0.4463 -0.3814 -0.0692
 1358SOL    HW215708   4.200   3.427  10.440  0.4580  0.7085  0.1079
 1359SOL     OW15709   0.648   1.582   8.998  0.4372 -0.4703 -0.0202
 1359SOL    HW115710   0.608   1.664   8.971 -1.4457 -0.9273  1.3612
 1359SOL    HW215711   0.594   1.569   9.076 -0.9897  0.5875 -0.8380
 1360SOL     OW15712   3.728   1.557  13.426 -0.2917  0.0683 -0.3892
 1360SOL    HW115713   3.667   1.617  13.382  0.8376 -0.1453 -2.2506
 1360SOL    HW215714   3.711   1.578  13.518  3.2231 -2.2796  0.7879
 1361SOL     OW15715   3.153   3.541   7.560 -0.0074 -0.5936 -0.1774
 1361SOL    HW115716   3.166   3.485   7.636 -0.8366 -0.6378 -0.0611
 1361SOL    HW215717   3.169   3.625   7.602 -2.8802 -0.6625  1.0821
 1362SOL     OW15718   0.907   1.378  17.195 -0.4232 -0.6001  0.3003
 1362SOL    HW115719   0.977   1.317  17.218 -1.1096 -1.4873  0.0642
 1362SOL    HW215720   0.962   1.454  17.178 -0.3610 -0.3824  1.4843
 1363SOL     OW15721   0.502   2.239   1.239  0.0180  0.3487 -0.3554
 1363SOL    HW115722   0.429   2.201   1.190 -0.4127  1.6408 -0.7195
 1363SOL    HW215723   0.486   2.196   1.323  2.2797 -0.2446 -0.2086
 1364SOL     OW15724   2.682   4.486   1.923  0.4425 -0.0617 -0.2442
 1364SOL    HW115725   2.611   4.538   1.884  1.5510  1.5952 -0.0533
 1364SOL    HW215726   2.635   4.461   2.003 -0.2992  3.1146  0.3023
 1365SOL     OW15727   2.429   2.262   9.397 -0.4191  0.0229 -0.0867
 1365SOL    HW115728   2.347   2.305   9.421 -0.7969  0.2519 -1.7809
 1365SOL    HW215729   2.398   2.173   9.377  1.8404 -0.4645 -1.4270
 1366SOL     OW15730   4.545   3.699   1.588 -0.4657 -0.7568 -0.3547
 1366SOL    HW115731   4.497   3.703   1.671 -1.6053 -1.0700 -1.0012
 1366SOL    HW215732   4.625   3.656   1.618 -0.3066 -0.2947 -0.1104
 1367SOL     OW15733   2.958   3.156  17.563  0.0750 -0.3704 -0.0730
 1367SOL    HW115734   2.951   3.191  17.652  4.4969  2.5084 -0.8884
 1367SOL    HW215735   3.015   3.084  17.587  0.5826 -0.6535 -2.1468
 1368SOL     OW15736   0.306   1.503  11.955 -0.0956  0.4026 -0.3171
 1368SOL    HW115737   0.398   1.518  11.933  0.5289 -1.3714  1.1277
 1368SOL    HW215738   0.321   1.516  12.048  0.9824 -0.3434 -0.3878
 1369SOL     OW15739   2.643   2.518   5.683 -0.7903  0.4175 -0.1388
 1369SOL    HW115740   2.648   2.429   5.719  2.0156 -0.0207 -1.6432
 1369SOL    HW215741   2.666   2.572   5.759  2.0611 -1.6452  0.4891
 1370SOL     OW15742   3.357   0.295  16.546  0.2778  0.1690 -0.5000
 1370SOL    HW115743   3.442   0.255  16.530  0.0219 -0.5240 -0.1566
 1370SOL    HW215744   3.343   0.346  16.466  0.7056 -3.0968 -2.6256
 1371SOL     OW15745   4.501   2.681   5.550 -0.1768  0.5046 -1.0583
 1371SOL    HW115746   4.557   2.647   5.619  0.7956 -1.3100 -2.7426
 1371SOL    HW215747   4.557   2.747   5.509  1.5206  0.8414  1.8302
 1372SOL     OW15748   2.963   2.703   2.218  0.6696  0.2239 -0.0355
 1372SOL    HW115749   2.974   2.796   2.240  3.0749  0.1223 -0.7586
 1372SOL    HW215750   3.039   2.692   2.160  1.5311  2.3681  0.6902
 1373SOL     OW15751   3.390   3.059   6.239  0.4053  0.3650 -1.1744
 1373SOL    HW115752   3.390   2.971   6.202 -1.3706 -0.0142 -0.2670
 1373SOL    HW215753   3.424   3.048   6.327  1.5949  0.8086 -1.5757
 1374SOL     OW15754   2.192   4.252   6.230  0.0591 -0.0294 -0.0964
 1374SOL    HW115755   2.235   4.181   6.278 -0.8157 -2.2779 -2.6874
 1374SOL    HW215756   2.269   4.297   6.196  0.2842  1.1084  1.8792
 1375SOL     OW15757   2.166   1.837   8.845 -0.0661 -0.2341  0.6486
 1375SOL    HW115758   2.151   1.827   8.751 -1.2496 -1.1800  0.9482
 1375SOL    HW215759   2.075   1.835   8.873  0.4828 -0.7532  2.4077
 1376SOL     OW15760   2.873   4.711   8.706  0.1997 -0.0077 -0.0261
 1376SOL    HW115761   2.783   4.708   8.674  0.7267 -3.2179 -1.2413
 1376SOL    HW215762   2.867   4.711   8.802 -0.7231  2.9957 -0.0964
 1377SOL     OW15763   1.324   0.683  15.152  0.6090 -0.2403  0.3640
 1377SOL    HW115764   1.287   0.758  15.106 -0.4801  0.0335  1.6666
 1377SOL    HW215765   1.397   0.650  15.099  2.5793  0.8611  2.4046
 1378SOL     OW15766   2.789   4.648  17.084  0.0420  0.2839  0.4350
 1378SOL    HW115767   2.816   4.595  17.009 -0.5486  1.4472 -0.5927
 1378SOL    HW215768   2.776   4.571  17.140 -1.5139 -0.3914 -0.8356
 1379SOL     OW15769   1.851   3.589   5.659  0.2983  0.3162  0.5345
 1379SOL    HW115770   1.938   3.551   5.646 -1.7397 -3.5472 -1.8102
 1379SOL    HW215771   1.814   3.619   5.576  1.4298 -0.0190 -0.1013
 1380SOL     OW15772   1.130   1.102  10.619  0.3630 -0.0180  0.3125
 1380SOL    HW115773   1.113   1.010  10.642 -0.6500  0.0673 -0.1161
 1380SOL    HW215774   1.154   1.098  10.527 -0.9808 -0.6933 -0.0081
 1381SOL     OW15775   2.955   0.821   3.112 -0.6607 -0.1733 -0.0211
 1381SOL    HW115776   3.019   0.763   3.071 -1.8718 -0.2632 -1.8036
 1381SOL    HW215777   2.884   0.806   3.049 -0.2685  0.1704 -0.5448
 1382SOL     OW15778   0.281   0.444   2.608 -0.2131 -0.4025 -0.2038
 1382SOL    HW115779   0.282   0.533   2.573  0.1563 -0.2506  0.1855
 1382SOL    HW215780   0.187   0.426   2.611 -0.1902 -0.6525 -1.0028
 1383SOL     OW15781   4.238   3.421   8.356 -0.8052  0.4848  0.7398
 1383SOL    HW115782   4.267   3.511   8.339 -0.8391  0.5640  1.0969
 1383SOL    HW215783   4.174   3.411   8.286 -0.0279 -0.5941  0.1837
 1384SOL     OW15784   3.179   4.171   1.564 -0.1391  0.3818  0.3983
 1384SOL    HW115785   3.195   4.130   1.649 -3.0234 -0.0489  0.7681
 1384SOL    HW215786   3.147   4.257   1.590 -0.8910 -0.3174  1.8237
 1385SOL     OW15787   0.969   3.182   9.073  0.5592 -0.9615 -0.1377
 1385SOL    HW115788   0.890   3.130   9.085 -0.3025  0.2001 -0.6801
 1385SOL    HW215789   0.961   3.243   9.147  0.4335 -1.4166  0.2266
 1386SOL     OW15790   1.837   1.791   2.011 -0.3183  0.0486 -0.3970
 1386SOL    HW115791   1.875   1.830   2.090 -1.3027  1.9978 -0.8817
 1386SOL    HW215792   1.813   1.870   1.963  1.8705  0.1228 -1.3664
 1387SOL     OW15793   3.831   0.066   9.569 -0.1284  0.6001 -0.6966
 1387SOL    HW115794   3.918   0.100   9.591  0.1295  0.1517 -1.0355
 1387SOL    HW215795   3.840   0.074   9.474 -0.4421 -2.8760 -1.0048
 1388SOL     OW15796   3.698   2.700  15.208  0.4200 -0.6359 -0.8627
 1388SOL    HW115797   3.736   2.727  15.124 -0.6156  0.1075 -1.0855
 1388SOL    HW215798   3.719   2.780  15.256 -1.7098 -0.5873 -0.0374
 1389SOL     OW15799   2.040   1.098  14.520 -0.2365 -0.0919 -0.1602
 1389SOL    HW115800   2.032   1.041  14.443  1.8769 -0.2197 -0.2930
 1389SOL    HW215801   1.963   1.072  14.570  0.2281  1.4155  1.2995
 1390SOL     OW15802   1.994   2.121   9.690  0.0539  0.9785 -0.7199
 1390SOL    HW115803   1.939   2.172   9.749 -1.5866  0.2682 -1.6274
 1390SOL    HW215804   1.990   2.043   9.746  1.7740  0.5449 -1.1847
 1391SOL     OW15805   2.527   4.185   4.649 -0.8514 -0.2476 -0.0018
 1391SOL    HW115806   2.486   4.107   4.687 -0.6251 -0.1268  0.4906
 1391SOL    HW215807   2.465   4.198   4.577 -1.0998 -1.3094  0.0180
 1392SOL     OW15808   0.643   2.206   7.828 -0.4802  0.0460 -0.3207
 1392SOL    HW115809   0.588   2.168   7.896 -1.4507 -0.9515 -1.6731
 1392SOL    HW215810   0.680   2.130   7.783 -1.4498 -1.0443  0.7149
 1393SOL     OW15811   4.212   1.261  11.354 -0.7154  0.2814 -0.3256
 1393SOL    HW115812   4.186   1.169  11.345  1.1184 -0.3265  0.5633
 1393SOL    HW215813   4.166   1.298  11.430  0.0330  1.2319 -0.3319
 1394SOL     OW15814   0.496   2.332   2.405  0.1328 -0.1205  0.0319
 1394SOL    HW115815   0.401   2.323   2.406  0.1332  0.1403  2.4659
 1394SOL    HW215816   0.514   2.281   2.326 -1.5420  0.3303 -0.6373
 1395SOL     OW15817   0.300   1.723  16.430  0.3369 -0.1882  0.2312
 1395SOL    HW115818   0.245   1.747  16.355  0.9161 -0.1417 -0.1760
 1395SOL    HW215819   0.232   1.727  16.498 -0.6744 -1.6368 -0.6910
 1396SOL     OW15820   1.311   0.361  17.198  0.2750  0.2233  0.4209
 1396SOL    HW115821   1.364   0.284  17.217 -1.5192 -0.7120  1.6109
 1396SOL    HW215822   1.267   0.380  17.281  0.8731  2.3438  0.2572
 1397SOL     OW15823   2.443   0.584   8.733 -0.8431 -0.1177 -0.3030
 1397SOL    HW115824   2.402   0.504   8.700 -0.4165 -0.4690  0.0237
 1397SOL    HW215825   2.369   0.645   8.741 -0.3244  0.5696 -0.7565
 1398SOL     OW15826   0.773   2.892   1.460 -0.1567 -0.2168 -0.2239
 1398SOL    HW115827   0.699   2.855   1.509  1.4502 -2.0249  0.7968
 1398SOL    HW215828   0.843   2.896   1.525 -1.8467 -4.0378  1.8438
 1399SOL     OW15829   2.574   1.651   5.474  0.2171  0.3676  0.4776
 1399SOL    HW115830   2.619   1.589   5.532 -0.4773 -2.4103 -1.9725
 1399SOL    HW215831   2.483   1.637   5.501 -1.2098  0.6824 -4.2580
 1400SOL     OW15832   4.153   4.677   9.288  0.4633 -0.4605 -0.4793
 1400SOL    HW115833   4.105   4.608   9.334 -0.0235 -0.8004 -1.4957
 1400SOL    HW215834   4.206   4.713   9.360 -1.1074 -0.1716  0.5295
 1401SOL     OW15835   0.946   0.596   5.234 -0.3354  0.5538  0.3827
 1401SOL    HW115836   0.878   0.581   5.168  0.1967 -0.7933  0.1233
 1401SOL    HW215837   0.955   0.504   5.259  0.4365 -0.2051 -2.6307
 1402SOL     OW15838   1.228   3.062   4.830 -0.2073 -0.4549  0.6917
 1402SOL    HW115839   1.282   3.133   4.794 -2.7476  0.7972 -0.6968
 1402SOL    HW215840   1.299   3.001   4.848  0.5263 -0.3380 -1.7992
 1403SOL     OW15841   1.724   3.873   4.621  0.7419  0.4727  0.3029
 1403SOL    HW115842   1.748   3.955   4.578  2.5283 -0.7289 -0.9592
 1403SOL    HW215843   1.700   3.822   4.544 -2.4036 -0.0392  1.5920
 1404SOL     OW15844   4.448   4.485   8.482 -0.0780  0.0557  0.3755
 1404SOL    HW115845   4.503   4.530   8.417 -2.4612  0.5143 -1.3169
 1404SOL    HW215846   4.480   4.509   8.569 -0.4733 -0.1446  0.5765
 1405SOL     OW15847   3.895   0.762   2.935 -0.5066  0.0696  0.0065
 1405SOL    HW115848   3.892   0.756   2.839  0.9625 -0.5882  0.0087
 1405SOL    HW215849   3.824   0.701   2.958  1.1910 -1.7405  0.3739
 1406SOL     OW15850   1.443   2.467  15.784  0.7667  0.4737 -0.1943
 1406SOL    HW115851   1.396   2.384  15.778 -0.5056  1.1343  0.4927
 1406SOL    HW215852   1.513   2.434  15.728 -0.3101 -4.9154  1.7025
 1407SOL     OW15853   0.306   2.653  12.042 -0.1155  0.7104 -0.7594
 1407SOL    HW115854   0.370   2.671  11.973  0.2274 -0.0397 -0.6425
 1407SOL    HW215855   0.339   2.695  12.121  0.4322  0.5336 -0.8956
 1408SOL     OW15856   2.443   1.101   7.901  0.2366  0.7232  0.6326
 1408SOL    HW115857   2.448   1.141   7.988 -2.3085  0.0531  1.0716
 1408SOL    HW215858   2.394   1.162   7.847  0.5145  2.1201  1.9430
 1409SOL     OW15859   0.663   1.198   8.890  0.3650 -0.0425  0.2271
 1409SOL    HW115860   0.745   1.177   8.935 -0.1855 -1.6210  0.5303
 1409SOL    HW215861   0.605   1.138   8.938  0.9163 -0.5401  0.2778
 1410SOL     OW15862   1.923   2.309   3.754  0.3087  0.1466 -0.1329
 1410SOL    HW115863   1.942   2.251   3.828  3.0110 -0.8271 -1.6072
 1410SOL    HW215864   1.980   2.293   3.679  1.4768 -0.2388  0.8309
 1411SOL     OW15865   2.116   2.150  16.305 -0.3237  0.4229  0.4803
 1411SOL    HW115866   2.069   2.113  16.230  1.1344  0.6021 -0.5119
 1411SOL    HW215867   2.166   2.223  16.269  0.9016 -0.4989  0.2997
 1412SOL     OW15868   1.496   2.433   4.207  0.0500 -0.1246  0.1654
 1412SOL    HW115869   1.544   2.408   4.127 -1.4626 -1.0177 -0.4627
 1412SOL    HW215870   1.527   2.360   4.261  2.1250 -0.3309 -1.2517
 1413SOL     OW15871   2.621   1.246   3.392 -0.0882  0.3089 -0.4983
 1413SOL    HW115872   2.609   1.292   3.475  2.2407 -1.0430  0.5577
 1413SOL    HW215873   2.613   1.316   3.327  0.5629  0.5123 -0.3634
 1414SOL     OW15874   0.190   4.587   3.818  0.2040  0.2457  0.5156
 1414SOL    HW115875   0.238   4.665   3.792  2.4950 -1.2927  0.1667
 1414SOL    HW215876   0.144   4.629   3.892 -0.1092 -0.5568  0.7798
 1415SOL     OW15877   1.702   2.181   9.845  0.3479 -0.0950 -0.1374
 1415SOL    HW115878   1.683   2.125   9.920 -2.7584  1.2241  0.0666
 1415SOL    HW215879   1.702   2.117   9.774 -0.0393  0.9634 -1.0960
 1416SOL     OW15880   2.331   4.084  15.073  0.5505 -0.1267  0.0912
 1416SOL    HW115881   2.312   3.990  15.072  0.1181 -0.0399  0.2845
 1416SOL    HW215882   2.329   4.100  15.167 -1.2008 -1.2694  0.2367
 1417SOL     OW15883   4.433   3.530   8.688 -0.1536  0.5774  0.3333
 1417SOL    HW115884   4.432   3.583   8.608 -3.6107  1.0037  0.6562
 1417SOL    HW215885   4.440   3.586   8.765  2.2382 -0.6656  1.0468
 1418SOL     OW15886   1.535   1.914   2.232 -0.0432  0.2575  0.2013
 1418SOL    HW115887   1.484   1.852   2.180  0.9559 -0.2549 -0.1832
 1418SOL    HW215888   1.596   1.852   2.272  0.6389  2.0443  1.9134
 1419SOL     OW15889   0.240   0.138   7.900  0.3128 -0.3366  0.1184
 1419SOL    HW115890   0.310   0.193   7.864 -0.0051 -0.4090 -0.6074
 1419SOL    HW215891   0.264   0.052   7.863  0.3804 -0.0045 -0.6113
 1420SOL     OW15892   2.330   0.651   6.541  0.1216  0.3742  0.4891
 1420SOL    HW115893   2.370   0.737   6.538 -0.5321  0.6450 -0.3902
 1420SOL    HW215894   2.252   0.665   6.596 -1.1678 -2.1713 -0.6759
 1421SOL     OW15895   4.040   4.288   7.653  0.3043  0.3041 -0.1289
 1421SOL    HW115896   4.130   4.257   7.662  0.6680  0.8592 -1.7917
 1421SOL    HW215897   4.011   4.255   7.738  0.2232 -2.9069 -1.3939
 1422SOL     OW15898   2.074   3.540   9.516  0.9268 -0.2783 -0.2310
 1422SOL    HW115899   2.002   3.478   9.509  0.0657  0.7090 -0.1041
 1422SOL    HW215900   2.084   3.570   9.426 -0.4976 -0.2239 -0.3735
 1423SOL     OW15901   0.588   3.149   3.897  0.1451  0.0049 -0.1151
 1423SOL    HW115902   0.498   3.140   3.928 -0.5048  0.4689 -1.8698
 1423SOL    HW215903   0.609   3.229   3.947  0.0776  0.1734 -0.3551
 1424SOL     OW15904   0.981   4.138   4.579 -0.0690  0.7255  0.3549
 1424SOL    HW115905   1.062   4.124   4.531 -0.2491  0.1676  0.2140
 1424SOL    HW215906   0.932   4.060   4.551 -2.3339  1.6573  1.7019
 1425SOL     OW15907   2.353   4.087   5.910  0.8581 -0.6409 -0.3247
 1425SOL    HW115908   2.284   4.139   5.870 -1.5318 -4.0993 -0.7569
 1425SOL    HW215909   2.375   4.147   5.981  2.3878 -1.1572 -0.3584
 1426SOL     OW15910   1.401   1.219  17.718  0.0105 -0.6475  0.1691
 1426SOL    HW115911   1.473   1.279  17.735 -0.9712  0.5249  0.1666
 1426SOL    HW215912   1.346   1.238   0.046  1.0032 -1.3362  1.0701
 1427SOL     OW15913   4.394   1.214   4.200 -0.0554  0.0478 -0.1338
 1427SOL    HW115914   4.373   1.288   4.258  0.6371  1.9295 -2.2693
 1427SOL    HW215915   4.365   1.248   4.115 -0.9581 -0.3056  0.0290
 1428SOL     OW15916   0.199   1.145   5.090 -0.1931  0.1044  0.2080
 1428SOL    HW115917   0.244   1.098   5.160  0.5662 -0.9882 -1.0152
 1428SOL    HW215918   0.259   1.130   5.017 -0.3688 -1.7061  0.4419
 1429SOL     OW15919   0.546   4.583   7.690  0.8348 -0.4567 -0.3687
 1429SOL    HW115920   0.462   4.625   7.708  0.4586 -0.3865 -2.2428
 1429SOL    HW215921   0.602   4.622   7.757 -0.5201  1.9524 -0.6146
 1430SOL     OW15922   2.650   2.478   5.106  0.1612  0.0292  0.2778
 1430SOL    HW115923   2.735   2.462   5.147  1.1832 -1.4709 -2.4189
 1430SOL    HW215924   2.591   2.415   5.147  1.1267 -1.3540 -0.4808
 1431SOL     OW15925   2.000   4.702   0.092  0.2356 -0.5686 -0.6766
 1431SOL    HW115926   2.091   4.726   0.109  0.6026 -1.6978 -0.9870
 1431SOL    HW215927   1.971   0.019   0.019 -1.4612 -0.7309 -0.1067
 1432SOL     OW15928   1.399   4.608   4.048  0.5680  0.4437 -0.3822
 1432SOL    HW115929   1.312   4.622   4.085  0.9112 -1.1668  1.0583
 1432SOL    HW215930   1.394   4.602   3.953  0.0719 -0.0957 -0.3190
 1433SOL     OW15931   4.172   3.511   3.357  0.1522  0.6101  0.2373
 1433SOL    HW115932   4.153   3.540   3.267 -0.6892  0.2044  0.2958
 1433SOL    HW215933   4.088   3.541   3.392 -0.7220  0.8205 -2.0112
 1434SOL     OW15934   0.689   2.660   9.613 -0.3201 -0.5180  0.2742
 1434SOL    HW115935   0.593   2.669   9.616 -0.3176 -0.8435  1.1580
 1434SOL    HW215936   0.712   2.735   9.668  0.3842 -1.9542  1.9179
 1435SOL     OW15937   1.228   1.303   7.142  0.3568  0.4137 -0.5302
 1435SOL    HW115938   1.151   1.247   7.144 -0.8790  2.1139 -0.1835
 1435SOL    HW215939   1.263   1.294   7.054  0.1440  0.7654 -0.6518
 1436SOL     OW15940   4.687   3.114   6.235  0.1431 -0.4148 -0.6915
 1436SOL    HW115941   0.035   3.142   6.268 -0.2077  0.5020 -0.5809
 1436SOL    HW215942   4.623   3.162   6.288  2.0176 -1.1055  2.2187
 1437SOL     OW15943   3.319   4.169  13.501 -0.2704  0.2340 -0.0743
 1437SOL    HW115944   3.350   4.129  13.420  0.5833  0.3704  0.1886
 1437SOL    HW215945   3.362   4.254  13.498 -0.0821  0.1114 -0.6963
 1438SOL     OW15946   3.283   0.390  15.382  0.7323  0.1734  0.0947
 1438SOL    HW115947   3.205   0.361  15.430  1.1836  1.1831  1.4493
 1438SOL    HW215948   3.350   0.338  15.428 -0.5702  0.2300  2.0553
 1439SOL     OW15949   4.004   1.258   7.321  0.3275  0.6941 -0.2079
 1439SOL    HW115950   4.078   1.298   7.275  0.4456  0.0405 -0.5920
 1439SOL    HW215951   4.023   1.165   7.304 -0.3423  0.5589 -0.2293
 1440SOL     OW15952   4.636   2.822   4.640 -0.5567 -0.1051  0.1522
 1440SOL    HW115953   4.616   2.866   4.558 -1.2599  0.7145  0.7604
 1440SOL    HW215954   4.555   2.773   4.658 -1.0156  0.2260 -0.9850
 1441SOL     OW15955   2.254   0.355   1.641 -0.8449 -0.2649 -0.2389
 1441SOL    HW115956   2.201   0.395   1.572 -2.1943 -1.9366 -0.1524
 1441SOL    HW215957   2.251   0.268   1.602  1.6648  0.2509 -1.6455
 1442SOL     OW15958   4.655   1.249   6.762 -0.3060 -0.3619  0.6129
 1442SOL    HW115959   4.731   1.203   6.797  0.4194 -1.0783 -1.9738
 1442SOL    HW215960   4.608   1.177   6.720  0.4145 -0.0058 -0.7832
 1443SOL     OW15961   3.959   4.483  12.253 -0.7985  0.3946  0.3448
 1443SOL    HW115962   3.918   4.491  12.339 -0.6792 -2.3580  0.6459
 1443SOL    HW215963   3.968   4.389  12.241 -0.2865  0.4701  0.1347
 1444SOL     OW15964   1.676   1.844  10.644 -0.5771  0.4884 -0.1282
 1444SOL    HW115965   1.686   1.751  10.620 -0.2558  0.4355  0.2147
 1444SOL    HW215966   1.619   1.838  10.721 -1.2397 -1.3497 -0.7614
 1445SOL     OW15967   1.451   3.311   8.948  0.5433  0.6424  0.1297
 1445SOL    HW115968   1.359   3.329   8.965  0.0933 -1.9010  0.4190
 1445SOL    HW215969   1.447   3.261   8.865  1.6451  1.1850 -0.2470
 1446SOL     OW15970   0.212   4.382   8.884 -0.3250  0.0189 -0.2336
 1446SOL    HW115971   0.159   4.312   8.922 -0.5468 -0.0078 -0.5909
 1446SOL    HW215972   0.281   4.394   8.949 -1.4797  0.6318  0.8778
 1447SOL     OW15973   2.185   1.177   2.515 -0.0487  0.0967  0.1375
 1447SOL    HW115974   2.248   1.108   2.541 -0.6897 -0.2248  0.8417
 1447SOL    HW215975   2.118   1.180   2.583 -0.5285  1.1609 -0.3829
 1448SOL     OW15976   2.824   2.845   4.755 -0.2784 -0.0332  0.2431
 1448SOL    HW115977   2.904   2.793   4.755 -1.8968 -2.5577 -3.0695
 1448SOL    HW215978   2.771   2.801   4.822  0.6702 -0.6295  0.5927
 1449SOL     OW15979   2.909   0.025   5.780  0.3201 -0.4784 -0.6588
 1449SOL    HW115980   2.850   0.100   5.769  1.5446  0.5560 -0.2554
 1449SOL    HW215981   2.966   0.032   5.702 -0.9887  0.4208 -1.5349
 1450SOL     OW15982   4.136   3.018  16.828 -0.6331  0.1198 -0.4076
 1450SOL    HW115983   4.128   3.085  16.895 -0.7311  2.6404 -2.9120
 1450SOL    HW215984   4.230   3.025  16.810 -0.2717  0.3952  1.6894
 1451SOL     OW15985   2.640   4.011   2.787 -0.0718 -0.9498  0.1617
 1451SOL    HW115986   2.611   3.929   2.748 -2.6503 -0.8110  1.7559
 1451SOL    HW215987   2.569   4.021   2.850 -0.0152  0.4967 -0.0187
 1452SOL     OW15988   0.401   3.902   2.046  0.5379  0.2469  0.2373
 1452SOL    HW115989   0.431   3.962   1.977  0.9830  0.5774  0.7195
 1452SOL    HW215990   0.472   3.840   2.060 -2.8465 -3.6059  0.5303
 1453SOL     OW15991   1.064   3.748   5.648  0.7947  0.0061 -0.0320
 1453SOL    HW115992   1.093   3.838   5.667  4.4174 -1.2075  0.2326
 1453SOL    HW215993   1.139   3.688   5.654  0.0285 -1.1553 -2.0486
 1454SOL     OW15994   3.070   0.241  15.482  0.0293  0.0942 -0.4793
 1454SOL    HW115995   3.080   0.267  15.573 -2.0201 -1.3959  0.1695
 1454SOL    HW215996   3.089   0.147  15.478 -3.2878 -0.5441 -1.4933
 1455SOL     OW15997   3.473   4.229   6.199  0.2020  0.4786  0.4508
 1455SOL    HW115998   3.501   4.208   6.109  0.8972  1.4874  0.4338
 1455SOL    HW215999   3.379   4.224   6.179  0.7961 -1.9788 -1.8096
 1456SOL     OW16000   3.523   2.871   6.018 -0.1947  0.4513 -0.3936
 1456SOL    HW116001   3.452   2.843   6.074  2.7114  1.4595  3.8124
 1456SOL    HW216002   3.533   2.799   5.955  0.5022  0.0974  0.1262
 1457SOL     OW16003   0.946   3.958   5.796  0.1093  0.4371 -0.3978
 1457SOL    HW116004   1.011   3.983   5.862 -1.5749  1.4748  0.8771
 1457SOL    HW216005   0.919   3.877   5.839  2.2359  0.4999  1.0687
 1458SOL     OW16006   0.647   3.954   4.847 -0.1389  0.3619 -0.2382
 1458SOL    HW116007   0.617   3.870   4.814  2.0049  0.0040 -1.3052
 1458SOL    HW216008   0.575   3.976   4.906  0.7692 -0.7148  1.2700
 1459SOL     OW16009   4.089   3.013   8.366  0.1413 -0.0544  0.3425
 1459SOL    HW116010   4.117   3.021   8.275 -1.6140  1.4231 -0.0624
 1459SOL    HW216011   3.996   2.989   8.366 -0.2744  1.5059  2.5833
 1460SOL     OW16012   3.449   1.693   6.029  0.5218  0.2039 -0.0222
 1460SOL    HW116013   3.505   1.690   6.106  0.2570 -1.2754  0.1270
 1460SOL    HW216014   3.459   1.788   6.021 -1.1553  0.2902 -1.2374
 1461SOL     OW16015   3.427   3.176   8.254  0.2189  0.0449  0.1979
 1461SOL    HW116016   3.474   3.191   8.336 -0.8624 -2.4570  1.2615
 1461SOL    HW216017   3.344   3.220   8.274  0.6323  1.6416 -1.5552
 1462SOL     OW16018   1.820   2.273  10.517 -0.0538 -0.6181 -0.3160
 1462SOL    HW116019   1.872   2.297  10.594 -0.3291  1.1408 -0.6805
 1462SOL    HW216020   1.742   2.234  10.558  0.7523  0.0189  1.7994
 1463SOL     OW16021   4.161   0.424   0.417 -0.2184  0.7240  0.2927
 1463SOL    HW116022   4.178   0.337   0.452 -1.4505  0.9096  1.3456
 1463SOL    HW216023   4.073   0.445   0.448 -0.2213 -1.0155  1.4362
 1464SOL     OW16024   1.345   0.576   5.754 -0.9496  0.2460  0.2936
 1464SOL    HW116025   1.340   0.544   5.844  3.7335 -1.4289 -0.0536
 1464SOL    HW216026   1.310   0.504   5.701 -0.4691  0.5792 -0.4727
 1465SOL     OW16027   3.058   1.968   4.313 -0.0303  0.5896 -0.3746
 1465SOL    HW116028   3.030   1.877   4.310 -1.1494  0.9696 -1.6449
 1465SOL    HW216029   2.993   1.989   4.381  0.6330 -0.7478  0.6568
 1466SOL     OW16030   0.171   3.937   1.795 -0.5343 -0.2491  0.1252
 1466SOL    HW116031   0.199   3.960   1.707 -1.4319 -0.3582 -0.1881
 1466SOL    HW216032   0.181   4.022   1.837  0.6080 -0.6896  0.7771
 1467SOL     OW16033   1.547   0.815   4.930 -0.0998  0.1882 -0.0939
 1467SOL    HW116034   1.495   0.808   4.850  0.0051  1.8487 -0.3175
 1467SOL    HW216035   1.482   0.792   4.996  0.5545 -3.4330 -0.7545
 1468SOL     OW16036   2.735   0.454   7.852 -0.1982  0.1118  0.0459
 1468SOL    HW116037   2.791   0.465   7.775  1.2457  3.7808  1.5929
 1468SOL    HW216038   2.696   0.374   7.816 -2.0889  0.6196  0.9915
 1469SOL     OW16039   4.737   1.072   6.408  0.3841  0.2741  0.1155
 1469SOL    HW116040   4.660   1.129   6.415 -0.7714 -1.4360  1.5853
 1469SOL    HW216041   4.695   0.987   6.424  1.0203 -0.0812 -0.0976
 1470SOL     OW16042   2.633   2.305   2.675 -0.3238 -0.1825 -0.1412
 1470SOL    HW116043   2.607   2.395   2.654 -2.0773 -0.8575 -0.9055
 1470SOL    HW216044   2.556   2.259   2.709  0.6803  0.6250  3.2394
 1471SOL     OW16045   0.483   4.501  14.836 -0.3291 -0.1626  0.4694
 1471SOL    HW116046   0.564   4.544  14.811 -0.5668 -0.2359 -0.4097
 1471SOL    HW216047   0.522   4.456  14.912  1.0229 -1.1666 -0.8126
 1472SOL     OW16048   0.723   0.554   3.588 -0.0935  0.7573 -0.2859
 1472SOL    HW116049   0.641   0.519   3.554 -0.8080  1.6087  0.5742
 1472SOL    HW216050   0.769   0.569   3.505 -0.7311 -2.7200 -1.2822
 1473SOL     OW16051   0.492   0.817   6.110  0.0315 -0.1029 -0.3681
 1473SOL    HW116052   0.463   0.856   6.028  0.2137 -0.7592 -0.7507
 1473SOL    HW216053   0.544   0.884   6.154  0.7756 -0.7541 -0.2588
 1474SOL     OW16054   2.187   2.878   6.263  0.6551  0.2346 -0.0506
 1474SOL    HW116055   2.212   2.817   6.194  0.9469 -1.1960  1.3067
 1474SOL    HW216056   2.274   2.895   6.299  1.2166 -0.9777 -0.8331
 1475SOL     OW16057   3.354   4.421  12.175 -0.1402  0.0610  0.2318
 1475SOL    HW116058   3.333   4.348  12.116 -1.9710  0.3643  0.5054
 1475SOL    HW216059   3.347   4.380  12.262 -0.6079  0.9271  0.5959
 1476SOL     OW16060   0.237   0.517   5.290  0.5741 -0.0493 -0.4407
 1476SOL    HW116061   0.169   0.478   5.235  0.6407 -2.3287  1.1154
 1476SOL    HW216062   0.194   0.530   5.375 -1.7809 -1.7427 -1.3821
 1477SOL     OW16063   0.578   0.489  11.585  0.3116 -0.0950  0.0162
 1477SOL    HW116064   0.613   0.544  11.515  1.5439 -1.0999 -0.1426
 1477SOL    HW216065   0.515   0.443  11.529 -0.1947  1.7956 -0.9704
 1478SOL     OW16066   2.491   0.779  16.820 -0.0433 -0.8006  0.0203
 1478SOL    HW116067   2.580   0.806  16.799 -1.1597  1.2085 -2.1676
 1478SOL    HW216068   2.495   0.700  16.767 -2.5774 -0.0248 -1.3390
 1479SOL     OW16069   3.268   4.514  14.877 -0.3047  0.3356  0.4254
 1479SOL    HW116070   3.238   4.523  14.787  0.2166  0.6021  0.2774
 1479SOL    HW216071   3.239   4.597  14.914 -2.2043 -0.6325  1.1254
 1480SOL     OW16072   1.139   0.114   9.773  0.0799  0.2865  0.9140
 1480SOL    HW116073   1.060   0.147   9.730  1.7308  0.4839 -1.9918
 1480SOL    HW216074   1.140   0.019   9.784 -0.6422  0.3407  1.4075
 1481SOL     OW16075   1.103   2.767   8.477  0.4264  0.8615  0.3308
 1481SOL    HW116076   1.065   2.855   8.483  0.1824  0.8565 -1.1667
 1481SOL    HW216077   1.109   2.764   8.381 -0.0838 -4.9973  0.5282
 1482SOL     OW16078   1.310   3.998   5.404  0.6650  0.4655  0.4169
 1482SOL    HW116079   1.277   4.004   5.494  1.2353 -0.0036  0.6612
 1482SOL    HW216080   1.358   3.915   5.415  1.9841  1.1213 -0.4881
 1483SOL     OW16081   2.187   1.354   4.087 -0.0663  0.1217 -0.3097
 1483SOL    HW116082   2.209   1.306   4.007  2.0596  1.6698 -0.6391
 1483SOL    HW216083   2.147   1.283   4.138 -0.7862  0.5038 -0.3356
 1484SOL     OW16084   4.072   3.873   3.435 -0.1364 -0.1439 -0.0025
 1484SOL    HW116085   4.060   3.840   3.524  0.8064 -0.6796 -0.0737
 1484SOL    HW216086   4.064   3.968   3.440 -1.6649 -0.1273 -2.8442
 1485SOL     OW16087   2.624   4.449   2.919  0.7507  0.3118  0.0546
 1485SOL    HW116088   2.551   4.506   2.946  0.3298  1.1549 -2.8711
 1485SOL    HW216089   2.585   4.393   2.852 -2.0770 -2.0851  3.6816
 1486SOL     OW16090   0.333   3.590   6.976  0.7186 -0.6547  0.1381
 1486SOL    HW116091   0.424   3.602   7.001  0.1498  1.1079  1.3560
 1486SOL    HW216092   0.301   3.677   6.953  0.3792 -0.4901  1.2372
 1487SOL     OW16093   3.853   4.120   1.805 -0.1015  0.1059 -0.3401
 1487SOL    HW116094   3.796   4.134   1.881 -0.0353  2.2489 -0.6789
 1487SOL    HW216095   3.872   4.027   1.819  0.1324 -0.1215 -2.1636
 1488SOL     OW16096   1.565   1.637  14.961 -0.0518 -0.0022 -0.5091
 1488SOL    HW116097   1.548   1.731  14.956 -0.2687  0.0265  0.8405
 1488SOL    HW216098   1.492   1.594  14.918  0.2152 -1.2344  0.2740
 1489SOL     OW16099   3.679   0.515   8.701 -0.0065 -0.3806  0.4179
 1489SOL    HW116100   3.736   0.505   8.777 -1.6877  0.9539  1.8723
 1489SOL    HW216101   3.685   0.425   8.669 -0.8544  0.0995 -1.1034
 1490SOL     OW16102   0.698   1.733   9.327  0.1472 -0.4261  0.3807
 1490SOL    HW116103   0.740   1.790   9.390 -0.7385  1.8181 -1.0379
 1490SOL    HW216104   0.682   1.793   9.254 -0.3128  0.3431  1.1093
 1491SOL     OW16105   4.563   1.182   9.966  0.6071  0.4038 -0.6595
 1491SOL    HW116106   4.532   1.223  10.047 -0.5321 -0.0705 -0.8561
 1491SOL    HW216107   4.571   1.260   9.910 -1.4900 -0.0078 -1.5426
 1492SOL     OW16108   3.786   4.466   9.278  0.1236  0.3818 -0.8503
 1492SOL    HW116109   3.793   4.377   9.243  0.5925 -0.3031  1.0366
 1492SOL    HW216110   3.878   4.480   9.301  0.5347 -1.0289 -1.6499
 1493SOL     OW16111   0.938   3.983   8.421  0.0866  0.0150 -0.1889
 1493SOL    HW116112   0.962   3.995   8.513 -0.5890 -0.4270  0.0399
 1493SOL    HW216113   0.912   4.067   8.383  0.0148  0.1391  0.1421
 1494SOL     OW16114   1.249   1.660   8.167 -0.1844 -0.0169  0.8601
 1494SOL    HW116115   1.283   1.668   8.257 -0.2989 -0.0072  0.9028
 1494SOL    HW216116   1.312   1.714   8.120  1.0109  1.4517  4.1605
 1495SOL     OW16117   0.089   4.622   9.010  0.0195  0.3392 -0.0589
 1495SOL    HW116118   0.152   4.612   8.938  0.9974  0.0247  0.8550
 1495SOL    HW216119   0.112   4.548   9.066  1.8704 -0.2904 -1.6625
 1496SOL     OW16120   3.379   0.650  15.397 -0.4544  1.0167  0.6031
 1496SOL    HW116121   3.387   0.555  15.394 -0.2796  0.9365  3.5263
 1496SOL    HW216122   3.417   0.679  15.314  1.2985  2.9799  2.0687
 1497SOL     OW16123   4.172   3.283  10.569  0.0445  0.2349 -0.0865
 1497SOL    HW116124   4.091   3.233  10.558  0.3363 -0.6557  1.8228
 1497SOL    HW216125   4.223   3.213  10.609 -1.5914 -2.6907 -3.0877
 1498SOL     OW16126   0.245   4.021   6.744 -0.2577 -0.5589 -0.1312
 1498SOL    HW116127   0.170   4.080   6.756 -1.5712 -2.2670  0.1560
 1498SOL    HW216128   0.322   4.073   6.722 -0.3452  0.5121  2.1192
 1499SOL     OW16129   0.867   0.529   9.784  0.7084 -0.0265 -0.1521
 1499SOL    HW116130   0.828   0.606   9.742 -2.2726 -1.0265  0.7828
 1499SOL    HW216131   0.841   0.460   9.723 -0.1701  0.4268 -0.2843
 1500SOL     OW16132   1.178   3.326   6.180 -0.5462  0.5378  0.1440
 1500SOL    HW116133   1.132   3.410   6.191  0.3744  1.1645 -0.7187
 1500SOL    HW216134   1.234   3.320   6.257  0.3354  0.2193 -0.5268
 1501SOL     OW16135   4.590   1.351   9.461 -0.1729 -0.3253 -0.1585
 1501SOL    HW116136   4.575   1.439   9.495 -0.4574 -1.4340  2.5459
 1501SOL    HW216137   4.598   1.372   9.368 -0.5599 -0.7466 -0.2843
 1502SOL     OW16138   0.836   1.106   6.850  0.0488 -0.2021  0.0530
 1502SOL    HW116139   0.786   1.131   6.927  0.7612 -1.4611  0.9224
 1502SOL    HW216140   0.891   1.181   6.826 -0.5355 -0.1390 -1.0872
 1503SOL     OW16141   0.652   3.552   8.162  0.4911  0.6458  0.0340
 1503SOL    HW116142   0.675   3.643   8.142  0.7101  0.0581 -2.2756
 1503SOL    HW216143   0.561   3.576   8.183 -0.3700 -0.2854 -2.6409
 1504SOL     OW16144   0.430   0.808  11.327  0.2943  0.0226 -0.5361
 1504SOL    HW116145   0.336   0.808  11.311  0.1192 -0.1043  0.4912
 1504SOL    HW216146   0.459   0.821  11.237  0.2323 -0.8286 -0.6709
 1505SOL     OW16147   4.013   1.936   5.785  0.4438  0.8698  0.3636
 1505SOL    HW116148   4.097   1.922   5.740 -1.0949 -2.0112 -1.5877
 1505SOL    HW216149   3.965   1.964   5.707  0.2134  0.8953  0.5143
 1506SOL     OW16150   3.933   2.078   6.923 -0.3290 -0.9821  0.2302
 1506SOL    HW116151   3.891   2.137   6.860 -0.4905 -1.5970 -0.2310
 1506SOL    HW216152   4.026   2.085   6.904  0.2369  1.0362  3.5882
 1507SOL     OW16153   4.380   2.550   8.858 -0.1139  0.2877 -0.4083
 1507SOL    HW116154   4.411   2.529   8.769 -0.4644  0.9793 -0.6937
 1507SOL    HW216155   4.427   2.483   8.907  1.2186  2.1432  0.8551
 1508SOL     OW16156   3.516   3.888  16.096  0.5446 -0.2830 -0.0742
 1508SOL    HW116157   3.470   3.926  16.021  1.7193  0.4151 -0.4538
 1508SOL    HW216158   3.554   3.809  16.056 -1.2992 -1.9076  1.3903
 1509SOL     OW16159   3.261   0.819   7.571  0.0126 -0.1617 -0.5717
 1509SOL    HW116160   3.251   0.743   7.513  0.1182  0.7970 -1.8672
 1509SOL    HW216161   3.171   0.851   7.571  0.5546  1.3053  1.2280
 1510SOL     OW16162   2.670   2.964   1.332  0.7109  0.3202  0.1236
 1510SOL    HW116163   2.689   2.909   1.256  0.1165 -0.3313  0.4523
 1510SOL    HW216164   2.711   2.910   1.400 -0.5247 -1.0811 -0.2451
 1511SOL     OW16165   2.027   1.423   6.094  0.3034 -0.0370 -0.3495
 1511SOL    HW116166   2.025   1.328   6.106 -0.4951  0.0579  0.2854
 1511SOL    HW216167   2.014   1.463   6.181 -1.1091 -0.0451 -0.5500
 1512SOL     OW16168   3.695   1.140   7.580  0.4468 -0.1499 -0.6610
 1512SOL    HW116169   3.619   1.186   7.616 -0.7485 -2.5282 -0.1654
 1512SOL    HW216170   3.757   1.169   7.647 -1.1120 -0.9078  1.0663
 1513SOL     OW16171   1.682   2.394   2.350 -0.4130 -0.8891  0.4128
 1513SOL    HW116172   1.667   2.314   2.301  0.5153 -1.6304  1.3359
 1513SOL    HW216173   1.593   2.430   2.356 -1.1963 -2.7235 -0.3974
 1514SOL     OW16174   1.956   3.930   5.234 -0.2819 -0.2510  0.0055
 1514SOL    HW116175   2.039   3.973   5.217  0.0945 -0.0921  2.3030
 1514SOL    HW216176   1.897   4.005   5.238  0.1644  0.0524  0.9640
 1515SOL     OW16177   2.834   4.184  13.613 -0.0251  0.3039 -0.6054
 1515SOL    HW116178   2.804   4.155  13.527 -1.8162 -0.7716  0.3602
 1515SOL    HW216179   2.906   4.235  13.578  1.4858 -1.0104  0.5870
 1516SOL     OW16180   3.636   1.885   2.907  0.1467  0.2725 -0.3049
 1516SOL    HW116181   3.635   1.815   2.842  2.3405 -1.2219  1.2730
 1516SOL    HW216182   3.590   1.951   2.855 -2.5492 -1.4243 -0.0714
 1517SOL     OW16183   3.132   2.068   8.894 -0.0371 -0.2434 -0.1746
 1517SOL    HW116184   3.074   2.140   8.868 -2.2017 -2.2279 -0.8776
 1517SOL    HW216185   3.129   2.018   8.813 -0.0348  0.9137 -0.8966
 1518SOL     OW16186   1.124   4.074   5.969 -0.0972  0.1024 -0.1495
 1518SOL    HW116187   1.096   4.157   5.930  0.8521  1.1375  1.4322
 1518SOL    HW216188   1.174   4.096   6.046 -0.8264  1.7775 -0.1620
 1519SOL     OW16189   3.452   3.974  12.442 -0.1323  0.2134  0.6752
 1519SOL    HW116190   3.444   3.931  12.527 -1.0488 -1.1557 -0.0916
 1519SOL    HW216191   3.398   4.053  12.442 -0.8346 -0.2442 -2.0614
 1520SOL     OW16192   1.423   4.350   5.132 -0.0713 -0.3531 -0.2592
 1520SOL    HW116193   1.474   4.286   5.082  1.8013  2.6877 -2.2482
 1520SOL    HW216194   1.363   4.384   5.066 -0.7134 -1.9411 -0.4747
 1521SOL     OW16195   4.147   4.310   4.863  0.3747  0.1628  0.3370
 1521SOL    HW116196   4.196   4.247   4.811  0.6732  0.3279  0.4181
 1521SOL    HW216197   4.107   4.364   4.795 -0.0312  0.7705  1.0500
 1522SOL     OW16198   4.216   0.777   4.691  0.0172 -0.1457  0.2656
 1522SOL    HW116199   4.206   0.865   4.655 -1.1599 -0.3608  0.0847
 1522SOL    HW216200   4.300   0.752   4.651 -0.0472  1.2281 -0.7430
 1523SOL     OW16201   2.838   2.492   9.286  0.0390  0.0081 -0.3785
 1523SOL    HW116202   2.781   2.487   9.363  0.9102  0.0379  0.2742
 1523SOL    HW216203   2.897   2.567   9.297 -1.0740  0.7705  0.4398
 1524SOL     OW16204   2.275   4.072  17.549  0.5973 -0.5093  0.6911
 1524SOL    HW116205   2.206   4.129  17.513  1.0478  0.0785  0.7583
 1524SOL    HW216206   2.349   4.081  17.489 -0.4786 -2.9566 -1.0017
 1525SOL     OW16207   2.390   3.110   8.943 -0.2077 -0.5078  0.2727
 1525SOL    HW116208   2.430   3.172   9.004 -0.8887  1.5959 -1.4189
 1525SOL    HW216209   2.296   3.124   8.955  0.0412  2.2200 -0.9564
 1526SOL     OW16210   1.352   2.597   5.356  0.1164 -0.2917 -0.2365
 1526SOL    HW116211   1.287   2.583   5.425  0.0258 -1.3579 -0.5361
 1526SOL    HW216212   1.434   2.563   5.393 -0.4363 -0.8453  0.4930
 1527SOL     OW16213   4.420   2.904   7.828  0.4283  0.0530 -0.4860
 1527SOL    HW116214   4.390   2.881   7.740 -0.6810 -0.1130 -0.0672
 1527SOL    HW216215   4.391   2.828   7.879  4.0481  0.5035  2.2177
 1528SOL     OW16216   2.819   2.178  14.068  0.0205 -0.2409  0.2433
 1528SOL    HW116217   2.839   2.244  14.002 -0.7850 -1.4526 -1.2010
 1528SOL    HW216218   2.797   2.238  14.140 -0.2682 -0.8011  0.6234
 1529SOL     OW16219   1.514   2.815   2.490 -0.6897  0.2151 -0.0553
 1529SOL    HW116220   1.527   2.771   2.574 -0.5615  0.0509 -0.1608
 1529SOL    HW216221   1.423   2.787   2.481 -0.1917 -1.6757  0.7559
 1530SOL     OW16222   0.720   2.223   9.236 -0.2009  0.1528  0.7762
 1530SOL    HW116223   0.770   2.304   9.232 -3.1858  2.0732  2.3179
 1530SOL    HW216224   0.665   2.221   9.157 -0.2995  1.5420  0.8160
 1531SOL     OW16225   4.157   2.308   8.252 -0.6261  0.5323  0.1812
 1531SOL    HW116226   4.243   2.307   8.211 -1.4333  1.6450 -1.5009
 1531SOL    HW216227   4.106   2.247   8.199  0.0836  1.7752 -1.9033
 1532SOL     OW16228   0.891   4.061   6.407 -0.1468 -0.0008 -0.4122
 1532SOL    HW116229   0.875   3.996   6.476  0.3561  1.2137  0.8344
 1532SOL    HW216230   0.971   4.098   6.442  0.5452  0.3195 -2.3170
 1533SOL     OW16231   4.501   4.166   6.230 -1.0124 -0.8156  0.3158
 1533SOL    HW116232   4.442   4.116   6.286  0.7512 -1.9751  1.1217
 1533SOL    HW216233   4.428   4.215   6.192 -0.2682 -0.6158 -0.8455
 1534SOL     OW16234   2.776   3.105  13.760  0.1725  0.1431  0.3332
 1534SOL    HW116235   2.685   3.087  13.786  0.4034 -1.2825  0.1640
 1534SOL    HW216236   2.794   3.167  13.831 -1.4691 -0.8833  1.6493
 1535SOL     OW16237   2.452   1.390  16.691 -0.1285  0.2703 -0.9069
 1535SOL    HW116238   2.406   1.436  16.761 -1.8245 -0.1812 -1.7182
 1535SOL    HW216239   2.490   1.470  16.655 -0.8771  0.9435 -0.1921
 1536SOL     OW16240   3.409   2.241   1.670  0.6303 -0.2179 -0.0073
 1536SOL    HW116241   3.497   2.276   1.682 -0.2362  1.2115  2.1213
 1536SOL    HW216242   3.358   2.307   1.621 -1.1890  0.7450  3.2148
 1537SOL     OW16243   2.444   4.364   5.365 -0.2950 -0.3314  0.0218
 1537SOL    HW116244   2.409   4.284   5.404 -0.7339  0.9996  2.3047
 1537SOL    HW216245   2.467   4.345   5.274  2.2203  1.9361  0.1941
 1538SOL     OW16246   0.465   1.367   2.949 -0.4865 -0.3882  0.3218
 1538SOL    HW116247   0.465   1.445   2.894  4.2751 -0.6945 -0.0868
 1538SOL    HW216248   0.385   1.380   3.000 -0.6059  1.1451 -0.2617
 1539SOL     OW16249   4.245   0.488   4.440  0.4265  0.5189  0.8678
 1539SOL    HW116250   4.266   0.552   4.508  1.1505 -0.3473  1.4653
 1539SOL    HW216251   4.231   0.551   4.369 -0.4370  0.2357  0.7947
 1540SOL     OW16252   1.782   2.183   5.765 -0.2380 -0.3008 -0.5056
 1540SOL    HW116253   1.835   2.114   5.805  0.9464 -0.1031 -1.7224
 1540SOL    HW216254   1.829   2.206   5.684 -2.0131  1.3346 -1.0735
 1541SOL     OW16255   2.805   2.743   9.562 -0.0971  0.0903  0.6430
 1541SOL    HW116256   2.776   2.834   9.556  1.3786  0.5568  0.4900
 1541SOL    HW216257   2.835   2.733   9.652 -1.0348  1.6123  1.1390
 1542SOL     OW16258   0.327   1.444   6.166  0.0657 -0.2148  0.6569
 1542SOL    HW116259   0.371   1.448   6.082 -1.2240 -1.8920 -0.1014
 1542SOL    HW216260   0.300   1.353   6.180  3.5167 -1.4494 -0.8483
 1543SOL     OW16261   2.457   2.617   6.616 -0.5249  0.3112  0.8826
 1543SOL    HW116262   2.552   2.612   6.621 -0.4382  0.1464 -0.9077
 1543SOL    HW216263   2.443   2.691   6.558 -0.0834 -1.4732 -1.4933
 1544SOL     OW16264   3.746   3.162   4.962 -0.5205 -1.0830 -0.1813
 1544SOL    HW116265   3.741   3.252   4.995  0.8347 -1.5808  1.3408
 1544SOL    HW216266   3.715   3.177   4.873 -0.2992  1.4811  0.1719
 1545SOL     OW16267   2.564   0.259  10.110 -0.3157  0.5580 -0.3252
 1545SOL    HW116268   2.517   0.257  10.027  1.0464  1.0562 -1.1039
 1545SOL    HW216269   2.611   0.338  10.085  1.2411 -0.4905 -0.6948
 1546SOL     OW16270   2.321   1.371  10.180 -0.1871 -0.3811 -0.3480
 1546SOL    HW116271   2.351   1.429  10.250 -0.8582  0.2294 -0.5731
 1546SOL    HW216272   2.360   1.411  10.103  0.8903  1.0591  0.9616
 1547SOL     OW16273   3.473   2.520   3.376  0.2166 -0.9809 -0.2492
 1547SOL    HW116274   3.383   2.496   3.399  0.5127 -3.0108 -1.2207
 1547SOL    HW216275   3.512   2.546   3.459 -1.2259  1.2585 -0.2810
 1548SOL     OW16276   3.990   3.141  17.478 -0.4970  0.3202  0.0954
 1548SOL    HW116277   3.949   3.076  17.421 -1.0852  0.9989 -0.2481
 1548SOL    HW216278   4.013   3.219  17.429  0.1242  0.4771  0.6352
 1549SOL     OW16279   3.902   2.600  15.039  1.0112  0.3372 -0.4262
 1549SOL    HW116280   3.884   2.555  14.957 -1.2179 -1.0765  0.8654
 1549SOL    HW216281   3.978   2.655  15.019  0.6580  1.4678  1.3422
 1550SOL     OW16282   3.218   4.025   4.938  0.4322 -0.4679 -0.4486
 1550SOL    HW116283   3.137   4.016   4.989 -0.9162  2.4644 -2.0675
 1550SOL    HW216284   3.222   4.117   4.913  2.8954 -0.6823 -0.8295
 1551SOL     OW16285   1.647   1.918   4.600 -0.8963 -0.0925 -0.3289
 1551SOL    HW116286   1.643   1.985   4.532  0.7771 -0.7479 -1.0582
 1551SOL    HW216287   1.594   1.850   4.560  2.9478 -2.0048 -2.0403
 1552SOL     OW16288   0.530   2.350   8.554  0.1394 -0.0349 -0.1622
 1552SOL    HW116289   0.574   2.423   8.509  0.8992 -0.7155 -0.5140
 1552SOL    HW216290   0.471   2.401   8.609  0.3870  0.6734 -0.5423
 1553SOL     OW16291   0.195   0.150  11.360  0.1603 -0.5791  0.3636
 1553SOL    HW116292   0.246   0.074  11.389 -0.1350 -0.3621  1.4545
 1553SOL    HW216293   0.249   0.228  11.367 -0.6620  0.0856 -0.9184
 1554SOL     OW16294   2.026   4.024   5.797  0.0865  0.5030  0.2311
 1554SOL    HW116295   2.022   3.985   5.709  1.6198  0.4390  0.1873
 1554SOL    HW216296   1.994   4.110   5.771 -1.7333 -0.2614 -0.0393
 1555SOL     OW16297   4.147   0.087   6.015 -0.2190 -0.1749 -0.1763
 1555SOL    HW116298   4.075   0.150   6.022  0.2701  0.2562  0.8754
 1555SOL    HW216299   4.198   0.116   5.940 -1.7025  4.5139  0.6218
 1556SOL     OW16300   0.248   0.958   4.313  0.0093 -0.1022 -0.1517
 1556SOL    HW116301   0.179   0.895   4.334 -0.6146  0.6556  0.0990
 1556SOL    HW216302   0.281   0.992   4.396 -0.1968  0.1524 -0.1707
 1557SOL     OW16303   2.700   4.624   3.379  0.3378 -0.1262 -0.2482
 1557SOL    HW116304   2.727   4.532   3.370 -0.8902 -0.3930 -1.1346
 1557SOL    HW216305   2.607   4.607   3.371  0.8429 -2.8242 -0.5406
 1558SOL     OW16306   2.330   2.771   2.319 -0.4444 -0.3039 -0.6364
 1558SOL    HW116307   2.235   2.774   2.333 -0.5732  0.3511 -1.6301
 1558SOL    HW216308   2.368   2.823   2.389 -0.5409 -0.4433 -0.4813
 1559SOL     OW16309   1.630   3.198   0.767  0.0555 -0.3385 -0.1663
 1559SOL    HW116310   1.661   3.283   0.735  0.4089  0.1539  1.4701
 1559SOL    HW216311   1.541   3.225   0.791  1.1071  0.9576  2.2592
 1560SOL     OW16312   1.989   4.651   0.370  0.0995  0.6384 -0.4005
 1560SOL    HW116313   1.927   4.588   0.408 -1.0377  1.1846 -1.3698
 1560SOL    HW216314   1.948   4.671   0.286  1.9108  0.5364 -1.2954
 1561SOL     OW16315   4.166   2.555  13.386 -0.0283  0.4584 -0.0025
 1561SOL    HW116316   4.138   2.611  13.313 -1.1464  2.3246  1.8476
 1561SOL    HW216317   4.195   2.476  13.342 -1.1594  0.0450 -0.0031
 1562SOL     OW16318   1.216   1.333  10.740  0.0764  0.1755 -0.1409
 1562SOL    HW116319   1.215   1.243  10.705  0.2924  0.5208 -1.0292
 1562SOL    HW216320   1.290   1.317  10.799  1.7627  0.4458 -2.1960
 1563SOL     OW16321   0.849   0.896   1.499 -0.0910  0.0588  0.5250
 1563SOL    HW116322   0.838   0.861   1.410 -1.1072 -1.1531  1.1330
 1563SOL    HW216323   0.919   0.959   1.478 -0.8191  0.5234 -0.5444
 1564SOL     OW16324   3.283   0.528  15.124 -0.8303  0.5712 -0.0026
 1564SOL    HW116325   3.287   0.481  15.207  2.4472  1.1455  0.1565
 1564SOL    HW216326   3.350   0.596  15.137 -0.5519  0.1615  0.7029
 1565SOL     OW16327   3.495   1.892   6.649  0.9720  0.4039 -0.7104
 1565SOL    HW116328   3.451   1.809   6.631 -0.7256  1.5495 -1.8972
 1565SOL    HW216329   3.476   1.940   6.567  0.8759 -1.8270 -1.9815
 1566SOL     OW16330   2.988   3.217  17.141 -0.3631  0.7247 -0.2067
 1566SOL    HW116331   3.082   3.231  17.143 -0.5592  1.9673  0.5578
 1566SOL    HW216332   2.955   3.295  17.097 -0.6656  1.2023  0.8517
 1567SOL     OW16333   0.213   0.729   7.900 -0.0203 -0.3003  0.0127
 1567SOL    HW116334   0.249   0.745   7.813  0.7220  2.6768  0.8521
 1567SOL    HW216335   0.212   0.634   7.898 -1.8585 -0.3074  1.3977
 1568SOL     OW16336   0.606   3.433   5.069 -0.2888 -0.2080  0.5913
 1568SOL    HW116337   0.678   3.402   5.014 -0.2264  0.6249  0.1980
 1568SOL    HW216338   0.654   3.430   5.152 -0.5719 -0.8600  0.7357
 1569SOL     OW16339   1.007   1.763   0.185  0.4301 -0.5127  0.3974
 1569SOL    HW116340   1.018   1.764   0.090  3.5522 -0.1344  0.7504
 1569SOL    HW216341   1.077   1.828   0.192  1.5577 -1.8219  1.3180
 1570SOL     OW16342   3.359   0.243  15.598 -0.2098  0.3664  0.0423
 1570SOL    HW116343   3.317   0.178  15.654 -0.4103 -0.3516 -0.9485
 1570SOL    HW216344   3.363   0.323  15.652 -0.2899  0.3168  0.1230
 1571SOL     OW16345   3.179   4.133   2.640  0.6793 -0.2804  0.3316
 1571SOL    HW116346   3.169   4.228   2.634  0.5849 -0.2415  1.1322
 1571SOL    HW216347   3.271   4.117   2.620  1.2002 -0.9971  3.2566
 1572SOL     OW16348   0.713   3.202  12.900 -0.0621  0.2742 -0.2880
 1572SOL    HW116349   0.751   3.192  12.987 -1.7428 -1.9881  0.1792
 1572SOL    HW216350   0.678   3.114  12.891  0.7483 -0.0818  0.0568
 1573SOL     OW16351   4.486   3.837   3.679 -0.5080  0.6141 -0.2407
 1573SOL    HW116352   4.425   3.786   3.625 -2.7134  1.5634  1.3443
 1573SOL    HW216353   4.570   3.826   3.635 -1.1292 -1.0157 -1.0610
 1574SOL     OW16354   1.541   1.589   7.363 -0.8131 -0.5559  0.6838
 1574SOL    HW116355   1.490   1.570   7.284 -0.3345  1.9748 -0.2183
 1574SOL    HW216356   1.610   1.528   7.338 -1.7259 -1.3759  0.1660
 1575SOL     OW16357   1.285   2.636   2.567 -0.0830  0.2670  0.2643
 1575SOL    HW116358   1.277   2.571   2.636  3.0403  0.4559  0.8128
 1575SOL    HW216359   1.198   2.676   2.560  0.9001  2.6119  1.3028
 1576SOL     OW16360   1.097   1.260  10.145 -0.5671 -0.2713 -0.0726
 1576SOL    HW116361   1.085   1.311  10.226  2.0890  2.3716 -1.3417
 1576SOL    HW216362   1.019   1.290  10.098  1.2400  2.1268 -1.5738
 1577SOL     OW16363   3.913   3.567   5.734 -0.5885 -0.3080 -0.0376
 1577SOL    HW116364   3.885   3.603   5.818  2.4965  0.9890  0.4045
 1577SOL    HW216365   3.873   3.480   5.732  0.3535 -0.6982 -1.3537
 1578SOL     OW16366   3.565   4.540   0.953  0.4044  0.5029  0.3762
 1578SOL    HW116367   3.547   4.533   1.047 -2.8370  2.0264 -0.1030
 1578SOL    HW216368   3.531   4.628   0.934  0.3292  0.6329  1.0935
 1579SOL     OW16369   2.954   1.000   3.569 -0.2862 -0.4135 -0.2908
 1579SOL    HW116370   2.907   0.978   3.650 -2.2661  2.2446 -0.7191
 1579SOL    HW216371   3.000   1.079   3.599 -0.1168 -0.3360 -0.7600
 1580SOL     OW16372   1.540   2.925  15.626 -0.4141  0.4018 -0.1797
 1580SOL    HW116373   1.557   2.968  15.710 -0.9914  2.4774 -1.1184
 1580SOL    HW216374   1.490   2.858  15.672 -1.7555  1.7234  0.3083
 1581SOL     OW16375   0.440   0.917   9.876  0.1232  0.2778 -0.4162
 1581SOL    HW116376   0.376   0.977   9.914 -0.4420 -1.9376  2.1484
 1581SOL    HW216377   0.388   0.837   9.874  2.2964 -1.1407 -0.3832
 1582SOL     OW16378   1.845   3.306   2.100 -0.4138 -0.4537  0.4645
 1582SOL    HW116379   1.929   3.338   2.068 -0.1405 -1.7854 -0.1429
 1582SOL    HW216380   1.849   3.215   2.071 -0.1110  0.3056 -1.8455
 1583SOL     OW16381   3.883   4.511  10.582  0.4995 -0.3759  0.4681
 1583SOL    HW116382   3.874   4.512  10.487  0.6825 -0.6388  0.4506
 1583SOL    HW216383   3.791   4.509  10.608  0.6379 -1.9734  0.8113
 1584SOL     OW16384   4.331   3.948   3.076  0.4821  0.2614 -0.2085
 1584SOL    HW116385   4.314   3.853   3.077  1.6127  0.0756  0.7094
 1584SOL    HW216386   4.361   3.961   3.166 -3.2279 -2.0813  1.3777
 1585SOL     OW16387   1.479   0.567   2.475  0.7048  0.5704  0.5173
 1585SOL    HW116388   1.570   0.572   2.444  0.4799  2.0549  0.0767
 1585SOL    HW216389   1.432   0.627   2.417  0.7717  0.5068  0.3982
 1586SOL     OW16390   2.416   3.402   5.184  0.6981 -0.0724  0.1228
 1586SOL    HW116391   2.499   3.356   5.169 -0.5602 -0.9804 -4.1037
 1586SOL    HW216392   2.438   3.479   5.132 -3.4057  1.1184  0.1510
 1587SOL     OW16393   1.344   1.447  14.456  0.0375 -0.0353 -0.1389
 1587SOL    HW116394   1.327   1.462  14.363  2.5763 -1.5676 -0.8267
 1587SOL    HW216395   1.352   1.533  14.498  0.7172 -0.5882  0.8548
 1588SOL     OW16396   3.325   0.882   0.343  0.0142  0.7947 -0.3075
 1588SOL    HW116397   3.267   0.938   0.394  1.0797  1.2021  0.4475
 1588SOL    HW216398   3.278   0.894   0.260 -2.4499 -0.5582  0.8909
 1589SOL     OW16399   0.790   0.876   8.933 -0.3167  0.1661 -0.1249
 1589SOL    HW116400   0.712   0.921   8.966  0.2518  0.8461  0.2666
 1589SOL    HW216401   0.847   0.950   8.914  0.2868  0.9412  4.8228
 1590SOL     OW16402   0.230   0.798   6.336 -0.5401 -0.3285 -0.2987
 1590SOL    HW116403   0.236   0.724   6.276  2.1758 -0.1911 -0.1856
 1590SOL    HW216404   0.139   0.786   6.363 -0.1743 -0.2468  1.0138
 1591SOL     OW16405   2.785   3.355  12.497  0.4089 -0.1941 -0.1058
 1591SOL    HW116406   2.860   3.362  12.439  0.3472 -0.8098 -0.2603
 1591SOL    HW216407   2.808   3.424  12.559  2.4250  0.9155 -2.1108
 1592SOL     OW16408   3.181   1.161   7.488 -0.6516  0.4500 -0.0029
 1592SOL    HW116409   3.154   1.080   7.445 -0.2577 -0.4948  1.5417
 1592SOL    HW216410   3.195   1.198   7.401  0.1061  0.5817  0.1769
 1593SOL     OW16411   3.799   3.441   1.399  1.0134  0.9931 -0.2702
 1593SOL    HW116412   3.755   3.485   1.471 -0.7986  1.2840 -1.5497
 1593SOL    HW216413   3.820   3.516   1.343 -1.3217  1.4839 -0.4822
 1594SOL     OW16414   2.605   2.924   9.430 -0.1597  0.6576  0.0618
 1594SOL    HW116415   2.653   3.003   9.406  3.3761 -1.0075  1.6307
 1594SOL    HW216416   2.665   2.852   9.410  0.1067  1.1517 -0.8722
 1595SOL     OW16417   0.196   0.902   2.216 -0.4698 -0.5452  0.3398
 1595SOL    HW116418   0.263   0.911   2.284  1.5333 -2.9358 -1.2800
 1595SOL    HW216419   0.252   0.883   2.141  0.8415 -1.2437  1.4946
 1596SOL     OW16420   1.763   2.130  14.676  0.5113  0.6428 -0.2051
 1596SOL    HW116421   1.843   2.155  14.722  0.4241  0.0272  0.2889
 1596SOL    HW216422   1.758   2.035  14.686 -0.2342  0.7102  0.0787
 1597SOL     OW16423   1.756   3.935   1.296  0.4956 -0.2936  0.0424
 1597SOL    HW116424   1.828   3.880   1.264  0.5830  0.1166 -0.4756
 1597SOL    HW216425   1.680   3.877   1.295 -1.1316  1.8187 -0.1038
 1598SOL     OW16426   3.393   0.101  11.936 -0.0193  0.1418 -0.3253
 1598SOL    HW116427   3.432   0.180  11.899  1.3249 -0.9344 -1.1739
 1598SOL    HW216428   3.415   0.038  11.867 -0.4708  1.4415 -1.6657
 1599SOL     OW16429   1.208   2.403   1.995 -0.7091 -0.2154  0.2535
 1599SOL    HW116430   1.205   2.399   2.090  1.7808  0.6748  0.3608
 1599SOL    HW216431   1.294   2.444   1.984 -1.1936  0.8307  0.3424
 1600SOL     OW16432   0.906   0.197   5.209  0.0945  0.7704 -0.3160
 1600SOL    HW116433   0.898   0.185   5.114 -1.1953 -0.2837 -0.0912
 1600SOL    HW216434   0.997   0.205   5.235  0.9442 -0.9213 -2.8241
 1601SOL     OW16435   3.210   3.433   8.031  0.0729  0.1797 -0.0834
 1601SOL    HW116436   3.183   3.523   8.051  2.0993  0.5068  1.1754
 1601SOL    HW216437   3.247   3.402   8.113  0.0546  2.0607  0.6521
 1602SOL     OW16438   3.402   2.545   7.116 -0.1332 -0.3812 -0.1099
 1602SOL    HW116439   3.328   2.601   7.093 -0.8589 -0.5836  1.7407
 1602SOL    HW216440   3.475   2.607   7.112 -1.0995  0.9139  2.4104
 1603SOL     OW16441   4.420   0.245   6.919  0.6459 -0.1105  0.7440
 1603SOL    HW116442   4.373   0.267   7.000 -1.8646  0.9535 -0.9858
 1603SOL    HW216443   4.375   0.163   6.900  0.3078  0.5591 -1.3195
 1604SOL     OW16444   0.314   1.940   0.716 -0.3275  0.0747 -0.0294
 1604SOL    HW116445   0.325   1.966   0.625  0.1554 -2.7687 -0.7909
 1604SOL    HW216446   0.371   1.865   0.729 -0.5396  0.0033  0.4839
 1605SOL     OW16447   0.683   3.044   2.062 -0.1352 -0.4063 -0.0688
 1605SOL    HW116448   0.776   3.068   2.063  0.5187 -2.9306 -0.7178
 1605SOL    HW216449   0.658   3.067   1.973  1.6263  0.9005 -0.2280
 1606SOL     OW16450   2.692   1.193   8.669 -0.3632 -0.1715 -0.6580
 1606SOL    HW116451   2.657   1.161   8.585  0.1807  0.1526 -1.0025
 1606SOL    HW216452   2.644   1.275   8.672 -1.2368 -0.6340 -1.6710
 1607SOL     OW16453   1.872   2.510   6.511 -0.0496  0.1481  0.1310
 1607SOL    HW116454   1.967   2.514   6.525 -0.1564  0.1303  0.8938
 1607SOL    HW216455   1.874   2.492   6.417 -0.0604  2.0050 -0.2228
 1608SOL     OW16456   4.442   1.913   9.445  0.2539 -0.1109  0.1246
 1608SOL    HW116457   4.509   1.850   9.473  2.4980  1.5312 -1.5906
 1608SOL    HW216458   4.481   1.943   9.363 -0.9713  0.3218 -0.3073
 1609SOL     OW16459   1.813   4.669   9.283  0.6463  0.3214  0.2110
 1609SOL    HW116460   1.746   4.641   9.222 -0.9952  0.9309  1.7393
 1609SOL    HW216461   1.762   4.660   9.363  1.5247 -0.9786  0.6127
 1610SOL     OW16462   3.381   4.477   5.102 -0.0072 -0.8096  0.4424
 1610SOL    HW116463   3.308   4.424   5.134 -0.1377 -1.1590 -0.4213
 1610SOL    HW216464   3.340   4.555   5.063  0.4088 -0.6451  0.3313
 1611SOL     OW16465   4.350   4.321  11.736 -0.0065  0.3523  0.2388
 1611SOL    HW116466   4.381   4.245  11.686  2.7896  1.9951 -0.5196
 1611SOL    HW216467   4.378   4.390  11.676  1.4331  1.0951  1.7593
 1612SOL     OW16468   0.656   0.690   4.024  0.6122  0.6622  0.1254
 1612SOL    HW116469   0.566   0.718   4.043  1.1212  1.1254  1.9110
 1612SOL    HW216470   0.704   0.752   4.079  1.3101  0.6602 -0.4867
 1613SOL     OW16471   0.895   0.914   8.248  0.5514  0.2550  0.7218
 1613SOL    HW116472   0.891   0.859   8.327  1.6388 -0.1162  0.5134
 1613SOL    HW216473   0.987   0.939   8.255  1.0576 -1.9833  2.1265
 1614SOL     OW16474   2.927   4.483   7.832  0.4003 -0.3339 -0.4306
 1614SOL    HW116475   3.011   4.453   7.797 -0.8473 -1.5300 -2.3840
 1614SOL    HW216476   2.907   4.414   7.895  0.5562  1.1707  1.2745
 1615SOL     OW16477   1.297   4.580   2.277 -0.4689 -0.3600  0.3813
 1615SOL    HW116478   1.376   4.600   2.227  0.0180 -1.9958  0.4967
 1615SOL    HW216479   1.259   4.507   2.228  1.0570 -0.3734 -0.7884
 1616SOL     OW16480   1.952   4.654   3.526  0.2188  0.1921 -0.3240
 1616SOL    HW116481   1.993   4.599   3.459 -0.0406  0.6637 -0.8757
 1616SOL    HW216482   1.883   4.702   3.480 -0.8008  1.7135  2.8383
 1617SOL     OW16483   4.648   2.502   1.829  0.4075  0.4493 -0.5509
 1617SOL    HW116484   4.734   2.520   1.868  0.4388 -1.0665  0.0759
 1617SOL    HW216485   4.591   2.557   1.883 -1.1295 -1.1807 -0.5250
 1618SOL     OW16486   3.294   3.611   9.760  0.1272  0.0289 -0.7277
 1618SOL    HW116487   3.224   3.631   9.822  1.2878 -1.9242  1.1951
 1618SOL    HW216488   3.268   3.673   9.692 -0.2881 -0.4307 -0.9820
 1619SOL     OW16489   2.135   1.292   6.988  0.0294  0.0938  0.7275
 1619SOL    HW116490   2.135   1.293   6.892  2.5782 -0.8321  0.7075
 1619SOL    HW216491   2.112   1.202   7.008  1.2918 -0.6046 -0.9367
 1620SOL     OW16492   4.182   2.362   4.933  0.5444 -0.2568  0.4226
 1620SOL    HW116493   4.189   2.280   4.983  2.3499 -0.5349 -0.3024
 1620SOL    HW216494   4.112   2.409   4.979  2.2237  1.5677  1.0828
 1621SOL     OW16495   1.889   4.051  12.581  0.7010 -0.0601  0.0460
 1621SOL    HW116496   1.896   4.037  12.675  0.9406  0.6016  0.1238
 1621SOL    HW216497   1.971   4.007  12.557 -0.8601 -1.2924 -3.0873
 1622SOL     OW16498   3.042   4.642   5.113 -0.5839  0.2282 -0.5600
 1622SOL    HW116499   3.011   4.731   5.124  0.9820  0.1305  4.7523
 1622SOL    HW216500   3.130   4.666   5.081  0.8847 -1.4501  2.2137
 1623SOL     OW16501   2.991   2.803   1.755  0.0293  0.0337  0.0065
 1623SOL    HW116502   3.062   2.843   1.805  1.9876 -1.9079 -1.2258
 1623SOL    HW216503   3.039   2.798   1.672 -2.0074 -0.3852 -1.1559
 1624SOL     OW16504   2.398   0.511   5.564  0.5817  0.2571 -0.2255
 1624SOL    HW116505   2.359   0.463   5.638  0.6836  0.6710  0.0984
 1624SOL    HW216506   2.354   0.596   5.568 -2.4574 -1.2873 -1.1119
 1625SOL     OW16507   2.679   2.679   6.420  0.0944  0.1748 -0.6466
 1625SOL    HW116508   2.738   2.635   6.479  0.7359 -0.0083 -1.4217
 1625SOL    HW216509   2.678   2.619   6.345  3.3001 -0.9736  0.2709
 1626SOL     OW16510   2.786   0.997   9.880  0.1133  0.4035 -0.7665
 1626SOL    HW116511   2.727   1.069   9.857 -1.5151 -0.7451 -0.2602
 1626SOL    HW216512   2.865   1.005   9.826  1.1486  0.3563  0.7531
 1627SOL     OW16513   2.088   1.345  10.377 -0.4796 -0.0044 -0.4850
 1627SOL    HW116514   2.139   1.356  10.457  2.8785  2.2693 -2.9299
 1627SOL    HW216515   2.162   1.340  10.317  0.5517 -0.1449  0.7906
 1628SOL     OW16516   1.928   0.312   5.634  0.0229 -0.5727 -1.0376
 1628SOL    HW116517   1.945   0.226   5.673  1.8334  0.9185  1.4221
 1628SOL    HW216518   1.878   0.347   5.708  2.3136 -1.2724  0.8119
 1629SOL     OW16519   1.989   2.653   5.189  0.1729  0.4791 -0.2679
 1629SOL    HW116520   2.081   2.662   5.167 -0.0888  2.3404 -0.6220
 1629SOL    HW216521   1.980   2.743   5.223  0.1319 -0.2386  1.6342
 1630SOL     OW16522   0.518   1.234  10.780  0.2118  0.2026  0.4601
 1630SOL    HW116523   0.576   1.199  10.847 -1.5214 -1.4380  1.1023
 1630SOL    HW216524   0.561   1.209  10.698  0.2124 -0.9476  0.8165
 1631SOL     OW16525   0.052   4.302   8.662 -0.0600 -0.0874  0.0922
 1631SOL    HW116526   0.088   4.214   8.671  0.5706  0.2271  0.7549
 1631SOL    HW216527   0.131   4.352   8.685 -0.0107 -0.0518 -0.1565
 1632SOL     OW16528   2.297   2.220  15.894 -0.3140 -0.4380  0.0906
 1632SOL    HW116529   2.219   2.238  15.841 -0.1408  1.5571  0.5183
 1632SOL    HW216530   2.368   2.259  15.842  0.0777  0.2564  1.1424
 1633SOL     OW16531   3.981   1.345   6.442  0.0723 -0.0030 -0.4529
 1633SOL    HW116532   3.934   1.385   6.514  0.4677 -1.2518  0.4971
 1633SOL    HW216533   3.913   1.287   6.408  0.0135  0.9182 -1.8965
 1634SOL     OW16534   0.614   3.240   5.796  0.3873  0.8888  0.1767
 1634SOL    HW116535   0.662   3.275   5.871  0.6692  0.0406  0.4018
 1634SOL    HW216536   0.609   3.147   5.818  1.4328  1.1298  1.4293
 1635SOL     OW16537   0.681   1.064  10.956  0.1390  0.5866 -0.0046
 1635SOL    HW116538   0.755   1.103  11.002  3.2089 -2.9667 -1.9661
 1635SOL    HW216539   0.717   1.010  10.885 -1.5103  0.4095 -0.7033
 1636SOL     OW16540   3.744   3.676  10.269 -0.3384  0.7084 -0.2923
 1636SOL    HW116541   3.673   3.734  10.240 -0.9353  2.1794  4.1155
 1636SOL    HW216542   3.806   3.726  10.322  0.5035 -1.2234  0.5372
 1637SOL     OW16543   1.515   4.451   8.789  0.0302 -0.3132  0.4951
 1637SOL    HW116544   1.422   4.454   8.811  0.1979 -0.3574  1.2093
 1637SOL    HW216545   1.514   4.386   8.718  2.4128 -1.7142  1.7456
 1638SOL     OW16546   2.467   0.620   1.981 -0.0170  0.3909 -0.2404
 1638SOL    HW116547   2.482   0.708   1.947  0.7750  0.8697  1.3807
 1638SOL    HW216548   2.376   0.644   2.000  1.0364  2.5257  2.0055
 1639SOL     OW16549   3.299   2.359   5.535  0.2452 -0.1331  0.0325
 1639SOL    HW116550   3.379   2.353   5.483 -0.0845  1.3388 -0.6351
 1639SOL    HW216551   3.280   2.265   5.532  1.7870 -0.4650  0.3828
 1640SOL     OW16552   2.920   0.337   0.652  0.2869  0.6802  0.4129
 1640SOL    HW116553   2.886   0.253   0.684  1.0128 -0.7901 -2.6673
 1640SOL    HW216554   2.966   0.373   0.729  2.2556 -2.8611  0.8928
 1641SOL     OW16555   2.538   0.940   1.516  0.6693 -0.1733  0.0869
 1641SOL    HW116556   2.570   0.889   1.591  0.9272  0.1551  0.2002
 1641SOL    HW216557   2.476   0.997   1.561 -0.0478 -0.8904  0.0114
 1642SOL     OW16558   2.974   3.876   0.007 -0.0032  0.1723  0.2349
 1642SOL    HW116559   3.022   3.906  17.677 -1.5502 -2.5272 -1.7782
 1642SOL    HW216560   2.980   3.781   0.008 -0.1990  0.1967  3.1500
 1643SOL     OW16561   0.160   1.798   1.132  0.3305 -0.5279 -0.8051
 1643SOL    HW116562   0.080   1.797   1.184  0.7348  0.6230 -0.1758
 1643SOL    HW216563   0.123   1.836   1.052 -1.0244  2.8220  1.4388
 1644SOL     OW16564   1.500   4.201   7.856  0.0132  0.0887  0.1147
 1644SOL    HW116565   1.464   4.187   7.943 -0.7220 -0.9661 -0.3552
 1644SOL    HW216566   1.472   4.118   7.818 -0.6159  1.4825 -2.5138
 1645SOL     OW16567   2.826   3.659   7.578 -0.4690  0.7782  0.1375
 1645SOL    HW116568   2.814   3.753   7.567 -3.4131  0.7021  2.7222
 1645SOL    HW216569   2.846   3.652   7.671  1.5408 -1.9603 -0.4741
 1646SOL     OW16570   0.686   4.176   7.241  0.1920  0.9380 -0.8338
 1646SOL    HW116571   0.646   4.258   7.211 -0.6400  0.9053  0.1702
 1646SOL    HW216572   0.766   4.214   7.276  0.6986  0.5558 -1.5862
 1647SOL     OW16573   1.548   0.290   5.292 -0.0913 -0.2846  0.4241
 1647SOL    HW116574   1.635   0.307   5.328  0.4511 -0.4336 -0.8183
 1647SOL    HW216575   1.502   0.357   5.341  1.4570  0.7637  0.4464
 1648SOL     OW16576   1.822   4.404   0.382  0.0208  0.3504  0.2346
 1648SOL    HW116577   1.782   4.322   0.351  2.2682  0.5433 -3.2060
 1648SOL    HW216578   1.798   4.462   0.310  0.7703 -2.0104 -1.9246
 1649SOL     OW16579   2.778   4.377  17.226 -0.6469  0.7248  0.0280
 1649SOL    HW116580   2.779   4.293  17.273  1.0975  1.9207  2.1239
 1649SOL    HW216581   2.685   4.395  17.218 -1.3085 -2.6974  0.1035
 1650SOL     OW16582   3.394   3.226   2.206  0.3068 -0.5840  0.0604
 1650SOL    HW116583   3.486   3.230   2.180  0.3879 -2.0265  0.1088
 1650SOL    HW216584   3.363   3.316   2.199  0.2764 -0.7846 -2.5976
 1651SOL     OW16585   1.795   4.289   3.034 -0.5727 -0.3454  0.6629
 1651SOL    HW116586   1.759   4.299   2.946  0.1823 -1.3241  0.2401
 1651SOL    HW216587   1.811   4.195   3.022 -1.3372 -0.6736  2.2303
 1652SOL     OW16588   2.574   1.254  17.657 -0.3077 -0.4791 -0.9255
 1652SOL    HW116589   2.549   1.251  17.565  2.6999 -1.3066 -1.7023
 1652SOL    HW216590   2.485   1.259  17.694 -0.1640 -0.1694 -0.6187
 1653SOL     OW16591   3.925   3.361   0.467 -0.0356  0.3507  0.3940
 1653SOL    HW116592   3.899   3.354   0.559 -0.2981 -0.0237  0.2898
 1653SOL    HW216593   3.952   3.277   0.431  2.7382  1.6998 -0.7241
 1654SOL     OW16594   0.679   2.369   9.526 -0.1681 -0.2540  0.7106
 1654SOL    HW116595   0.600   2.371   9.580  0.2252  0.6587  1.2461
 1654SOL    HW216596   0.713   2.458   9.533 -3.2048  0.8664  1.6031
 1655SOL     OW16597   0.608   0.575   5.553  0.3253 -0.1444  0.2030
 1655SOL    HW116598   0.517   0.600   5.541  0.5641 -0.0540 -1.3178
 1655SOL    HW216599   0.658   0.642   5.507  0.8589  1.2520  2.8179
 1656SOL     OW16600   3.412   0.730  14.896 -0.5674 -0.6226  0.6270
 1656SOL    HW116601   3.418   0.786  14.819 -0.0057 -0.4220  0.8190
 1656SOL    HW216602   3.428   0.647  14.853  0.2698 -0.6072  0.9028
 1657SOL     OW16603   2.755   3.049   6.357  0.0202  0.3128 -0.1449
 1657SOL    HW116604   2.748   3.074   6.265  1.1525  0.2897 -0.2328
 1657SOL    HW216605   2.847   3.033   6.377 -0.2155 -1.8475 -0.8190
 1658SOL     OW16606   1.627   3.144   2.258  0.2431 -0.0988 -0.6378
 1658SOL    HW116607   1.615   3.138   2.353 -2.2635 -2.2880 -1.0954
 1658SOL    HW216608   1.666   3.231   2.247  0.0766  0.0917  0.2980
 1659SOL     OW16609   0.547   3.925   4.407  0.2907 -0.2510  0.0269
 1659SOL    HW116610   0.466   3.899   4.363  1.8243 -0.4600 -2.6384
 1659SOL    HW216611   0.502   3.986   4.466  2.0963 -0.6666  1.8266
 1660SOL     OW16612   0.554   1.465  11.829 -0.3450 -0.3558  0.2099
 1660SOL    HW116613   0.612   1.478  11.904  0.0092 -0.3741 -0.0587
 1660SOL    HW216614   0.516   1.378  11.841 -0.5289 -0.2878  0.1091
 1661SOL     OW16615   0.032   2.100   9.717  0.1113 -0.2305  0.1421
 1661SOL    HW116616   0.048   2.006   9.729  0.2423 -0.2785 -0.3867
 1661SOL    HW216617   4.708   2.110   9.789 -0.8603  2.9093 -1.1187
 1662SOL     OW16618   1.511   2.590   1.330 -0.0324  0.1034  0.0444
 1662SOL    HW116619   1.550   2.580   1.416 -0.4927  0.4566  0.2916
 1662SOL    HW216620   1.547   2.517   1.278 -2.5149 -1.1076  0.0293
 1663SOL     OW16621   3.118   0.640   2.721  0.2730 -0.0776  0.0559
 1663SOL    HW116622   3.023   0.625   2.714  0.6533 -1.7564 -1.5157
 1663SOL    HW216623   3.134   0.689   2.641 -1.4320  0.3805 -0.0064
 1664SOL     OW16624   4.457   0.048   7.184  0.0956 -0.1723  0.2820
 1664SOL    HW116625   4.412   4.704   7.205  0.6666 -1.2255 -2.5881
 1664SOL    HW216626   4.381   0.102   7.161 -0.5878 -0.3259  2.2043
 1665SOL     OW16627   3.221   3.559   2.402 -0.1912  0.1664  0.3869
 1665SOL    HW116628   3.288   3.544   2.335  1.1535 -0.6847  1.8974
 1665SOL    HW216629   3.217   3.655   2.403 -0.5700  0.1412  2.8111
 1666SOL     OW16630   1.024   2.987   6.919 -0.1601 -0.2658 -0.0817
 1666SOL    HW116631   0.969   2.979   6.841 -2.7586  1.3923  1.5737
 1666SOL    HW216632   1.078   3.058   6.885 -0.2761 -0.4845 -0.7176
 1667SOL     OW16633   3.078   3.077   9.032  0.5658  0.2055 -0.0845
 1667SOL    HW116634   3.172   3.096   9.021  0.4807  1.1052  0.8207
 1667SOL    HW216635   3.075   3.075   9.127 -0.3265  0.0923 -0.1174
 1668SOL     OW16636   0.825   0.769   7.573  0.0164 -0.2498 -0.3359
 1668SOL    HW116637   0.888   0.704   7.542  1.7696  0.8686  0.8653
 1668SOL    HW216638   0.888   0.832   7.606  0.3610 -1.2047  0.8493
 1669SOL     OW16639   0.556   1.026   4.488  0.4860  0.3241 -0.1468
 1669SOL    HW116640   0.537   0.943   4.444 -0.1317  0.0041  0.7332
 1669SOL    HW216641   0.476   1.043   4.537  1.6785  1.4719  1.3934
 1670SOL     OW16642   2.367   0.043   2.649 -0.0069  0.2992 -0.4558
 1670SOL    HW116643   2.283   0.014   2.685  0.6158  0.2981  0.9895
 1670SOL    HW216644   2.343   0.128   2.612  0.5845  1.6063  2.2064
 1671SOL     OW16645   2.792   2.205   3.075 -0.3650 -0.3303 -0.6029
 1671SOL    HW116646   2.870   2.201   3.130 -1.0470 -0.8676  0.3197
 1671SOL    HW216647   2.774   2.114   3.053 -2.0278 -0.7502  2.4761
 1672SOL     OW16648   4.469   3.646   8.943  0.0606  0.3297 -0.7305
 1672SOL    HW116649   4.466   3.738   8.970  0.9123  0.1979 -0.1958
 1672SOL    HW216650   4.412   3.600   9.005  1.3379 -1.6421 -1.0261
 1673SOL     OW16651   0.485   4.477   4.032  0.2309 -0.4137  0.0944
 1673SOL    HW116652   0.475   4.500   3.940 -0.6159  1.2572  0.5878
 1673SOL    HW216653   0.393   4.455   4.052 -0.1274 -0.4555 -1.6586
 1674SOL     OW16654   2.727   4.291   3.097  0.5308 -0.1179  0.2738
 1674SOL    HW116655   2.770   4.224   3.042 -0.0823 -0.8252  0.6613
 1674SOL    HW216656   2.690   4.345   3.026  1.8662  0.8080  0.2827
 1675SOL     OW16657   0.765   3.627  10.187  0.5505  0.7569 -0.0511
 1675SOL    HW116658   0.693   3.571  10.156 -1.4109  1.3371  3.4989
 1675SOL    HW216659   0.778   3.585  10.272  0.0466 -0.2600 -0.4740
 1676SOL     OW16660   3.462   1.337   8.865 -0.1948  0.0315 -0.1243
 1676SOL    HW116661   3.530   1.334   8.799  0.5616 -2.3196  0.7605
 1676SOL    HW216662   3.391   1.386   8.824 -1.1094  0.4885  1.9833
 1677SOL     OW16663   0.080   1.037  10.929 -0.2267 -0.4933  0.1850
 1677SOL    HW116664   4.733   1.056  10.969 -1.2428 -0.4228 -2.0032
 1677SOL    HW216665   0.132   1.042  11.010 -1.5052 -0.2947  0.9968
 1678SOL     OW16666   2.478   0.558   8.291 -0.1162 -0.3303  0.3121
 1678SOL    HW116667   2.467   0.516   8.206 -0.1698  1.1596 -0.4164
 1678SOL    HW216668   2.550   0.502   8.321 -0.2823 -1.1090 -0.7505
 1679SOL     OW16669   3.320   0.814   7.989  0.2201  0.1966  0.2073
 1679SOL    HW116670   3.408   0.850   7.981 -0.5464  2.0697  0.1584
 1679SOL    HW216671   3.303   0.818   8.083  1.7937  0.4737  0.4832
 1680SOL     OW16672   4.703   3.607  17.694 -0.2113 -0.0110  0.4599
 1680SOL    HW116673   4.733   3.612  17.603 -0.5855  0.7617  0.3769
 1680SOL    HW216674   0.010   3.685  17.728 -0.3308  0.6824 -0.9765
 1681SOL     OW16675   3.554   0.869   4.697 -0.3668 -0.1652  0.0279
 1681SOL    HW116676   3.534   0.958   4.727 -0.8143  0.7521 -3.0332
 1681SOL    HW216677   3.601   0.877   4.614  0.1771  0.0161  0.3526
 1682SOL     OW16678   2.565   2.435   4.517  0.3383 -0.1174 -0.1412
 1682SOL    HW116679   2.475   2.458   4.538  0.8547  3.2273 -1.5152
 1682SOL    HW216680   2.601   2.518   4.487 -0.2168 -0.7234 -2.4605
 1683SOL     OW16681   1.327   4.655   3.778 -0.1964  0.3590 -0.0936
 1683SOL    HW116682   1.361   4.581   3.727 -1.6600 -0.3062 -0.0971
 1683SOL    HW216683   1.240   4.616   3.780  0.0167 -0.1255 -0.2157
 1684SOL     OW16684   2.321   3.702   3.687  0.6869  0.2372 -0.2594
 1684SOL    HW116685   2.268   3.724   3.763 -0.0447  0.7369 -0.9122
 1684SOL    HW216686   2.298   3.775   3.629  0.0289 -0.2664 -0.6252
 1685SOL     OW16687   3.282   0.038   7.060 -0.2056 -0.3821 -0.2403
 1685SOL    HW116688   3.370   0.036   7.022  0.1917 -0.7985  0.6880
 1685SOL    HW216689   3.283   4.698   7.117 -4.0875 -0.5250 -0.3653
 1686SOL     OW16690   1.816   1.825  12.640  0.6651 -0.4148 -0.6275
 1686SOL    HW116691   1.883   1.840  12.706  0.5229 -0.8020 -0.3994
 1686SOL    HW216692   1.757   1.899  12.656 -0.3197 -0.8268 -2.3256
 1687SOL     OW16693   2.257   0.266   2.589 -0.5899 -0.5132 -0.2785
 1687SOL    HW116694   2.217   0.297   2.508 -0.0815  2.6000  0.6824
 1687SOL    HW216695   2.192   0.307   2.646  0.1218  0.8823 -0.4865
 1688SOL     OW16696   4.149   0.271  15.871 -0.1762  0.4450 -0.4677
 1688SOL    HW116697   4.073   0.230  15.831 -1.1290  2.1612 -0.4300
 1688SOL    HW216698   4.185   0.325  15.801  1.5933 -0.3698 -0.1700
 1689SOL     OW16699   0.795   4.616   2.595 -0.2118 -0.0565  0.1109
 1689SOL    HW116700   0.849   4.667   2.534  1.3842 -2.0511 -0.1297
 1689SOL    HW216701   0.863   4.572   2.644 -2.5530 -0.8371  2.6524
 1690SOL     OW16702   1.224   0.677  12.587  0.5414 -0.4810 -0.6405
 1690SOL    HW116703   1.175   0.717  12.515 -0.1955  2.5313  1.5310
 1690SOL    HW216704   1.153   0.631  12.632 -0.1030  2.3456  1.2121
 1691SOL     OW16705   3.921   4.392   9.928 -0.6434  0.5141 -0.1848
 1691SOL    HW116706   3.945   4.315   9.875 -0.1022 -0.2530  1.1694
 1691SOL    HW216707   3.843   4.357   9.971 -1.3318 -0.3319 -2.1060
 1692SOL     OW16708   3.431   0.541  13.261  0.2879 -0.4675 -0.3140
 1692SOL    HW116709   3.395   0.453  13.274 -1.4264  0.1176 -1.0516
 1692SOL    HW216710   3.364   0.581  13.316  0.5010  2.1071 -1.9366
 1693SOL     OW16711   0.376   3.864   3.979 -0.3503  0.3577  0.1916
 1693SOL    HW116712   0.364   3.908   4.064  1.2871  1.4839 -0.1590
 1693SOL    HW216713   0.307   3.905   3.926 -0.0675 -0.8560 -1.0968
 1694SOL     OW16714   2.348   3.886   8.980  0.0769 -0.1372  0.2561
 1694SOL    HW116715   2.381   3.903   8.892  2.6663 -1.3700  1.0026
 1694SOL    HW216716   2.274   3.943   8.999 -0.4700 -1.2110  1.3817
 1695SOL     OW16717   0.302   2.947  16.291 -0.5019  0.0740 -0.2005
 1695SOL    HW116718   0.312   2.950  16.196 -2.9757 -0.3868 -0.4844
 1695SOL    HW216719   0.388   2.979  16.318 -1.3009  0.7478  1.6237
 1696SOL     OW16720   1.592   4.571   9.149  0.2056  0.4029 -1.0008
 1696SOL    HW116721   1.555   4.494   9.105 -0.6571  2.1078 -3.2549
 1696SOL    HW216722   1.522   4.587   9.211  1.0379 -1.3463  0.3974
 1697SOL     OW16723   0.992   4.640   7.873  0.1327 -0.1458 -0.2505
 1697SOL    HW116724   1.036   4.595   7.801  0.3718 -0.0733 -0.1488
 1697SOL    HW216725   0.920   4.686   7.830  1.2071  1.9293  0.1687
 1698SOL     OW16726   0.450   2.696  11.574  0.4084  0.1332 -0.0005
 1698SOL    HW116727   0.540   2.676  11.547  0.1401  0.5435 -1.1842
 1698SOL    HW216728   0.465   2.688  11.669 -0.6160 -1.4402  0.0294
 1699SOL     OW16729   1.410   4.030   1.492  0.3633  0.8540 -0.1508
 1699SOL    HW116730   1.330   4.081   1.503 -0.7595 -0.9991  0.1970
 1699SOL    HW216731   1.401   4.013   1.398 -1.6154 -0.4763  0.2926
 1700SOL     OW16732   2.644   4.695   6.660  0.3730  0.4039 -0.0363
 1700SOL    HW116733   2.727   4.730   6.627  0.3015  1.1468  0.5638
 1700SOL    HW216734   2.588   4.692   6.582 -1.1118 -0.3077  1.0732
 1701SOL     OW16735   2.026   2.888   5.359 -0.7228 -0.5511  0.4421
 1701SOL    HW116736   2.105   2.941   5.363 -1.7363  0.7289  3.8728
 1701SOL    HW216737   1.960   2.950   5.328  0.1390  0.2628  0.2514
 1702SOL     OW16738   2.455   2.644   2.100  0.3047 -0.2946  0.2818
 1702SOL    HW116739   2.542   2.620   2.130  0.0013 -1.4398  0.2355
 1702SOL    HW216740   2.425   2.678   2.185  2.9416  0.2873  0.9726
 1703SOL     OW16741   3.905   4.240   9.059 -0.3996  0.8448 -0.0168
 1703SOL    HW116742   3.989   4.267   9.095 -0.6795  0.9465  0.5712
 1703SOL    HW216743   3.908   4.144   9.067 -0.1443  0.8186 -0.4262
 1704SOL     OW16744   1.566   0.963   1.039  0.0745 -0.2631  0.5374
 1704SOL    HW116745   1.519   0.889   1.077 -2.4112  0.7971 -0.4740
 1704SOL    HW216746   1.492   1.017   1.012 -0.1914 -0.8634  0.0748
 1705SOL     OW16747   0.299   3.846   7.445 -0.2062  0.1752  0.3006
 1705SOL    HW116748   0.215   3.892   7.447 -0.8767 -1.1648  3.4386
 1705SOL    HW216749   0.265   3.761   7.472 -2.9311  0.3403 -2.6836
 1706SOL     OW16750   0.029   3.938   8.943 -0.3358  0.6265  1.0399
 1706SOL    HW116751   4.688   3.993   8.945  0.4636  1.7909  0.7242
 1706SOL    HW216752   0.018   3.882   9.019 -1.2734 -0.8586 -0.2064
 1707SOL     OW16753   0.151   3.988   3.878 -0.0878 -0.2046  0.0388
 1707SOL    HW116754   0.079   4.038   3.840 -0.6421 -2.3057 -1.6782
 1707SOL    HW216755   0.183   4.054   3.940 -0.9437  0.2378  0.0002
 1708SOL     OW16756   0.881   2.608   7.894  0.3306 -0.2022  0.5592
 1708SOL    HW116757   0.970   2.623   7.862  0.6758 -0.6570  1.2993
 1708SOL    HW216758   0.849   2.550   7.825  0.1784 -1.4106  1.6493
 1709SOL     OW16759   2.261   1.797   9.628 -0.1371  0.7815  0.2899
 1709SOL    HW116760   2.170   1.779   9.605 -0.4005  0.6113  1.4650
 1709SOL    HW216761   2.268   1.760   9.716 -3.2534 -0.2773  0.1136
 1710SOL     OW16762   3.431   1.925  10.329 -0.2815  0.3002  0.5303
 1710SOL    HW116763   3.507   1.917  10.271 -1.4882 -0.8473 -0.8937
 1710SOL    HW216764   3.405   1.833  10.338  0.1511  0.0271 -1.1078
 1711SOL     OW16765   1.548   0.426   9.331 -0.3561 -0.4338 -0.1208
 1711SOL    HW116766   1.595   0.381   9.402 -0.8826 -1.3157 -0.3277
 1711SOL    HW216767   1.617   0.427   9.264 -0.0519  0.8649  0.2241
 1712SOL     OW16768   3.422   1.564  17.664 -0.1290  0.0158 -0.4729
 1712SOL    HW116769   3.459   1.476  17.671  0.3195  0.1680 -0.8544
 1712SOL    HW216770   3.437   1.576  17.570 -4.0657  2.1908 -0.8247
 1713SOL     OW16771   1.177   3.374   9.022 -0.1621 -0.2001 -0.0438
 1713SOL    HW116772   1.089   3.408   9.006  0.7385  1.4943 -1.4972
 1713SOL    HW216773   1.156   3.300   9.078  0.7983 -0.7173 -0.3693
 1714SOL     OW16774   3.250   1.851   4.163  0.3909 -0.4031 -0.0380
 1714SOL    HW116775   3.200   1.907   4.222  0.3601 -0.1152 -0.3348
 1714SOL    HW216776   3.337   1.870   4.196 -0.4081  1.6308  0.8871
 1715SOL     OW16777   0.090   4.619  13.024  0.1884  0.1916 -0.4845
 1715SOL    HW116778   0.121   4.546  12.970  0.2022  0.6038 -1.0361
 1715SOL    HW216779   0.138   4.686  12.975 -1.4805  1.6173 -0.1527
 1716SOL     OW16780   2.927   0.945  16.276 -0.1453 -0.0853 -0.0075
 1716SOL    HW116781   2.858   0.886  16.247  0.4778 -1.4886  1.3630
 1716SOL    HW216782   2.876   1.026  16.273  0.0700  0.0107 -0.9245
 1717SOL     OW16783   3.811   2.415  16.288  0.2190 -0.7917 -0.5188
 1717SOL    HW116784   3.739   2.437  16.347  1.3786  0.2134  0.5081
 1717SOL    HW216785   3.832   2.499  16.247  0.5599  0.2966  1.9324
 1718SOL     OW16786   4.530   0.728   3.787 -0.0236 -0.8511 -0.6382
 1718SOL    HW116787   4.524   0.749   3.694 -1.8603  0.0115 -0.3191
 1718SOL    HW216788   4.624   0.715   3.796 -0.0937 -0.8452  0.1038
 1719SOL     OW16789   0.472   1.186   8.047 -0.0953 -0.0669 -0.4504
 1719SOL    HW116790   0.408   1.255   8.062 -2.3946 -2.6236  1.5645
 1719SOL    HW216791   0.526   1.183   8.126 -0.4759  0.3073 -0.1731
 1720SOL     OW16792   1.612   0.732   8.243  0.1453  0.2365  0.0270
 1720SOL    HW116793   1.612   0.648   8.288 -0.0263  0.2989  0.1429
 1720SOL    HW216794   1.706   0.752   8.249  0.4912 -2.5687  3.6035
 1721SOL     OW16795   2.913   4.089  17.098  0.0982 -0.0952 -0.0424
 1721SOL    HW116796   2.998   4.059  17.130  0.2327  2.3321  1.9207
 1721SOL    HW216797   2.941   4.178  17.078  1.5719 -0.4895  0.3126
 1722SOL     OW16798   3.485   3.514   7.964 -0.7835 -0.4792  0.5126
 1722SOL    HW116799   3.529   3.586   7.919  0.0585 -0.4472  1.3872
 1722SOL    HW216800   3.420   3.480   7.902 -0.1269  1.1122 -1.0478
 1723SOL     OW16801   0.782   0.624   4.611  0.1261 -0.7996 -0.6880
 1723SOL    HW116802   0.805   0.541   4.570 -2.4896 -1.5707 -0.6288
 1723SOL    HW216803   0.777   0.680   4.533 -0.4575 -1.5172 -1.1619
 1724SOL     OW16804   4.700   0.296   4.753 -0.1355  0.2457  0.3085
 1724SOL    HW116805   4.705   0.201   4.743 -1.8290  0.0689  1.1651
 1724SOL    HW216806   0.057   0.313   4.763 -0.1109  0.1691  0.2034
 1725SOL     OW16807   4.521   4.032  10.588 -0.3953 -0.6760  0.0612
 1725SOL    HW116808   4.452   4.024  10.654 -0.4739 -0.2249  0.0297
 1725SOL    HW216809   4.550   4.121  10.607 -0.0117 -0.8015  0.0726
 1726SOL     OW16810   2.314   1.019  13.443  0.0719  0.2143 -0.0474
 1726SOL    HW116811   2.261   1.018  13.363  0.9071 -0.9721 -0.5875
 1726SOL    HW216812   2.267   1.085  13.493 -1.0441 -0.6097 -0.0000
 1727SOL     OW16813   1.713   4.282   6.676 -0.4782 -0.3974 -0.4009
 1727SOL    HW116814   1.715   4.302   6.769  1.1443  0.5925 -0.6547
 1727SOL    HW216815   1.769   4.347   6.634 -0.3338 -0.9284 -1.0417
 1728SOL     OW16816   2.676   4.382   2.250 -0.2404 -0.2501  0.0582
 1728SOL    HW116817   2.648   4.461   2.294 -0.0475 -0.2268  0.1406
 1728SOL    HW216818   2.589   4.359   2.218  0.2842  0.9455 -2.2033
 1729SOL     OW16819   4.527   1.832   4.568 -0.5568  0.0348 -0.0253
 1729SOL    HW116820   4.454   1.794   4.617  1.0036 -2.1989  0.5777
 1729SOL    HW216821   4.599   1.776   4.597 -0.4324  1.1134  1.8011
 1730SOL     OW16822   1.013   2.700   4.301  0.7754 -0.4073 -0.0889
 1730SOL    HW116823   1.107   2.683   4.292  0.7755 -1.0843  1.1589
 1730SOL    HW216824   1.001   2.670   4.391  1.6953 -2.2951 -0.5769
 1731SOL     OW16825   0.454   2.039   2.231  0.0857 -0.3429 -0.3496
 1731SOL    HW116826   0.509   1.961   2.231 -0.1139 -0.4797  0.8144
 1731SOL    HW216827   0.402   2.019   2.308  1.1504 -1.3859  0.0909
 1732SOL     OW16828   0.087   3.182   6.863  0.2715 -0.1469  0.3373
 1732SOL    HW116829   0.066   3.231   6.783  2.0975  2.8606  1.7046
 1732SOL    HW216830   0.141   3.109   6.833  0.1432 -0.2787  0.4269
 1733SOL     OW16831   1.320   2.252   7.597  0.0108  1.1422 -0.2234
 1733SOL    HW116832   1.293   2.258   7.505  1.7872  0.6678 -0.7799
 1733SOL    HW216833   1.344   2.160   7.603  0.2899  1.3173  1.2447
 1734SOL     OW16834   0.828   3.466   6.032  0.2094 -0.2683  0.0701
 1734SOL    HW116835   0.771   3.389   6.021 -0.4734  0.1356  0.8047
 1734SOL    HW216836   0.847   3.466   6.126  1.8389  0.6362 -0.2540
 1735SOL     OW16837   2.343   3.244   4.611 -0.3053  0.1596 -0.4069
 1735SOL    HW116838   2.305   3.325   4.646 -0.0132  0.1311 -0.0304
 1735SOL    HW216839   2.410   3.220   4.675 -1.4959 -0.7014  0.5445
 1736SOL     OW16840   4.120   1.547  10.736 -0.2251 -0.1989  0.4244
 1736SOL    HW116841   4.042   1.503  10.770  0.2552 -1.7190 -0.4276
 1736SOL    HW216842   4.111   1.554  10.641 -2.3995 -1.2240  0.5448
 1737SOL     OW16843   2.616   2.857   5.998  0.3736 -0.0957 -0.6357
 1737SOL    HW116844   2.679   2.903   5.942  1.6544 -0.4614  0.5193
 1737SOL    HW216845   2.590   2.927   6.057 -1.4889 -2.1919  1.0029
 1738SOL     OW16846   3.844   1.408   5.453 -0.3421 -0.3212 -0.1416
 1738SOL    HW116847   3.923   1.426   5.402 -1.2954  0.2140 -1.4262
 1738SOL    HW216848   3.828   1.484   5.508 -1.9778 -0.0642 -0.9595
 1739SOL     OW16849   1.900   1.891   8.846 -0.2410  0.3727 -0.0476
 1739SOL    HW116850   1.891   1.986   8.856  1.9997  0.7301 -1.5805
 1739SOL    HW216851   1.830   1.873   8.783 -0.5803 -1.8121  0.9383
 1740SOL     OW16852   1.358   1.993   7.570  0.2527 -0.4824 -0.5454
 1740SOL    HW116853   1.445   2.024   7.547  0.0457 -1.1618 -2.2584
 1740SOL    HW216854   1.327   1.957   7.487  0.9821  0.9563 -1.4338
 1741SOL     OW16855   0.692   1.963   8.195  0.1807 -0.1901 -0.0801
 1741SOL    HW116856   0.765   1.908   8.223  1.1372  0.7261 -0.7869
 1741SOL    HW216857   0.713   2.050   8.229 -1.8313 -0.0760  0.8786
 1742SOL     OW16858   2.183   2.834   9.598 -0.1401  0.0379 -0.2367
 1742SOL    HW116859   2.125   2.815   9.524  1.2699 -1.1228 -1.0612
 1742SOL    HW216860   2.196   2.749   9.640  0.2109 -1.4859 -3.3879
 1743SOL     OW16861   3.179   3.942   1.971 -0.1665 -0.3298 -0.1113
 1743SOL    HW116862   3.157   3.945   1.879 -1.0449 -1.8703  0.0570
 1743SOL    HW216863   3.173   4.034   1.998 -0.6576 -0.5799  0.6337
 1744SOL     OW16864   1.512   3.890  17.386  0.5401 -0.4950  0.0879
 1744SOL    HW116865   1.527   3.901  17.480 -0.9897 -1.5011  0.4585
 1744SOL    HW216866   1.552   3.804  17.373 -0.2447 -0.6522 -1.3140
 1745SOL     OW16867   0.298   3.623   5.665 -0.3657  0.0052  0.5095
 1745SOL    HW116868   0.301   3.684   5.739  0.1639  0.3733  0.1773
 1745SOL    HW216869   0.365   3.559   5.688 -0.6960 -0.5547 -0.1051
 1746SOL     OW16870   4.108   3.014   0.189  0.0771  0.2649 -0.5228
 1746SOL    HW116871   4.064   3.029   0.273 -1.1326  0.9717 -1.2873
 1746SOL    HW216872   4.043   3.051   0.130 -1.4874 -1.1744  0.2989
 1747SOL     OW16873   4.056   2.726  15.463  0.3523  0.3850  0.4298
 1747SOL    HW116874   4.125   2.725  15.397  0.8069 -1.2768  0.9152
 1747SOL    HW216875   4.000   2.656  15.429  0.1991  1.4015 -1.3701
 1748SOL     OW16876   3.864   0.960   2.246  0.0962  0.3443 -0.2669
 1748SOL    HW116877   3.906   0.989   2.164  0.1579 -0.8230 -0.6472
 1748SOL    HW216878   3.865   1.047   2.287  4.1326 -0.7236  1.9150
 1749SOL     OW16879   2.659   2.243   9.575 -0.0739  0.0799 -0.5997
 1749SOL    HW116880   2.584   2.263   9.519 -0.9939  1.7770  1.2250
 1749SOL    HW216881   2.713   2.321   9.561  0.0640  0.2032  0.6058
 1750SOL     OW16882   0.551   3.113  11.066 -0.2301 -0.1719 -0.4199
 1750SOL    HW116883   0.646   3.103  11.074 -0.2405 -0.4676 -0.6828
 1750SOL    HW216884   0.538   3.203  11.098 -0.4243 -0.5002  0.4198
 1751SOL     OW16885   0.684   4.132   6.278 -0.1991 -0.1143 -0.9612
 1751SOL    HW116886   0.758   4.088   6.318 -1.0569 -0.8494 -0.2048
 1751SOL    HW216887   0.681   4.206   6.338  1.3881 -1.7686  1.1446
 1752SOL     OW16888   2.046   3.156   9.919 -0.3125 -0.1965  0.6210
 1752SOL    HW116889   2.108   3.097   9.876 -2.2337 -1.9471  0.2252
 1752SOL    HW216890   2.096   3.237   9.913 -1.7741  0.8146  2.0485
 1753SOL     OW16891   2.483   0.785   2.274  0.8160 -0.0595  0.4238
 1753SOL    HW116892   2.539   0.863   2.271  2.3472 -1.1902 -0.4716
 1753SOL    HW216893   2.512   0.736   2.197  0.8480 -1.4464  1.3246
 1754SOL     OW16894   3.853   2.735   2.737 -0.1004 -0.0361 -0.0853
 1754SOL    HW116895   3.932   2.789   2.731 -1.5855  2.0261 -1.4453
 1754SOL    HW216896   3.871   2.659   2.682  0.8262  0.2958 -0.2330
 1755SOL     OW16897   3.622   0.717   7.096  0.7590 -0.1336  0.1712
 1755SOL    HW116898   3.703   0.678   7.063  1.4229  1.9814 -0.7251
 1755SOL    HW216899   3.582   0.636   7.124  1.1568 -0.6410 -0.7207
 1756SOL     OW16900   1.214   2.210  12.717  0.3243 -0.3893 -0.3515
 1756SOL    HW116901   1.188   2.128  12.758 -1.1735  0.4543  0.3890
 1756SOL    HW216902   1.201   2.188  12.625  4.3981 -1.0674 -0.7811
 1757SOL     OW16903   0.127   2.850   2.975  0.0227 -0.1638 -0.2499
 1757SOL    HW116904   0.035   2.830   2.961 -0.5367  0.5793  2.3288
 1757SOL    HW216905   0.118   2.872   3.068  0.4928 -1.2228  0.0398
 1758SOL     OW16906   2.899   3.443   6.889 -0.1691 -0.1000 -0.3111
 1758SOL    HW116907   2.823   3.480   6.932 -0.8202 -1.8594  0.0642
 1758SOL    HW216908   2.969   3.492   6.932 -0.8728  1.6902 -1.2231
 1759SOL     OW16909   4.239   2.232   5.421  0.4927  0.7816 -0.1017
 1759SOL    HW116910   4.267   2.323   5.431  0.6396  0.7879 -0.5402
 1759SOL    HW216911   4.283   2.198   5.498  0.4256  1.3048  0.1701
 1760SOL     OW16912   1.067   0.064   8.068  0.3670 -0.0800  0.2436
 1760SOL    HW116913   0.976   0.089   8.086  1.1330  2.1714  0.9796
 1760SOL    HW216914   1.064   0.011   7.988 -2.6455  2.6048 -1.4017
 1761SOL     OW16915   2.854   0.586   2.712 -0.2251 -0.5424 -0.1914
 1761SOL    HW116916   2.841   0.494   2.735  1.8583 -0.4743  1.2866
 1761SOL    HW216917   2.867   0.577   2.618 -1.6712  2.9130 -0.7228
 1762SOL     OW16918   1.861   2.715   2.141 -0.4066  0.6693 -0.1477
 1762SOL    HW116919   1.835   2.736   2.051 -1.5066 -2.4079 -0.5412
 1762SOL    HW216920   1.780   2.734   2.187 -1.1601 -1.2332 -0.6969
 1763SOL     OW16921   0.297   3.257   1.685  0.4278 -0.3586  0.7951
 1763SOL    HW116922   0.385   3.291   1.666 -0.7506  1.4620 -1.4626
 1763SOL    HW216923   0.268   3.308   1.761  0.6161 -1.0573  1.3341
 1764SOL     OW16924   4.078   2.736   5.984  0.2037  0.2443 -0.0132
 1764SOL    HW116925   3.997   2.756   6.030  1.6943  2.1991  1.7999
 1764SOL    HW216926   4.132   2.805   6.025  1.7348 -1.0618  0.1584
 1765SOL     OW16927   4.236   4.122   4.661  0.2903  0.2957  0.4881
 1765SOL    HW116928   4.277   4.136   4.576 -0.9618  1.8930  0.1316
 1765SOL    HW216929   4.143   4.128   4.639  0.9345 -2.4961 -2.8939
 1766SOL     OW16930   3.906   0.047  10.878 -0.0145 -0.3487  0.3011
 1766SOL    HW116931   3.919   0.033  10.785  0.0218  1.8579 -0.0288
 1766SOL    HW216932   3.838   0.114  10.884 -1.9109 -2.1893 -0.6290
 1767SOL     OW16933   0.441   3.591   3.956 -0.0545 -0.3223  0.0718
 1767SOL    HW116934   0.398   3.565   3.875 -1.5033  4.3064 -0.6312
 1767SOL    HW216935   0.419   3.684   3.956  2.6743  0.3053 -1.4972
 1768SOL     OW16936   1.998   1.802  10.863  0.2238  0.6164 -0.4136
 1768SOL    HW116937   1.951   1.882  10.842  1.0404  1.5848  1.4889
 1768SOL    HW216938   2.082   1.832  10.898 -0.5125 -0.6911  2.4818
 1769SOL     OW16939   0.798   3.937   5.539  0.0056  0.1177  0.0724
 1769SOL    HW116940   0.757   3.850   5.535 -1.3386  0.8034 -1.4637
 1769SOL    HW216941   0.852   3.928   5.617  0.9418 -1.3995 -0.7542
 1770SOL     OW16942   0.153   4.578  11.678  0.0562  0.5691 -0.0792
 1770SOL    HW116943   0.116   4.497  11.642  0.6426 -0.7436  2.2107
 1770SOL    HW216944   0.144   4.556  11.771 -2.0091 -0.5370 -0.5155
 1771SOL     OW16945   3.450   0.904   6.054  0.1020  0.6857 -0.1735
 1771SOL    HW116946   3.443   0.969   5.984  1.5734 -0.6787 -1.6017
 1771SOL    HW216947   3.386   0.933   6.119  0.4855 -0.9112  0.9090
 1772SOL     OW16948   2.946   3.898   5.262  0.2629 -0.3062  0.1472
 1772SOL    HW116949   2.972   3.964   5.326  4.2794 -1.5670 -0.1767
 1772SOL    HW216950   3.013   3.832   5.280  0.9086 -0.1599 -1.7278
 1773SOL     OW16951   1.305   3.602   9.113 -0.2166 -0.3870  0.3324
 1773SOL    HW116952   1.260   3.678   9.076 -1.4005 -1.0721  0.3764
 1773SOL    HW216953   1.261   3.529   9.070 -2.9181  2.7891 -2.2436
 1774SOL     OW16954   0.624   4.228   3.734  0.4222  0.0318 -0.2613
 1774SOL    HW116955   0.550   4.287   3.722 -1.2205 -2.4221 -2.0592
 1774SOL    HW216956   0.592   4.168   3.801 -1.7331 -0.5838 -1.8478
 1775SOL     OW16957   1.241   4.291   4.679  0.1740  0.2935  0.3042
 1775SOL    HW116958   1.193   4.232   4.620  2.5093 -0.6335 -0.6498
 1775SOL    HW216959   1.201   4.374   4.653  2.8962  2.6477  3.7481
 1776SOL     OW16960   1.569   0.974   9.760  0.5062  0.0471 -0.1126
 1776SOL    HW116961   1.549   1.007   9.847  1.9871 -0.7903  0.5452
 1776SOL    HW216962   1.661   1.001   9.752  0.8827 -1.1106  0.2727
 1777SOL     OW16963   1.342   3.702   7.058 -0.3964 -0.4351 -0.7171
 1777SOL    HW116964   1.291   3.775   7.023  3.0163  1.9817 -0.5287
 1777SOL    HW216965   1.378   3.750   7.132 -0.7127  0.5109 -1.1811
 1778SOL     OW16966   3.497   3.294   9.060 -0.1175  0.0919 -0.1652
 1778SOL    HW116967   3.459   3.367   9.010  0.1166  0.8335  0.7405
 1778SOL    HW216968   3.536   3.352   9.125 -0.8735  0.2704  0.1311
 1779SOL     OW16969   0.397   4.654   2.974 -0.1173 -0.4852 -0.1929
 1779SOL    HW116970   0.392   4.560   2.987  2.0847 -0.8837 -2.1478
 1779SOL    HW216971   0.435   4.664   2.887  0.8262 -0.2366  0.2536
 1780SOL     OW16972   1.718   1.082   6.709  0.1441  0.0329  0.2831
 1780SOL    HW116973   1.687   1.165   6.673 -0.1126 -0.2072 -0.0516
 1780SOL    HW216974   1.679   1.021   6.646  0.3922  1.1310 -0.9410
 1781SOL     OW16975   1.001   1.987   3.820  0.4401  0.2983  0.2214
 1781SOL    HW116976   1.072   2.044   3.792  0.4412 -0.4766 -1.4008
 1781SOL    HW216977   0.999   1.915   3.756  1.2604  2.4538 -2.2366
 1782SOL     OW16978   0.266   4.473   3.259  0.0367 -0.1269  0.0797
 1782SOL    HW116979   0.278   4.388   3.217 -1.3412  0.1170 -0.7904
 1782SOL    HW216980   0.174   4.480   3.236  0.3068  2.5243 -0.2891
 1783SOL     OW16981   0.520   4.288  13.586  0.3589 -0.0102  0.2152
 1783SOL    HW116982   0.507   4.310  13.678  1.7907 -1.3876  0.7401
 1783SOL    HW216983   0.583   4.217  13.599 -0.1443 -0.0842  2.2331
 1784SOL     OW16984   3.550   3.288  11.676  0.0320  0.2222 -0.2240
 1784SOL    HW116985   3.624   3.228  11.689 -1.1761 -1.2285 -0.0710
 1784SOL    HW216986   3.506   3.270  11.759  2.2937  0.0268  0.9456
 1785SOL     OW16987   0.374   2.960   6.463  0.1730 -0.1199  0.1625
 1785SOL    HW116988   0.302   3.021   6.445  0.8214  0.9393  1.1638
 1785SOL    HW216989   0.336   2.885   6.419 -0.3678 -0.0461  0.4922
 1786SOL     OW16990   3.135   0.903   0.154 -0.3024  0.3395  0.0887
 1786SOL    HW116991   3.083   0.977   0.187 -0.8161  0.1482 -0.2883
 1786SOL    HW216992   3.065   0.837   0.154  0.4343 -0.4576  2.9175
 1787SOL     OW16993   4.096   2.505   7.336  0.3200  0.2583 -0.0831
 1787SOL    HW116994   4.115   2.532   7.426  0.9643 -0.9941  0.1567
 1787SOL    HW216995   4.097   2.409   7.336  2.2286  0.2735 -0.6402
 1788SOL     OW16996   2.256   3.632   5.429 -0.6806 -0.2711 -0.3896
 1788SOL    HW116997   2.332   3.608   5.377 -0.9524 -0.2729 -0.7878
 1788SOL    HW216998   2.288   3.661   5.514  1.3092 -1.1956 -0.8407
 1789SOL     OW16999   3.808   2.159   9.866 -0.7382  0.0848  0.0548
 1789SOL    HW117000   3.856   2.124   9.792 -2.4292  1.4684 -1.6905
 1789SOL    HW217001   3.813   2.079   9.918 -1.6108  0.3193  0.5155
 1790SOL     OW17002   2.848   3.318   8.204  0.6383 -0.0497  0.2607
 1790SOL    HW117003   2.809   3.240   8.244 -0.6096 -1.1036 -3.0452
 1790SOL    HW217004   2.891   3.354   8.281 -0.2916 -0.0553  0.7871
 1791SOL     OW17005   0.295   1.905   4.799 -0.4590 -0.4399  0.3436
 1791SOL    HW117006   0.280   1.999   4.787 -1.9270 -0.6750  0.2954
 1791SOL    HW217007   0.237   1.873   4.730  1.4739 -1.3351 -0.8649
 1792SOL     OW17008   0.052   1.896   4.323 -0.4042  0.7845 -0.2725
 1792SOL    HW117009   4.699   1.864   4.317 -0.2302  0.6287 -1.9513
 1792SOL    HW217010   0.043   1.952   4.400 -3.2266  1.8273 -1.3924
 1793SOL     OW17011   1.149   2.217   1.370 -0.1738 -0.0356  0.0537
 1793SOL    HW117012   1.123   2.201   1.460 -1.3603  0.6138 -0.1835
 1793SOL    HW217013   1.066   2.193   1.328 -0.7773  0.8649  0.7400
 1794SOL     OW17014   1.455   1.647   3.933 -0.0139  0.1762  0.2266
 1794SOL    HW117015   1.514   1.632   3.860  0.2616  1.3800  0.2145
 1794SOL    HW217016   1.484   1.574   3.989  0.9025  0.5180  0.2016
 1795SOL     OW17017   1.989   2.420   8.370 -0.1692  0.5023  0.6033
 1795SOL    HW117018   1.946   2.503   8.392  0.6598  1.4787 -1.4902
 1795SOL    HW217019   2.055   2.425   8.439 -1.1444 -0.9321  1.6589
 1796SOL     OW17020   2.106   1.484   2.460  0.2533  0.6206  0.5028
 1796SOL    HW117021   2.146   1.397   2.465 -0.2230  0.4515  1.4238
 1796SOL    HW217022   2.052   1.478   2.539  0.3599 -2.4384  0.3602
 1797SOL     OW17023   4.559   0.965   4.786 -0.2153  0.2490 -0.6653
 1797SOL    HW117024   4.533   1.052   4.759  0.4366  0.8969  0.7527
 1797SOL    HW217025   4.650   0.978   4.815 -0.1569 -0.8909 -0.3363
 1798SOL     OW17026   3.625   3.255   4.723 -0.0235 -0.1591  0.0629
 1798SOL    HW117027   3.624   3.349   4.742  1.1143 -0.2514  0.5851
 1798SOL    HW217028   3.532   3.238   4.709  0.3920 -2.0940 -0.3047
 1799SOL     OW17029   2.659   1.520   3.282 -0.6064 -0.0935  0.2673
 1799SOL    HW117030   2.638   1.585   3.215  2.1736 -0.7796 -1.2442
 1799SOL    HW217031   2.747   1.499   3.251 -0.1722  2.3340 -0.0980
 1800SOL     OW17032   3.687   0.043   4.680  0.0982  0.0015 -0.2606
 1800SOL    HW117033   3.773   0.020   4.716 -0.4362 -2.6261 -0.6334
 1800SOL    HW217034   3.685   0.136   4.700 -1.6642 -0.0271 -0.2751
 1801SOL     OW17035   2.771   1.664  11.486  0.2408  0.0747  0.2759
 1801SOL    HW117036   2.680   1.648  11.461  0.0628 -0.0394  0.9826
 1801SOL    HW217037   2.753   1.705  11.571 -2.9241  1.1565 -0.9212
 1802SOL     OW17038   4.503   4.326   5.495 -0.3713  0.0602 -0.0962
 1802SOL    HW117039   4.492   4.408   5.446 -0.4970  1.2243  1.8712
 1802SOL    HW217040   4.589   4.324   5.536  0.0679 -1.1659 -1.0979
 1803SOL     OW17041   0.483   0.639   4.633 -0.2790  0.5491  0.3061
 1803SOL    HW117042   0.456   0.550   4.610 -1.7292  0.2574  3.1519
 1803SOL    HW217043   0.575   0.620   4.649  0.1499  0.2276 -2.4818
 1804SOL     OW17044   3.112   0.268   7.080 -0.2447  0.7289 -0.1256
 1804SOL    HW117045   3.192   0.318   7.096 -0.7191  1.3503  0.2895
 1804SOL    HW217046   3.144   0.189   7.037 -1.7898  0.2661 -0.4151
 1805SOL     OW17047   2.185   0.843  16.422 -0.5348 -0.2014 -0.2036
 1805SOL    HW117048   2.231   0.861  16.504 -0.1145  1.7377 -0.8625
 1805SOL    HW217049   2.094   0.854  16.448  0.4377  0.3664  2.8670
 1806SOL     OW17050   0.396   4.082   0.753 -0.4519  0.1354 -0.0322
 1806SOL    HW117051   0.433   4.059   0.839  0.3913  0.7662 -0.2195
 1806SOL    HW217052   0.446   4.156   0.720  0.9383 -0.5637  0.4720
 1807SOL     OW17053   3.678   3.405   3.236 -0.2413  0.0038 -0.2972
 1807SOL    HW117054   3.586   3.421   3.214 -0.5357  0.0547  1.0173
 1807SOL    HW217055   3.713   3.494   3.247  2.1361 -0.7566 -1.5609
 1808SOL     OW17056   1.864   1.121  17.167  0.0109 -0.2708  0.1365
 1808SOL    HW117057   1.873   1.104  17.073 -0.9238  0.2162 -0.0445
 1808SOL    HW217058   1.827   1.208  17.154  0.4973 -0.2204 -0.9485
 1809SOL     OW17059   3.706   1.467  14.091 -0.6203 -0.0849 -0.2374
 1809SOL    HW117060   3.640   1.494  14.155 -0.1601  0.9182 -0.1895
 1809SOL    HW217061   3.649   1.456  14.015 -0.2115 -0.3031 -0.5120
 1810SOL     OW17062   2.323   0.726   0.871 -0.0813 -0.0569 -0.1678
 1810SOL    HW117063   2.368   0.772   0.800  1.2077 -1.2395 -0.1229
 1810SOL    HW217064   2.277   0.658   0.822  0.8038  0.0351 -1.1369
 1811SOL     OW17065   2.316   0.220  17.668  0.0640 -0.2162 -0.1199
 1811SOL    HW117066   2.267   0.152  17.715 -1.8531  0.0688 -1.6900
 1811SOL    HW217067   2.400   0.222  17.714  1.0138  0.6550 -1.8882
 1812SOL     OW17068   0.786   0.044   0.881 -0.3745  0.3594  0.3047
 1812SOL    HW117069   0.807   0.100   0.806  1.3255  0.2472  0.6843
 1812SOL    HW217070   0.691   0.049   0.876 -0.2711  1.7989 -0.2732
 1813SOL     OW17071   4.486   4.489   6.936 -0.8935  0.4398  0.2694
 1813SOL    HW117072   4.524   4.407   6.905  2.6939  1.9146  0.7211
 1813SOL    HW217073   4.545   4.518   7.006 -0.9633  1.0895  0.0621
 1814SOL     OW17074   3.790   3.807   7.337 -0.0074 -0.3858 -0.4242
 1814SOL    HW117075   3.853   3.743   7.370 -1.3159 -0.1009  2.6240
 1814SOL    HW217076   3.786   3.866   7.412  0.6735 -0.2323 -0.5128
 1815SOL     OW17077   3.232   1.939  14.622  0.0248  0.4080  0.1825
 1815SOL    HW117078   3.239   2.030  14.593 -2.7968  1.1030  1.7254
 1815SOL    HW217079   3.184   1.901  14.549 -1.2195  2.4267 -0.0276
 1816SOL     OW17080   4.053   3.451   3.982  0.7170  0.0639 -0.2644
 1816SOL    HW117081   4.045   3.524   3.921  0.2808  1.1103  1.0455
 1816SOL    HW217082   3.959   3.436   3.985  0.7201  0.0114 -0.4284
 1817SOL     OW17083   0.533   0.088   0.465 -0.2214  0.2222  0.6114
 1817SOL    HW117084   0.473   0.090   0.540 -1.2932  2.9625 -0.2966
 1817SOL    HW217085   0.618   0.104   0.505  0.3224 -1.4861  0.1219
 1818SOL     OW17086   3.819   4.469   6.710  0.1604  0.5383 -0.4577
 1818SOL    HW117087   3.772   4.476   6.627 -0.1021  3.7724 -0.0352
 1818SOL    HW217088   3.758   4.413   6.758  3.5313 -1.1705  1.7699
 1819SOL     OW17089   1.190   1.276  14.061 -0.2236 -0.5177 -0.3033
 1819SOL    HW117090   1.176   1.182  14.077  0.6543 -0.2903  1.7553
 1819SOL    HW217091   1.277   1.278  14.021 -0.6237  1.7669 -1.0147
 1820SOL     OW17092   4.122   1.518   9.304  0.1185 -0.2996 -0.3868
 1820SOL    HW117093   4.113   1.613   9.316  0.0524 -0.0830 -2.1415
 1820SOL    HW217094   4.031   1.490   9.316 -0.0483  0.3427 -0.1895
 1821SOL     OW17095   3.997   3.908  15.868  0.3964 -0.5354 -0.7200
 1821SOL    HW117096   4.005   3.813  15.877  1.6311 -0.4177 -0.4602
 1821SOL    HW217097   4.084   3.937  15.840  0.1502  1.5943  0.6946
 1822SOL     OW17098   3.922   4.701   4.812  0.0445  0.0632  0.4324
 1822SOL    HW117099   3.942   0.046   4.856  1.7933  0.5666 -1.3421
 1822SOL    HW217100   3.991   4.699   4.746 -0.3941 -3.0811  0.0432
 1823SOL     OW17101   0.369   0.919   2.427  0.0688 -0.0314  0.3072
 1823SOL    HW117102   0.415   0.999   2.451  0.3098  0.2629 -1.1565
 1823SOL    HW217103   0.451   0.876   2.403 -0.0296 -0.5392  0.8867
 1824SOL     OW17104   1.574   3.896   3.099  0.1391 -0.0539 -0.2451
 1824SOL    HW117105   1.567   3.985   3.065 -1.4998 -0.8905 -2.1094
 1824SOL    HW217106   1.494   3.895   3.151  0.1436 -0.3565 -0.2428
 1825SOL     OW17107   1.359   0.527  14.354  0.8200  0.3228 -0.3873
 1825SOL    HW117108   1.361   0.477  14.272 -0.3939 -1.2797  0.5616
 1825SOL    HW217109   1.439   0.510  14.402  1.4160 -0.4527 -1.6605
 1826SOL     OW17110   3.945   2.710   0.409 -0.0659 -0.1158  0.6538
 1826SOL    HW117111   4.031   2.738   0.442 -0.4183 -0.0958  1.5333
 1826SOL    HW217112   3.887   2.730   0.482 -0.3955  0.4029  0.2461
 1827SOL     OW17113   0.603   1.923   9.118  1.1062  0.6951 -0.0499
 1827SOL    HW117114   0.596   1.937   9.023 -1.6250 -2.0613 -0.2612
 1827SOL    HW217115   0.512   1.928   9.149  0.4747  4.3342 -2.4194
 1828SOL     OW17116   0.838   0.469  10.863 -0.3342 -0.5984 -0.9137
 1828SOL    HW117117   0.809   0.421  10.941  3.0368 -1.5379 -0.2374
 1828SOL    HW217118   0.792   0.417  10.798 -0.0295 -2.6888  0.5245
 1829SOL     OW17119   1.481   2.561   3.915  0.0908 -0.0069 -0.2827
 1829SOL    HW117120   1.522   2.481   3.948 -0.3171  0.1281  0.5536
 1829SOL    HW217121   1.387   2.556   3.933 -0.1647  1.3784 -1.2306
 1830SOL     OW17122   0.825   4.606  11.231 -0.3182 -0.0150  0.0430
 1830SOL    HW117123   0.805   4.538  11.295 -0.0286 -0.3584 -0.2298
 1830SOL    HW217124   0.740   4.645  11.209 -0.1298  1.6428  2.3013
 1831SOL     OW17125   0.422   1.718   3.593 -0.7194  0.4161 -0.3422
 1831SOL    HW117126   0.509   1.758   3.582 -1.3691  1.7274 -0.7629
 1831SOL    HW217127   0.417   1.721   3.688  1.6342  2.5673 -0.2747
 1832SOL     OW17128   1.810   0.255   0.272  0.1698 -0.2078  0.0151
 1832SOL    HW117129   1.900   0.226   0.286 -0.2246 -1.4932 -0.1665
 1832SOL    HW217130   1.814   0.276   0.178  0.7491  0.2894  0.1462
 1833SOL     OW17131   1.316   1.189   4.891 -1.0597 -0.3916  0.3978
 1833SOL    HW117132   1.362   1.259   4.845 -1.1525 -0.6392 -0.0789
 1833SOL    HW217133   1.269   1.136   4.826  2.2187 -2.1442 -0.5418
 1834SOL     OW17134   0.781   3.135   2.767 -0.1610  0.5319  0.2518
 1834SOL    HW117135   0.688   3.157   2.778 -0.0522  0.5552  1.1773
 1834SOL    HW217136   0.825   3.219   2.758  0.8185 -0.2291 -2.1354
 1835SOL     OW17137   2.719   3.627   9.656 -0.7255  0.1557  0.3997
 1835SOL    HW117138   2.632   3.655   9.687 -0.8075  0.9445 -0.5382
 1835SOL    HW217139   2.781   3.696   9.679 -0.6123  0.5987 -1.2007
 1836SOL     OW17140   4.637   0.244   3.377  0.4883 -0.3016 -0.2663
 1836SOL    HW117141   4.710   0.187   3.399 -0.0854 -0.5576  0.9854
 1836SOL    HW217142   4.664   0.322   3.425 -0.6813  0.6323 -1.1190
 1837SOL     OW17143   1.641   0.352   7.589  0.5430  0.2461 -0.6566
 1837SOL    HW117144   1.679   0.264   7.594 -1.6420 -0.5910  1.1251
 1837SOL    HW217145   1.694   0.397   7.655 -0.6460 -1.2225  1.3071
 1838SOL     OW17146   2.128   3.258   3.424  0.0584  0.0016 -0.1746
 1838SOL    HW117147   2.223   3.256   3.419  0.0405  0.2142 -0.6158
 1838SOL    HW217148   2.107   3.348   3.449 -2.8113 -1.2239  1.7907
 1839SOL     OW17149   3.618   3.331   3.763  0.0103  0.2300 -0.6114
 1839SOL    HW117150   3.618   3.237   3.744  0.7627  0.0677  0.1707
 1839SOL    HW217151   3.543   3.369   3.717 -2.0161 -1.3697  1.3466
 1840SOL     OW17152   3.909   4.559   8.406 -0.0511 -0.1960 -0.6676
 1840SOL    HW117153   3.869   4.496   8.465 -0.8402  0.6383 -0.3179
 1840SOL    HW217154   3.991   4.578   8.452 -0.2392 -0.1372 -0.3557
 1841SOL     OW17155   1.283   1.395  17.548 -0.4021 -0.5510  0.4427
 1841SOL    HW117156   1.325   1.335  17.610  1.0479 -0.8607 -0.8299
 1841SOL    HW217157   1.204   1.409  17.599  0.2495  0.4378  1.1756
 1842SOL     OW17158   4.265   2.387   7.797 -0.2024 -0.0205 -0.4073
 1842SOL    HW117159   4.335   2.331   7.829 -0.3570  0.4573  0.7716
 1842SOL    HW217160   4.188   2.369   7.851  0.1173 -0.2278 -0.0292
 1843SOL     OW17161   0.782   2.710   3.721  0.5236 -0.4683  0.0022
 1843SOL    HW117162   0.767   2.685   3.630  0.6057  1.3767 -0.5206
 1843SOL    HW217163   0.766   2.804   3.716 -0.3494 -0.4091  3.9149
 1844SOL     OW17164   2.897   2.535   6.226 -0.3626  1.0905 -0.8876
 1844SOL    HW117165   2.811   2.524   6.186 -0.9411  3.5727 -0.3706
 1844SOL    HW217166   2.960   2.469   6.198  2.3508  3.1308  0.3220
 1845SOL     OW17167   1.755   2.236   4.764 -0.2034 -0.0995 -0.0099
 1845SOL    HW117168   1.789   2.323   4.744 -0.0122 -0.0265  0.6496
 1845SOL    HW217169   1.675   2.219   4.714  0.0133 -0.2599 -0.3042
 1846SOL     OW17170   3.583   4.488  10.630  0.5587  0.3591  0.4268
 1846SOL    HW117171   3.518   4.559  10.632  1.3269  1.0924 -0.4709
 1846SOL    HW217172   3.548   4.427  10.695 -1.0938  0.1293 -0.6560
 1847SOL     OW17173   1.176   4.041   7.924  0.2940 -0.0786  0.0243
 1847SOL    HW117174   1.243   4.009   7.984 -2.3265 -2.3018  1.7718
 1847SOL    HW217175   1.229   4.084   7.857 -1.2284 -0.6454 -1.5403
 1848SOL     OW17176   1.245   1.061   1.208  0.7186 -0.2174  0.4311
 1848SOL    HW117177   1.280   1.058   1.119  2.9454 -1.3777  1.3531
 1848SOL    HW217178   1.321   1.085   1.261  0.8679  0.2773 -0.0108
 1849SOL     OW17179   3.045   4.185   9.774  0.5957 -0.4534 -0.3095
 1849SOL    HW117180   2.953   4.160   9.766 -0.0387  2.3326 -1.6581
 1849SOL    HW217181   3.071   4.123   9.843 -3.4623 -1.2392  0.4849
 1850SOL     OW17182   1.640   0.875  14.493 -0.1708  0.0161 -0.7678
 1850SOL    HW117183   1.723   0.921  14.509 -0.5228 -0.1078  1.4433
 1850SOL    HW217184   1.651   0.837  14.406 -0.0786 -0.7480 -0.4239
 1851SOL     OW17185   2.833   4.091   2.965 -0.1189  0.2586 -0.5792
 1851SOL    HW117186   2.796   4.042   2.891 -0.2163 -1.1362  0.3899
 1851SOL    HW217187   2.927   4.099   2.949  0.1845 -1.2579  0.4143
 1852SOL     OW17188   2.945   1.962  15.754 -0.4948 -0.3909 -0.4400
 1852SOL    HW117189   2.974   2.052  15.739 -1.3052 -0.0944 -0.2611
 1852SOL    HW217190   2.929   1.959  15.849 -2.2044  2.7577 -0.6157
 1853SOL     OW17191   1.978   0.771   0.957 -0.6775 -0.2790  0.5822
 1853SOL    HW117192   2.037   0.745   1.027 -0.8128  0.0054  0.8042
 1853SOL    HW217193   1.892   0.766   0.999 -1.8681 -1.0305 -1.9249
 1854SOL     OW17194   4.585   3.846   3.974  0.4122 -0.3252 -0.2989
 1854SOL    HW117195   4.598   3.891   3.891 -0.1056  0.8186  0.2326
 1854SOL    HW217196   4.599   3.758   3.939  0.5561 -0.3511 -0.1753
 1855SOL     OW17197   4.696   4.145  17.719 -0.3663 -0.3999 -0.2402
 1855SOL    HW117198   0.047   4.178  17.701 -0.9895  0.5397 -1.5141
 1855SOL    HW217199   4.649   4.224  17.744  1.3967  0.5037  0.2357
 1856SOL     OW17200   1.119   4.573  17.107 -0.4110 -0.7490 -0.6090
 1856SOL    HW117201   1.139   4.479  17.110  0.2073 -0.5882  0.2207
 1856SOL    HW217202   1.049   4.585  17.171 -2.1517  0.0315 -2.6747
 1857SOL     OW17203   3.550   1.893   1.653 -0.5716  0.1014 -0.2865
 1857SOL    HW117204   3.587   1.806   1.637  0.9609  0.9403 -1.2495
 1857SOL    HW217205   3.609   1.951   1.605  0.4131 -1.2863 -0.7331
 1858SOL     OW17206   2.148   2.554   9.589 -0.2735  0.5783 -0.1481
 1858SOL    HW117207   2.064   2.552   9.634 -0.1847 -0.4835 -0.0403
 1858SOL    HW217208   2.152   2.462   9.564 -1.4085  0.3273  0.6119
 1859SOL     OW17209   1.421   1.022  14.237 -0.2429  0.0107 -0.6348
 1859SOL    HW117210   1.338   1.005  14.280 -0.5633 -2.8502 -2.3684
 1859SOL    HW217211   1.392   1.031  14.146  0.1665 -0.3939 -0.8038
 1860SOL     OW17212   3.030   4.297   9.527  0.1167  0.5488  0.5091
 1860SOL    HW117213   3.008   4.375   9.577  1.9318  0.7216  1.0643
 1860SOL    HW217214   3.039   4.240   9.604 -0.4447  0.8332  0.7785
 1861SOL     OW17215   3.916   1.155   4.726  0.2629 -0.6156 -0.2483
 1861SOL    HW117216   3.891   1.154   4.634 -0.5371  1.2398 -0.0445
 1861SOL    HW217217   3.860   1.227   4.755  0.8915  0.5880 -2.0572
 1862SOL     OW17218   3.563   3.437   9.297 -0.3604  0.3738 -0.1372
 1862SOL    HW117219   3.488   3.386   9.328 -0.7364  1.5358  0.8653
 1862SOL    HW217220   3.596   3.459   9.384 -0.4747 -0.5016  0.1277
 1863SOL     OW17221   1.347   3.985   8.363 -0.3420 -0.1848  0.2353
 1863SOL    HW117222   1.292   3.986   8.441 -1.2189 -0.8977 -0.3802
 1863SOL    HW217223   1.417   3.925   8.390 -1.1168  0.0090  2.6917
 1864SOL     OW17224   1.621   1.341  10.413  0.1432  0.0620  0.7952
 1864SOL    HW117225   1.552   1.297  10.464  3.1742 -5.0640  0.4851
 1864SOL    HW217226   1.692   1.343  10.477  1.7244 -1.9815 -0.8893
 1865SOL     OW17227   1.977   0.828  17.381 -0.4215  0.2254 -0.4408
 1865SOL    HW117228   1.949   0.893  17.446  2.3940  1.6354 -0.6501
 1865SOL    HW217229   2.055   0.873  17.349 -0.9561 -0.5801 -2.9233
 1866SOL     OW17230   2.276   0.260   4.844 -0.0821  0.2990  0.3018
 1866SOL    HW117231   2.292   0.242   4.752 -0.0810 -1.2328  0.5944
 1866SOL    HW217232   2.199   0.203   4.839 -0.8103  1.3545 -0.3018
 1867SOL     OW17233   4.373   1.487  10.881 -0.1133  0.3377  0.4872
 1867SOL    HW117234   4.288   1.515  10.849 -0.1323 -0.1695  0.0824
 1867SOL    HW217235   4.358   1.461  10.972 -0.6156 -1.1338 -0.0137
 1868SOL     OW17236   3.589   1.530  14.386 -0.3518  0.1086 -0.3031
 1868SOL    HW117237   3.589   1.623  14.407 -0.4533 -0.1003  0.6088
 1868SOL    HW217238   3.665   1.504  14.438 -3.0216 -0.7556  3.2113
 1869SOL     OW17239   3.736   4.061   9.641  0.1952 -0.6559  0.8353
 1869SOL    HW117240   3.804   4.118   9.677 -1.3225  0.4416  1.9835
 1869SOL    HW217241   3.770   3.973   9.659  0.4200 -1.2199 -2.2588
 1870SOL     OW17242   0.871   1.876  13.521  0.5214 -0.4719 -0.3925
 1870SOL    HW117243   0.780   1.854  13.505  0.2232  1.2783 -1.0756
 1870SOL    HW217244   0.881   1.951  13.463 -1.8558  0.4756  0.4357
 1871SOL     OW17245   0.302   2.521  15.278 -0.8413  0.1635  0.6880
 1871SOL    HW117246   0.302   2.512  15.183  1.2007 -2.7899  0.9632
 1871SOL    HW217247   0.266   2.437  15.309 -0.0088 -0.6823 -0.6467
 1872SOL     OW17248   1.914   3.682   7.499  0.1211  0.5756  0.4876
 1872SOL    HW117249   1.981   3.615   7.519 -0.2026 -0.0722 -0.6060
 1872SOL    HW217250   1.868   3.677   7.583  1.7881 -1.2225  1.3289
 1873SOL     OW17251   2.054   0.212   0.346  0.3807  0.3384 -0.1708
 1873SOL    HW117252   2.097   0.132   0.377 -0.3827 -1.4195 -3.7338
 1873SOL    HW217253   2.128   0.269   0.325  0.0113  0.2310 -1.7102
 1874SOL     OW17254   3.605   4.631   6.237 -0.0175 -0.3663  0.7472
 1874SOL    HW117255   3.691   4.604   6.203 -0.8121 -2.0828  0.1038
 1874SOL    HW217256   3.553   4.580   6.175  1.5206 -1.5016  0.3655
 1875SOL     OW17257   0.418   1.928   2.850 -0.1424  0.3881 -0.3546
 1875SOL    HW117258   0.378   1.928   2.937 -0.0736  0.6092 -0.3244
 1875SOL    HW217259   0.480   1.997   2.871 -0.8314  1.3901 -1.6216
 1876SOL     OW17260   2.949   1.089   1.787 -0.3803  0.3537 -0.1961
 1876SOL    HW117261   2.909   1.176   1.779  1.8595  1.3529 -0.4806
 1876SOL    HW217262   2.999   1.101   1.706  1.0866  1.3820  0.8858
 1877SOL     OW17263   0.745   0.361   9.621  1.0696  0.1741 -0.3183
 1877SOL    HW117264   0.688   0.345   9.546 -0.4845 -1.4645  1.2013
 1877SOL    HW217265   0.738   0.277   9.667  0.7659  0.6546  0.5125
 1878SOL     OW17266   1.887   3.702   8.774  0.3927  0.2848 -0.6157
 1878SOL    HW117267   1.854   3.697   8.684  0.1115  2.0903 -0.6010
 1878SOL    HW217268   1.816   3.665   8.828  1.6291 -0.6124  0.4101
 1879SOL     OW17269   3.010   1.111  13.645 -0.0178  0.0057 -0.4294
 1879SOL    HW117270   2.931   1.061  13.622 -0.3142 -0.8045  2.3666
 1879SOL    HW217271   2.967   1.196  13.655  2.0020  1.0082 -0.3546
 1880SOL     OW17272   2.615   3.373   2.169  0.4695  0.0777  0.5113
 1880SOL    HW117273   2.672   3.444   2.141 -0.7464  0.0310 -2.0697
 1880SOL    HW217274   2.669   3.315   2.223 -0.4763 -0.3946  0.9449
 1881SOL     OW17275   1.282   4.418   9.532  0.3120 -0.3949 -0.2067
 1881SOL    HW117276   1.371   4.422   9.567 -0.2874 -0.9589  1.4162
 1881SOL    HW217277   1.294   4.448   9.442 -1.0975  1.2744  0.1452
 1882SOL     OW17278   4.494   0.161   4.953 -0.5662 -0.1425  0.8165
 1882SOL    HW117279   4.463   0.136   5.040  0.8408 -0.3145  1.2700
 1882SOL    HW217280   4.579   0.116   4.957 -1.7180 -2.2796  1.3191
 1883SOL     OW17281   0.844   1.002   9.317  0.3114 -0.5389 -0.5192
 1883SOL    HW117282   0.755   1.037   9.313 -1.5805 -5.0378  1.8568
 1883SOL    HW217283   0.834   0.921   9.368  2.4724 -0.9258 -0.7178
 1884SOL     OW17284   0.807   0.093   9.489  0.5848 -0.2697 -0.1003
 1884SOL    HW117285   0.896   0.126   9.507  0.4269 -0.4311  0.9382
 1884SOL    HW217286   0.829   0.000   9.494  2.3843  0.2685  1.8329
 1885SOL     OW17287   2.321   3.831   7.709 -0.4958 -0.1354  0.1860
 1885SOL    HW117288   2.414   3.855   7.716 -0.2155 -1.6420  1.6950
 1885SOL    HW217289   2.277   3.890   7.770 -0.7769  0.3566 -0.4835
 1886SOL     OW17290   3.713   0.821   4.922  0.3006 -0.4029  0.1081
 1886SOL    HW117291   3.690   0.826   4.830  0.3016 -1.5150  0.0547
 1886SOL    HW217292   3.700   0.727   4.929 -2.6063  0.0879  1.6349
 1887SOL     OW17293   1.506   2.969   7.735  0.0709 -0.2636  0.1858
 1887SOL    HW117294   1.538   2.934   7.818  0.4714 -0.1886  0.0664
 1887SOL    HW217295   1.412   2.971   7.748  0.3026  0.0072  1.8527
 1888SOL     OW17296   1.575   3.572   7.638 -0.9890  0.5472  0.1209
 1888SOL    HW117297   1.487   3.541   7.660 -0.0793 -1.4680  0.9199
 1888SOL    HW217298   1.611   3.605   7.720  1.7923  0.9669 -1.2879
 1889SOL     OW17299   1.658   4.178  12.501  0.7788 -0.0256 -0.3994
 1889SOL    HW117300   1.709   4.224  12.567  0.6957  0.0339 -0.3763
 1889SOL    HW217301   1.731   4.125  12.468  0.4728 -0.8916  0.3227
 1890SOL     OW17302   1.491   1.887   9.172  0.2417  0.4264 -0.2757
 1890SOL    HW117303   1.412   1.937   9.191  0.0218  0.2082 -0.6055
 1890SOL    HW217304   1.536   1.945   9.110  1.2345  0.5235  0.5363
 1891SOL     OW17305   0.069   1.696   9.207  0.1678  0.4555 -0.1126
 1891SOL    HW117306   4.731   1.714   9.152  0.2293  0.4366 -0.2033
 1891SOL    HW217307   0.110   1.639   9.142 -1.3345 -1.1481  0.3407
 1892SOL     OW17308   2.158   0.747   1.886  0.1535  0.0419 -0.5794
 1892SOL    HW117309   2.114   0.665   1.864 -2.8470  1.0378  1.7439
 1892SOL    HW217310   2.186   0.735   1.977  1.7921 -0.7331 -1.1790
 1893SOL     OW17311   4.195   0.528   2.392  0.5864  0.3277 -0.0908
 1893SOL    HW117312   4.247   0.453   2.362  0.8472  1.2373 -1.9446
 1893SOL    HW217313   4.181   0.504   2.483 -0.8470 -0.5549 -0.5415
 1894SOL     OW17314   4.236   1.291   7.183 -0.3337  0.3752 -0.1538
 1894SOL    HW117315   4.210   1.216   7.130  1.9443  0.5971 -1.5986
 1894SOL    HW217316   4.319   1.317   7.143 -0.9028 -0.7229 -2.0177
 1895SOL     OW17317   2.850   3.248  15.472  0.3326  0.8917  0.1687
 1895SOL    HW117318   2.795   3.196  15.413 -0.8291  1.8565  0.3964
 1895SOL    HW217319   2.909   3.286  15.408 -0.1644  1.6906  0.1882
 1896SOL     OW17320   1.003   0.682   5.571 -0.6500 -0.4111 -0.2383
 1896SOL    HW117321   1.076   0.744   5.565  0.5761 -1.6028  2.7796
 1896SOL    HW217322   0.944   0.727   5.631  0.2478 -0.4963  0.7097
 1897SOL     OW17323   0.028   0.769   9.273 -0.5979  0.0427 -0.0945
 1897SOL    HW117324   0.105   0.770   9.218  1.6627  0.8224  3.0811
 1897SOL    HW217325   0.014   0.864   9.272  0.3090  0.1320 -2.2107
 1898SOL     OW17326   0.295   4.706   4.419 -0.2566 -0.3652  0.2597
 1898SOL    HW117327   0.269   4.689   4.328 -0.8698 -1.7045  0.6905
 1898SOL    HW217328   0.234   4.664   4.479 -2.4284  1.3658 -0.7633
 1899SOL     OW17329   2.673   2.131   9.248 -0.4201  0.4941  0.0569
 1899SOL    HW117330   2.608   2.060   9.248  1.5013 -1.2702  0.7895
 1899SOL    HW217331   2.629   2.206   9.288 -0.3735  0.0421  0.9497
 1900SOL     OW17332   2.487   4.511   3.241  0.1563 -0.1368 -0.2687
 1900SOL    HW117333   2.534   4.449   3.186  0.7425 -0.7712  0.9467
 1900SOL    HW217334   2.412   4.455   3.262  0.0212  0.8115  1.8615
 1901SOL     OW17335   0.627   1.602   9.590 -0.5059 -0.9132 -0.3578
 1901SOL    HW117336   0.597   1.663   9.523 -0.3134 -0.5807 -0.1370
 1901SOL    HW217337   0.542   1.570   9.620 -0.3855  3.2701  4.3397
 1902SOL     OW17338   1.142   2.410  10.686 -0.2238 -0.0403  0.3267
 1902SOL    HW117339   1.074   2.423  10.620  2.1610  0.2444 -2.0625
 1902SOL    HW217340   1.208   2.360  10.637 -0.5886 -1.5147  1.3449
 1903SOL     OW17341   0.814   0.024  14.544  0.1714 -0.1501 -0.0581
 1903SOL    HW117342   0.755   0.049  14.473 -0.0290  0.3631  0.2930
 1903SOL    HW217343   0.897   0.040  14.500 -0.2714  1.8067 -0.1625
 1904SOL     OW17344   3.884   2.883   6.363  0.3760  0.2663  0.5857
 1904SOL    HW117345   3.957   2.860   6.420 -0.6171 -1.7516  1.0702
 1904SOL    HW217346   3.816   2.885   6.430 -0.8534  4.5324 -0.8081
 1905SOL     OW17347   3.873   4.178   2.426  0.1422 -0.2019 -0.3385
 1905SOL    HW117348   3.888   4.192   2.332  2.2629 -1.4046 -0.1593
 1905SOL    HW217349   3.810   4.248   2.443  2.0828  1.0566  1.6789
 1906SOL     OW17350   3.748   0.263  15.504 -0.3609  0.5861  0.2910
 1906SOL    HW117351   3.703   0.347  15.510 -1.8237 -0.1556 -0.1591
 1906SOL    HW217352   3.674   0.211  15.537 -1.1469  0.3341 -1.8512
 1907SOL     OW17353   1.171   3.395   2.844 -0.0539  0.2781  0.0671
 1907SOL    HW117354   1.229   3.355   2.779  0.0846 -0.4325  0.6257
 1907SOL    HW217355   1.229   3.430   2.911 -0.5972 -0.7629  1.0913
 1908SOL     OW17356   3.367   4.616   7.359  0.4042  0.3494  0.4383
 1908SOL    HW117357   3.460   4.599   7.375  0.1837  0.2732  1.6445
 1908SOL    HW217358   3.339   4.689   7.415  2.0426 -0.7809  2.7701
 1909SOL     OW17359   4.306   3.271   3.936 -0.2252 -0.0478  0.2752
 1909SOL    HW117360   4.358   3.281   3.856 -1.3579  0.5762 -0.3798
 1909SOL    HW217361   4.239   3.336   3.915  0.6429  0.9751  0.6888
 1910SOL     OW17362   2.232   2.362   5.560  0.3869  0.3396 -0.5419
 1910SOL    HW117363   2.272   2.277   5.574 -1.5579 -0.7412 -1.4263
 1910SOL    HW217364   2.294   2.425   5.596  0.5069 -0.1927  0.1742
 1911SOL     OW17365   1.916   2.600   9.723 -1.0204  0.4846 -0.0599
 1911SOL    HW117366   1.855   2.534   9.691  0.1696 -0.1865 -0.9567
 1911SOL    HW217367   1.853   2.666   9.752  0.7923  2.1042  0.2274
 1912SOL     OW17368   2.185   4.004   7.888 -0.1898 -0.6280 -0.0730
 1912SOL    HW117369   2.223   4.088   7.864 -1.2382  0.0260  0.6098
 1912SOL    HW217370   2.245   3.990   7.961 -0.5429 -0.6028  0.2178
 1913SOL     OW17371   4.527   3.221   6.929  0.1428 -0.3828 -0.4132
 1913SOL    HW117372   4.447   3.183   6.966  0.2949 -0.7104 -0.4173
 1913SOL    HW217373   4.505   3.312   6.949  0.2155 -0.3368 -0.5400
 1914SOL     OW17374   3.321   2.990  16.545 -0.5421  0.4381 -0.0266
 1914SOL    HW117375   3.246   2.932  16.556 -0.1894  0.2150  1.2313
 1914SOL    HW217376   3.384   2.939  16.493 -0.3714  1.9184 -1.2711
 1915SOL     OW17377   0.704   2.508   8.420 -0.5385 -0.0393  0.1129
 1915SOL    HW117378   0.713   2.602   8.437  2.1901 -0.3469  0.2837
 1915SOL    HW217379   0.793   2.475   8.416 -1.0256 -1.6261  2.0714
 1916SOL     OW17380   2.058   3.740   8.171  0.1788 -0.2559 -0.7481
 1916SOL    HW117381   1.986   3.791   8.208  0.6375  0.1312 -0.3831
 1916SOL    HW217382   2.121   3.747   8.243 -2.4896 -0.3371  1.6051
 1917SOL     OW17383   1.319   3.033   8.794  0.7722  0.1272  0.4861
 1917SOL    HW117384   1.331   2.974   8.720  2.2120 -1.0485  1.6623
 1917SOL    HW217385   1.385   2.997   8.853  1.3955 -0.3014 -0.4651
 1918SOL     OW17386   2.119   2.553  16.020 -0.0385  0.0548  0.3035
 1918SOL    HW117387   2.165   2.470  16.017  1.3379  0.8557 -0.6341
 1918SOL    HW217388   2.049   2.546  16.085 -1.2774  1.3440 -0.8884
 1919SOL     OW17389   3.349   0.597   3.412 -0.0617  0.3045 -0.3180
 1919SOL    HW117390   3.385   0.518   3.372  2.8465  0.4480  2.0070
 1919SOL    HW217391   3.315   0.570   3.497  3.1106  0.1824  0.9127
 1920SOL     OW17392   0.551   2.151   9.426  0.0056  0.0536  0.3199
 1920SOL    HW117393   0.604   2.214   9.475 -0.3529  0.3917  0.2806
 1920SOL    HW217394   0.598   2.158   9.343  0.0779 -1.9966  0.1893
 1921SOL     OW17395   1.817   2.008   1.818 -0.1229  0.3420 -0.1542
 1921SOL    HW117396   1.882   1.961   1.766 -1.9039 -4.0410  1.6698
 1921SOL    HW217397   1.745   2.000   1.754 -0.8185  0.3921  0.6224
 1922SOL     OW17398   0.914   2.138   2.848 -0.3617 -0.3447  0.3201
 1922SOL    HW117399   0.933   2.075   2.779 -0.5783 -0.4968  0.3973
 1922SOL    HW217400   1.001   2.160   2.880 -0.1356 -1.3423  0.3846
 1923SOL     OW17401   1.008   2.407   1.792 -0.2612 -0.1137 -0.1279
 1923SOL    HW117402   0.961   2.448   1.865 -0.7134 -0.0574 -0.4523
 1923SOL    HW217403   1.092   2.399   1.837  1.1093  1.5191 -2.4249
 1924SOL     OW17404   2.651   4.561   0.436 -0.4119  0.2005 -0.5055
 1924SOL    HW117405   2.633   4.577   0.344 -0.6946 -0.1903 -0.5143
 1924SOL    HW217406   2.611   4.639   0.476 -1.7381 -0.9002  0.3034
 1925SOL     OW17407   2.664   3.149   6.126 -0.3934 -0.4143  0.4379
 1925SOL    HW117408   2.711   3.186   6.051 -2.2446 -0.0488 -0.5349
 1925SOL    HW217409   2.576   3.183   6.109 -1.3384 -1.4045  3.3025
 1926SOL     OW17410   1.356   2.642   7.881 -0.4828 -0.0143 -0.0386
 1926SOL    HW117411   1.333   2.549   7.884 -0.2980 -0.0997 -1.6446
 1926SOL    HW217412   1.390   2.654   7.793  0.9882  0.7760  0.6301
 1927SOL     OW17413   2.569   1.900  12.504  0.0107  0.6301 -0.9630
 1927SOL    HW117414   2.638   1.933  12.446  0.6265  2.4886  0.8142
 1927SOL    HW217415   2.504   1.849  12.456 -0.4881  0.8673 -0.5228
 1928SOL     OW17416   1.329   3.582   0.958 -0.3682  0.2637 -0.2592
 1928SOL    HW117417   1.265   3.653   0.958  0.0675  0.6436 -2.5735
 1928SOL    HW217418   1.268   3.509   0.952  0.5545 -0.3412 -2.5978
 1929SOL     OW17419   0.868   3.729   5.200 -0.1661  0.1223  0.0401
 1929SOL    HW117420   0.801   3.792   5.171 -1.3990 -1.3476 -0.2790
 1929SOL    HW217421   0.942   3.784   5.226  0.8313 -1.7525  1.1913
 1930SOL     OW17422   2.921   1.084   2.176 -0.6583  0.5057 -0.2586
 1930SOL    HW117423   2.981   1.048   2.111 -0.8859  4.8684 -2.9307
 1930SOL    HW217424   2.926   1.180   2.168  1.2706  0.4319  0.0215
 1931SOL     OW17425   0.095   1.314   8.986  0.7018  0.5326  0.0736
 1931SOL    HW117426   0.079   1.228   9.023  0.6520  0.1644 -0.8113
 1931SOL    HW217427   0.028   1.312   8.918 -0.3535  0.7833  1.0950
 1932SOL     OW17428   1.102   0.071   2.790  0.5909  0.4594  0.0244
 1932SOL    HW117429   1.046   0.027   2.854 -1.0131  1.4108 -0.7324
 1932SOL    HW217430   1.191   0.039   2.806 -1.0019 -2.0477  3.9639
 1933SOL     OW17431   4.651   4.667   2.795  0.0105 -0.0186  0.1669
 1933SOL    HW117432   4.734   4.715   2.793  0.5283 -0.8713  1.3192
 1933SOL    HW217433   4.638   4.648   2.888 -1.3228  0.3390  0.0503
 1934SOL     OW17434   0.978   2.470   0.389 -0.1874 -0.9385  0.2412
 1934SOL    HW117435   0.898   2.476   0.441 -0.4610  0.7216 -0.3924
 1934SOL    HW217436   0.988   2.554   0.345  1.6035 -0.5985  1.2705
 1935SOL     OW17437   2.291   0.864  11.890  0.1245  0.1941  0.1800
 1935SOL    HW117438   2.236   0.809  11.834 -0.5827  1.2255 -0.1180
 1935SOL    HW217439   2.332   0.797  11.945 -0.5766  0.7542  1.3871
 1936SOL     OW17440   1.965   2.284   7.018  0.2681  0.1593  0.4448
 1936SOL    HW117441   2.032   2.296   6.951 -0.3099  1.1035  0.0424
 1936SOL    HW217442   1.887   2.280   6.963  0.1070  0.0035  0.6829
 1937SOL     OW17443   0.393   2.136  12.154 -0.2273 -0.5279 -0.3825
 1937SOL    HW117444   0.347   2.090  12.085 -0.1976  1.4952 -1.7497
 1937SOL    HW217445   0.364   2.227  12.149  1.4454 -0.1395 -2.6903
 1938SOL     OW17446   0.177   4.436   1.326  0.6542  0.6390 -0.0683
 1938SOL    HW117447   0.164   4.440   1.421 -2.0946 -0.5720 -0.3982
 1938SOL    HW217448   0.185   4.527   1.300  0.0076  0.4544 -0.9196
 1939SOL     OW17449   4.253   4.038   7.892 -0.2367 -0.0321  0.1090
 1939SOL    HW117450   4.262   3.979   7.817 -0.9244  0.2349 -0.1826
 1939SOL    HW217451   4.167   4.075   7.869  0.0931  0.0993 -0.8829
 1940SOL     OW17452   1.297   2.229   9.949 -0.0147 -0.2399  0.1407
 1940SOL    HW117453   1.304   2.276   9.866 -1.4612  1.3204  0.9093
 1940SOL    HW217454   1.353   2.288   9.999  0.8402  0.9536 -2.2128
 1941SOL     OW17455   4.351   0.592   9.545 -0.2139 -0.3924  0.3846
 1941SOL    HW117456   4.365   0.651   9.619  0.2238 -0.8698  0.6825
 1941SOL    HW217457   4.440   0.585   9.510 -0.5306  0.9761 -0.6754
 1942SOL     OW17458   1.936   1.979   8.395 -0.3718  0.0150  0.4840
 1942SOL    HW117459   1.976   1.902   8.355 -3.7116 -1.5480  0.1462
 1942SOL    HW217460   2.013   2.030   8.419  0.1123  0.4942 -2.0310
 1943SOL     OW17461   1.145   1.869   1.628  0.0275 -0.4961  0.0392
 1943SOL    HW117462   1.201   1.894   1.555 -2.4589  2.2637 -0.9669
 1943SOL    HW217463   1.077   1.936   1.615  0.4834  0.0098  0.2468
 1944SOL     OW17464   1.948   1.005  13.103  0.0139 -0.0335  0.2911
 1944SOL    HW117465   1.920   1.085  13.147  0.2848  0.7242 -0.8979
 1944SOL    HW217466   1.868   0.987  13.053 -0.2712  0.0911  0.7088
 1945SOL     OW17467   2.580   3.158   2.764  0.2150 -0.5890  0.0241
 1945SOL    HW117468   2.631   3.086   2.801  1.3594  0.5680  0.7020
 1945SOL    HW217469   2.590   3.220   2.836 -0.0553  0.2293 -0.6427
 1946SOL     OW17470   1.998   0.964   2.642 -0.8432  0.2620  0.1400
 1946SOL    HW117471   1.961   1.042   2.682  0.5819  1.4015 -0.7896
 1946SOL    HW217472   1.956   0.898   2.697  0.2525 -0.1557  0.4716
 1947SOL     OW17473   1.226   3.646  14.547 -0.0247  0.1202 -0.2759
 1947SOL    HW117474   1.261   3.729  14.515 -2.0972  1.0969 -0.0165
 1947SOL    HW217475   1.224   3.659  14.642  1.0589  0.9945 -0.3737
 1948SOL     OW17476   3.708   3.667   7.710 -0.2186 -0.1645 -0.3748
 1948SOL    HW117477   3.753   3.748   7.732 -0.2034 -1.1735  3.2325
 1948SOL    HW217478   3.783   3.617   7.678  1.4215  2.3348 -0.3986
 1949SOL     OW17479   1.718   2.996   8.699 -0.6839 -0.1115  0.3714
 1949SOL    HW117480   1.799   2.950   8.721 -0.9842 -0.1370  1.4381
 1949SOL    HW217481   1.661   2.926   8.733 -3.7796  1.9607 -0.6173
 1950SOL     OW17482   2.834   3.719   2.641  0.4866  1.0324 -0.1839
 1950SOL    HW117483   2.804   3.699   2.552  0.4499  0.3075 -0.0089
 1950SOL    HW217484   2.746   3.724   2.678 -0.0354 -0.7525 -1.1710
 1951SOL     OW17485   4.482   1.373   3.575 -0.4131 -0.3544  0.0294
 1951SOL    HW117486   4.514   1.445   3.628 -4.0341  2.4906 -1.6121
 1951SOL    HW217487   4.508   1.405   3.489 -0.5727 -0.8995 -0.2200
 1952SOL     OW17488   4.596   0.854   4.547  0.3048  0.1393 -0.4060
 1952SOL    HW117489   4.593   0.894   4.634  1.5346 -1.5623  0.4321
 1952SOL    HW217490   4.541   0.916   4.499 -0.9823  1.5971  2.9626
 1953SOL     OW17491   1.126   2.668   9.623  0.0089  0.1367 -0.8885
 1953SOL    HW117492   1.060   2.625   9.569 -0.3569  0.2728 -0.5523
 1953SOL    HW217493   1.209   2.638   9.586  0.6664 -0.3703  1.0092
 1954SOL     OW17494   2.000   3.860   9.217 -0.7462 -0.0451  0.4758
 1954SOL    HW117495   2.017   3.766   9.221  0.2075  0.1870  1.6617
 1954SOL    HW217496   2.030   3.879   9.128 -0.1598 -1.0837  0.4476
 1955SOL     OW17497   0.923   1.510   1.583  0.1054  0.1465  0.1552
 1955SOL    HW117498   0.970   1.511   1.499  0.2845 -1.2021  0.2457
 1955SOL    HW217499   0.830   1.506   1.562  0.7284 -0.0295 -2.6387
 1956SOL     OW17500   1.349   2.758  16.507 -0.9896 -0.0037 -0.4449
 1956SOL    HW117501   1.306   2.792  16.586  0.8924  2.4905 -0.5048
 1956SOL    HW217502   1.393   2.678  16.534 -0.9917 -0.2432 -1.1529
 1957SOL     OW17503   3.874   3.129   1.675  0.3568 -0.1025 -0.1989
 1957SOL    HW117504   3.787   3.101   1.704  1.8107 -1.6307  2.6750
 1957SOL    HW217505   3.921   3.125   1.759 -1.6991 -1.3014  0.8868
 1958SOL     OW17506   2.550   0.903   8.862 -0.4525 -0.4683 -0.2687
 1958SOL    HW117507   2.576   0.843   8.791  1.4923  1.1676 -0.9515
 1958SOL    HW217508   2.474   0.943   8.819  0.5857  2.3173  0.5215
 1959SOL     OW17509   2.094   3.521   4.737  0.1118 -0.5725  0.3047
 1959SOL    HW117510   2.041   3.562   4.806 -1.7838  0.7250 -1.8961
 1959SOL    HW217511   2.048   3.438   4.727  0.1192 -0.4231 -0.9623
 1960SOL     OW17512   4.186   4.663   8.473 -0.6411 -0.7455  0.0358
 1960SOL    HW117513   4.211   4.693   8.385 -0.2408 -1.0611  0.0419
 1960SOL    HW217514   4.252   4.595   8.489  0.2645 -0.8235 -3.8055
 1961SOL     OW17515   2.331   0.340   8.563 -0.7251  0.6995 -0.2977
 1961SOL    HW117516   2.312   0.282   8.490  0.3663  2.4726 -1.9987
 1961SOL    HW217517   2.426   0.343   8.552 -0.7980  0.2834 -1.0476
 1962SOL     OW17518   3.404   2.457  15.527  1.0336  0.1540  0.2171
 1962SOL    HW117519   3.404   2.458  15.431  1.7357  1.4198  0.2299
 1962SOL    HW217520   3.325   2.508  15.541  1.1826  0.5290 -0.2954
 1963SOL     OW17521   2.957   3.283   7.605 -0.2183 -0.4035  0.7124
 1963SOL    HW117522   2.869   3.318   7.590  0.9180  1.4342 -1.8330
 1963SOL    HW217523   2.997   3.355   7.653  2.3583 -2.2846  1.3612
 1964SOL     OW17524   0.638   3.225   8.821  0.3448  0.0963  0.3777
 1964SOL    HW117525   0.569   3.233   8.755  0.7750 -1.3627 -0.2445
 1964SOL    HW217526   0.702   3.174   8.772  1.5532  0.3629  1.6856
 1965SOL     OW17527   1.846   2.496   8.696  0.0012 -0.5876  0.3434
 1965SOL    HW117528   1.795   2.494   8.777 -0.9712 -1.3365 -0.2819
 1965SOL    HW217529   1.932   2.516   8.732 -0.4738  1.1112  0.5382
 1966SOL     OW17530   4.030   1.788   1.973 -0.7299 -0.0912  0.0626
 1966SOL    HW117531   3.962   1.855   1.970 -1.1417 -0.4009  2.9109
 1966SOL    HW217532   4.085   1.830   2.038 -0.2695 -1.0775  0.3192
 1967SOL     OW17533   1.153   2.558   5.523 -0.1250  0.4973  0.1200
 1967SOL    HW117534   1.131   2.534   5.613  0.1757 -2.3439 -0.5587
 1967SOL    HW217535   1.105   2.496   5.469  1.3486 -0.2631 -0.3409
 1968SOL     OW17536   0.922   1.167   7.424  0.6833  0.0509 -0.1151
 1968SOL    HW117537   1.000   1.113   7.439  0.6559  0.2266  0.6552
 1968SOL    HW217538   0.867   1.089   7.412 -1.3283  1.3446  0.6099
 1969SOL     OW17539   2.983   3.261  12.311 -0.9052  0.4901  0.1460
 1969SOL    HW117540   2.996   3.174  12.350 -0.0451  0.4684 -0.1862
 1969SOL    HW217541   3.049   3.250  12.242 -2.2885  0.0409 -1.1080
 1970SOL     OW17542   3.139   2.200   2.259  0.0044 -0.4628 -0.3285
 1970SOL    HW117543   3.160   2.143   2.185  2.1879  0.1395 -0.1810
 1970SOL    HW217544   3.047   2.214   2.237  1.1505  1.7267 -3.7604
 1971SOL     OW17545   3.475   2.694   1.871  0.3277 -0.2633 -0.2464
 1971SOL    HW117546   3.442   2.612   1.909  0.6464  1.1473  2.9828
 1971SOL    HW217547   3.427   2.750   1.932 -0.5573 -0.4944 -0.7173
 1972SOL     OW17548   2.409   1.835  11.264  0.6852 -0.1902  0.6019
 1972SOL    HW117549   2.464   1.778  11.210  1.3062  0.5284  0.4807
 1972SOL    HW217550   2.435   1.919  11.226  0.6944 -1.2268 -1.6973
 1973SOL     OW17551   4.106   1.424   2.640  0.4502  0.3088  0.3492
 1973SOL    HW117552   4.068   1.481   2.573  0.1630  2.7377  2.6208
 1973SOL    HW217553   4.037   1.433   2.705 -0.2515 -1.0314 -0.1982
 1974SOL     OW17554   0.123   3.621   7.450  0.1501 -0.8771  0.1576
 1974SOL    HW117555   0.118   3.615   7.355 -4.2353  2.0137  0.1843
 1974SOL    HW217556   0.086   3.708   7.467 -2.4005 -2.0360  0.5915
 1975SOL     OW17557   2.834   1.409   7.730 -0.1392 -0.6476  0.2935
 1975SOL    HW117558   2.861   1.481   7.787  0.3461 -1.1660  0.7132
 1975SOL    HW217559   2.922   1.372   7.725  0.9514  2.0061 -0.0727
 1976SOL     OW17560   3.809   0.490   5.000  0.0323  0.0557 -0.6964
 1976SOL    HW117561   3.876   0.534   5.053 -0.9297 -0.8648  1.2950
 1976SOL    HW217562   3.814   0.396   5.016 -0.5510  0.1639  0.1533
 1977SOL     OW17563   3.846   2.917  16.890  0.3242 -0.2115  0.6031
 1977SOL    HW117564   3.882   3.006  16.889  2.0131 -0.8601  2.0907
 1977SOL    HW217565   3.911   2.855  16.923 -0.4530 -0.5635  1.4670
 1978SOL     OW17566   0.135   1.383   5.836 -0.1671  0.4677  0.3009
 1978SOL    HW117567   0.123   1.334   5.755 -0.5124  1.5225 -0.2747
 1978SOL    HW217568   0.223   1.419   5.825  0.2779 -0.8112 -0.2771
 1979SOL     OW17569   3.335   4.498   7.006 -0.7293  0.0678  0.5244
 1979SOL    HW117570   3.302   4.474   7.092  0.4680 -1.1753  0.6482
 1979SOL    HW217571   3.263   4.487   6.945 -0.3701 -1.7186  0.4178
 1980SOL     OW17572   3.182   1.541   8.858 -0.3828 -0.2062 -1.0314
 1980SOL    HW117573   3.091   1.551   8.887 -0.0731 -2.7899  0.8158
 1980SOL    HW217574   3.169   1.489   8.778  0.3184  1.7061 -2.3887
 1981SOL     OW17575   2.139   0.329   7.342  0.0036 -0.3461 -0.3881
 1981SOL    HW117576   2.058   0.307   7.389  0.8948 -0.7240  0.9893
 1981SOL    HW217577   2.184   0.395   7.395 -0.6566 -0.6388  0.5428
 1982SOL     OW17578   2.015   0.777  16.138  0.0597  0.0767 -0.3109
 1982SOL    HW117579   2.086   0.764  16.201 -1.2009  1.1852  1.3169
 1982SOL    HW217580   1.953   0.710  16.169  0.7215 -1.5408 -2.4841
 1983SOL     OW17581   1.705   3.239  16.733 -0.2014  0.4643 -0.7022
 1983SOL    HW117582   1.668   3.166  16.782 -1.9352 -0.4578 -3.3741
 1983SOL    HW217583   1.717   3.303  16.803  1.8835  2.0351 -2.4890
 1984SOL     OW17584   1.378   1.892  16.990 -0.1362  0.0539  0.0484
 1984SOL    HW117585   1.386   1.796  16.988 -2.4334 -0.1387 -0.6609
 1984SOL    HW217586   1.445   1.931  16.933  0.1963  0.8997  1.0368
 1985SOL     OW17587   0.023   1.406   6.068 -0.2627 -0.0400 -0.1796
 1985SOL    HW117588   0.067   1.336   6.116 -1.3408  0.8739  2.1326
 1985SOL    HW217589   0.081   1.412   5.991  0.3542  2.1723  0.4617
 1986SOL     OW17590   1.233   2.792   1.873  0.0941  1.0284  0.5299
 1986SOL    HW117591   1.266   2.741   1.800 -0.2813 -1.1915  1.8955
 1986SOL    HW217592   1.307   2.849   1.893  1.3489  0.2507 -2.0167
 1987SOL     OW17593   2.078   4.602   9.364 -0.4610 -0.2930  0.0984
 1987SOL    HW117594   2.145   4.652   9.318 -1.1532 -0.6193 -1.2779
 1987SOL    HW217595   1.997   4.637   9.326  0.6823  1.4808 -0.6660
 1988SOL     OW17596   0.757   0.307   2.222 -0.1032  0.3553  0.4092
 1988SOL    HW117597   0.753   0.263   2.307  0.3793 -1.0269 -0.2859
 1988SOL    HW217598   0.723   0.236   2.168  1.5899 -0.7211  0.7147
 1989SOL     OW17599   2.129   2.428   7.355  0.0090  0.0474 -0.8043
 1989SOL    HW117600   2.118   2.338   7.324  1.5784  1.0986 -4.3865
 1989SOL    HW217601   2.085   2.405   7.436  1.8354 -0.6309 -0.0009
 1990SOL     OW17602   3.120   0.945   7.310 -0.2950 -0.4752  0.7830
 1990SOL    HW117603   3.117   0.911   7.220  1.9267  1.7946 -0.1197
 1990SOL    HW217604   3.125   0.865   7.363  0.9395 -0.6338  0.4092
 1991SOL     OW17605   2.843   3.001  17.113  0.1625 -0.1072 -0.5628
 1991SOL    HW117606   2.881   3.083  17.143  0.1162  0.5295 -2.2569
 1991SOL    HW217607   2.776   3.024  17.049 -1.1751  0.7514  1.1397
 1992SOL     OW17608   1.177   0.590  16.838 -0.0605 -0.6309  0.3154
 1992SOL    HW117609   1.158   0.560  16.749 -0.7422 -0.4243  0.3922
 1992SOL    HW217610   1.263   0.632  16.836 -0.3713 -0.0668 -1.6113
 1993SOL     OW17611   1.529   2.771   5.274 -0.7740  0.2932 -0.0185
 1993SOL    HW117612   1.569   2.802   5.355 -0.0096  1.2215 -0.7410
 1993SOL    HW217613   1.458   2.718   5.309 -0.0428 -0.2840  0.5854
 1994SOL     OW17614   3.013   3.626   4.110 -0.2518  0.3952 -0.2727
 1994SOL    HW117615   3.024   3.531   4.119  1.9986  0.8606  1.8930
 1994SOL    HW217616   2.922   3.618   4.138 -0.8085  2.3812 -1.5820
 1995SOL     OW17617   3.266   0.695   5.240  0.1895 -0.5546 -0.4497
 1995SOL    HW117618   3.202   0.761   5.266 -0.0717 -1.1508  0.4066
 1995SOL    HW217619   3.278   0.643   5.319  1.1777  1.4321  0.7330
 1996SOL     OW17620   2.498   4.353   5.114  0.3683 -0.0864  0.1045
 1996SOL    HW117621   2.462   4.424   5.061  0.4936 -0.7139 -0.8094
 1996SOL    HW217622   2.574   4.336   5.058 -0.3239 -0.8347 -0.6008
 1997SOL     OW17623   2.572   4.307   7.293 -0.3029  0.0673 -0.5077
 1997SOL    HW117624   2.503   4.373   7.301 -1.2137 -1.1792  2.2207
 1997SOL    HW217625   2.646   4.356   7.328 -0.7046 -0.7265  1.4992
 1998SOL     OW17626   1.117   0.118  14.906  0.5196 -0.0413  0.2330
 1998SOL    HW117627   1.050   0.059  14.871  0.2992 -0.0144  0.6128
 1998SOL    HW217628   1.152   0.054  14.969  0.1476 -0.3835  0.0949
 1999SOL     OW17629   4.468   1.226   9.692  0.2612  0.7548  0.0959
 1999SOL    HW117630   4.394   1.222   9.631 -0.3310  1.9659  0.7572
 1999SOL    HW217631   4.451   1.314   9.724 -1.8014  0.8978 -1.3930
 2000SOL     OW17632   3.494   0.637   3.031  0.4167  0.3896 -0.0896
 2000SOL    HW117633   3.460   0.571   2.971 -1.0822  2.5929 -1.6668
 2000SOL    HW217634   3.503   0.711   2.971  2.4104  0.6585  0.5283
 2001SOL     OW17635   2.763   4.229   1.115  0.2736 -0.7096  0.1103
 2001SOL    HW117636   2.672   4.246   1.136  0.3521 -0.1993  0.0498
 2001SOL    HW217637   2.779   4.252   1.023 -1.3679 -3.7369 -0.9227
 2002SOL     OW17638   2.985   0.837   0.506  0.1622  0.0267 -0.4121
 2002SOL    HW117639   3.026   0.751   0.505 -0.9704 -0.5358  2.2470
 2002SOL    HW217640   2.901   0.807   0.471  0.6295 -1.9446  0.2097
 2003SOL     OW17641   1.046   1.316   7.815 -0.4126  0.0865 -0.5464
 2003SOL    HW117642   1.088   1.402   7.820 -0.1791 -0.1069  0.7997
 2003SOL    HW217643   1.094   1.271   7.746  2.0787  0.2706  1.0487
 2004SOL     OW17644   3.400   2.775   5.609  0.3749  0.2417 -0.3964
 2004SOL    HW117645   3.351   2.730   5.677  1.7202 -0.3485  0.1921
 2004SOL    HW217646   3.333   2.800   5.545  0.2898 -1.7963 -1.1071
 2005SOL     OW17647   4.680   3.945   2.604  0.8260  0.4496 -0.0580
 2005SOL    HW117648   4.629   3.921   2.681  0.1544  1.2866 -0.2376
 2005SOL    HW217649   0.015   3.999   2.638  1.3120  0.1270 -0.5779
 2006SOL     OW17650   1.297   2.638   4.297  0.0651 -0.0745  0.8907
 2006SOL    HW117651   1.353   2.601   4.228 -0.2297 -0.4040  0.8336
 2006SOL    HW217652   1.358   2.702   4.334 -0.4795 -0.1883  1.9867
 2007SOL     OW17653   1.442   0.352   6.765 -0.3924  0.0311  0.7147
 2007SOL    HW117654   1.470   0.434   6.804 -0.8562  0.8976 -0.7670
 2007SOL    HW217655   1.463   0.371   6.673 -0.6447  2.0749  1.0917
 2008SOL     OW17656   1.309   2.531   6.474 -0.2362  0.0024 -0.0607
 2008SOL    HW117657   1.350   2.572   6.549 -1.7215  1.4582 -0.0440
 2008SOL    HW217658   1.346   2.587   6.406 -1.3214  1.0772  0.2398
 2009SOL     OW17659   3.791   2.843   5.501 -0.3510  0.2503  0.4284
 2009SOL    HW117660   3.833   2.803   5.577 -0.9020 -0.1536  0.5192
 2009SOL    HW217661   3.733   2.904   5.546 -2.2085 -1.9137  0.9514
 2010SOL     OW17662   0.255   2.184  11.481 -0.2022 -0.0481 -0.4749
 2010SOL    HW117663   0.187   2.250  11.494 -0.7445 -0.8072  0.5527
 2010SOL    HW217664   0.190   2.116  11.465 -0.6913  1.0576 -3.2646
 2011SOL     OW17665   0.192   1.858   6.168 -0.8244  0.3866  0.3714
 2011SOL    HW117666   0.287   1.846   6.160 -0.9178  0.7854 -1.3816
 2011SOL    HW217667   0.162   1.774   6.202  0.8606  0.0895  1.1175
 2012SOL     OW17668   0.647   4.660  12.438  0.2841 -0.2350  0.4588
 2012SOL    HW117669   0.677   4.676  12.348 -0.6169 -0.9556  0.0291
 2012SOL    HW217670   0.601   0.004  12.456 -1.0269 -0.8838  0.0800
 2013SOL     OW17671   4.516   0.204   4.557 -0.1949  0.4101  0.3211
 2013SOL    HW117672   4.593   0.255   4.583 -1.9911  0.9572  4.4966
 2013SOL    HW217673   4.447   0.221   4.620 -1.3418  0.6120 -0.9834
 2014SOL     OW17674   1.173   1.429   3.000  0.3307  0.6388 -0.1383
 2014SOL    HW117675   1.084   1.399   3.021  0.1097  0.0654 -1.8807
 2014SOL    HW217676   1.181   1.508   3.053 -2.8826  2.4190 -2.2593
 2015SOL     OW17677   3.151   1.122  17.244 -0.2665  0.4114 -0.3863
 2015SOL    HW117678   3.184   1.032  17.243 -2.0623 -0.2426 -3.1298
 2015SOL    HW217679   3.173   1.138  17.335 -2.3633  2.1868 -0.2010
 2016SOL     OW17680   3.405   3.948   8.177 -0.0093 -0.2526 -0.4834
 2016SOL    HW117681   3.310   3.958   8.176  0.0728  0.5135 -0.1284
 2016SOL    HW217682   3.428   4.016   8.241  0.1825 -1.5298  0.8182
 2017SOL     OW17683   3.569   4.625  13.657  0.5539 -0.2817  0.2153
 2017SOL    HW117684   3.584   4.605  13.749  3.6877 -0.7595 -0.4111
 2017SOL    HW217685   3.618   4.707  13.655 -0.6743  0.4870  1.3500
 2018SOL     OW17686   2.034   3.969   4.630 -0.1542  0.5816 -0.3961
 2018SOL    HW117687   2.087   3.998   4.704 -1.3552 -0.1665  0.7686
 2018SOL    HW217688   1.976   3.902   4.668 -2.5403  2.5111 -0.6496
 2019SOL     OW17689   3.805   0.730   0.739 -0.0531 -0.0774  0.0617
 2019SOL    HW117690   3.743   0.699   0.673  0.2745  0.1175 -0.3419
 2019SOL    HW217691   3.853   0.653   0.767  0.9329  0.3534 -0.4293
 2020SOL     OW17692   1.564   3.778   9.383 -0.2666  0.0446  0.5768
 2020SOL    HW117693   1.646   3.824   9.401 -1.3177  1.8074  0.8743
 2020SOL    HW217694   1.566   3.780   9.287  3.5630  0.8612  0.6815
 2021SOL     OW17695   1.885   3.988   8.684  0.3392 -0.6568 -0.4782
 2021SOL    HW117696   1.839   4.028   8.611 -1.1429  0.8087  1.2644
 2021SOL    HW217697   1.808   3.971   8.739  1.0474 -1.3140  0.3253
 2022SOL     OW17698   4.527   1.669  10.282  0.4377 -0.0859  0.2180
 2022SOL    HW117699   4.570   1.643  10.363 -1.8614 -1.3357  1.0301
 2022SOL    HW217700   4.602   1.689  10.226  0.7268 -1.1430  0.2228
 2023SOL     OW17701   1.556   0.925   8.501 -0.4942 -0.0443 -0.0362
 2023SOL    HW117702   1.634   0.915   8.556  0.1855  2.1973 -0.5901
 2023SOL    HW217703   1.588   0.977   8.428 -1.4997 -0.8182 -1.0157
 2024SOL     OW17704   0.301   3.894  10.887  0.0044 -0.0262  0.1358
 2024SOL    HW117705   0.307   3.982  10.925  2.1237 -0.9443  1.9448
 2024SOL    HW217706   0.377   3.895  10.829  0.7180  0.7663  1.0712
 2025SOL     OW17707   1.351   2.166   4.473 -0.8403  0.1706 -0.4480
 2025SOL    HW117708   1.309   2.220   4.405  1.8862 -0.1440 -2.3636
 2025SOL    HW217709   1.406   2.236   4.506  1.6019 -1.9780 -0.0283
 2026SOL     OW17710   3.832   1.032   5.842  0.0244 -0.1241  1.1901
 2026SOL    HW117711   3.793   1.101   5.790 -1.0791 -2.4406 -1.0663
 2026SOL    HW217712   3.793   1.059   5.924  0.5795  2.3374  0.6342
 2027SOL     OW17713   1.207   0.448   6.515 -0.7245  0.6387 -0.2374
 2027SOL    HW117714   1.121   0.408   6.503 -0.7409  0.8053 -0.6783
 2027SOL    HW217715   1.188   0.533   6.475  0.7976  0.1817 -1.9217
 2028SOL     OW17716   2.802   3.777  11.297 -0.0464  0.9465  0.3839
 2028SOL    HW117717   2.843   3.860  11.274 -1.6676  1.7725  0.4318
 2028SOL    HW217718   2.758   3.750  11.217  1.1350  0.3769 -0.0668
 2029SOL     OW17719   1.853   1.495  13.758  0.2421 -0.0334  0.1267
 2029SOL    HW117720   1.834   1.561  13.824 -1.0694 -1.3529  1.0559
 2029SOL    HW217721   1.943   1.520  13.737  0.1362 -0.1249 -0.4333
 2030SOL     OW17722   1.163   0.769   9.993 -0.4863  0.6599 -0.2572
 2030SOL    HW117723   1.071   0.783   9.970 -0.5968  3.1557  1.6212
 2030SOL    HW217724   1.210   0.758   9.910 -1.1791 -0.1595 -0.5282
 2031SOL     OW17725   1.769   0.764   8.645 -0.7518 -0.4991 -0.2402
 2031SOL    HW117726   1.773   0.825   8.719 -0.4767 -1.0829  0.2372
 2031SOL    HW217727   1.854   0.783   8.607 -0.1333  1.2964  2.0353
 2032SOL     OW17728   1.497   1.177  10.570 -0.0629 -0.2389 -0.4472
 2032SOL    HW117729   1.487   1.082  10.577  2.3176 -0.5016 -0.5758
 2032SOL    HW217730   1.500   1.209  10.660 -2.2916 -0.4261 -0.3005
 2033SOL     OW17731   2.962   2.619   2.802 -0.3895  0.2708 -0.1407
 2033SOL    HW117732   2.917   2.536   2.812 -1.6637  0.7223 -2.1519
 2033SOL    HW217733   2.973   2.644   2.894 -1.1854  1.4513 -0.3710
 2034SOL     OW17734   3.132   4.447  11.075 -0.4734  0.6980  0.1372
 2034SOL    HW117735   3.093   4.534  11.061 -0.6072 -0.0231 -3.9732
 2034SOL    HW217736   3.087   4.393  11.139 -0.7984 -0.7864 -1.3480
 2035SOL     OW17737   0.407   1.910   1.950  0.0629 -0.0881  0.5793
 2035SOL    HW117738   0.338   1.892   1.887  1.1249  1.5515 -1.0375
 2035SOL    HW217739   0.445   1.824   1.970 -0.9150 -0.8064 -0.6686
 2036SOL     OW17740   3.375   3.376  12.913 -0.0515  0.6332  0.1616
 2036SOL    HW117741   3.331   3.367  12.998 -0.3924 -0.4176 -0.1209
 2036SOL    HW217742   3.439   3.306  12.927  0.3251  0.4131 -2.8136
 2037SOL     OW17743   1.838   2.290  15.873  1.0330  0.4512 -0.0687
 2037SOL    HW117744   1.836   2.385  15.879  3.9306  0.4643  0.2313
 2037SOL    HW217745   1.771   2.279  15.805  1.1406 -0.0200 -0.0960
 2038SOL     OW17746   2.357   2.146   8.757  0.2491  0.1013  0.4710
 2038SOL    HW117747   2.336   2.111   8.670 -1.1290 -0.4279  1.0186
 2038SOL    HW217748   2.271   2.160   8.797 -0.3661  0.2759 -0.9213
 2039SOL     OW17749   2.795   4.182  13.884 -0.1228  0.1217  0.0066
 2039SOL    HW117750   2.814   4.170  13.791 -1.3901 -0.3916 -0.1936
 2039SOL    HW217751   2.781   4.276  13.883 -2.7831 -0.2582  1.4077
 2040SOL     OW17752   4.314   4.305  17.671 -0.0972  0.2258 -0.2947
 2040SOL    HW117753   4.348   4.394  17.662  1.2745 -0.0023  2.6878
 2040SOL    HW217754   4.231   4.306  17.624 -1.0308 -1.9957  1.3046
 2041SOL     OW17755   0.532   2.399  16.539  0.0383  0.1925  0.6934
 2041SOL    HW117756   0.538   2.311  16.576  1.1303 -0.6143 -1.3877
 2041SOL    HW217757   0.474   2.442  16.603 -1.7553 -0.5557 -0.4544
 2042SOL     OW17758   1.674   3.708   6.739  0.4748 -0.3332 -0.3984
 2042SOL    HW117759   1.751   3.717   6.683 -0.3720  2.4324 -1.0893
 2042SOL    HW217760   1.618   3.783   6.723  0.3523 -0.4553 -0.5500
 2043SOL     OW17761   0.344   3.611  15.811 -0.2411 -0.2573  0.1485
 2043SOL    HW117762   0.275   3.566  15.861 -0.4437  1.6384  1.5721
 2043SOL    HW217763   0.397   3.658  15.875 -0.6596 -0.3690  0.5716
 2044SOL     OW17764   3.887   3.403   6.195  0.4467  0.4893  0.1431
 2044SOL    HW117765   3.826   3.384   6.124  0.8796 -5.0991  1.2487
 2044SOL    HW217766   3.917   3.314   6.216 -2.2479  0.0163  1.9534
 2045SOL     OW17767   2.635   1.075   6.496 -0.0862  0.1244 -0.2058
 2045SOL    HW117768   2.720   1.064   6.539 -0.6854 -3.7442 -0.0225
 2045SOL    HW217769   2.645   1.163   6.459  1.1719 -0.2582 -0.8052
 2046SOL     OW17770   4.731   0.952  10.045 -0.0956  0.7611  0.1294
 2046SOL    HW117771   4.705   0.895   9.972  4.3098  2.3713 -2.7227
 2046SOL    HW217772   4.685   1.034  10.027  1.7525  1.7321 -0.1788
 2047SOL     OW17773   3.693   2.990   7.291 -0.2294  1.1533  0.4398
 2047SOL    HW117774   3.621   3.045   7.262  0.3540  0.9576 -1.4055
 2047SOL    HW217775   3.758   3.006   7.222  0.2688  1.0255  0.8770
 2048SOL     OW17776   1.405   2.888  16.280  0.3179 -0.1025 -0.1418
 2048SOL    HW117777   1.410   2.847  16.366 -3.8251 -0.8372 -0.2327
 2048SOL    HW217778   1.443   2.974  16.294 -1.0493  0.4577  0.2122
 2049SOL     OW17779   3.181   0.611   2.455  0.5378 -0.1227  0.5730
 2049SOL    HW117780   3.233   0.586   2.379  1.2257  2.7315  0.1075
 2049SOL    HW217781   3.102   0.560   2.436  1.1489 -1.0157  0.4403
 2050SOL     OW17782   4.347   1.032   3.257  0.0371 -0.0857 -1.0009
 2050SOL    HW117783   4.301   1.052   3.339 -0.4271 -2.0044 -0.7811
 2050SOL    HW217784   4.386   1.114   3.227 -1.6343  1.0153 -0.1611
 2051SOL     OW17785   4.269   0.837  14.770  0.2386  0.3619  0.0377
 2051SOL    HW117786   4.188   0.802  14.734 -0.0675  0.1248  0.9722
 2051SOL    HW217787   4.322   0.826  14.691  0.6093  0.3240  0.2905
 2052SOL     OW17788   1.456   3.181   6.817  0.0948 -0.0021 -0.3551
 2052SOL    HW117789   1.516   3.118   6.778 -1.5565 -0.8285 -1.5484
 2052SOL    HW217790   1.512   3.233   6.875 -1.4861  2.0099 -0.6159
 2053SOL     OW17791   2.163   3.962   4.886  0.1487  0.0111 -0.0740
 2053SOL    HW117792   2.147   4.009   4.968  1.7355  1.6580 -0.7021
 2053SOL    HW217793   2.246   4.003   4.862 -1.0248  1.9430 -0.7741
 2054SOL     OW17794   3.339   3.072   8.998  0.2254  0.1669  0.4391
 2054SOL    HW117795   3.396   3.144   9.025 -1.6699  1.5136  0.8900
 2054SOL    HW217796   3.383   2.997   9.036  1.0854  0.5324  0.1613
 2055SOL     OW17797   3.937   0.982   4.911 -0.8301 -0.2896 -0.2986
 2055SOL    HW117798   3.848   0.946   4.909 -1.7432  2.0532 -2.6787
 2055SOL    HW217799   3.942   1.038   4.833  0.3357  0.0203 -0.0036
 2056SOL     OW17800   0.540   2.939   3.702  1.0369 -0.2064 -0.0270
 2056SOL    HW117801   0.548   3.011   3.764  1.8595 -0.8457  0.6021
 2056SOL    HW217802   0.512   2.985   3.622  2.8880 -0.1659 -0.6624
 2057SOL     OW17803   0.603   3.239   3.287 -0.0189 -0.0719 -0.2234
 2057SOL    HW117804   0.639   3.163   3.241  0.6459  0.1297 -0.0366
 2057SOL    HW217805   0.676   3.250   3.348 -1.8409  0.9542  1.7738
 2058SOL     OW17806   1.238   4.608   9.746 -0.1726 -0.1111 -0.0186
 2058SOL    HW117807   1.330   4.616   9.771 -0.0706 -1.1564 -0.0724
 2058SOL    HW217808   1.245   4.573   9.657  1.1942  0.7224 -0.2496
 2059SOL     OW17809   1.320   1.845   3.639 -0.0454 -0.2894  0.2064
 2059SOL    HW117810   1.293   1.810   3.554 -1.0540 -2.3462  1.3840
 2059SOL    HW217811   1.415   1.846   3.631  0.1572  1.0813  2.8279
 2060SOL     OW17812   3.674   4.670  15.782 -0.2729 -0.7337  0.7797
 2060SOL    HW117813   3.729   4.651  15.706  0.1412  1.4331  0.5371
 2060SOL    HW217814   3.643   0.014  15.745 -0.7434 -0.2042  2.3432
 2061SOL     OW17815   4.107   2.678   3.273 -0.6643  0.3431 -0.1545
 2061SOL    HW117816   4.072   2.760   3.238  0.0684  1.3698  1.5131
 2061SOL    HW217817   4.138   2.713   3.356  2.3635  0.5920 -1.3581
 2062SOL     OW17818   2.122   1.805  11.249 -0.2567 -0.7806  0.5289
 2062SOL    HW117819   2.207   1.792  11.290  0.4476  1.3085 -0.2946
 2062SOL    HW217820   2.146   1.875  11.188  0.0658 -1.1971  0.1780
 2063SOL     OW17821   3.853   1.545   8.409 -0.3915 -0.0463 -0.9478
 2063SOL    HW117822   3.874   1.532   8.502 -1.8905 -2.1513 -0.9028
 2063SOL    HW217823   3.943   1.556   8.377  1.3182 -1.0244  3.4567
 2064SOL     OW17824   3.963   4.303   3.770  0.1083 -0.1371 -0.4337
 2064SOL    HW117825   3.890   4.243   3.754  0.9969 -1.8577  2.0239
 2064SOL    HW217826   3.947   4.375   3.708 -0.4599 -0.3205 -0.5041
 2065SOL     OW17827   2.172   0.813   3.310 -1.5137  0.1564 -0.0681
 2065SOL    HW117828   2.267   0.810   3.304 -1.3847  3.5455 -0.0980
 2065SOL    HW217829   2.159   0.750   3.381 -1.2598  0.3825  0.1809
 2066SOL     OW17830   2.292   1.176   3.174 -0.5185 -0.0729  0.1448
 2066SOL    HW117831   2.382   1.179   3.142 -0.7527 -0.6915 -0.5661
 2066SOL    HW217832   2.242   1.212   3.100 -1.3646 -0.1433  0.6766
 2067SOL     OW17833   4.529   1.202  10.469 -0.4717 -0.0057 -0.1128
 2067SOL    HW117834   4.565   1.260  10.535 -1.2537  1.9093 -1.3702
 2067SOL    HW217835   4.604   1.143  10.471 -0.9850 -0.6493  0.1335
 2068SOL     OW17836   4.166   2.107   4.074  0.6335 -0.1617  0.5551
 2068SOL    HW117837   4.148   2.020   4.039  2.3475 -0.3004  0.0202
 2068SOL    HW217838   4.142   2.158   3.997  1.7347  2.1635  1.7525
 2069SOL     OW17839   2.923   4.312   2.472 -0.3076  0.3112  0.6110
 2069SOL    HW117840   2.875   4.271   2.544  1.8730  0.6084  2.2428
 2069SOL    HW217841   3.016   4.306   2.492  0.0967 -1.7848 -1.8359
 2070SOL     OW17842   1.182   0.946   0.702 -0.1942  0.5107  0.1496
 2070SOL    HW117843   1.116   0.968   0.768 -1.0458 -0.9833 -0.2076
 2070SOL    HW217844   1.160   0.855   0.684  0.1892  0.1305  1.5249
 2071SOL     OW17845   4.622   4.516  13.165  0.9487  0.4588 -0.3289
 2071SOL    HW117846   4.676   4.548  13.093 -0.8204 -1.9053 -2.6636
 2071SOL    HW217847   4.538   4.560  13.178 -0.6667 -2.7919  0.2636
 2072SOL     OW17848   0.702   4.109   0.882 -0.0494 -0.2513  0.5584
 2072SOL    HW117849   0.688   4.043   0.814 -0.4032  1.3241 -0.9150
 2072SOL    HW217850   0.796   4.118   0.866 -0.4250  1.5182 -0.7335
 2073SOL     OW17851   4.480   1.807   5.133 -0.2885 -0.0859 -0.1373
 2073SOL    HW117852   4.564   1.826   5.175 -1.2185  0.0831  1.6445
 2073SOL    HW217853   4.451   1.898   5.124  1.4724  0.4705 -0.1569
 2074SOL     OW17854   4.229   1.264   5.367  0.3412  0.3947  0.1916
 2074SOL    HW117855   4.199   1.264   5.458 -2.8084  0.4511 -0.8472
 2074SOL    HW217856   4.171   1.197   5.330  2.2858 -1.1036 -0.1050
 2075SOL     OW17857   4.104   3.278   3.716 -0.0607 -0.2664 -0.4745
 2075SOL    HW117858   4.034   3.317   3.664  0.5474  0.0410 -1.0614
 2075SOL    HW217859   4.164   3.257   3.644  0.2711  1.8795 -0.8239
 2076SOL     OW17860   2.483   4.705  13.809 -0.5898 -0.1408  0.2149
 2076SOL    HW117861   2.570   4.675  13.834 -0.6010 -0.6282 -0.3461
 2076SOL    HW217862   2.470   0.040  13.871 -2.8556  0.1154 -0.5516
 2077SOL     OW17863   4.213   0.266   7.093  0.1391  0.0178  0.1341
 2077SOL    HW117864   4.153   0.217   7.038  0.8343 -0.6408 -0.0286
 2077SOL    HW217865   4.180   0.356   7.100 -0.4740  0.0073 -2.8265
 2078SOL     OW17866   3.239   1.926  16.076  1.0348 -0.2934  0.3290
 2078SOL    HW117867   3.261   1.942  15.984 -1.7444  1.3495 -0.0767
 2078SOL    HW217868   3.184   2.002  16.098 -1.8129 -1.7539 -1.6547
 2079SOL     OW17869   4.525   3.239  11.938  0.0714  0.0706 -0.2004
 2079SOL    HW117870   4.596   3.231  11.875  1.5304 -0.3626  1.5087
 2079SOL    HW217871   4.460   3.291  11.889 -0.7580 -0.5314  0.2647
 2080SOL     OW17872   4.580   2.698  14.956  0.7760  0.4122  0.2397
 2080SOL    HW117873   4.633   2.773  14.929 -0.3540  1.0438 -0.2289
 2080SOL    HW217874   4.645   2.650  15.007 -0.4723 -1.1209  0.3667
 2081SOL     OW17875   3.334   1.834   6.269  0.0610  0.0881 -0.1207
 2081SOL    HW117876   3.257   1.777   6.269 -1.1004  1.6855  0.6273
 2081SOL    HW217877   3.410   1.778   6.287 -1.4551 -2.5621 -1.9390
 2082SOL     OW17878   1.132   1.570   7.803 -0.0422 -0.2572 -0.3379
 2082SOL    HW117879   1.201   1.568   7.737 -1.0331 -0.3588 -1.3704
 2082SOL    HW217880   1.120   1.662   7.826  0.4819 -0.0114 -1.0545
 2083SOL     OW17881   3.861   0.858   1.021  0.0439  0.0820 -0.8219
 2083SOL    HW117882   3.933   0.916   0.998  0.0444  1.4313  2.6099
 2083SOL    HW217883   3.891   0.770   0.997  2.2705  0.8062 -0.6845
 2084SOL     OW17884   4.514   1.645   8.504  0.1035 -0.0854 -0.4392
 2084SOL    HW117885   4.482   1.735   8.498  2.3441  0.8923  2.3394
 2084SOL    HW217886   4.435   1.596   8.481  0.2754 -0.7717  0.4099
 2085SOL     OW17887   2.051   1.726   4.470 -0.3167 -0.5572 -0.2043
 2085SOL    HW117888   1.999   1.646   4.463 -2.3941  0.8051 -0.3526
 2085SOL    HW217889   2.045   1.740   4.564  0.2188 -0.3926 -0.1952
 2086SOL     OW17890   1.116   0.889  17.734 -0.1206 -0.3158 -0.0832
 2086SOL    HW117891   1.065   0.914   0.063  0.9284 -0.7793  0.7696
 2086SOL    HW217892   1.177   0.962  17.725 -0.1673 -0.1794  0.7277
 2087SOL     OW17893   4.430   2.828   8.948 -0.2267 -0.4333 -0.1378
 2087SOL    HW117894   4.409   2.744   8.906  0.5797 -0.3818 -0.6293
 2087SOL    HW217895   4.343   2.866   8.959  0.4326  0.6442  1.3042
 2088SOL     OW17896   2.681   3.299   7.565  0.0661  0.3379  0.0663
 2088SOL    HW117897   2.666   3.241   7.491 -0.1884 -0.5448  0.8126
 2088SOL    HW217898   2.682   3.226   7.627 -0.4654 -0.1567 -0.5063
 2089SOL     OW17899   2.346   3.802   6.912 -0.0645  0.5621 -0.4916
 2089SOL    HW117900   2.367   3.708   6.914 -1.2281  0.3161  0.6893
 2089SOL    HW217901   2.357   3.822   7.005  1.6475  1.8717 -0.9831
 2090SOL     OW17902   0.803   3.369   4.436  0.4807  0.0049  0.1878
 2090SOL    HW117903   0.732   3.330   4.386 -0.2664 -1.5396  2.4607
 2090SOL    HW217904   0.869   3.362   4.367  1.2746  0.2749  0.9149
 2091SOL     OW17905   1.574   1.313   6.651 -0.1647  0.4586  0.0548
 2091SOL    HW117906   1.575   1.374   6.577 -1.5416 -1.7769 -1.7778
 2091SOL    HW217907   1.509   1.247   6.628  0.7473 -0.8777  1.2543
 2092SOL     OW17908   0.118   1.382   4.915 -0.0065 -0.2962  0.1480
 2092SOL    HW117909   0.178   1.403   4.987  1.5675 -1.7512 -0.7377
 2092SOL    HW217910   0.032   1.392   4.956 -1.2925 -3.0562 -1.8161
 2093SOL     OW17911   1.387   3.188   0.970 -0.0897  0.2624 -0.1281
 2093SOL    HW117912   1.413   3.110   1.018  0.7095  1.2168  0.9766
 2093SOL    HW217913   1.370   3.152   0.882 -1.2256  1.8891 -0.5871
 2094SOL     OW17914   3.453   4.099   0.183  0.2218  0.2723 -0.1098
 2094SOL    HW117915   3.392   4.036   0.144 -3.1838  2.2688  1.9563
 2094SOL    HW217916   3.427   4.087   0.274  1.5422 -0.4428  0.1617
 2095SOL     OW17917   1.615   3.101  13.762 -0.2770  0.0918 -0.1566
 2095SOL    HW117918   1.688   3.155  13.730  0.8034 -2.5884 -2.2521
 2095SOL    HW217919   1.570   3.174  13.806  2.5631  0.6428  1.8613
 2096SOL     OW17920   0.437   4.342  14.100  0.2726  0.1861 -0.0318
 2096SOL    HW117921   0.447   4.428  14.059 -1.8534 -0.0664 -1.1047
 2096SOL    HW217922   0.348   4.349  14.136  0.1666  0.1465 -0.2844
 2097SOL     OW17923   0.518   1.021   6.586 -0.0037  0.5190  0.0339
 2097SOL    HW117924   0.435   0.993   6.547 -0.5988  1.8569  0.3336
 2097SOL    HW217925   0.492   1.102   6.630  1.0879 -0.2694  2.1095
 2098SOL     OW17926   1.492   1.110   1.323  0.3088  0.0824 -0.1889
 2098SOL    HW117927   1.517   1.199   1.298 -1.6817  0.4299 -0.9188
 2098SOL    HW217928   1.579   1.069   1.325 -0.3952 -1.3559  0.9022
 2099SOL     OW17929   0.518   2.941   5.043  0.0304  0.3596  0.3724
 2099SOL    HW117930   0.549   2.921   4.955  0.5528  0.1030  0.6176
 2099SOL    HW217931   0.444   2.882   5.058  1.1015 -1.8182 -2.8967
 2100SOL     OW17932   0.017   2.193   0.695 -0.2175 -0.0569 -1.0965
 2100SOL    HW117933   0.021   2.111   0.644  0.9264 -0.3130 -0.5962
 2100SOL    HW217934   4.732   2.260   0.630 -0.7682  0.0419 -0.8094
 2101SOL     OW17935   3.381   3.316   6.819 -0.1593  0.1556 -0.2172
 2101SOL    HW117936   3.404   3.406   6.842 -1.6786  0.3919  0.3428
 2101SOL    HW217937   3.452   3.287   6.761  0.9843  1.3471  0.5798
 2102SOL     OW17938   1.498   0.640   6.900  0.5780 -0.3318 -0.0921
 2102SOL    HW117939   1.444   0.719   6.905 -2.4850 -2.5599  1.7540
 2102SOL    HW217940   1.579   0.666   6.856  0.1850 -0.2193 -0.7536
 2103SOL     OW17941   3.291   3.352   4.955 -0.0469  0.1617 -0.8101
 2103SOL    HW117942   3.221   3.380   4.895  0.4425  0.7186 -1.1179
 2103SOL    HW217943   3.323   3.284   4.896  0.9097  0.6486 -0.8458
 2104SOL     OW17944   0.337   1.191  14.417  0.1584 -0.4734  0.4321
 2104SOL    HW117945   0.252   1.148  14.403 -0.5472  1.4631 -1.1242
 2104SOL    HW217946   0.301   1.271  14.454  2.4240  1.6244 -1.9352
 2105SOL     OW17947   3.078   1.185  16.570  0.4379 -0.0285 -0.1190
 2105SOL    HW117948   3.113   1.221  16.489 -0.4493 -0.3806 -0.6592
 2105SOL    HW217949   3.154   1.199  16.626  1.1177 -2.6695 -0.3713
 2106SOL     OW17950   1.673   0.007   3.610 -0.4020 -0.0762  0.1917
 2106SOL    HW117951   1.593   0.055   3.591  1.0422  2.2950  0.0358
 2106SOL    HW217952   1.695   0.006   3.517 -0.9744 -1.4001  0.0781
 2107SOL     OW17953   0.509   1.390   5.957  0.2800 -0.3038  0.5187
 2107SOL    HW117954   0.497   1.344   5.874  1.4803  0.0138  0.1677
 2107SOL    HW217955   0.568   1.461   5.934  1.7417 -0.6197  3.1737
 2108SOL     OW17956   1.834   2.871  16.978 -0.2453 -0.2758 -0.6146
 2108SOL    HW117957   1.826   2.961  17.011 -1.0686 -0.0074 -1.5424
 2108SOL    HW217958   1.785   2.816  17.039  0.6389 -0.8361 -0.4087
 2109SOL     OW17959   0.765   4.000   7.558 -0.1364 -0.2402 -0.0712
 2109SOL    HW117960   0.682   3.959   7.581 -0.8932  1.0517 -0.5375
 2109SOL    HW217961   0.730   4.083   7.525 -1.7161 -0.9890 -0.2551
 2110SOL     OW17962   2.883   2.903   5.177 -0.2610  0.1646  0.4110
 2110SOL    HW117963   2.841   2.827   5.217 -0.9550  1.0012  1.2868
 2110SOL    HW217964   2.976   2.882   5.185 -0.5578 -0.4716  2.2846
 2111SOL     OW17965   3.053   2.531   4.973  0.4053  0.6561  0.2882
 2111SOL    HW117966   3.054   2.444   4.934  1.1815 -0.5115  2.8735
 2111SOL    HW217967   3.021   2.514   5.062  0.3333  1.3561  0.3961
 2112SOL     OW17968   0.166   3.818  13.324  0.5256  0.2379  0.2010
 2112SOL    HW117969   0.222   3.842  13.398 -0.7568 -2.8373  2.1667
 2112SOL    HW217970   0.167   3.897  13.270  0.8574 -0.2438 -0.5019
 2113SOL     OW17971   2.195   4.258  15.944 -0.2322 -0.1720 -0.1495
 2113SOL    HW117972   2.269   4.205  15.974  0.5307  1.2215  0.4284
 2113SOL    HW217973   2.164   4.316  16.014 -1.0492  0.9892 -1.4562
 2114SOL     OW17974   2.731   3.376   2.865  0.3186 -0.5262 -0.6970
 2114SOL    HW117975   2.819   3.360   2.832  0.4690 -1.6809  0.2521
 2114SOL    HW217976   2.729   3.321   2.944  1.7336 -1.3791 -1.2577
 2115SOL     OW17977   4.302   4.417   8.044  0.6992 -0.0534 -0.4303
 2115SOL    HW117978   4.381   4.453   8.003  1.9515  0.0169  2.0635
 2115SOL    HW217979   4.305   4.461   8.129 -2.8173  1.1018 -0.9130
 2116SOL     OW17980   4.321   0.092   5.147 -0.0539  0.0476  0.3994
 2116SOL    HW117981   4.243   0.047   5.179 -1.1364 -0.2429 -2.6417
 2116SOL    HW217982   4.347   0.135   5.229 -0.2563  0.4211  0.2673
 2117SOL     OW17983   3.923   2.074   1.174 -0.0507 -0.4646 -0.5148
 2117SOL    HW117984   3.969   2.108   1.251 -0.6121 -0.5696 -0.1337
 2117SOL    HW217985   3.993   2.077   1.109  2.2551  0.9201  1.9836
 2118SOL     OW17986   0.024   0.671  17.334  0.2921 -0.2947  0.6778
 2118SOL    HW117987   0.003   0.685  17.242  2.5232  2.6699  0.6302
 2118SOL    HW217988   0.118   0.687  17.342  0.3565 -1.0579  1.4906
 2119SOL     OW17989   0.520   3.389  14.409  0.6318  0.1826  0.0887
 2119SOL    HW117990   0.561   3.344  14.334  0.5891  2.4137 -1.2638
 2119SOL    HW217991   0.597   3.408  14.463  0.6934  2.7579 -0.9370
 2120SOL     OW17992   3.372   3.387   1.602  0.4576  0.0420 -0.2903
 2120SOL    HW117993   3.409   3.462   1.554 -1.2699  1.2292  0.2597
 2120SOL    HW217994   3.279   3.402   1.619  0.4440 -0.0297 -0.3016
 2121SOL     OW17995   3.934   2.330   8.418 -0.3048 -0.0920 -0.6050
 2121SOL    HW117996   4.025   2.325   8.389 -0.0739 -1.7713  0.4156
 2121SOL    HW217997   3.881   2.357   8.343 -1.1024  0.4271  0.1553
 2122SOL     OW17998   4.370   4.630   3.897  0.0179  0.1786  0.1395
 2122SOL    HW117999   4.285   4.652   3.936  0.3363 -1.9379  2.0235
 2122SOL    HW218000   4.335   4.587   3.819 -2.3631  2.0422  0.1695
 2123SOL     OW18001   3.434   1.093   4.495  0.0816 -0.0450  0.1194
 2123SOL    HW118002   3.432   1.147   4.574  2.7060 -2.8553  2.0987
 2123SOL    HW218003   3.382   1.145   4.434  0.0908 -1.5618 -1.1681
 2124SOL     OW18004   1.426   2.194   2.954 -0.2068 -0.6846 -0.2468
 2124SOL    HW118005   1.453   2.214   2.865  2.6415  0.9578  0.9540
 2124SOL    HW218006   1.337   2.163   2.942 -0.1237 -0.5188 -1.2444
 2125SOL     OW18007   1.060   0.731   5.995  0.4348 -0.0206  0.1023
 2125SOL    HW118008   1.017   0.739   5.910  0.5388  0.5003  0.0986
 2125SOL    HW218009   1.084   0.822   6.012 -0.3461 -0.1967  2.0875
 2126SOL     OW18010   3.178   2.798   0.616  0.4410  0.5731  0.1187
 2126SOL    HW118011   3.161   2.708   0.644  2.5054  0.8399  2.2235
 2126SOL    HW218012   3.273   2.790   0.610  0.2120 -2.5708  0.6972
 2127SOL     OW18013   3.385   0.501  17.038 -0.2847 -0.0449 -0.5674
 2127SOL    HW118014   3.453   0.442  17.006  0.3982  0.2058  0.3926
 2127SOL    HW218015   3.373   0.459  17.124  0.7330 -0.8311 -0.8144
 2128SOL     OW18016   0.152   0.211   0.451  0.4696  0.2912  0.1421
 2128SOL    HW118017   0.066   0.248   0.471  1.4431  1.2108  2.7447
 2128SOL    HW218018   0.162   0.268   0.374  0.2299  0.8798  0.5399
 2129SOL     OW18019   3.737   4.420   6.083 -0.1878 -0.2870 -0.4631
 2129SOL    HW118020   3.829   4.433   6.108 -0.0541  1.6938 -2.0271
 2129SOL    HW218021   3.733   4.336   6.129 -1.7494 -0.7895 -1.5384
 2130SOL     OW18022   1.536   3.250   1.927 -0.1824 -0.1044  0.2752
 2130SOL    HW118023   1.604   3.270   1.862 -0.0539  1.1710  0.8108
 2130SOL    HW218024   1.487   3.331   1.937 -0.2269 -0.0852 -0.0999
 2131SOL     OW18025   0.407   3.439   3.195  0.2207  0.0780  0.0164
 2131SOL    HW118026   0.463   3.516   3.205  1.9403 -1.1349 -0.0668
 2131SOL    HW218027   0.471   3.374   3.225  0.7850  0.6780  0.1134
 2132SOL     OW18028   0.360   4.415  16.706 -0.1653 -0.7475  0.2141
 2132SOL    HW118029   0.282   4.434  16.654  1.1788 -1.1275 -1.9449
 2132SOL    HW218030   0.395   4.343  16.653 -0.0977  0.0746 -0.8480
 2133SOL     OW18031   2.932   4.494   4.162  0.0159  0.0072  0.0910
 2133SOL    HW118032   3.019   4.503   4.123  0.5002 -1.0934  0.9257
 2133SOL    HW218033   2.951   4.408   4.198 -0.8646  1.1050  3.2447
 2134SOL     OW18034   1.214   3.101   5.947 -0.1793  0.6978 -0.0755
 2134SOL    HW118035   1.221   3.109   5.852 -1.8246 -2.0029 -0.4272
 2134SOL    HW218036   1.172   3.183   5.972  1.2043  1.3456  0.0977
 2135SOL     OW18037   0.604   1.391   2.278 -0.0035 -0.7928  0.1361
 2135SOL    HW118038   0.517   1.430   2.269 -0.1797 -1.5243 -1.3292
 2135SOL    HW218039   0.659   1.443   2.336  1.3063 -2.8982  0.7755
 2136SOL     OW18040   3.942   3.200   1.429 -0.2100 -0.0958 -0.2104
 2136SOL    HW118041   3.913   3.172   1.516  0.5489 -1.1384 -0.2858
 2136SOL    HW218042   3.894   3.282   1.417 -2.8936 -1.6810 -0.0811
 2137SOL     OW18043   2.537   3.809   4.086  0.7262 -0.5550 -0.3344
 2137SOL    HW118044   2.626   3.774   4.076  1.4810  1.1352  0.4093
 2137SOL    HW218045   2.486   3.748   4.034  0.5900 -0.2240 -0.5867
 2138SOL     OW18046   1.606   0.875   2.440  0.7104 -0.2098 -0.2969
 2138SOL    HW118047   1.666   0.949   2.446  0.3335  0.0011  1.0000
 2138SOL    HW218048   1.523   0.922   2.435  0.3456 -0.6199  1.8155
 2139SOL     OW18049   4.171   0.887  13.860 -0.6588 -0.4511  0.2374
 2139SOL    HW118050   4.125   0.968  13.884  2.2825  1.8281 -1.7999
 2139SOL    HW218051   4.212   0.849  13.937  0.2626  0.2155  0.0811
 2140SOL     OW18052   0.931   3.672   8.613  0.0127 -0.8716  0.2802
 2140SOL    HW118053   0.859   3.629   8.661 -0.4682 -0.2946  0.0837
 2140SOL    HW218054   0.909   3.642   8.525  2.8425  0.7302 -0.9574
 2141SOL     OW18055   4.638   0.426   9.064  0.1428 -0.0723  0.1989
 2141SOL    HW118056   4.585   0.500   9.096  1.3960  1.2869 -0.9050
 2141SOL    HW218057   4.688   0.474   8.999  1.4822 -0.2761  1.0817
 2142SOL     OW18058   2.293   4.125   5.446  0.0841  0.3213  0.3084
 2142SOL    HW118059   2.271   4.041   5.486 -0.9015 -0.2412 -1.3960
 2142SOL    HW218060   2.265   4.110   5.355  1.2542  0.1907 -0.0337
 2143SOL     OW18061   3.225   0.382   5.153  0.3473 -0.3335 -0.6093
 2143SOL    HW118062   3.218   0.349   5.064 -1.4979 -1.8002  0.0784
 2143SOL    HW218063   3.192   0.472   5.148  0.5001 -0.1582  1.3876
 2144SOL     OW18064   0.012   1.036   0.214 -0.3489 -0.4954  0.5917
 2144SOL    HW118065   4.731   1.039   0.308  1.8572 -2.2996  1.0775
 2144SOL    HW218066   4.686   1.093   0.171 -0.8726 -0.8473  0.8860
 2145SOL     OW18067   3.628   3.066   0.527 -0.0586 -0.5712 -0.2277
 2145SOL    HW118068   3.696   3.010   0.564  1.6443  1.2056 -0.6416
 2145SOL    HW218069   3.639   3.145   0.579 -1.0597 -0.7578  0.2686
 2146SOL     OW18070   2.926   1.985   6.616  0.5168 -0.0347 -0.5086
 2146SOL    HW118071   3.017   2.017   6.612 -0.1065  1.6092 -1.5597
 2146SOL    HW218072   2.878   2.048   6.562 -2.7039 -0.9366  1.3364
 2147SOL     OW18073   1.824   3.216  13.240 -0.4629  0.3508  0.0679
 2147SOL    HW118074   1.786   3.228  13.152 -0.0449 -0.9100 -0.2783
 2147SOL    HW218075   1.771   3.273  13.296 -1.7257 -1.6931  0.9565
 2148SOL     OW18076   3.439   3.124   1.581  0.1279  0.3424 -0.6067
 2148SOL    HW118077   3.428   3.120   1.486 -2.6649  0.3106 -0.2855
 2148SOL    HW218078   3.405   3.211   1.601 -1.8320  0.1678 -3.1709
 2149SOL     OW18079   3.788   3.407   5.295 -0.3343  0.8472 -0.0133
 2149SOL    HW118080   3.867   3.424   5.346 -0.4424  0.8068  0.1685
 2149SOL    HW218081   3.831   3.371   5.218 -3.7254 -2.5031 -0.3392
 2150SOL     OW18082   2.544   2.461   7.005 -0.2145 -0.4023 -0.0314
 2150SOL    HW118083   2.636   2.457   6.982 -0.5458 -1.6736 -1.1449
 2150SOL    HW218084   2.539   2.415   7.089 -2.4612  0.3163  0.2525
 2151SOL     OW18085   4.091   2.649   4.438 -0.2614  0.3601 -0.2864
 2151SOL    HW118086   3.999   2.632   4.418 -0.0912 -0.8126 -0.0523
 2151SOL    HW218087   4.085   2.744   4.443 -2.0213  0.3365 -2.0276
 2152SOL     OW18088   3.851   2.875   6.096 -0.2759  0.0198 -0.1099
 2152SOL    HW118089   3.768   2.826   6.099  0.5830 -1.4371  0.1294
 2152SOL    HW218090   3.867   2.887   6.189  1.1293  0.2792 -0.3874
 2153SOL     OW18091   2.409   3.246   3.464  0.0769  0.4016  0.2425
 2153SOL    HW118092   2.478   3.293   3.511  0.9695 -1.1255  0.4445
 2153SOL    HW218093   2.414   3.286   3.378 -0.7839 -2.0515 -0.9468
 2154SOL     OW18094   2.761   2.154  14.842  0.1500 -0.5845 -0.1448
 2154SOL    HW118095   2.832   2.108  14.797 -0.6572 -1.8471 -0.1225
 2154SOL    HW218096   2.690   2.144  14.779  0.1043 -0.5116 -0.1049
 2155SOL     OW18097   2.088   1.659   2.742  0.2906 -0.3522 -0.1754
 2155SOL    HW118098   2.140   1.740   2.741  2.1207 -1.5354  0.4935
 2155SOL    HW218099   2.161   1.599   2.728  0.6202  0.4086 -1.7686
 2156SOL     OW18100   2.601   0.612  16.016  0.6228 -0.1493 -0.1288
 2156SOL    HW118101   2.517   0.639  15.977  0.9366  1.4143  0.2927
 2156SOL    HW218102   2.649   0.609  15.933 -0.8323  0.6637 -1.0072
 2157SOL     OW18103   0.823   0.068  13.317  0.5178 -0.1505 -0.4066
 2157SOL    HW118104   0.742   0.020  13.328  0.9156 -0.7409 -0.0911
 2157SOL    HW218105   0.888   0.032  13.378  0.4207  0.5810  0.1344
 2158SOL     OW18106   2.689   1.260   2.512 -0.7504 -0.1513  0.5166
 2158SOL    HW118107   2.617   1.314   2.542 -2.4473 -0.5017 -2.8341
 2158SOL    HW218108   2.704   1.304   2.428 -0.3322 -0.7653  0.2624
 2159SOL     OW18109   0.666   0.649  11.065 -0.1850 -0.5719  0.4873
 2159SOL    HW118110   0.705   0.636  10.978  0.5702  1.9382  0.4468
 2159SOL    HW218111   0.707   0.579  11.115  1.7099  0.2331  0.0661
 2160SOL     OW18112   4.044   4.320  17.617 -0.1977 -0.3615 -0.6859
 2160SOL    HW118113   4.034   4.409  17.650 -0.1501 -0.6419  0.0912
 2160SOL    HW218114   3.950   4.302  17.617 -0.0197 -1.2869 -0.6122
 2161SOL     OW18115   3.536   1.601   7.174 -0.4923  0.0684  0.0304
 2161SOL    HW118116   3.565   1.528   7.230  1.6356  0.5171 -0.4718
 2161SOL    HW218117   3.609   1.663   7.171  0.5622 -1.1206  0.9219
 2162SOL     OW18118   1.832   4.676   3.025 -0.2671 -0.0852  0.3496
 2162SOL    HW118119   1.839   0.033   3.036  1.8888  0.0296 -2.0203
 2162SOL    HW218120   1.784   4.656   3.105 -0.2604  0.8948  0.5994
 2163SOL     OW18121   0.045   1.925   7.202 -0.0936  0.2924  0.2825
 2163SOL    HW118122   4.690   1.948   7.212 -0.2550 -0.5174  0.6854
 2163SOL    HW218123   0.076   2.000   7.253  0.2119  0.0314  0.4896
 2164SOL     OW18124   1.763   1.620   3.883  0.3869 -0.3667 -0.4002
 2164SOL    HW118125   1.751   1.575   3.966 -0.4930  0.8378  0.1232
 2164SOL    HW218126   1.858   1.622   3.871  0.5943  1.2250  1.5873
 2165SOL     OW18127   3.887   2.968  11.958  0.7974 -0.5439 -0.0229
 2165SOL    HW118128   3.979   2.943  11.962  0.7681 -0.7995 -1.0169
 2165SOL    HW218129   3.849   2.883  11.984  1.3597 -0.0909  2.2427
 2166SOL     OW18130   2.969   4.429   4.502  0.6712  0.5315  0.0373
 2166SOL    HW118131   2.927   4.414   4.417  0.7785  1.5709 -0.2020
 2166SOL    HW218132   3.020   4.348   4.505  2.1391  1.4454 -0.5112
 2167SOL     OW18133   2.478   1.252   7.290 -0.6044 -0.4379  0.4755
 2167SOL    HW118134   2.483   1.219   7.201 -0.2665  0.4748  0.1562
 2167SOL    HW218135   2.392   1.292   7.284 -1.3927 -2.4135 -1.2523
 2168SOL     OW18136   0.646   3.393   3.998  0.3260  0.0785 -0.1093
 2168SOL    HW118137   0.589   3.468   4.015  0.9177  0.7845 -1.2069
 2168SOL    HW218138   0.618   3.342   4.073 -0.0317  1.8205  0.9493
 2169SOL     OW18139   0.215   4.672   7.251  0.3493  0.3073  0.0969
 2169SOL    HW118140   0.184   4.725   7.179  0.7317  0.0355 -0.2681
 2169SOL    HW218141   0.146   4.608   7.271 -0.5510  1.4132  0.5074
 2170SOL     OW18142   3.682   4.551  16.817  0.1897 -0.4887 -0.3072
 2170SOL    HW118143   3.748   4.498  16.773  1.4047  1.2827 -0.6261
 2170SOL    HW218144   3.608   4.491  16.815 -0.0594 -0.2298  1.1883
 2171SOL     OW18145   3.579   2.411   9.451  0.2540 -0.5039 -0.5247
 2171SOL    HW118146   3.587   2.338   9.512 -0.4622  0.8764  1.2259
 2171SOL    HW218147   3.519   2.368   9.391  0.4593 -0.2953 -0.8806
 2172SOL     OW18148   2.466   2.087   3.303 -0.2679  0.5635  0.0058
 2172SOL    HW118149   2.437   2.020   3.241  0.7685  0.6029 -0.5183
 2172SOL    HW218150   2.556   2.064   3.329 -0.5281 -3.6041 -2.7484
 2173SOL     OW18151   4.732   3.839   5.627  0.3740  0.1004  0.4825
 2173SOL    HW118152   4.660   3.781   5.649  0.9689 -1.1612 -0.8970
 2173SOL    HW218153   0.069   3.783   5.604  1.9302  2.0406  0.7684
 2174SOL     OW18154   2.329   0.227   6.035 -0.0879 -0.2057 -0.1994
 2174SOL    HW118155   2.424   0.222   6.027  0.2133  0.1353  3.1500
 2174SOL    HW218156   2.317   0.239   6.129  0.1744  2.1860 -0.4582
 2175SOL     OW18157   1.836   0.100   5.242 -0.4047 -0.5606 -0.8131
 2175SOL    HW118158   1.855   0.194   5.241  0.5925 -0.7657 -1.0078
 2175SOL    HW218159   1.825   0.091   5.337 -2.2468 -1.8153 -1.1412
 2176SOL     OW18160   4.053   2.766  12.171 -0.3682 -0.0972 -0.4258
 2176SOL    HW118161   4.100   2.697  12.217  1.5137  0.9796 -0.7524
 2176SOL    HW218162   4.110   2.783  12.097  2.0768 -1.0636  1.2343
 2177SOL     OW18163   3.637   2.567   8.430  0.0231 -0.1453 -0.0319
 2177SOL    HW118164   3.558   2.513   8.431 -0.0746  0.0084  0.4193
 2177SOL    HW218165   3.617   2.660   8.432 -0.6946 -0.3286  0.9708
 2178SOL     OW18166   0.846   2.826  11.127 -0.0361  0.4818  0.1819
 2178SOL    HW118167   0.821   2.916  11.108  3.6171  1.9797  2.4321
 2178SOL    HW218168   0.941   2.831  11.126 -0.0893  0.8937 -1.6380
 2179SOL     OW18169   2.823   0.508   4.805 -0.3303  0.2638  0.0877
 2179SOL    HW118170   2.740   0.474   4.837 -0.3648  1.0537  0.8350
 2179SOL    HW218171   2.807   0.509   4.711 -0.5608  0.4584  0.1292
 2180SOL     OW18172   4.466   2.339   5.186  0.0643  0.2378 -0.8198
 2180SOL    HW118173   4.488   2.359   5.277 -0.7004  0.2217 -0.6335
 2180SOL    HW218174   4.392   2.396   5.165 -0.1370  1.1243  2.3201
 2181SOL     OW18175   2.230   1.203  14.181  0.5818 -0.2661  0.2125
 2181SOL    HW118176   2.206   1.110  14.177 -0.2945  0.0179 -1.0704
 2181SOL    HW218177   2.240   1.209  14.276 -0.7219 -3.4541  0.5630
 2182SOL     OW18178   4.160   2.631  11.726 -0.0176  0.6416  0.3215
 2182SOL    HW118179   4.143   2.688  11.651  2.7693  2.1551  0.8573
 2182SOL    HW218180   4.095   2.561  11.715  0.0134  0.4536  1.3941
 2183SOL     OW18181   2.198   4.113   8.424 -0.1571  0.7659  0.4502
 2183SOL    HW118182   2.263   4.149   8.363 -1.0237  0.2181 -0.8022
 2183SOL    HW218183   2.258   4.064   8.479 -2.2746 -0.2349  1.8562
 2184SOL     OW18184   2.589   0.454  16.244  0.0543 -0.3547 -0.2455
 2184SOL    HW118185   2.588   0.512  16.168 -0.2961  0.9992  0.7908
 2184SOL    HW218186   2.499   0.423  16.248  0.3390 -1.3841 -1.7947
 2185SOL     OW18187   4.495   3.172   5.202  0.1325  0.2370 -0.4710
 2185SOL    HW118188   4.503   3.114   5.126 -0.1891  1.1578 -1.2204
 2185SOL    HW218189   4.555   3.242   5.176  3.6577 -2.0668  1.4797
 2186SOL     OW18190   1.364   0.496  10.686 -0.4232 -0.1127  0.1224
 2186SOL    HW118191   1.277   0.465  10.659 -0.4009 -0.1224  0.0609
 2186SOL    HW218192   1.416   0.420  10.713  1.0408  0.9171  0.2142
 2187SOL     OW18193   3.171   3.236   1.751  0.2940  0.0554 -0.5857
 2187SOL    HW118194   3.177   3.176   1.826 -0.1898  0.9984  0.2137
 2187SOL    HW218195   3.077   3.252   1.753  0.1615 -0.7610 -0.5880
 2188SOL     OW18196   4.590   1.683   9.040  0.2777  0.2512 -0.7397
 2188SOL    HW118197   4.534   1.632   8.981 -1.0807  1.8391 -0.8557
 2188SOL    HW218198   4.553   1.768   9.015  0.3633  0.8533  1.2202
 2189SOL     OW18199   2.124   3.248   5.651  0.2530  0.2747  0.4228
 2189SOL    HW118200   2.114   3.314   5.582  1.8665  1.4577  1.3368
 2189SOL    HW218201   2.214   3.263   5.679  0.1594  0.7157  0.4882
 2190SOL     OW18202   4.182   1.784  10.886  0.7379  0.2415  0.5286
 2190SOL    HW118203   4.179   1.714  10.820 -2.3222 -0.0354  0.9471
 2190SOL    HW218204   4.110   1.760  10.945  0.8716 -0.0737  0.5667
 2191SOL     OW18205   0.019   1.301   2.862  0.3360  0.5955 -0.2541
 2191SOL    HW118206   4.677   1.260   2.828  1.0408 -3.3275  2.9323
 2191SOL    HW218207   0.040   1.367   2.795  1.1661 -2.4291 -2.9581
 2192SOL     OW18208   1.287   3.826   1.190 -0.3121  0.1020 -0.7113
 2192SOL    HW118209   1.261   3.782   1.109 -1.6098 -0.2589 -0.1001
 2192SOL    HW218210   1.297   3.908   1.141 -0.3230 -0.1235 -1.0916
 2193SOL     OW18211   3.445   2.367   0.393 -0.2311 -0.4874  0.1359
 2193SOL    HW118212   3.376   2.433   0.382 -0.0787 -0.4786 -0.8132
 2193SOL    HW218213   3.401   2.301   0.339 -1.5244  0.9066 -0.5390
 2194SOL     OW18214   2.707   1.247   9.734  0.1086 -0.0701  0.0067
 2194SOL    HW118215   2.725   1.290   9.650  0.9796  1.8076  1.1828
 2194SOL    HW218216   2.709   1.321   9.794  0.2191  0.5681 -0.7792
 2195SOL     OW18217   2.809   4.149   7.657 -0.0659  0.0700 -0.0744
 2195SOL    HW118218   2.760   4.077   7.617  0.1351 -0.8338  1.3054
 2195SOL    HW218219   2.856   4.185   7.582 -1.0393 -0.2937 -0.8646
 2196SOL     OW18220   2.823   2.716  12.565  0.6419 -0.0963  0.2751
 2196SOL    HW118221   2.907   2.753  12.591  1.8471 -1.8706 -1.0816
 2196SOL    HW218222   2.846   2.629  12.532  1.2219  0.1323  0.0827
 2197SOL     OW18223   1.492   4.492   1.391 -0.4458  0.1748  0.0480
 2197SOL    HW118224   1.422   4.479   1.454 -0.8814 -0.7439 -0.6272
 2197SOL    HW218225   1.521   4.583   1.385  2.3697 -0.6113  1.5918
 2198SOL     OW18226   4.707   1.256   4.427  0.3661 -0.2199  0.1222
 2198SOL    HW118227   0.028   1.259   4.504 -1.5419  2.7881  1.4405
 2198SOL    HW218228   4.686   1.350   4.426  1.2429 -0.0641 -2.3735
 2199SOL     OW18229   3.546   0.979   7.994  0.1980  0.8030  0.3842
 2199SOL    HW118230   3.490   1.050   7.964 -1.0452  0.2799  1.4538
 2199SOL    HW218231   3.578   1.017   8.076  0.3801  0.8362  0.2985
 2200SOL     OW18232   3.862   4.241   5.684 -0.1328  0.0762 -0.6333
 2200SOL    HW118233   3.847   4.190   5.764 -0.1130 -0.3677 -0.9085
 2200SOL    HW218234   3.907   4.177   5.629  0.8990 -0.0238  0.3286
 2201SOL     OW18235   3.715   4.203   7.694 -0.7294  0.1970 -0.3366
 2201SOL    HW118236   3.729   4.203   7.789 -0.9046  1.2216 -0.3097
 2201SOL    HW218237   3.727   4.295   7.670  2.2587  0.6438  2.9101
 2202SOL     OW18238   0.193   2.247   5.445 -0.5218  0.6304  0.2964
 2202SOL    HW118239   0.115   2.228   5.393 -0.6555  2.4439 -0.1814
 2202SOL    HW218240   0.222   2.333   5.414  0.8303  0.7233  1.7722
 2203SOL     OW18241   4.726   0.429   7.489 -0.3507  0.2051  0.0817
 2203SOL    HW118242   4.707   0.522   7.478 -0.0346  0.4681  1.7690
 2203SOL    HW218243   4.664   0.388   7.428  1.7982  1.0739 -2.6945
 2204SOL     OW18244   3.080   3.204   7.395 -0.0269 -0.2143  0.3492
 2204SOL    HW118245   3.026   3.274   7.359 -0.7797 -1.0989 -0.2255
 2204SOL    HW218246   3.041   3.208   7.482  1.7097  1.4295  1.0504
 2205SOL     OW18247   2.100   2.985   2.791 -0.0053  0.0317 -0.0375
 2205SOL    HW118248   2.033   2.999   2.725  0.1641 -1.0805 -0.4553
 2205SOL    HW218249   2.138   2.902   2.761  0.7571  0.5779 -0.6015
 2206SOL     OW18250   2.027   2.308   3.236  1.0568  0.2933  0.0695
 2206SOL    HW118251   2.025   2.394   3.279 -0.1514  0.3878 -0.1740
 2206SOL    HW218252   2.116   2.280   3.256  1.3190  0.7613 -0.4181
 2207SOL     OW18253   2.394   3.617   9.230 -0.2383  0.2008 -0.3299
 2207SOL    HW118254   2.392   3.712   9.234 -1.3038  0.1869 -0.5868
 2207SOL    HW218255   2.465   3.617   9.294 -1.5429  1.8829  1.0965
 2208SOL     OW18256   0.615   4.614  10.715 -0.1272 -0.1523 -0.5418
 2208SOL    HW118257   0.557   4.675  10.761  0.2213  0.2414 -0.6215
 2208SOL    HW218258   0.557   4.572  10.651 -1.1911  0.0323  0.3082
 2209SOL     OW18259   0.500   2.952  13.357  0.0943  0.3147  0.2563
 2209SOL    HW118260   0.414   2.992  13.360 -0.2041 -0.2801 -0.6024
 2209SOL    HW218261   0.533   3.000  13.434  0.1547 -1.9650  1.6473
 2210SOL     OW18262   4.439   1.192   2.005  0.3319  0.4971 -0.1426
 2210SOL    HW118263   4.373   1.122   2.002 -2.4985  3.1277  1.2674
 2210SOL    HW218264   4.452   1.200   2.100  2.5484 -0.4639 -0.3546
 2211SOL     OW18265   0.615   1.248  17.528 -0.4726 -0.2156 -0.6781
 2211SOL    HW118266   0.547   1.304  17.565 -1.5809  0.3550 -3.6066
 2211SOL    HW218267   0.569   1.167  17.554 -1.2043  0.4977  0.2617
 2212SOL     OW18268   0.614   4.292   1.778  0.0591  0.2211  0.4437
 2212SOL    HW118269   0.562   4.243   1.842  2.1514 -2.9633 -0.3389
 2212SOL    HW218270   0.680   4.336   1.832 -1.6821  0.6546  2.2457
 2213SOL     OW18271   4.544   4.591   6.474 -0.0334  0.1612  0.9425
 2213SOL    HW118272   4.598   4.622   6.401 -0.6266  0.6895  0.7258
 2213SOL    HW218273   4.469   4.561   6.422 -0.1613  0.9520  0.6553
 2214SOL     OW18274   4.219   1.377   6.079 -0.4539  0.6316 -0.3136
 2214SOL    HW118275   4.143   1.375   6.021 -0.6078  1.2094 -0.1306
 2214SOL    HW218276   4.251   1.464   6.053  1.4050 -0.1912 -0.7684
 2215SOL     OW18277   0.338   3.015  17.215  0.1306  0.1258  0.6552
 2215SOL    HW118278   0.373   3.066  17.141 -2.7645  0.0087 -0.7769
 2215SOL    HW218279   0.400   3.039  17.284 -1.7857  1.8619  1.7793
 2216SOL     OW18280   2.584   1.371   9.185  0.3810 -0.1359  0.0290
 2216SOL    HW118281   2.597   1.458   9.148 -0.8878 -0.3642 -0.9751
 2216SOL    HW218282   2.667   1.335   9.152  0.1125  1.3718 -2.2653
 2217SOL     OW18283   3.113   3.422   3.818 -0.2391 -0.0283  0.2555
 2217SOL    HW118284   3.141   3.359   3.752 -1.3977  1.8673 -2.0185
 2217SOL    HW218285   3.017   3.413   3.818 -0.2287 -0.1082 -1.1195
 2218SOL     OW18286   2.300   3.925   8.141 -0.3117  0.1867  0.2464
 2218SOL    HW118287   2.265   3.891   8.223 -2.1198  0.0522 -0.5580
 2218SOL    HW218288   2.373   3.864   8.130  1.4579  2.6365 -1.6187
 2219SOL     OW18289   0.474   3.216   6.731  0.1026 -0.2364  0.1245
 2219SOL    HW118290   0.406   3.273   6.768 -0.5277 -0.6150 -0.4392
 2219SOL    HW218291   0.420   3.164   6.670 -0.3020  1.0606 -0.6288
 2220SOL     OW18292   0.324   4.350   7.465  0.2266 -0.3872 -0.5472
 2220SOL    HW118293   0.349   4.297   7.540 -0.2899  0.1113 -0.0259
 2220SOL    HW218294   0.404   4.396   7.438  0.8173 -1.1228 -0.0425
 2221SOL     OW18295   0.383   3.109   8.411 -0.3669  0.3915  0.6710
 2221SOL    HW118296   0.314   3.141   8.352  2.4973  2.3698 -1.5872
 2221SOL    HW218297   0.366   3.157   8.493 -0.2310  1.0531  0.3099
 2222SOL     OW18298   1.834   4.591   6.272 -0.5801 -0.2873  0.5567
 2222SOL    HW118299   1.863   4.501   6.262 -1.3411 -0.4015 -0.7079
 2222SOL    HW218300   1.921   4.631   6.264 -0.6694 -0.5599 -1.6800
 2223SOL     OW18301   4.234   1.905   7.940  0.1642 -0.3636 -0.2010
 2223SOL    HW118302   4.278   1.874   8.020  2.5607  0.8212 -1.0349
 2223SOL    HW218303   4.285   1.986   7.946  1.5450 -1.2566  0.4846
 2224SOL     OW18304   0.377   4.242  16.467 -0.1287 -0.4333  0.3025
 2224SOL    HW118305   0.322   4.297  16.411 -2.0335 -1.9019  0.7406
 2224SOL    HW218306   0.463   4.283  16.453 -0.5007 -0.6049 -2.4274
 2225SOL     OW18307   0.505   0.231   8.234 -0.2495 -0.4568  0.4609
 2225SOL    HW118308   0.544   0.317   8.249 -0.8065 -0.0043 -0.7093
 2225SOL    HW218309   0.480   0.196   8.320 -1.0033  0.8072  0.7450
 2226SOL     OW18310   4.170   3.200   2.292  0.2098  0.1352  0.2497
 2226SOL    HW118311   4.210   3.256   2.225 -1.1057 -0.6358 -1.1827
 2226SOL    HW218312   4.251   3.161   2.326 -1.0531  1.1175  4.3070
 2227SOL     OW18313   0.339   3.165  10.868 -0.4681 -0.5938 -0.5243
 2227SOL    HW118314   0.394   3.150  10.945 -0.7518  2.5525  0.2979
 2227SOL    HW218315   0.318   3.258  10.872 -2.4970 -1.1370  0.9553
 2228SOL     OW18316   3.136   2.260  14.321 -0.8386 -0.4564  0.0584
 2228SOL    HW118317   3.114   2.328  14.257  0.1858 -0.0579  0.1383
 2228SOL    HW218318   3.100   2.177  14.289  1.2203 -0.7659 -1.4604
 2229SOL     OW18319   4.577   1.882   7.736 -0.4079 -0.0370 -0.2187
 2229SOL    HW118320   4.651   1.897   7.794 -0.4889  0.6018 -0.2844
 2229SOL    HW218321   4.564   1.788   7.752 -0.3195  0.1911  1.1776
 2230SOL     OW18322   0.259   4.696   8.763  0.5231  0.3437 -0.2696
 2230SOL    HW118323   0.301   0.013   8.830 -0.6282  1.2587 -0.2975
 2230SOL    HW218324   0.268   0.022   8.692  1.2990  1.4010  0.7586
 2231SOL     OW18325   0.577   4.644   3.801  0.0287 -0.3841  0.5067
 2231SOL    HW118326   0.651   4.644   3.862 -0.0765 -0.3150  0.6320
 2231SOL    HW218327   0.574   0.000   3.783  1.4876 -0.1553  1.4643
 2232SOL     OW18328   3.394   0.241  17.210 -0.3025  0.1341  0.0174
 2232SOL    HW118329   3.404   0.155  17.253  0.7909 -0.6075 -1.7398
 2232SOL    HW218330   3.482   0.253  17.173 -0.0790 -1.0828  0.1468
 2233SOL     OW18331   3.516   4.038   9.788  0.2031 -0.0260 -0.1654
 2233SOL    HW118332   3.587   4.054   9.726  0.6988 -0.4679  0.2886
 2233SOL    HW218333   3.458   4.113   9.771  2.8366  1.9623 -0.2403
 2234SOL     OW18334   1.384   4.732   2.840 -0.1913  0.4005 -0.6420
 2234SOL    HW118335   1.382   0.083   2.804 -1.0358  0.3522 -0.7136
 2234SOL    HW218336   1.478   4.715   2.826 -0.0430  0.9267 -0.2759
 2235SOL     OW18337   1.158   0.733   8.502  0.1411 -0.4053  0.3616
 2235SOL    HW118338   1.222   0.674   8.543 -0.6887 -0.6850  1.2413
 2235SOL    HW218339   1.197   0.733   8.414  0.4414  1.5147  0.5067
 2236SOL     OW18340   1.437   0.218   7.151  0.3201 -0.1354  0.4318
 2236SOL    HW118341   1.385   0.211   7.071  0.2013 -1.0690  0.5907
 2236SOL    HW218342   1.416   0.308   7.178  0.1461  0.8116 -2.9511
 2237SOL     OW18343   4.447   1.278  11.788  0.1098  0.1027  0.3362
 2237SOL    HW118344   4.378   1.329  11.747 -0.1274  0.3677  1.0624
 2237SOL    HW218345   4.497   1.240  11.716 -0.8112  0.3802 -0.4533
 2238SOL     OW18346   4.672   2.116   1.882 -0.2803 -0.3478 -0.2935
 2238SOL    HW118347   4.584   2.136   1.849  0.0320  1.2005 -0.1918
 2238SOL    HW218348   4.724   2.195   1.867 -0.4089  0.1824  2.0382
 2239SOL     OW18349   0.685   0.418   4.958  0.2310  0.2093 -0.5128
 2239SOL    HW118350   0.676   0.369   4.877 -3.3124  0.6904 -0.4144
 2239SOL    HW218351   0.704   0.346   5.019 -2.6569  0.7399  0.9768
 2240SOL     OW18352   3.177   3.683   8.373 -0.0145 -0.6672 -0.8723
 2240SOL    HW118353   3.107   3.626   8.404  1.0941  0.3878  3.4626
 2240SOL    HW218354   3.152   3.705   8.283 -1.7715 -1.1612 -0.4930
 2241SOL     OW18355   2.282   3.405   9.069 -0.3035  0.3791 -0.6709
 2241SOL    HW118356   2.322   3.491   9.085  0.4747  0.0733 -0.9726
 2241SOL    HW218357   2.346   3.350   9.114 -1.4714 -1.9483 -1.8654
 2242SOL     OW18358   4.157   3.389   4.609 -0.0390  0.4725 -0.0772
 2242SOL    HW118359   4.231   3.442   4.578  1.7724 -2.3275 -0.5580
 2242SOL    HW218360   4.197   3.311   4.570 -0.0667 -0.9329  2.7097
 2243SOL     OW18361   2.566   3.887   6.717  0.4140 -0.3995  0.2041
 2243SOL    HW118362   2.499   3.853   6.776  0.8337 -2.7282 -0.6684
 2243SOL    HW218363   2.632   3.818   6.720  1.4862  0.5942  0.0322
 2244SOL     OW18364   2.091   0.855   4.018  0.5620 -0.2415 -0.2099
 2244SOL    HW118365   2.021   0.919   4.002  1.9197  1.0213 -1.1407
 2244SOL    HW218366   2.039   0.777   4.034  0.0739 -0.0187 -0.7171
 2245SOL     OW18367   1.650   2.095  10.114 -1.0248 -0.5912  0.0188
 2245SOL    HW118368   1.728   2.102  10.169 -1.0896 -0.9279  0.1504
 2245SOL    HW218369   1.605   2.017  10.146 -2.7174  0.0401 -0.8218
 2246SOL     OW18370   3.680   3.455   1.853  0.4153  0.6649  0.6310
 2246SOL    HW118371   3.600   3.403   1.860 -1.1610  3.6031  4.0046
 2246SOL    HW218372   3.738   3.407   1.912  1.7832  0.5826 -0.7633
 2247SOL     OW18373   3.673   1.903  10.218  0.0186  0.1462 -0.5077
 2247SOL    HW118374   3.765   1.893  10.243  0.1541  0.6210 -0.8200
 2247SOL    HW218375   3.678   1.916  10.123 -1.7683  1.7697 -0.3890
 2248SOL     OW18376   0.244   3.849   6.962  0.3196  0.2033 -0.1544
 2248SOL    HW118377   0.202   3.913   6.904 -1.2663 -1.2087 -0.5487
 2248SOL    HW218378   0.323   3.892   6.996  0.2434 -0.7233  1.1838
 2249SOL     OW18379   1.527   0.652  12.657  0.7751  0.5558  0.0047
 2249SOL    HW118380   1.519   0.646  12.752 -0.6455  2.3407 -0.0043
 2249SOL    HW218381   1.440   0.670  12.623 -0.1221 -0.7385  1.6447
 2250SOL     OW18382   3.892   2.788   3.695 -0.4449 -0.2454 -0.0565
 2250SOL    HW118383   3.861   2.866   3.649 -2.9624 -0.4702  1.2718
 2250SOL    HW218384   3.831   2.721   3.665  0.2926 -1.1944  0.5674
 2251SOL     OW18385   0.705   3.674   5.461 -0.2007  0.2249  0.0206
 2251SOL    HW118386   0.681   3.586   5.432  3.0364 -0.6949  0.1787
 2251SOL    HW218387   0.634   3.723   5.420 -2.9098 -2.5512  1.3516
 2252SOL     OW18388   4.287   3.856   2.764  0.2938 -0.1457 -0.0618
 2252SOL    HW118389   4.208   3.847   2.816 -0.8598 -0.1160 -1.8030
 2252SOL    HW218390   4.243   3.857   2.679 -2.4021 -1.1506  1.3058
 2253SOL     OW18391   0.798   1.712   1.970 -0.0165 -0.1300 -0.1691
 2253SOL    HW118392   0.855   1.690   1.896  3.6630 -2.1982  3.3362
 2253SOL    HW218393   0.840   1.792   2.001  1.0363 -0.1057 -1.6786
 2254SOL     OW18394   3.614   4.252   4.450 -0.0323  0.3109 -0.2721
 2254SOL    HW118395   3.534   4.295   4.482  0.2453  0.3223  0.4086
 2254SOL    HW218396   3.621   4.288   4.362  0.4280  1.4473  0.2329
 2255SOL     OW18397   0.978   0.839   2.881  0.1496  0.2981 -0.2699
 2255SOL    HW118398   0.941   0.756   2.850  1.2974  0.4104 -1.9368
 2255SOL    HW218399   0.899   0.891   2.894 -0.3300 -0.1068 -1.6031
 2256SOL     OW18400   2.365   0.235   1.313 -0.3590  0.1809  0.1061
 2256SOL    HW118401   2.353   0.289   1.235 -0.4637  0.3559  0.2419
 2256SOL    HW218402   2.448   0.259   1.355  0.1502 -1.9656  0.2861
 2257SOL     OW18403   4.534   2.690  17.002 -0.3447  0.5804 -0.4615
 2257SOL    HW118404   4.603   2.730  16.948  1.5727 -0.6423  1.0693
 2257SOL    HW218405   4.583   2.667  17.081  0.6162 -0.0935 -1.2379
 2258SOL     OW18406   0.900   1.826  16.557 -0.5848 -0.2241 -0.5168
 2258SOL    HW118407   0.994   1.828  16.538 -0.4228  0.8751  0.3928
 2258SOL    HW218408   0.878   1.902  16.504 -0.7727 -0.6187 -1.0090
 2259SOL     OW18409   4.335   4.183   7.625  0.1148 -0.0992  0.1225
 2259SOL    HW118410   4.332   4.137   7.541 -1.5334 -1.1124  0.7335
 2259SOL    HW218411   4.416   4.143   7.659 -0.7882 -2.5361 -0.5969
 2260SOL     OW18412   3.393   4.530  13.342 -0.0929 -0.6153  0.1655
 2260SOL    HW118413   3.486   4.541  13.326  0.2251 -0.6136  1.9717
 2260SOL    HW218414   3.372   4.551  13.251 -3.9384  0.6832  1.3155
 2261SOL     OW18415   3.739   4.584  13.005  0.4722 -0.2802  0.1261
 2261SOL    HW118416   3.756   4.604  12.913 -0.3998 -1.8925 -0.3838
 2261SOL    HW218417   3.805   4.520  13.031  1.0219 -0.4817 -1.8163
 2262SOL     OW18418   0.635   0.281   6.485  0.1233 -0.3049  0.1465
 2262SOL    HW118419   0.575   0.339   6.532 -0.7118  0.2021 -1.5528
 2262SOL    HW218420   0.711   0.308   6.537  0.0026 -0.6661  0.5041
 2263SOL     OW18421   0.942   1.284  10.652  0.2085  0.1167  0.7286
 2263SOL    HW118422   1.009   1.217  10.639 -0.3337 -0.0129 -1.5062
 2263SOL    HW218423   0.963   1.319  10.738 -1.3044 -0.2940  1.2629
 2264SOL     OW18424   2.086   1.533   8.370  0.2756  0.4972  0.4449
 2264SOL    HW118425   2.032   1.469   8.418  1.2162 -2.3869 -2.3076
 2264SOL    HW218426   2.159   1.540   8.432  1.1117 -0.0007 -0.4762
 2265SOL     OW18427   2.303   2.954   1.827 -0.6349 -0.3820  0.3903
 2265SOL    HW118428   2.216   2.966   1.789 -1.1586  0.8012  1.9788
 2265SOL    HW218429   2.273   2.905   1.903  0.3072  2.3119  2.4871
 2266SOL     OW18430   4.092   2.265   2.226  0.3014 -0.0459 -0.4029
 2266SOL    HW118431   4.122   2.221   2.306  0.9287 -0.3364 -0.7965
 2266SOL    HW218432   4.147   2.343   2.216  2.1788 -1.3524 -0.2774
 2267SOL     OW18433   0.323   1.953   7.389 -0.6013 -0.8534 -0.3088
 2267SOL    HW118434   0.364   1.968   7.304 -1.1781  2.0212 -0.0849
 2267SOL    HW218435   0.320   2.043   7.421 -1.6906 -1.7201  2.0734
 2268SOL     OW18436   1.400   0.424   7.859 -0.2647  0.1946  0.3864
 2268SOL    HW118437   1.406   0.399   7.767 -0.3745 -2.4456  1.0774
 2268SOL    HW218438   1.326   0.373   7.893 -0.3927 -1.0231 -1.7199
 2269SOL     OW18439   2.377   2.667   9.799 -0.2464 -0.0008  0.4421
 2269SOL    HW118440   2.427   2.595   9.762 -1.0909 -1.2775  1.8115
 2269SOL    HW218441   2.439   2.738   9.783  2.2672 -2.2759  0.1135
 2270SOL     OW18442   2.406   0.877  14.343 -0.1198  0.6658 -0.0431
 2270SOL    HW118443   2.322   0.904  14.304 -0.1561  3.8794  2.1958
 2270SOL    HW218444   2.374   0.860  14.432 -1.9564  2.5238 -0.3446
 2271SOL     OW18445   3.256   3.402   5.214  0.3388 -0.1548 -0.0807
 2271SOL    HW118446   3.346   3.385   5.240  0.7118  0.1189 -1.1806
 2271SOL    HW218447   3.258   3.379   5.121  0.0324 -1.1936  0.1681
 2272SOL     OW18448   4.153   0.561   3.485  0.7279  0.3064 -0.3609
 2272SOL    HW118449   4.113   0.626   3.543  1.0789 -0.6400  0.9183
 2272SOL    HW218450   4.194   0.620   3.422 -0.6647  1.0857 -0.5495
 2273SOL     OW18451   0.777   1.397   7.385 -0.4312  0.6673 -0.6856
 2273SOL    HW118452   0.718   1.330   7.349 -0.5537  2.3869 -3.7321
 2273SOL    HW218453   0.845   1.342   7.424 -1.9756 -1.2871 -0.6963
 2274SOL     OW18454   3.699   4.531  17.469 -0.2797  0.5929 -0.4645
 2274SOL    HW118455   3.666   4.442  17.453  1.1260 -0.1022  0.4852
 2274SOL    HW218456   3.652   4.586  17.407 -0.0783 -0.0501 -1.1891
 2275SOL     OW18457   1.715   0.655   6.698  0.3087 -0.7258 -0.3465
 2275SOL    HW118458   1.745   0.586   6.639 -1.3376  0.0169 -2.0227
 2275SOL    HW218459   1.780   0.725   6.699 -1.7301  1.1550  0.3414
 2276SOL     OW18460   2.766   0.518  17.257 -0.1441 -0.0597  0.0342
 2276SOL    HW118461   2.757   0.434  17.302 -0.3548 -0.3793 -0.6019
 2276SOL    HW218462   2.809   0.575  17.321 -0.9671 -0.7266  1.2026
 2277SOL     OW18463   1.877   1.011   3.952 -0.2223  0.0986 -0.5366
 2277SOL    HW118464   1.848   1.102   3.954  1.5655  0.6325  1.0108
 2277SOL    HW218465   1.820   0.973   4.020  1.6932 -0.3761  0.7896
 2278SOL     OW18466   1.816   1.564  13.163 -0.0478  0.5322 -0.1740
 2278SOL    HW118467   1.747   1.570  13.098  1.1562  1.9169 -1.3047
 2278SOL    HW218468   1.785   1.601  13.246 -1.6634  0.3329 -0.6808
 2279SOL     OW18469   2.305   2.933   6.642  0.5499  0.2886 -0.1839
 2279SOL    HW118470   2.392   2.958   6.612  0.8241  0.2869  0.5902
 2279SOL    HW218471   2.274   3.015   6.682  0.7103  0.0381  0.4621
 2280SOL     OW18472   2.120   3.102   9.030 -0.3134 -0.7494  0.5076
 2280SOL    HW118473   2.100   3.014   9.061 -0.9381 -1.4164 -1.8331
 2280SOL    HW218474   2.060   3.156   9.081  1.9448  3.6796 -1.5251
 2281SOL     OW18475   0.917   3.726   4.168 -0.8584  0.2462  0.2080
 2281SOL    HW118476   0.920   3.635   4.140  0.7068  0.2350  0.4058
 2281SOL    HW218477   0.844   3.723   4.231 -0.1836 -0.6285  0.9447
 2282SOL     OW18478   1.757   0.932   9.478 -0.1609  0.6209  0.0041
 2282SOL    HW118479   1.703   0.860   9.512  0.0257  0.8445  0.7647
 2282SOL    HW218480   1.743   1.002   9.541 -2.7663 -0.0156  0.1617
 2283SOL     OW18481   1.639   0.676  16.854 -0.7823 -0.1682 -0.0622
 2283SOL    HW118482   1.726   0.666  16.817 -0.3388  0.8821  0.6968
 2283SOL    HW218483   1.658   0.734  16.927  1.9796 -1.5345  0.3014
 2284SOL     OW18484   4.040   4.315  14.748 -0.1230 -0.2077  0.3320
 2284SOL    HW118485   3.982   4.302  14.673 -1.8243  1.8989  1.2879
 2284SOL    HW218486   4.119   4.336  14.697 -0.5841 -0.2907 -0.4086
 2285SOL     OW18487   4.437   1.366   2.993  0.0008 -0.0374  0.7939
 2285SOL    HW118488   4.529   1.340   2.984 -0.1028 -0.3104  0.5266
 2285SOL    HW218489   4.425   1.331   3.082  2.9160  0.2971  1.3403
 2286SOL     OW18490   0.951   1.404   9.253 -0.1528 -0.4117  0.0247
 2286SOL    HW118491   0.866   1.370   9.224  0.8748 -2.6229 -0.4275
 2286SOL    HW218492   0.917   1.493   9.259 -0.6938 -0.6043 -0.1576
 2287SOL     OW18493   3.643   0.645   5.493  0.4977  0.1377 -0.1895
 2287SOL    HW118494   3.662   0.689   5.576 -0.4496  0.8340 -0.3361
 2287SOL    HW218495   3.704   0.686   5.432 -0.7699 -0.7629 -2.0770
 2288SOL     OW18496   1.954   1.181  11.246  0.7446  0.1614 -0.1545
 2288SOL    HW118497   1.894   1.127  11.195 -1.4071  0.5184  1.9906
 2288SOL    HW218498   1.926   1.267  11.214  0.3528  0.8245  2.0012
 2289SOL     OW18499   3.682   2.515   2.735 -0.0371 -0.1218  0.4428
 2289SOL    HW118500   3.711   2.605   2.747 -1.2144  0.3561 -0.2686
 2289SOL    HW218501   3.594   2.533   2.700  0.0896  0.8810  0.6447
 2290SOL     OW18502   3.733   4.220  17.599 -0.1678  0.1370  0.2185
 2290SOL    HW118503   3.717   4.225  17.693 -0.1229  0.8188  0.1890
 2290SOL    HW218504   3.690   4.141  17.564 -0.2327  1.4772 -2.7176
 2291SOL     OW18505   1.472   4.080   4.452  0.1485 -0.3097  0.3108
 2291SOL    HW118506   1.512   4.146   4.396 -1.5732  1.1320  0.7598
 2291SOL    HW218507   1.531   4.076   4.527  0.3953 -0.3191  0.1158
 2292SOL     OW18508   0.371   1.262   6.603 -0.9157  0.6080 -0.5070
 2292SOL    HW118509   0.305   1.328   6.582  0.2366  1.9594  0.0555
 2292SOL    HW218510   0.342   1.182   6.560  2.2224 -1.3876  1.0960
 2293SOL     OW18511   3.293   1.702   0.128 -0.0808 -0.0510 -0.3201
 2293SOL    HW118512   3.292   1.618   0.175 -1.8578  0.6940  0.9560
 2293SOL    HW218513   3.325   1.676   0.042 -4.2212 -0.8188 -1.6271
 2294SOL     OW18514   2.328   0.548   7.390  0.0939 -0.1333  0.3230
 2294SOL    HW118515   2.364   0.627   7.349 -0.2539  0.3625  0.9971
 2294SOL    HW218516   2.307   0.586   7.475 -1.0089  0.4812 -0.2357
 2295SOL     OW18517   1.846   4.561  11.581 -0.4184  0.1576 -0.2922
 2295SOL    HW118518   1.864   4.574  11.488  1.8879 -0.2207  0.1027
 2295SOL    HW218519   1.869   4.469  11.594  1.3205  1.0062  2.7637
 2296SOL     OW18520   1.272   0.441  13.103 -0.0951 -0.4875 -0.3250
 2296SOL    HW118521   1.277   0.458  13.009 -1.0364  4.7680  0.5363
 2296SOL    HW218522   1.242   0.528  13.131  0.7441 -0.0555 -0.7455
 2297SOL     OW18523   0.500   2.564   1.275  0.3674 -0.0448  0.5420
 2297SOL    HW118524   0.519   2.521   1.358  0.2981 -0.1939  0.4796
 2297SOL    HW218525   0.578   2.612   1.248  0.0843 -1.0628 -2.1361
 2298SOL     OW18526   0.925   1.660   9.097 -0.5939 -0.1897  0.0898
 2298SOL    HW118527   0.861   1.611   9.045  2.9406 -2.4657 -2.1212
 2298SOL    HW218528   0.982   1.673   9.022 -1.5578  1.1467 -0.4103
 2299SOL     OW18529   4.131   2.935   2.628 -0.3980  0.5079 -0.3659
 2299SOL    HW118530   4.213   2.947   2.580  0.1167 -0.2617  0.3194
 2299SOL    HW218531   4.148   2.846   2.660  1.4563  0.4748 -1.4278
 2300SOL     OW18532   2.858   4.020  11.193  0.2771  0.2259  0.2550
 2300SOL    HW118533   2.866   4.054  11.104  0.0375  0.4317  0.3121
 2300SOL    HW218534   2.899   4.093  11.239 -2.7996  1.7100  0.6322
 2301SOL     OW18535   3.305   4.339   7.977 -0.2895  0.1043 -0.5202
 2301SOL    HW118536   3.400   4.335   7.983 -0.1945 -2.6706 -3.7500
 2301SOL    HW218537   3.279   4.395   8.050  0.0951 -1.4153  0.8020
 2302SOL     OW18538   2.335   0.105   1.893 -0.4391 -0.1980 -0.1540
 2302SOL    HW118539   2.395   0.097   1.818 -2.1943  2.4047 -1.8444
 2302SOL    HW218540   2.274   0.034   1.875 -3.2677  2.1220  0.2964
 2303SOL     OW18541   3.698   0.496  13.128  0.2046 -0.2683 -0.3905
 2303SOL    HW118542   3.606   0.516  13.149  0.7101 -0.1427  1.6913
 2303SOL    HW218543   3.677   0.423  13.070 -0.2193  0.1781 -0.7994
 2304SOL     OW18544   1.730   1.926   9.588  0.2244 -0.0782 -0.2822
 2304SOL    HW118545   1.707   1.891   9.674 -0.4392  1.5031  0.1714
 2304SOL    HW218546   1.692   1.864   9.525 -0.2629 -0.3608  0.2903
 2305SOL     OW18547   2.038   1.645   7.848  0.1347  0.1927 -0.0918
 2305SOL    HW118548   1.980   1.577   7.816 -0.0585 -1.0561  2.8773
 2305SOL    HW218549   2.068   1.613   7.933 -1.7491 -2.0234 -0.2883
 2306SOL     OW18550   2.640   3.334   3.632 -0.7038 -0.8843  0.1733
 2306SOL    HW118551   2.619   3.421   3.667 -2.0984 -0.6813 -1.1454
 2306SOL    HW218552   2.649   3.277   3.709 -2.0348  0.2720  1.1834
 2307SOL     OW18553   3.782   4.537   2.864  0.8938  0.6090 -0.3741
 2307SOL    HW118554   3.746   4.623   2.887  1.0021  1.0987 -2.0418
 2307SOL    HW218555   3.876   4.548   2.882  0.7743  1.4533 -0.2679
 2308SOL     OW18556   0.830   0.793   5.769 -0.2165 -0.3456  0.5729
 2308SOL    HW118557   0.807   0.851   5.841  0.1772  0.2869  0.1903
 2308SOL    HW218558   0.767   0.721   5.776 -0.9014  0.0047 -1.9417
 2309SOL     OW18559   3.474   4.490   6.040  0.2320  0.2217  0.3124
 2309SOL    HW118560   3.552   4.434   6.046 -1.0198 -1.1815  3.7656
 2309SOL    HW218561   3.505   4.542   5.967 -1.4044  0.7016 -0.0354
 2310SOL     OW18562   1.227   0.504   6.003  0.4538 -0.8774 -0.4310
 2310SOL    HW118563   1.173   0.427   5.983  0.2887 -1.3963  1.9858
 2310SOL    HW218564   1.156   0.567   6.004  0.5984 -0.7157 -0.4281
 2311SOL     OW18565   1.064   0.502   9.325 -0.3106  0.1424 -0.1892
 2311SOL    HW118566   1.028   0.425   9.282  0.9043 -1.1592  1.1060
 2311SOL    HW218567   1.099   0.463   9.406  2.1759  0.2552 -1.2109
 2312SOL     OW18568   0.192   4.119   0.222 -0.6456 -0.1757  0.2054
 2312SOL    HW118569   0.142   4.166   0.289  0.9106 -1.4655  2.2697
 2312SOL    HW218570   0.155   4.159   0.144  0.1251  0.4505  0.1576
 2313SOL     OW18571   3.188   0.469  16.047 -0.2423 -1.0025  0.0368
 2313SOL    HW118572   3.148   0.444  16.131  2.4307 -2.1663  0.9533
 2313SOL    HW218573   3.117   0.520  16.007  0.6727  1.0307  0.9859
 2314SOL     OW18574   4.623   1.952   5.536 -0.0139 -0.1964  0.1345
 2314SOL    HW118575   4.588   1.953   5.625 -0.1493  2.1896  0.0740
 2314SOL    HW218576   4.546   1.915   5.494  1.8671 -4.4652  0.5142
 2315SOL     OW18577   4.475   3.491   7.051 -0.6937  0.2951  0.3018
 2315SOL    HW118578   4.414   3.564   7.035 -1.4032 -0.1856  0.8171
 2315SOL    HW218579   4.561   3.533   7.049 -1.2784  1.4667 -0.2294
 2316SOL     OW18580   0.315   2.346  12.833 -0.4299  0.3923  0.1325
 2316SOL    HW118581   0.242   2.404  12.855 -0.5286 -0.4927  2.2094
 2316SOL    HW218582   0.321   2.311  12.923  1.2370  2.1809  0.7215
 2317SOL     OW18583   1.185   3.162   6.811 -0.0009 -0.3242  0.3667
 2317SOL    HW118584   1.281   3.161   6.816  0.0674  1.0191 -0.5948
 2317SOL    HW218585   1.172   3.193   6.722  2.7240  0.0466  0.0847
 2318SOL     OW18586   2.891   3.348   3.555 -0.9405  0.3642  0.0402
 2318SOL    HW118587   2.926   3.290   3.622 -0.8033 -0.0545 -0.3909
 2318SOL    HW218588   2.797   3.330   3.553 -1.0617  1.1414 -0.9745
 2319SOL     OW18589   1.814   4.213  14.535  0.2871  0.3449  0.6791
 2319SOL    HW118590   1.843   4.137  14.484 -0.5993  0.1749  0.4182
 2319SOL    HW218591   1.729   4.186  14.570  0.2701 -0.6135 -0.0985
 2320SOL     OW18592   0.792   1.085  15.020  0.1066  0.0973  0.4526
 2320SOL    HW118593   0.811   1.110  15.110 -1.8547 -0.0960  0.9026
 2320SOL    HW218594   0.797   1.167  14.972 -0.7147 -0.9909 -1.4960
 2321SOL     OW18595   3.218   3.577   3.508  0.4910  0.2961 -0.3742
 2321SOL    HW118596   3.128   3.593   3.481  0.3002  0.9870  0.7147
 2321SOL    HW218597   3.261   3.662   3.506  2.8343 -0.8728 -0.1362
 2322SOL     OW18598   3.452   2.675   3.138  0.4888 -0.5921  0.0399
 2322SOL    HW118599   3.457   2.605   3.203 -2.2819 -1.4592 -0.6702
 2322SOL    HW218600   3.529   2.730   3.152  0.7626 -0.9865  0.0968
 2323SOL     OW18601   3.908   2.355   2.523 -0.0411 -0.1514 -0.3267
 2323SOL    HW118602   3.941   2.443   2.507 -0.2757 -0.0736 -0.3797
 2323SOL    HW218603   3.969   2.319   2.587 -0.2772 -1.5134 -0.8614
 2324SOL     OW18604   1.267   4.087   2.649 -0.0607 -0.3653  0.5769
 2324SOL    HW118605   1.277   4.144   2.572 -2.8375  1.0431  1.2696
 2324SOL    HW218606   1.318   4.014   2.614  1.0193 -0.0997  1.6021
 2325SOL     OW18607   1.131   0.549   8.814 -0.5888 -0.4432 -0.5571
 2325SOL    HW118608   1.149   0.623   8.872 -3.0712  0.9780 -1.5958
 2325SOL    HW218609   1.219   0.518   8.792 -0.0527 -0.2213  1.2708
 2326SOL     OW18610   2.953   0.826  10.591 -0.0558 -0.2628  0.0356
 2326SOL    HW118611   2.999   0.743  10.602 -0.7303 -0.8573 -1.5187
 2326SOL    HW218612   3.017   0.883  10.548 -1.8074  2.1313  0.5870
 2327SOL     OW18613   0.499   0.747   1.442  0.1128  0.4470 -0.5131
 2327SOL    HW118614   0.532   0.822   1.394  0.3804  0.2452 -0.6441
 2327SOL    HW218615   0.484   0.786   1.528 -0.7415  1.0166 -0.9166
 2328SOL     OW18616   1.983   1.023   8.327 -0.3922 -0.2334  0.3689
 2328SOL    HW118617   2.049   1.050   8.262 -0.7245 -1.2152 -0.3780
 2328SOL    HW218618   1.981   0.929   8.307  0.1802 -0.0211 -0.6706
 2329SOL     OW18619   2.454   3.769  16.715  0.6248  0.6375 -0.1941
 2329SOL    HW118620   2.529   3.736  16.764  1.8004  1.1131 -1.6874
 2329SOL    HW218621   2.389   3.701  16.734  0.7980  0.4302 -0.3416
 2330SOL     OW18622   3.062   2.840   7.103 -0.0321 -0.7275  0.8874
 2330SOL    HW118623   3.029   2.750   7.095 -1.6478 -0.2107  1.6896
 2330SOL    HW218624   3.004   2.891   7.046  0.6462  0.9566  1.7122
 2331SOL     OW18625   1.109   1.270   2.381  0.1870  0.0646  0.0538
 2331SOL    HW118626   1.141   1.188   2.343  1.7771  0.9312 -0.5230
 2331SOL    HW218627   1.054   1.239   2.452 -2.7179  3.2427 -0.8007
 2332SOL     OW18628   0.359   3.517   7.938  0.1851 -0.0288 -0.0740
 2332SOL    HW118629   0.267   3.536   7.923  0.0038 -0.6408  0.2425
 2332SOL    HW218630   0.370   3.465   7.859 -0.8215 -1.5162  0.7661
 2333SOL     OW18631   0.088   4.219  17.258 -0.1614 -0.1106  0.1001
 2333SOL    HW118632   0.160   4.171  17.300 -0.4595  0.7536  1.5802
 2333SOL    HW218633   0.015   4.165  17.290 -0.8464  0.5232 -0.3989
 2334SOL     OW18634   1.088   1.188  16.797 -0.3511 -0.4092  0.4842
 2334SOL    HW118635   1.118   1.105  16.759  1.2962  0.5804 -0.4228
 2334SOL    HW218636   0.994   1.175  16.808 -0.3645 -0.8858 -0.2206
 2335SOL     OW18637   3.599   1.802  14.407  0.3920  0.7740 -0.0578
 2335SOL    HW118638   3.602   1.895  14.382 -0.3206  0.5998 -0.7728
 2335SOL    HW218639   3.552   1.809  14.490  0.5199 -3.0967  0.3409
 2336SOL     OW18640   0.335   3.566   8.202 -0.1167  0.3289  0.2448
 2336SOL    HW118641   0.374   3.653   8.197  2.0359 -0.8404 -3.0136
 2336SOL    HW218642   0.333   3.547   8.108 -1.4898 -0.8792  0.5038
 2337SOL     OW18643   0.524   2.648   0.926  0.5594 -0.3127  0.7193
 2337SOL    HW118644   0.577   2.597   0.986  0.5273  0.9486  1.8062
 2337SOL    HW218645   0.436   2.616   0.948 -0.6731  0.7280 -2.6510
 2338SOL     OW18646   1.796   1.817   8.580  0.1671 -0.2254 -0.0951
 2338SOL    HW118647   1.847   1.880   8.529 -1.1240  2.2160  1.6218
 2338SOL    HW218648   1.798   1.745   8.516  1.5157 -0.7423  0.5275
 2339SOL     OW18649   2.434   1.698   8.503 -0.0503 -0.2519 -0.2893
 2339SOL    HW118650   2.412   1.768   8.442 -1.0512 -0.6142 -0.3496
 2339SOL    HW218651   2.449   1.743   8.587  0.6093 -2.2017  0.6202
 2340SOL     OW18652   4.492   3.311   8.368 -0.2123 -0.5938 -0.4140
 2340SOL    HW118653   4.493   3.262   8.451 -0.4745  0.4647  0.2090
 2340SOL    HW218654   4.402   3.341   8.376 -0.7745 -1.9318 -1.6694
 2341SOL     OW18655   0.043   2.010  11.419 -0.4917 -0.4619  0.4007
 2341SOL    HW118656   4.696   2.034  11.458  0.2736  0.7424  1.3030
 2341SOL    HW218657   0.037   1.915  11.407 -1.0104 -0.4604  0.6660
 2342SOL     OW18658   0.711   1.131   8.246 -0.4370  0.2308  0.4882
 2342SOL    HW118659   0.779   1.065   8.236 -0.4485  0.1277  1.0876
 2342SOL    HW218660   0.673   1.094   8.326  1.3003  0.3049  1.3509
 2343SOL     OW18661   3.551   0.279   9.570  0.2276  0.2575 -0.3716
 2343SOL    HW118662   3.603   0.353   9.599 -1.0024  1.1738 -0.4873
 2343SOL    HW218663   3.480   0.272   9.633  0.1750 -1.3780 -0.6058
 2344SOL     OW18664   1.330   2.768   7.442  0.5814 -0.5578 -0.4541
 2344SOL    HW118665   1.344   2.705   7.513 -0.5592 -0.2647  0.0302
 2344SOL    HW218666   1.236   2.783   7.440  1.0696  2.3562 -2.0781
 2345SOL     OW18667   4.037   1.638   9.602 -0.2332 -0.8080  0.3235
 2345SOL    HW118668   3.948   1.651   9.568 -0.3538  1.2197  1.4477
 2345SOL    HW218669   4.043   1.707   9.667  0.4062 -0.2055 -0.3781
 2346SOL     OW18670   3.345   3.815   4.532 -0.4697 -0.1663  0.3750
 2346SOL    HW118671   3.337   3.820   4.627  1.0881 -1.0465  0.5696
 2346SOL    HW218672   3.381   3.726   4.540  0.9693  0.2791 -1.0469
 2347SOL     OW18673   1.324   0.356   2.531  0.8129  0.0903  0.1715
 2347SOL    HW118674   1.257   0.365   2.464 -0.6390  0.5723  1.7042
 2347SOL    HW218675   1.388   0.425   2.511  1.6423 -1.6395 -3.2092
 2348SOL     OW18676   3.364   3.059   4.273  0.0297  0.1513 -0.5936
 2348SOL    HW118677   3.431   2.990   4.270  0.0162 -0.0341  3.5830
 2348SOL    HW218678   3.330   3.057   4.362 -1.3950  2.7479 -1.0762
 2349SOL     OW18679   3.649   0.993   3.780  0.1703 -0.0141  0.3327
 2349SOL    HW118680   3.674   0.944   3.859  1.8188  0.8754  0.3609
 2349SOL    HW218681   3.629   1.081   3.812 -0.4763 -0.1359  0.2510
 2350SOL     OW18682   2.159   4.330   2.000  0.2386 -0.7014 -0.9828
 2350SOL    HW118683   2.075   4.294   2.028 -0.1905  0.9958 -0.0359
 2350SOL    HW218684   2.191   4.247   1.967  1.5496 -0.2065 -0.9627
 2351SOL     OW18685   1.041   1.599   8.510 -0.0805 -0.3519  0.2218
 2351SOL    HW118686   0.966   1.579   8.454 -0.3606 -0.4841  0.6425
 2351SOL    HW218687   1.031   1.535   8.580  1.3418  0.1017  0.8481
 2352SOL     OW18688   1.832   3.989   6.850  0.2290 -0.1859  0.4384
 2352SOL    HW118689   1.895   4.061   6.836  0.5223 -1.1333 -3.1833
 2352SOL    HW218690   1.860   3.943   6.771 -0.7337 -1.9595  1.1413
 2353SOL     OW18691   4.503   3.361   6.675  0.4728  0.7883 -0.6445
 2353SOL    HW118692   4.410   3.356   6.652  0.8372 -2.3320 -1.4780
 2353SOL    HW218693   4.496   3.317   6.759  1.0995  3.5695  0.8775
 2354SOL     OW18694   4.394   1.894   8.469  0.0135  0.4490 -0.1768
 2354SOL    HW118695   4.333   1.926   8.536 -1.9099  1.4527 -2.4005
 2354SOL    HW218696   4.428   1.973   8.425 -0.7973  0.4811 -0.7472
 2355SOL     OW18697   2.259   0.690   6.252 -0.3719  0.0335 -0.1680
 2355SOL    HW118698   2.254   0.680   6.347  0.7258  3.8715  0.2873
 2355SOL    HW218699   2.234   0.603   6.220  3.0303 -1.2315  0.4717
 2356SOL     OW18700   0.934   0.322   0.092  0.4603 -0.1767 -0.0408
 2356SOL    HW118701   1.023   0.290   0.100  0.4397 -0.5653 -1.3729
 2356SOL    HW218702   0.919   0.326  17.745 -1.1236  0.1905  0.2137
 2357SOL     OW18703   1.802   4.416   9.627 -0.0646  0.3510 -0.0787
 2357SOL    HW118704   1.896   4.403   9.613 -0.6073 -0.9196 -2.5700
 2357SOL    HW218705   1.804   4.387   9.718  0.7207  0.0130 -0.1935
 2358SOL     OW18706   4.222   2.764  15.995  0.1955  0.4043  0.2737
 2358SOL    HW118707   4.248   2.673  15.984  1.4818  0.9856 -1.5713
 2358SOL    HW218708   4.299   2.804  16.035  0.6140 -1.2724  1.1198
 2359SOL     OW18709   0.643   4.404   5.382 -0.4143 -0.2006  0.9694
 2359SOL    HW118710   0.632   4.312   5.403  1.0917 -0.1921  1.8004
 2359SOL    HW218711   0.669   4.410   5.290 -1.3946  0.8808  0.7455
 2360SOL     OW18712   2.875   0.142  16.785 -0.0869 -0.6128  0.1091
 2360SOL    HW118713   2.867   0.223  16.733  1.8686 -0.4482  0.0902
 2360SOL    HW218714   2.950   0.101  16.743  0.4691 -0.8550  1.3715
 2361SOL     OW18715   3.040   2.402   5.655  0.0118 -0.3359  0.1977
 2361SOL    HW118716   3.121   2.388   5.605 -0.7175 -0.5709 -0.9114
 2361SOL    HW218717   3.048   2.345   5.731  0.2242 -2.3990 -1.3550
 2362SOL     OW18718   3.990   2.084   8.155  0.7199 -0.4710 -0.2190
 2362SOL    HW118719   4.040   2.005   8.179 -0.6837 -1.2638  0.0866
 2362SOL    HW218720   3.904   2.057   8.186  1.0559 -0.4472  0.7378
 2363SOL     OW18721   2.981   0.456   6.921 -0.4561 -0.1561  0.0262
 2363SOL    HW118722   3.025   0.447   6.836 -0.2251  2.2622 -0.1326
 2363SOL    HW218723   3.021   0.385   6.970  1.0351  0.9687  0.4280
 2364SOL     OW18724   3.874   1.262   1.522  0.3292 -0.3653  0.6916
 2364SOL    HW118725   3.967   1.281   1.525  0.3826 -0.7938  1.7634
 2364SOL    HW218726   3.869   1.202   1.447 -0.7803 -0.5923  0.9479
 2365SOL     OW18727   1.263   2.690   5.101 -0.2100  0.2209  0.2293
 2365SOL    HW118728   1.276   2.784   5.113 -1.4850  0.6454 -1.7594
 2365SOL    HW218729   1.296   2.651   5.182  1.5483  0.3120 -0.4362
 2366SOL     OW18730   3.748   3.930  15.207 -0.4308  0.0290 -0.5241
 2366SOL    HW118731   3.747   3.975  15.291  0.6195  1.0975 -1.0870
 2366SOL    HW218732   3.656   3.902  15.203 -0.6935  0.8352  0.0195
 2367SOL     OW18733   1.339   2.439  17.389 -0.3156  0.0456 -0.1260
 2367SOL    HW118734   1.293   2.460  17.470  0.3130 -1.3267  0.5760
 2367SOL    HW218735   1.397   2.515  17.382 -2.0143  1.3900  0.2948
 2368SOL     OW18736   3.393   3.437   3.642  0.3992  0.2140 -0.8374
 2368SOL    HW118737   3.402   3.515   3.697 -0.8425  0.7399 -1.3684
 2368SOL    HW218738   3.311   3.460   3.597 -0.3826 -1.8555 -0.4720
 2369SOL     OW18739   3.341   3.377  11.483  0.3469  0.0545  0.2063
 2369SOL    HW118740   3.409   3.430  11.524  0.7560  0.1729 -0.6365
 2369SOL    HW218741   3.388   3.297  11.461  0.7223  0.4741 -0.5099
 2370SOL     OW18742   1.073   3.888   6.338  0.8697 -0.1109  0.4864
 2370SOL    HW118743   0.988   3.930   6.323  0.2187 -1.0461  1.5361
 2370SOL    HW218744   1.130   3.937   6.279  1.3434 -0.1915  0.8827
 2371SOL     OW18745   0.849   1.143  11.749  0.2503  0.0603 -0.4376
 2371SOL    HW118746   0.875   1.053  11.727 -1.9046 -1.0144  1.4891
 2371SOL    HW218747   0.924   1.163  11.805 -0.1409  0.7412 -0.1526
 2372SOL     OW18748   3.033   2.624   8.541  0.2019  0.1892  0.0939
 2372SOL    HW118749   3.120   2.660   8.520 -0.4867  3.3103  2.6775
 2372SOL    HW218750   3.038   2.639   8.635 -0.1324 -0.5949  0.2405
 2373SOL     OW18751   4.513   1.789   7.115 -0.5811  0.1424 -0.0335
 2373SOL    HW118752   4.451   1.734   7.068 -0.5939  2.0912 -2.2809
 2373SOL    HW218753   4.513   1.748   7.202 -1.8678  2.6356  1.1561
 2374SOL     OW18754   2.487   1.456   2.619  0.2985 -0.0505  0.6351
 2374SOL    HW118755   2.526   1.525   2.673 -0.5618  0.7185  0.2771
 2374SOL    HW218756   2.408   1.446   2.672  0.4421  0.4019  0.9366
 2375SOL     OW18757   3.837   2.523   7.123 -0.9970  0.0322 -0.3063
 2375SOL    HW118758   3.821   2.596   7.184 -1.8237 -0.9162  0.5995
 2375SOL    HW218759   3.828   2.570   7.040  0.7747  1.2905  0.1967
 2376SOL     OW18760   4.329   2.753   2.397  0.2116 -0.1296  0.0328
 2376SOL    HW118761   4.294   2.724   2.313 -0.3153  0.4521  0.0551
 2376SOL    HW218762   4.408   2.701   2.415  1.3477  1.1572 -1.3071
 2377SOL     OW18763   2.499   4.356  17.207  0.3325  0.5174  0.2083
 2377SOL    HW118764   2.439   4.426  17.184 -0.3562  0.0005  0.4398
 2377SOL    HW218765   2.508   4.314  17.122  0.9717 -1.1320  1.0944
 2378SOL     OW18766   4.000   3.019   0.471  0.0182 -0.2274 -0.2766
 2378SOL    HW118767   4.065   2.954   0.497  0.8513  0.6260 -0.2519
 2378SOL    HW218768   3.917   2.980   0.501 -0.1917 -1.5509 -2.6471
 2379SOL     OW18769   1.720   1.050   8.022 -0.0379 -0.4223 -0.1146
 2379SOL    HW118770   1.717   0.964   7.981  0.2320 -0.0637 -0.8955
 2379SOL    HW218771   1.760   1.097   7.949  0.5527 -1.8385 -0.6880
 2380SOL     OW18772   4.283   3.421   4.961 -0.6868 -0.4252 -0.2989
 2380SOL    HW118773   4.290   3.381   5.048  1.8085  0.3504 -0.1423
 2380SOL    HW218774   4.198   3.388   4.930 -0.3173 -2.0846  0.4655
 2381SOL     OW18775   4.507   2.182   3.057  0.5355  0.1182  0.3601
 2381SOL    HW118776   4.421   2.142   3.072  0.6503 -0.0754  0.5069
 2381SOL    HW218777   4.558   2.117   3.106 -1.6474 -1.9295 -0.0931
 2382SOL     OW18778   3.793   4.158   6.168  0.6146 -0.0604  0.5621
 2382SOL    HW118779   3.888   4.163   6.153  0.3916 -1.5095 -1.1921
 2382SOL    HW218780   3.781   4.114   6.252 -0.5232  0.8753  0.8943
 2383SOL     OW18781   3.004   3.121   9.804 -0.0376  0.3269 -0.3264
 2383SOL    HW118782   3.010   3.211   9.774  0.5153  0.1823 -0.6521
 2383SOL    HW218783   3.095   3.092   9.800 -0.2805 -0.5207  0.2026
 2384SOL     OW18784   1.805   1.942   9.288  0.3456  0.1742  0.3470
 2384SOL    HW118785   1.759   2.025   9.282 -1.2686 -0.4930  3.9674
 2384SOL    HW218786   1.734   1.881   9.307 -0.8033  1.8189  1.2627
 2385SOL     OW18787   1.790   0.584   5.106  0.3816 -0.1428  0.1276
 2385SOL    HW118788   1.738   0.614   5.180 -0.3583  1.5696 -1.1017
 2385SOL    HW218789   1.876   0.562   5.141 -0.0151 -0.8035  0.7002
 2386SOL     OW18790   3.249   2.918   0.951  0.0795 -0.8009 -0.5329
 2386SOL    HW118791   3.309   2.843   0.951  0.3444 -0.5958 -2.0472
 2386SOL    HW218792   3.293   2.969   0.883 -0.5060 -0.6349 -0.7885
 2387SOL     OW18793   0.770   0.182   0.618  0.3037 -0.2957 -0.0591
 2387SOL    HW118794   0.817   0.250   0.571 -0.1373 -0.7941 -1.2117
 2387SOL    HW218795   0.723   0.243   0.675  1.0216 -0.9843  1.2698
 2388SOL     OW18796   0.427   0.716   5.307 -0.0686  0.2395  0.0271
 2388SOL    HW118797   0.359   0.652   5.289 -0.6799  0.7855  0.3669
 2388SOL    HW218798   0.472   0.717   5.223 -0.1890  4.3944  0.0198
 2389SOL     OW18799   2.650   0.750   8.664 -0.7265  0.2420  0.0374
 2389SOL    HW118800   2.696   0.757   8.580 -1.5425 -0.5146 -0.4646
 2389SOL    HW218801   2.585   0.683   8.646 -0.8295  0.0828  1.0324
 2390SOL     OW18802   0.327   3.142   4.006 -0.0585 -0.5424  0.6536
 2390SOL    HW118803   0.275   3.206   4.054 -0.0477  1.1189 -1.5829
 2390SOL    HW218804   0.265   3.118   3.937  0.3534  0.5125 -0.0751
 2391SOL     OW18805   2.147   2.713   2.807 -0.1803  0.2287  0.2300
 2391SOL    HW118806   2.218   2.715   2.744 -0.9992  0.3084 -0.6921
 2391SOL    HW218807   2.128   2.620   2.821 -0.3264  0.3007  0.5125
 2392SOL     OW18808   1.038   1.650   4.600  0.4419 -0.0620 -0.3065
 2392SOL    HW118809   0.989   1.727   4.570 -1.1014 -0.6556  0.6708
 2392SOL    HW218810   1.041   1.658   4.696  1.0327 -0.3551 -0.2987
 2393SOL     OW18811   1.792   2.728   0.973  0.5288 -0.1188  0.1602
 2393SOL    HW118812   1.784   2.789   0.899 -0.7885  0.7988  1.0505
 2393SOL    HW218813   1.877   2.756   1.008  0.1062  0.3720  0.7891
 2394SOL     OW18814   1.681   2.787  17.201 -0.1220 -0.3726 -0.0810
 2394SOL    HW118815   1.602   2.742  17.230 -0.2275 -1.5040 -2.0991
 2394SOL    HW218816   1.689   2.849  17.273  0.2302  0.4449 -0.8287
 2395SOL     OW18817   3.390   2.001   5.457 -0.3251 -0.6087  0.2674
 2395SOL    HW118818   3.383   2.046   5.373 -0.7727 -4.2402 -1.6681
 2395SOL    HW218819   3.303   1.961   5.468 -0.1375 -0.9874  0.3772
 2396SOL     OW18820   1.611   0.390   8.163 -0.1603 -0.4390 -0.6907
 2396SOL    HW118821   1.611   0.407   8.258  1.7063 -1.2879 -0.5356
 2396SOL    HW218822   1.516   0.391   8.159 -0.1220 -1.1488 -1.5438
 2397SOL     OW18823   4.266   1.923   9.966 -0.0246 -0.0939 -0.2860
 2397SOL    HW118824   4.241   1.844   9.920 -1.1293 -0.2946  0.6596
 2397SOL    HW218825   4.296   1.881  10.046  1.6406 -0.0091 -0.8523
 2398SOL     OW18826   3.471   3.879  12.182  0.4242  0.1755  0.5214
 2398SOL    HW118827   3.386   3.856  12.145  0.8126 -1.6211  0.7462
 2398SOL    HW218828   3.439   3.904  12.269 -0.6374  0.2525  0.1122
 2399SOL     OW18829   0.811   2.757   3.240 -0.0574  0.1075  0.1865
 2399SOL    HW118830   0.899   2.794   3.237 -0.0795  0.1450  0.0203
 2399SOL    HW218831   0.804   2.715   3.155 -0.8787  1.8851 -0.6345
 2400SOL     OW18832   4.649   0.626  11.967  0.0901  0.0781  0.2298
 2400SOL    HW118833   4.562   0.666  11.969  0.7725  1.4568  2.1030
 2400SOL    HW218834   4.626   0.540  12.004 -3.1709  0.4476 -0.9575
 2401SOL     OW18835   2.464   2.013  15.379 -0.5390  0.0937 -0.2500
 2401SOL    HW118836   2.489   1.924  15.405  0.1182  0.6455  1.0269
 2401SOL    HW218837   2.371   2.010  15.358 -0.0465  0.4343 -2.5098
 2402SOL     OW18838   0.899   0.678  14.881 -0.8227  0.5339 -0.0653
 2402SOL    HW118839   0.987   0.711  14.901  0.1279 -0.5831 -2.3485
 2402SOL    HW218840   0.841   0.719  14.945  0.0072 -0.5582  1.4094
 2403SOL     OW18841   3.030   2.864   4.544  0.8230  0.3774 -0.0717
 2403SOL    HW118842   3.027   2.803   4.471  1.1829 -0.1189  0.3256
 2403SOL    HW218843   3.042   2.809   4.622 -0.7236 -1.2395 -0.9995
 2404SOL     OW18844   4.005   3.620  11.503 -0.1916 -0.2079  0.4079
 2404SOL    HW118845   3.921   3.664  11.493  0.0958  0.4299  0.8342
 2404SOL    HW218846   3.995   3.533  11.463 -0.3821 -0.2136  0.4660
 2405SOL     OW18847   3.899   3.544   9.291 -0.1319 -0.0315  0.0473
 2405SOL    HW118848   3.896   3.448   9.293  1.4193 -0.0924 -0.3529
 2405SOL    HW218849   3.964   3.549   9.361 -1.4389  0.6230  1.1898
 2406SOL     OW18850   2.158   3.313   1.501  0.3744 -0.4799 -0.3211
 2406SOL    HW118851   2.230   3.261   1.464  3.0838  2.6005  0.6610
 2406SOL    HW218852   2.085   3.281   1.446  0.8931 -4.3679  1.2115
 2407SOL     OW18853   4.478   3.766   9.754  0.1987 -0.0129  0.3208
 2407SOL    HW118854   4.499   3.856   9.776  0.6437 -0.5693  2.2200
 2407SOL    HW218855   4.555   3.724   9.793  0.5926 -0.4191 -0.9194
 2408SOL     OW18856   2.711   3.997   8.184  1.5639  0.1461  0.0622
 2408SOL    HW118857   2.762   4.073   8.210  1.2325  0.8233 -1.2609
 2408SOL    HW218858   2.639   4.023   8.241  1.5059  0.1485 -0.0117
 2409SOL     OW18859   2.416   1.244  15.031 -0.0940  0.0375  0.0018
 2409SOL    HW118860   2.456   1.310  14.974  0.8811  0.0492  0.6871
 2409SOL    HW218861   2.331   1.276  15.063  0.3400 -2.7126  3.8507
 2410SOL     OW18862   4.013   3.507   5.413 -0.4357 -0.4513  0.1529
 2410SOL    HW118863   3.959   3.583   5.434  0.4684  0.4776 -0.8815
 2410SOL    HW218864   4.100   3.539   5.434 -0.9755 -1.1850  3.4264
 2411SOL     OW18865   2.743   3.954   9.267 -0.1315  0.1336  0.7306
 2411SOL    HW118866   2.830   3.943   9.229 -0.3843 -1.9849  0.7612
 2411SOL    HW218867   2.761   4.011   9.341  2.3020  1.0564 -0.5742
 2412SOL     OW18868   1.681   1.384   6.938 -0.2256 -0.2463 -0.2924
 2412SOL    HW118869   1.693   1.294   6.969 -1.3384  0.2345  1.5605
 2412SOL    HW218870   1.752   1.394   6.875  1.8238 -0.1932  2.0531
 2413SOL     OW18871   3.052   4.693  15.427  0.2020  0.4599 -0.6592
 2413SOL    HW118872   3.122   4.649  15.475  1.5011  2.6995 -0.4996
 2413SOL    HW218873   2.967   4.674  15.466  0.6608 -1.4622 -0.5999
 2414SOL     OW18874   4.160   4.193  13.691 -0.2299 -0.6877  0.3397
 2414SOL    HW118875   4.159   4.142  13.609 -2.9560  0.4709 -0.3402
 2414SOL    HW218876   4.254   4.213  13.687 -0.7122  1.9712  3.1725
 2415SOL     OW18877   1.335   0.963   9.239  0.3388  0.3022  0.0158
 2415SOL    HW118878   1.405   1.001   9.292  1.2416 -0.3563 -0.7067
 2415SOL    HW218879   1.377   0.941   9.156  2.4122 -2.3206  1.7721
 2416SOL     OW18880   2.591   3.968   1.501  0.1618 -0.3047 -0.0739
 2416SOL    HW118881   2.504   3.996   1.529  0.6936  0.6507  0.6067
 2416SOL    HW218882   2.587   3.981   1.406  3.2490  1.1697 -0.0184
 2417SOL     OW18883   2.847   0.860   6.987  0.0025 -0.0716 -0.1269
 2417SOL    HW118884   2.865   0.825   6.899  2.1524  0.2973  0.1553
 2417SOL    HW218885   2.932   0.847   7.031  0.4589 -0.8882 -1.2531
 2418SOL     OW18886   0.228   2.154   3.075 -1.1300 -0.3999 -0.4562
 2418SOL    HW118887   0.160   2.194   3.130 -0.0216 -0.4068  0.9349
 2418SOL    HW218888   0.193   2.127   2.991  0.8672 -0.8265 -1.1474
 2419SOL     OW18889   0.060   4.141   2.297 -0.1823  0.1238  0.0119
 2419SOL    HW118890   0.030   4.123   2.387  0.6799 -2.8146 -0.2634
 2419SOL    HW218891   4.717   4.144   2.245 -1.1474  0.9650  1.5757
 2420SOL     OW18892   2.346   2.395   1.934  0.3917 -0.5639  0.3849
 2420SOL    HW118893   2.388   2.453   1.999 -1.3760 -0.6633  1.6189
 2420SOL    HW218894   2.280   2.457   1.903  0.8831 -0.3025 -0.1311
 2421SOL     OW18895   2.230   0.593   8.471 -0.6299  0.5470 -0.5980
 2421SOL    HW118896   2.214   0.511   8.518  0.2349 -0.4721 -2.0742
 2421SOL    HW218897   2.280   0.547   8.403  0.7428 -0.9327  1.4348
 2422SOL     OW18898   2.753   3.057  12.419  0.0964  0.2495 -0.3294
 2422SOL    HW118899   2.752   3.151  12.433  1.2439  0.3043 -0.6062
 2422SOL    HW218900   2.824   3.044  12.482 -0.5959  2.8377  0.9857
 2423SOL     OW18901   1.927   2.572   3.773  0.3440 -0.1260  0.1777
 2423SOL    HW118902   1.900   2.482   3.756 -0.4518  0.0432  0.5469
 2423SOL    HW218903   2.016   2.578   3.738 -1.1440  2.3014 -3.2804
 2424SOL     OW18904   3.071   2.354   6.151  0.1699  0.8316 -0.4640
 2424SOL    HW118905   3.166   2.357   6.158  0.0479 -0.6317  1.6566
 2424SOL    HW218906   3.064   2.259   6.138  1.6615  0.7644 -0.7452
 2425SOL     OW18907   1.292   2.928  10.787  0.3856 -0.2380 -0.1601
 2425SOL    HW118908   1.266   2.885  10.705 -0.5961 -0.1273  0.0938
 2425SOL    HW218909   1.381   2.943  10.755 -0.2805  0.6725 -1.5869
 2426SOL     OW18910   1.817   0.343   5.372  0.1249  0.3815 -0.0304
 2426SOL    HW118911   1.849   0.332   5.461 -0.3769 -3.1383 -0.2866
 2426SOL    HW218912   1.874   0.414   5.341 -0.3144  0.2847 -1.0618
 2427SOL     OW18913   0.477   4.451  16.278 -0.1282 -0.1422 -0.1063
 2427SOL    HW118914   0.404   4.503  16.312 -1.3473 -1.3916 -0.8172
 2427SOL    HW218915   0.440   4.417  16.196 -1.1020 -1.5971  0.9416
 2428SOL     OW18916   3.611   1.704   1.388 -0.2241 -0.2151 -0.2036
 2428SOL    HW118917   3.691   1.739   1.349 -0.2089 -1.3378 -1.1761
 2428SOL    HW218918   3.648   1.671   1.470  3.7087  2.2478 -1.0053
 2429SOL     OW18919   4.584   2.764   5.946 -0.3587 -0.4949  0.4957
 2429SOL    HW118920   4.542   2.849   5.933  0.0631  0.0448  2.6674
 2429SOL    HW218921   4.569   2.752   6.040  0.0149 -1.6925  0.4009
 2430SOL     OW18922   0.238   3.027   4.833  0.0240 -0.1636 -0.4285
 2430SOL    HW118923   0.238   2.981   4.917  0.3180 -2.4684 -1.7013
 2430SOL    HW218924   0.188   3.107   4.852 -0.0377 -0.1505 -0.6439
 2431SOL     OW18925   3.587   1.691  15.211 -0.1643  0.3532  0.5489
 2431SOL    HW118926   3.649   1.745  15.162 -1.1893  0.6805 -0.3799
 2431SOL    HW218927   3.552   1.641  15.137  0.1045  1.1535 -0.1116
 2432SOL     OW18928   2.559   1.014   7.380 -0.3263  0.1110 -0.2802
 2432SOL    HW118929   2.519   1.090   7.338 -0.1213  0.5390  0.3017
 2432SOL    HW218930   2.650   1.041   7.386 -0.6841  1.0260  1.2642
 2433SOL     OW18931   3.797   3.308   5.721 -1.1121  0.6060  0.2944
 2433SOL    HW118932   3.712   3.265   5.708 -0.2370 -0.7980 -0.7411
 2433SOL    HW218933   3.844   3.273   5.646 -1.2148  0.2644  0.3878
 2434SOL     OW18934   0.935   3.426   9.544  0.3628  0.3615  0.3916
 2434SOL    HW118935   1.029   3.441   9.552  0.7599 -2.2422  0.7200
 2434SOL    HW218936   0.892   3.474   9.615  0.4474  2.4805 -0.9896
 2435SOL     OW18937   0.903   3.440   2.015  0.1418 -0.4074 -0.7373
 2435SOL    HW118938   0.940   3.506   1.957 -2.0573  1.7338  0.2812
 2435SOL    HW218939   0.894   3.494   2.094 -5.0480  2.1259 -3.0977
 2436SOL     OW18940   4.289   3.560   5.430 -0.0120 -0.2856  0.3300
 2436SOL    HW118941   4.304   3.642   5.382 -0.9086  0.1205  0.7446
 2436SOL    HW218942   4.294   3.599   5.517 -2.5124  2.1472 -0.5996
 2437SOL     OW18943   3.841   3.294   8.311  0.0240 -0.3448 -0.1183
 2437SOL    HW118944   3.815   3.203   8.296 -1.5541  0.4610 -2.2140
 2437SOL    HW218945   3.873   3.291   8.402 -0.8840 -0.0924  0.2110
 2438SOL     OW18946   3.461   2.939   2.637  0.0605 -0.4747 -0.5317
 2438SOL    HW118947   3.556   2.927   2.632  0.5341  1.2833  3.7331
 2438SOL    HW218948   3.458   3.009   2.572  1.0132  0.0986  0.0366
 2439SOL     OW18949   3.655   3.886   4.230  0.4738  0.1190  0.0742
 2439SOL    HW118950   3.695   3.803   4.205 -0.6076 -0.6266  0.8056
 2439SOL    HW218951   3.726   3.923   4.282  0.8895  0.0946 -0.4732
 2440SOL     OW18952   1.430   2.193   9.515  0.3769  0.3264 -0.4158
 2440SOL    HW118953   1.452   2.275   9.561 -1.8128  0.2036  0.8897
 2440SOL    HW218954   1.516   2.159   9.491  0.0381 -0.4811 -0.4693
 2441SOL     OW18955   3.881   0.590   0.238 -0.3375 -0.9833  0.2559
 2441SOL    HW118956   3.964   0.639   0.238  0.7170 -2.7897  2.5278
 2441SOL    HW218957   3.851   0.600   0.328  0.7415  3.4896  0.1291
 2442SOL     OW18958   3.037   2.413   8.874 -0.3855  0.1049  0.1153
 2442SOL    HW118959   2.950   2.392   8.906 -0.3890 -0.7948 -0.4854
 2442SOL    HW218960   3.043   2.364   8.792 -0.1140  1.2003 -0.5188
 2443SOL     OW18961   4.675   2.197   9.463 -0.1578  0.2724 -0.2496
 2443SOL    HW118962   4.690   2.142   9.540  1.1672  0.2274 -0.5470
 2443SOL    HW218963   4.617   2.133   9.420  1.7715 -1.3733 -0.4068
 2444SOL     OW18964   2.356   0.113  11.453 -0.2246 -0.0639  0.0526
 2444SOL    HW118965   2.360   0.084  11.544 -0.0312 -0.4160 -0.0666
 2444SOL    HW218966   2.304   0.193  11.462  0.8082  0.4217  1.5278
 2445SOL     OW18967   3.218   2.900   1.884  0.2065 -0.1248  0.0992
 2445SOL    HW118968   3.232   2.933   1.795 -2.2503  0.4658 -0.0645
 2445SOL    HW218969   3.216   2.976   1.942  0.9996 -1.4884  1.9201
 2446SOL     OW18970   1.754   3.641   8.543  0.5881 -0.3347 -0.5379
 2446SOL    HW118971   1.711   3.699   8.480  2.3912  0.5048 -1.0064
 2446SOL    HW218972   1.819   3.605   8.483 -0.2370 -1.9069 -0.4836
 2447SOL     OW18973   1.173   2.033   4.787  0.3412  0.1186 -0.0392
 2447SOL    HW118974   1.225   2.111   4.808 -0.7163  0.5371  0.9976
 2447SOL    HW218975   1.127   2.073   4.713  0.8523 -2.8714 -1.9558
 2448SOL     OW18976   1.723   4.078   6.505  0.1686  0.2018 -0.0552
 2448SOL    HW118977   1.814   4.086   6.477  0.8995 -0.0318  2.2705
 2448SOL    HW218978   1.714   4.138   6.579  1.0741  1.1820 -0.7551
 2449SOL     OW18979   3.470   1.836   3.741  0.1044 -0.2814 -0.5738
 2449SOL    HW118980   3.377   1.813   3.737  0.2731 -1.3453  1.5518
 2449SOL    HW218981   3.517   1.764   3.699  1.2397  0.1930 -0.1151
 2450SOL     OW18982   0.425   2.230   1.592  0.1819 -0.1477 -0.1533
 2450SOL    HW118983   0.431   2.291   1.665  1.3446  0.7009 -0.9661
 2450SOL    HW218984   0.350   2.261   1.540  1.2195  2.4655 -0.1087
 2451SOL     OW18985   1.888   0.681   2.715 -0.0165 -0.1707  0.0268
 2451SOL    HW118986   1.973   0.643   2.694 -0.9016 -2.3825  0.4546
 2451SOL    HW218987   1.907   0.736   2.791  0.3836 -1.7482  1.0852
 2452SOL     OW18988   0.269   1.375   0.543  0.3962  0.2436 -0.0909
 2452SOL    HW118989   0.285   1.292   0.497  2.9586  1.1167 -0.7835
 2452SOL    HW218990   0.321   1.356   0.622 -1.4176 -1.4470  0.7056
 2453SOL     OW18991   2.339   4.186   2.570  0.1514  0.1521  0.1194
 2453SOL    HW118992   2.343   4.216   2.479  0.3201  0.9769  0.3980
 2453SOL    HW218993   2.248   4.166   2.592  0.0089 -0.9811 -1.5063
 2454SOL     OW18994   0.316   4.689   6.337 -0.7432 -0.3000 -0.5100
 2454SOL    HW118995   0.235   4.734   6.315 -0.6849  0.1386  0.1776
 2454SOL    HW218996   0.304   4.595   6.326 -1.3016 -0.3886  0.8855
 2455SOL     OW18997   4.542   2.187   4.447 -0.3325  0.6492 -0.1385
 2455SOL    HW118998   4.504   2.269   4.416  0.3555  1.5725  1.4708
 2455SOL    HW218999   4.494   2.183   4.530  2.6854 -0.8050  1.5420
 2456SOL     OW19000   3.740   2.541   0.609  0.6661 -0.1745  0.0725
 2456SOL    HW119001   3.832   2.514   0.609  0.4136 -1.0297  0.1738
 2456SOL    HW219002   3.712   2.518   0.698  1.4025 -1.6399 -0.0806
 2457SOL     OW19003   3.779   1.537   3.606 -0.5866 -0.0664 -0.3014
 2457SOL    HW119004   3.771   1.491   3.522  0.7157 -0.6899 -0.0781
 2457SOL    HW219005   3.771   1.625   3.569 -1.3913  0.5692  1.3611
 2458SOL     OW19006   4.107   0.276   6.680  0.2897 -0.4096 -0.3111
 2458SOL    HW119007   4.112   0.214   6.753 -0.3417  0.8823  0.8215
 2458SOL    HW219008   4.103   0.218   6.604  0.1447 -0.1425 -0.5047
 2459SOL     OW19009   4.178   2.123   0.318 -0.2732  0.4627  0.2494
 2459SOL    HW119010   4.085   2.143   0.309 -0.2393  0.3419 -0.3978
 2459SOL    HW219011   4.175   2.050   0.380  1.7568 -1.8764 -2.3964
 2460SOL     OW19012   0.952   2.441   0.005  0.0587 -0.1204  0.0112
 2460SOL    HW119013   0.911   2.485   0.079  0.4406  1.5749 -0.7942
 2460SOL    HW219014   0.899   2.361   0.002 -1.9214  1.2377 -0.5624
 2461SOL     OW19015   0.408   0.409   4.546 -0.3309 -0.6004  0.2221
 2461SOL    HW119016   0.347   0.439   4.478  0.8777  0.4013 -0.4258
 2461SOL    HW219017   0.436   0.327   4.505  1.3830  0.3738 -0.5404
 2462SOL     OW19018   3.170   4.397   7.753 -0.2753  0.0879  0.5373
 2462SOL    HW119019   3.185   4.312   7.711 -1.2063 -0.7683  1.9273
 2462SOL    HW219020   3.221   4.400   7.834  3.5555 -2.5558 -1.7262
 2463SOL     OW19021   2.724   1.938   2.944 -0.0268  1.2732  0.2347
 2463SOL    HW119022   2.801   1.957   2.890  1.3837 -2.7732  0.7865
 2463SOL    HW219023   2.658   1.945   2.874 -0.2386 -0.3494  0.2572
 2464SOL     OW19024   4.206   2.181   3.229 -0.4918  0.2347  0.3902
 2464SOL    HW119025   4.197   2.263   3.277 -1.0894  0.9136 -0.8848
 2464SOL    HW219026   4.129   2.184   3.173 -0.3791 -1.1090  0.1635
 2465SOL     OW19027   4.080   4.596  17.724  0.3527  0.4693  0.3051
 2465SOL    HW119028   4.150   4.554   0.028  0.4430  0.6693  0.3456
 2465SOL    HW219029   4.038   4.650   0.043  3.0023  1.0706  1.5273
 2466SOL     OW19030   0.769   2.179   5.566  0.6487 -0.6799  0.1530
 2466SOL    HW119031   0.709   2.237   5.520 -0.1321 -0.9347  0.8609
 2466SOL    HW219032   0.779   2.236   5.642  0.4367  0.2545 -0.5210
 2467SOL     OW19033   2.336   3.058   3.721  0.2252  0.6367  0.2032
 2467SOL    HW119034   2.398   3.042   3.650  0.9704  0.0593  0.9791
 2467SOL    HW219035   2.308   3.147   3.702  0.2487  0.5769 -0.1095
 2468SOL     OW19036   0.384   3.277   8.962  0.1137  1.2518 -0.3159
 2468SOL    HW119037   0.426   3.208   8.910  0.5354  0.4237  1.1223
 2468SOL    HW219038   0.456   3.339   8.973 -0.9164  2.3245  0.2499
 2469SOL     OW19039   0.292   2.478   9.320 -0.0868 -0.6509  0.4037
 2469SOL    HW119040   0.370   2.523   9.287 -0.2107 -0.9170 -0.2515
 2469SOL    HW219041   0.247   2.539   9.378  0.3519 -0.4206  0.4996
 2470SOL     OW19042   4.265   2.559   9.355 -0.6248  0.1559  0.8152
 2470SOL    HW119043   4.216   2.641   9.353  0.5480  0.9316  4.1008
 2470SOL    HW219044   4.271   2.536   9.447 -3.5968  0.1067  0.9711
 2471SOL     OW19045   0.490   4.023  13.911 -0.1438 -0.0219 -0.0955
 2471SOL    HW119046   0.473   3.936  13.946  3.2281 -0.9455 -0.7634
 2471SOL    HW219047   0.557   4.003  13.845  1.2257 -0.8759  1.5655
 2472SOL     OW19048   0.061   3.240   1.533  0.4946  0.3165  0.0743
 2472SOL    HW119049   0.085   3.211   1.444 -1.0590 -0.3775 -0.1179
 2472SOL    HW219050   0.145   3.252   1.578 -0.4140 -0.9369  2.0985
 2473SOL     OW19051   2.576   2.118  11.373  0.5123  0.2095 -0.4036
 2473SOL    HW119052   2.543   2.084  11.290 -1.8818 -0.9759  1.0338
 2473SOL    HW219053   2.581   2.045  11.434 -0.3998  1.5303  1.2476
 2474SOL     OW19054   0.586   2.664   7.911  0.8847  0.0612 -0.2048
 2474SOL    HW119055   0.545   2.686   7.994  1.5894  1.8966 -0.3444
 2474SOL    HW219056   0.669   2.626   7.938  0.8603 -0.4236 -0.8047
 2475SOL     OW19057   2.925   2.687   6.577  0.4403  0.1790 -0.4460
 2475SOL    HW119058   2.975   2.608   6.556 -0.1467 -0.4632  0.5888
 2475SOL    HW219059   2.977   2.768   6.573  1.0552 -0.2357 -0.8263
 2476SOL     OW19060   3.745   3.891   5.658 -0.5110 -0.1426 -0.3172
 2476SOL    HW119061   3.764   3.958   5.593  1.2635  0.3175  0.6651
 2476SOL    HW219062   3.788   3.923   5.737  1.2226  0.1789 -1.3986
 2477SOL     OW19063   4.141   3.363  16.818  0.1194 -0.0991 -0.7760
 2477SOL    HW119064   4.143   3.372  16.913 -1.2983  0.7965 -0.8404
 2477SOL    HW219065   4.077   3.294  16.797  0.1363  0.3359 -2.2577
 2478SOL     OW19066   3.565   2.271   9.721 -0.0701  0.4294 -0.4074
 2478SOL    HW119067   3.636   2.231   9.770  0.0485  0.3028 -0.6789
 2478SOL    HW219068   3.537   2.330   9.791  1.8658  0.8320  0.0364
 2479SOL     OW19069   3.231   2.752   2.419 -0.0458  0.0461 -0.1428
 2479SOL    HW119070   3.149   2.703   2.414  0.3839 -0.8526  1.6989
 2479SOL    HW219071   3.288   2.684   2.454 -0.5717 -0.7838 -0.8940
 2480SOL     OW19072   4.667   4.073   3.758  0.9515 -0.4243  0.2555
 2480SOL    HW119073   4.672   4.168   3.743 -0.2390 -0.8426 -2.8020
 2480SOL    HW219074   4.578   4.052   3.729  1.4711 -1.9777 -0.1810
 2481SOL     OW19075   1.068   2.012  17.480 -0.2879 -0.0514  0.1818
 2481SOL    HW119076   1.093   2.093  17.524 -1.9916  1.9749 -2.5427
 2481SOL    HW219077   1.099   2.011  17.389 -1.1230 -2.6400 -0.0892
 2482SOL     OW19078   1.400   4.734   4.987 -0.7567 -0.3235  0.5026
 2482SOL    HW119079   1.446   0.079   5.001  0.5323 -1.2579  1.7577
 2482SOL    HW219080   1.457   4.697   5.054 -1.5574 -0.3941  1.1481
 2483SOL     OW19081   4.352   3.085   5.606 -0.9029 -0.2763 -0.3429
 2483SOL    HW119082   4.400   3.005   5.629  0.8003  0.2119 -2.1454
 2483SOL    HW219083   4.260   3.063   5.619 -1.0366  0.6105  0.1616
 2484SOL     OW19084   4.366   3.839  12.612 -0.1618  0.2526 -0.0780
 2484SOL    HW119085   4.377   3.783  12.535  1.9796  0.8801 -0.2357
 2484SOL    HW219086   4.372   3.922  12.564 -1.2562 -0.4256 -1.3777
 2485SOL     OW19087   0.495   2.082   6.918 -0.1222 -0.4422  0.3255
 2485SOL    HW119088   0.568   2.111   6.973  0.4008 -2.4906  0.6826
 2485SOL    HW219089   0.428   2.052   6.980  0.8614 -1.7640  0.7402
 2486SOL     OW19090   3.986   3.190   7.601 -0.0644  0.1014 -0.0570
 2486SOL    HW119091   3.994   3.107   7.555 -0.8304  0.2728 -0.5107
 2486SOL    HW219092   4.057   3.239   7.559 -0.6889 -0.8361 -2.2145
 2487SOL     OW19093   2.880   0.267  15.951  0.1002  0.9475  0.2033
 2487SOL    HW119094   2.853   0.176  15.963 -1.3906  0.8235 -3.9911
 2487SOL    HW219095   2.833   0.308  16.024  0.8612 -1.9570  2.3425
 2488SOL     OW19096   4.016   0.468   3.215  0.3366  0.3462  0.5447
 2488SOL    HW119097   4.050   0.399   3.271 -1.3212 -0.6933  0.2808
 2488SOL    HW219098   3.939   0.496   3.265 -0.3141  1.1198 -0.8999
 2489SOL     OW19099   2.080   0.189   3.297 -0.5361  0.2260 -0.7084
 2489SOL    HW119100   2.125   0.105   3.300 -1.0099 -0.0155 -0.3681
 2489SOL    HW219101   2.013   0.176   3.364 -0.5839 -1.1850 -1.0446
 2490SOL     OW19102   0.337   2.514  16.680 -0.4515  0.2485  0.0454
 2490SOL    HW119103   0.297   2.429  16.699  1.3070 -0.0537  2.3276
 2490SOL    HW219104   0.307   2.562  16.757 -1.1473 -1.5991  0.9430
 2491SOL     OW19105   1.175   3.073   7.149  0.4223  0.0940  0.2995
 2491SOL    HW119106   1.114   3.041   7.215 -1.6790  0.3448 -1.5144
 2491SOL    HW219107   1.134   3.031   7.074  0.9618 -1.4016  0.8495
 2492SOL     OW19108   4.715   3.434   3.178 -0.1822  0.6525  0.2187
 2492SOL    HW119109   4.689   3.489   3.252 -1.5692 -0.9985  0.9522
 2492SOL    HW219110   0.052   3.484   3.144 -0.4177 -0.3245 -1.7028
 2493SOL     OW19111   4.639   0.753   7.823 -0.2582 -0.3316  0.5166
 2493SOL    HW119112   4.697   0.728   7.751 -0.6046  1.4283 -0.3787
 2493SOL    HW219113   4.672   0.837   7.855 -0.6716 -0.4541  1.2681
 2494SOL     OW19114   0.605   4.215   1.113  0.1813  0.2033  0.1203
 2494SOL    HW119115   0.672   4.207   1.181 -1.3346  0.9700  1.7334
 2494SOL    HW219116   0.647   4.174   1.038  1.9479  0.8616  0.7416
 2495SOL     OW19117   0.354   1.056   5.996  0.1563 -0.4213  0.1724
 2495SOL    HW119118   0.377   1.132   6.049 -1.7685  0.7091 -0.6441
 2495SOL    HW219119   0.396   1.063   5.910  1.3619  1.8892  0.9361
 2496SOL     OW19120   0.243   2.744   7.032  0.0403 -0.4947  0.0142
 2496SOL    HW119121   0.216   2.687   6.960 -0.8419  1.7878 -1.4682
 2496SOL    HW219122   0.266   2.673   7.091  0.3712 -1.7957 -1.6776
 2497SOL     OW19123   0.079   1.307   4.004 -0.0013 -0.6689  0.5116
 2497SOL    HW119124   0.056   1.254   4.081 -2.1175  1.3137  1.2531
 2497SOL    HW219125   0.049   1.246   3.936 -0.7939  0.9591 -0.5891
 2498SOL     OW19126   1.753   4.450   4.298 -0.3428 -0.4941  0.4443
 2498SOL    HW119127   1.769   4.442   4.204  0.4918 -1.8406  0.6986
 2498SOL    HW219128   1.838   4.483   4.328 -0.1580 -1.0320  0.5094
 2499SOL     OW19129   2.645   4.642   8.577 -1.0526 -0.3791  0.0396
 2499SOL    HW119130   2.583   4.693   8.526 -0.4364  0.0000 -0.3202
 2499SOL    HW219131   2.598   4.563   8.605  0.0144 -0.9427  0.2752
 2500SOL     OW19132   4.520   2.273   9.921  0.2085  0.5117 -0.4010
 2500SOL    HW119133   4.460   2.255   9.993  0.6282  0.4565 -0.0677
 2500SOL    HW219134   4.507   2.206   9.854 -0.5343  1.6987 -1.4627
 2501SOL     OW19135   0.309   0.638   2.949  0.1038  0.2711 -0.4270
 2501SOL    HW119136   0.235   0.594   2.906 -0.9665  0.6167  1.0537
 2501SOL    HW219137   0.375   0.569   2.952  0.6135  0.8083  0.8820
 2502SOL     OW19138   0.688   2.736  12.411  0.0720 -0.2434 -0.2154
 2502SOL    HW119139   0.630   2.810  12.427 -1.1085 -1.2496  0.1465
 2502SOL    HW219140   0.694   2.700  12.499 -0.5651  2.8393  1.0978
 2503SOL     OW19141   1.866   0.006  16.845  0.2102  0.3689  0.2168
 2503SOL    HW119142   1.887   0.040  16.758  1.1006  0.6971  0.5642
 2503SOL    HW219143   1.856   4.649  16.838  0.7397  0.4706 -1.9589
 2504SOL     OW19144   3.489   4.322   7.503  0.1394  0.0128  0.2354
 2504SOL    HW119145   3.477   4.253   7.438 -1.6258 -1.4210  2.0669
 2504SOL    HW219146   3.504   4.398   7.447  0.3903 -0.2118  0.0006
 2505SOL     OW19147   1.952   0.056  14.075 -0.7072 -0.4997  0.7038
 2505SOL    HW119148   1.880   0.004  14.111 -0.5703  0.6879  2.7015
 2505SOL    HW219149   1.907   0.089  13.998  0.7332 -1.5026 -0.5652
 2506SOL     OW19150   2.420   0.423   2.168  0.4283 -0.5110 -0.5958
 2506SOL    HW119151   2.473   0.476   2.108 -1.2037  1.5552 -0.1982
 2506SOL    HW219152   2.460   0.444   2.252  2.4975  0.2030 -1.7514
 2507SOL     OW19153   4.554   0.069   3.942  0.2226 -0.0983 -1.1919
 2507SOL    HW119154   4.498   0.129   3.894  0.3908  0.5614 -0.5688
 2507SOL    HW219155   4.491   4.735   3.943 -0.8700  0.8758 -0.6374
 2508SOL     OW19156   0.439   2.850   6.690  0.2320 -0.1107 -0.0439
 2508SOL    HW119157   0.428   2.899   6.608  0.7696  0.0521 -0.0198
 2508SOL    HW219158   0.449   2.759   6.663  0.8407  0.1403 -0.6695
 2509SOL     OW19159   2.863   2.417  14.872 -0.0568 -0.2521 -0.0231
 2509SOL    HW119160   2.812   2.461  14.941  2.3119 -0.1328  1.6498
 2509SOL    HW219161   2.825   2.330  14.883  2.5495 -1.1223  1.8856
 2510SOL     OW19162   2.396   2.656  11.871 -0.2780  0.1404 -0.0666
 2510SOL    HW119163   2.332   2.589  11.850  0.1552 -0.3028  0.0293
 2510SOL    HW219164   2.356   2.736  11.835 -0.8661 -0.2975 -0.3753
 2511SOL     OW19165   2.124   1.089   8.100  0.5526 -0.0291  0.3278
 2511SOL    HW119166   2.074   1.043   8.032  0.1958  1.5114 -0.4560
 2511SOL    HW219167   2.186   1.137   8.045  0.1302 -1.2290 -1.1970
 2512SOL     OW19168   1.115   4.328   8.779  0.3843  0.0156 -0.1784
 2512SOL    HW119169   1.187   4.389   8.789  2.5904 -2.5852 -0.2137
 2512SOL    HW219170   1.134   4.305   8.688  2.4558 -0.6320  0.4256
 2513SOL     OW19171   1.889   2.101   7.390 -0.2843  0.4357 -0.0279
 2513SOL    HW119172   1.876   2.094   7.485 -3.9146  0.6279 -0.5063
 2513SOL    HW219173   1.983   2.099   7.373 -1.2386 -3.0605 -4.8916
 2514SOL     OW19174   4.317   4.537   7.229  0.0115 -0.5729  0.3126
 2514SOL    HW119175   4.288   4.455   7.191 -2.0056  0.5449 -0.5532
 2514SOL    HW219176   4.358   4.499   7.307  0.4180 -0.7475  0.0113
 2515SOL     OW19177   4.286   4.279  10.733 -1.1451  0.1585  0.0267
 2515SOL    HW119178   4.378   4.280  10.760 -0.9026  1.7168 -0.8500
 2515SOL    HW219179   4.241   4.284  10.817 -0.8145  1.3976  0.1274
 2516SOL     OW19180   1.578   1.404  15.340 -0.1639  0.0087 -0.4294
 2516SOL    HW119181   1.528   1.468  15.289 -0.4100  0.1810  0.0263
 2516SOL    HW219182   1.614   1.360  15.263 -0.9000 -0.6930 -0.3682
 2517SOL     OW19183   4.382   2.710   6.224 -0.2050  0.3393 -0.1616
 2517SOL    HW119184   4.326   2.780   6.190 -1.8739 -1.4432 -1.0907
 2517SOL    HW219185   4.455   2.763   6.255 -0.7839  1.2884 -0.4101
 2518SOL     OW19186   0.679   1.414   9.303 -0.5359  0.3730 -0.3570
 2518SOL    HW119187   0.717   1.492   9.344 -0.4476  1.0790 -1.7538
 2518SOL    HW219188   0.610   1.462   9.258 -0.6023 -0.0076 -0.6634
 2519SOL     OW19189   0.988   0.823   3.836 -0.2487  0.0788 -0.3707
 2519SOL    HW119190   1.002   0.917   3.828  0.3099  0.1086  0.8669
 2519SOL    HW219191   0.952   0.802   3.750  2.1231 -0.6590 -1.1710
 2520SOL     OW19192   1.074   1.423  15.800  0.1983 -0.2471  0.1295
 2520SOL    HW119193   0.981   1.422  15.775  0.0571  1.2607  0.6193
 2520SOL    HW219194   1.120   1.410  15.717 -0.5402  0.2772 -0.3637
 2521SOL     OW19195   1.762   0.494   8.631 -0.2292 -0.4880 -0.0923
 2521SOL    HW119196   1.846   0.483   8.674 -0.1637 -0.0689 -0.1081
 2521SOL    HW219197   1.746   0.589   8.636 -0.3453 -0.3853 -2.3613
 2522SOL     OW19198   3.752   2.731  17.197  0.5133 -0.0529  0.5298
 2522SOL    HW119199   3.749   2.706  17.104 -0.7303  3.0677 -0.2507
 2522SOL    HW219200   3.726   2.645  17.232  1.2473 -0.6448 -0.3754
 2523SOL     OW19201   0.707   4.309   4.058 -0.1713  0.0150  0.1613
 2523SOL    HW119202   0.640   4.378   4.061 -2.5373 -2.3156  0.5504
 2523SOL    HW219203   0.660   4.239   4.013  0.2453 -0.9038  1.1704
 2524SOL     OW19204   0.654   0.991   6.229  0.4074  0.4603 -0.3424
 2524SOL    HW119205   0.702   0.973   6.310  0.9948  3.7198  0.0452
 2524SOL    HW219206   0.638   1.086   6.227  0.4538  0.5163  1.8745
 2525SOL     OW19207   3.036   2.919   2.930 -0.2885  0.0789  0.2425
 2525SOL    HW119208   3.100   2.865   2.884 -0.9248  0.2819 -0.8764
 2525SOL    HW219209   3.058   2.902   3.022 -0.2808 -2.0346 -0.1519
 2526SOL     OW19210   2.102   2.922   3.595  0.1738 -0.1110  0.2785
 2526SOL    HW119211   2.144   2.840   3.621 -2.0291 -1.1548  0.5427
 2526SOL    HW219212   2.170   2.966   3.647 -0.2275 -0.1293  0.8219
 2527SOL     OW19213   1.904   2.352   6.291  0.4098 -0.0739 -0.0956
 2527SOL    HW119214   1.846   2.287   6.330  2.2055 -0.0308  2.6186
 2527SOL    HW219215   1.893   2.320   6.201  0.3540  0.2666 -0.2107
 2528SOL     OW19216   2.997   0.901   7.575  0.3266 -0.2109  0.1218
 2528SOL    HW119217   2.962   0.959   7.507 -0.2116  0.1488  0.7072
 2528SOL    HW219218   2.913   0.870   7.608  0.5646 -0.3829  0.5623
 2529SOL     OW19219   1.923   0.649   5.597  0.0396 -0.0774  0.1527
 2529SOL    HW119220   1.842   0.605   5.571 -0.9898  1.6383  0.4326
 2529SOL    HW219221   1.902   0.685   5.684  0.9209  0.0817  0.2949
 2530SOL     OW19222   4.004   2.600  14.636 -0.5013 -0.1539  0.6569
 2530SOL    HW119223   3.960   2.540  14.576  1.0141  2.1804 -2.7681
 2530SOL    HW219224   3.997   2.546  14.715  0.4203 -2.0422 -0.5400
 2531SOL     OW19225   3.064   2.406  16.845  0.3125 -0.0461  0.4892
 2531SOL    HW119226   3.030   2.429  16.932 -2.0419  1.7871 -0.8849
 2531SOL    HW219227   3.123   2.479  16.828  0.8688 -0.3506  1.1206
 2532SOL     OW19228   1.624   2.528   1.032 -0.3457 -0.5600  0.2246
 2532SOL    HW119229   1.675   2.608   1.022  0.8459 -1.3887 -0.3321
 2532SOL    HW219230   1.660   2.482   0.956 -0.6947 -1.3832  0.5542
 2533SOL     OW19231   1.120   2.619  11.099  0.1754  0.3816  0.2752
 2533SOL    HW119232   1.191   2.632  11.162  0.3094 -1.1386  0.4570
 2533SOL    HW219233   1.168   2.637  11.018 -0.0841 -3.2517 -0.6769
 2534SOL     OW19234   1.567   2.522  15.368 -0.3595  0.0367 -0.1557
 2534SOL    HW119235   1.619   2.526  15.288 -0.7942  3.3922 -0.2909
 2534SOL    HW219236   1.517   2.603  15.358 -0.0878  0.3460  0.9990
 2535SOL     OW19237   0.747   2.007   7.673  0.4681  0.0886  0.1552
 2535SOL    HW119238   0.790   2.013   7.588  3.6516  2.0535  1.9150
 2535SOL    HW219239   0.677   1.943   7.658 -0.2680  0.7748  0.6299
 2536SOL     OW19240   0.921   2.558   9.464 -0.1796  0.3875 -0.8067
 2536SOL    HW119241   0.927   2.606   9.382  2.4177  0.2717 -0.6687
 2536SOL    HW219242   0.830   2.581   9.486 -0.0015  0.4599 -0.1613
 2537SOL     OW19243   4.433   3.829   0.906  0.1357 -0.0623  0.2638
 2537SOL    HW119244   4.491   3.825   0.982  0.9296  0.7821 -0.2934
 2537SOL    HW219245   4.388   3.909   0.932 -1.4316 -1.3452  1.4348
 2538SOL     OW19246   4.546   2.786  10.468 -0.0654  0.9727 -0.0617
 2538SOL    HW119247   4.605   2.857  10.495 -1.2173  1.5892  0.7981
 2538SOL    HW219248   4.568   2.764  10.377 -0.4503  1.6254 -0.3167
 2539SOL     OW19249   2.204   3.380   7.357 -0.2846  0.0351 -0.2945
 2539SOL    HW119250   2.169   3.430   7.283  0.6150 -0.7986 -1.2901
 2539SOL    HW219251   2.297   3.394   7.341 -0.3835 -0.9217 -1.7385
 2540SOL     OW19252   0.501   4.733   9.573 -0.3791  0.2637 -0.5666
 2540SOL    HW119253   0.440   4.731   9.499  0.3394 -0.5440 -1.1330
 2540SOL    HW219254   0.577   4.685   9.541  0.1852 -1.1653  2.9282
 2541SOL     OW19255   0.501   4.335   3.428  0.5648  0.0160 -0.5326
 2541SOL    HW119256   0.486   4.428   3.448  2.2424  0.2570 -0.3716
 2541SOL    HW219257   0.413   4.302   3.448  1.7184 -2.6283  0.0988
 2542SOL     OW19258   4.099   0.961  16.285 -0.5009 -0.1271 -0.3559
 2542SOL    HW119259   4.127   0.869  16.289  0.8429  0.3093  0.2999
 2542SOL    HW219260   4.133   0.996  16.368 -0.8133 -0.3228 -0.1436
 2543SOL     OW19261   2.173   2.080   5.854 -0.4523 -0.3016 -0.4338
 2543SOL    HW119262   2.216   2.164   5.870 -3.4189  1.2649 -0.7910
 2543SOL    HW219263   2.185   2.065   5.760  1.2779 -1.1185 -0.0941
 2544SOL     OW19264   0.487   4.347   8.997 -0.2607 -0.1645 -0.0316
 2544SOL    HW119265   0.525   4.361   8.910 -0.9647  1.1659 -0.1305
 2544SOL    HW219266   0.564   4.353   9.054  1.3622  0.5664 -2.3017
 2545SOL     OW19267   2.290   0.575  12.670 -0.4544 -0.2934  0.0406
 2545SOL    HW119268   2.205   0.613  12.644 -0.1382  0.5724  0.2780
 2545SOL    HW219269   2.276   0.480  12.672  1.4124 -0.5738 -0.9944
 2546SOL     OW19270   2.090   1.080   3.311 -0.0593 -0.1916 -0.1879
 2546SOL    HW119271   2.124   0.990   3.306  1.5757  0.3019  1.7361
 2546SOL    HW219272   2.164   1.125   3.270  0.9975 -2.3514 -0.6676
 2547SOL     OW19273   2.421   0.917   6.567 -0.0557  0.3211  0.4011
 2547SOL    HW119274   2.361   0.992   6.566 -0.0128  0.3526  0.0218
 2547SOL    HW219275   2.489   0.951   6.508 -0.9573 -0.1264 -0.8902
 2548SOL     OW19276   3.656   1.124   7.301  0.1289  0.7072  0.8947
 2548SOL    HW119277   3.659   1.129   7.396  3.4273  0.8925  0.7944
 2548SOL    HW219278   3.574   1.074   7.302  1.0087 -0.7522  0.2318
 2549SOL     OW19279   2.716   1.442   1.503  0.4367 -1.0601 -0.3394
 2549SOL    HW119280   2.620   1.442   1.497  0.4769  1.5308 -1.1129
 2549SOL    HW219281   2.731   1.506   1.434 -0.2681 -0.6281 -0.0921
 2550SOL     OW19282   0.569   2.998   5.919  0.1827  0.3075  0.2929
 2550SOL    HW119283   0.501   3.003   5.986 -0.4324  0.0023 -0.3131
 2550SOL    HW219284   0.644   2.974   5.974 -0.2097 -2.9927 -0.5619
 2551SOL     OW19285   3.383   2.367   5.100 -0.2289 -0.0402  0.5024
 2551SOL    HW119286   3.360   2.354   5.008 -0.0782 -2.2793  0.7748
 2551SOL    HW219287   3.453   2.431   5.088 -2.3316  2.2121  0.2102
 2552SOL     OW19288   2.549   1.650  12.260  0.5051 -0.1874  0.6514
 2552SOL    HW119289   2.592   1.613  12.336  1.4229 -1.3998 -0.4573
 2552SOL    HW219290   2.459   1.624  12.281 -0.5534  1.6337 -1.6262
 2553SOL     OW19291   1.690   1.788   2.816 -0.6395 -0.1709  0.5771
 2553SOL    HW119292   1.722   1.864   2.768 -1.3466 -0.7572 -0.8279
 2553SOL    HW219293   1.645   1.740   2.746 -0.5138  1.2557 -0.4903
 2554SOL     OW19294   2.883   3.200   2.089  0.2495 -0.2543 -0.3966
 2554SOL    HW119295   2.810   3.138   2.082  1.8524 -2.1523 -0.4693
 2554SOL    HW219296   2.860   3.239   2.005  1.8079 -0.1399 -0.7757
 2555SOL     OW19297   4.386   4.386  12.009  0.0925  0.2463 -0.0706
 2555SOL    HW119298   4.366   4.336  11.930 -4.3093  0.3928  0.9662
 2555SOL    HW219299   4.313   4.448  12.013  2.3265  2.7399  2.3720
 2556SOL     OW19300   2.528   3.308   8.343 -0.0579  0.0819  0.1928
 2556SOL    HW119301   2.585   3.252   8.289  1.1213 -2.0742  3.6502
 2556SOL    HW219302   2.446   3.292   8.297  0.0821  0.4090 -0.1750
 2557SOL     OW19303   3.050   0.367   5.394 -0.2795 -0.1900  0.7841
 2557SOL    HW119304   3.129   0.340   5.442  0.4097  1.2767  0.4855
 2557SOL    HW219305   3.066   0.331   5.307  2.9545  2.6346  0.1999
 2558SOL     OW19306   3.833   4.622  17.070 -0.3636 -0.1599 -0.2418
 2558SOL    HW119307   3.772   4.549  17.080 -0.9412 -0.0510 -2.9801
 2558SOL    HW219308   3.850   4.616  16.976  2.5159 -1.6094  0.3513
 2559SOL     OW19309   3.473   1.653  15.649  0.1937 -0.2388  0.5020
 2559SOL    HW119310   3.503   1.575  15.602  1.2486 -0.5759  1.7227
 2559SOL    HW219311   3.518   1.647  15.733  1.5872  0.1077 -0.2059
 2560SOL     OW19312   3.058   0.206   2.517  0.0718 -0.1933  0.2147
 2560SOL    HW119313   3.064   0.269   2.445  0.7585 -1.9731 -1.2943
 2560SOL    HW219314   2.964   0.189   2.506 -0.4985  1.9343  1.9404
 2561SOL     OW19315   0.783   4.232   8.447  0.0924 -0.7725 -0.1698
 2561SOL    HW119316   0.738   4.222   8.531  0.7467  1.2637  0.4155
 2561SOL    HW219317   0.740   4.311   8.415  0.9035 -0.4014 -0.3435
 2562SOL     OW19318   3.250   3.852   8.876  0.6123 -0.0715  0.1437
 2562SOL    HW119319   3.231   3.775   8.929  2.7314 -0.2641  0.6243
 2562SOL    HW219320   3.325   3.889   8.922  1.3602 -0.4240 -0.7859
 2563SOL     OW19321   4.423   1.651   6.271 -0.8314  0.1948 -0.2569
 2563SOL    HW119322   4.402   1.681   6.182 -0.8854 -1.6821 -0.8789
 2563SOL    HW219323   4.456   1.564   6.248  1.9294  1.0350  0.5362
 2564SOL     OW19324   1.721   0.904   7.583  0.3249  0.1335  0.2305
 2564SOL    HW119325   1.628   0.880   7.588  0.5192 -0.8435 -0.8971
 2564SOL    HW219326   1.719   0.972   7.651 -1.2767  0.0867  0.2288
 2565SOL     OW19327   4.431   0.329   5.991 -0.8380  0.5308 -0.3690
 2565SOL    HW119328   4.400   0.400   5.936  0.1092  1.5352  0.3862
 2565SOL    HW219329   4.455   0.269   5.920  0.0812  1.0097 -0.4549
 2566SOL     OW19330   4.343   1.717   8.794 -0.1514 -0.1837  0.2123
 2566SOL    HW119331   4.390   1.800   8.796 -3.0299  1.3646  3.3285
 2566SOL    HW219332   4.252   1.745   8.787  0.1055  0.3054 -1.2331
 2567SOL     OW19333   2.383   2.104  11.934  0.0121  0.3507  0.8547
 2567SOL    HW119334   2.323   2.179  11.942  2.7129  2.6348 -0.2608
 2567SOL    HW219335   2.467   2.141  11.961  1.0102 -1.3666  0.0317
 2568SOL     OW19336   0.519   2.634   6.371  0.6179 -0.6942 -0.2828
 2568SOL    HW119337   0.512   2.588   6.288  1.4367 -2.8505  0.8584
 2568SOL    HW219338   0.578   2.584   6.427 -1.3707 -1.2255  1.3645
 2569SOL     OW19339   3.167   1.342   8.664  0.4756 -0.3622 -0.4947
 2569SOL    HW119340   3.193   1.387   8.583 -1.6879  1.0943 -0.3960
 2569SOL    HW219341   3.100   1.283   8.630  0.5707 -0.3563 -0.6959
 2570SOL     OW19342   3.300   2.835   7.237 -0.1642 -0.4414  0.7121
 2570SOL    HW119343   3.283   2.887   7.315 -1.7919 -1.1332  0.8151
 2570SOL    HW219344   3.207   2.818   7.223 -0.3962  0.6399  0.9456
 2571SOL     OW19345   1.445   3.272   4.787  0.2247  0.1692  0.5994
 2571SOL    HW119346   1.512   3.340   4.778  1.5616 -1.2174 -0.0300
 2571SOL    HW219347   1.444   3.238   4.698 -2.5173  1.3845  0.1844
 2572SOL     OW19348   4.155   4.187  11.945 -0.6040 -0.0024 -0.0829
 2572SOL    HW119349   4.183   4.098  11.924 -0.2776 -0.2135  1.2498
 2572SOL    HW219350   4.189   4.228  11.865 -0.5170 -0.2018 -0.1480
 2573SOL     OW19351   1.430   0.922  10.703 -0.0587  0.2494  0.5791
 2573SOL    HW119352   1.483   0.850  10.736 -0.9564 -1.6786 -2.1602
 2573SOL    HW219353   1.350   0.871  10.693  0.3718  0.0431 -1.9124
 2574SOL     OW19354   4.584   3.867  16.549  0.5933 -0.4036  0.1808
 2574SOL    HW119355   4.555   3.944  16.597 -0.0319  0.0219 -0.8687
 2574SOL    HW219356   4.529   3.801  16.590 -0.5278  0.4284  0.0082
 2575SOL     OW19357   1.274   0.768  11.140  0.5788  0.0721 -0.1528
 2575SOL    HW119358   1.296   0.675  11.126  1.4058  0.1056  0.9432
 2575SOL    HW219359   1.350   0.824  11.128  0.8377 -0.1060  0.6850
 2576SOL     OW19360   3.829   4.652  11.316  0.0523  0.4507 -0.1470
 2576SOL    HW119361   3.773   4.729  11.331 -1.2681 -0.5004 -0.2331
 2576SOL    HW219362   3.802   4.634  11.226 -1.9742 -1.2046  0.8072
 2577SOL     OW19363   4.448   0.986   8.924 -0.0098  0.0174  0.1569
 2577SOL    HW119364   4.380   0.998   8.858 -1.4748  1.3696  1.9335
 2577SOL    HW219365   4.469   0.896   8.899  0.2227  0.6462 -1.8586
 2578SOL     OW19366   4.432   2.650   4.640  0.1264 -0.2960 -0.3783
 2578SOL    HW119367   4.356   2.620   4.590  0.2206  1.0104 -1.3231
 2578SOL    HW219368   4.434   2.579   4.704 -0.1284 -1.1890 -1.3539
 2579SOL     OW19369   2.206   3.860   3.858 -0.8445  0.5294 -0.4105
 2579SOL    HW119370   2.279   3.922   3.855  0.2841 -0.7452  0.6713
 2579SOL    HW219371   2.171   3.872   3.946 -2.7237 -0.5478 -1.0090
 2580SOL     OW19372   2.472   3.220   4.083  0.2629  0.2856  0.1697
 2580SOL    HW119373   2.489   3.130   4.108  0.4789 -0.2520 -1.9001
 2580SOL    HW219374   2.465   3.247   4.174  1.5207 -2.5401  1.0995
 2581SOL     OW19375   2.824   0.460  15.018  0.2904  0.0578  0.0984
 2581SOL    HW119376   2.815   0.529  14.951  2.7300  0.0837 -0.2241
 2581SOL    HW219377   2.919   0.464  15.032  0.1977  1.3867  0.4122
 2582SOL     OW19378   3.578   2.630   7.791 -0.3411 -0.4357  0.3117
 2582SOL    HW119379   3.596   2.718   7.824 -0.2507 -0.0603 -0.7454
 2582SOL    HW219380   3.630   2.623   7.711 -1.4804  2.3540 -0.6785
 2583SOL     OW19381   2.743   2.384   8.640 -0.3678 -0.0877  0.4189
 2583SOL    HW119382   2.715   2.311   8.694  0.0984  0.1625  1.0101
 2583SOL    HW219383   2.722   2.462   8.693 -0.3826 -1.0976  1.9032
 2584SOL     OW19384   2.125   3.522   3.491  0.4477  0.1731 -0.2415
 2584SOL    HW119385   2.105   3.596   3.548  2.1616  1.2610 -1.0638
 2584SOL    HW219386   2.113   3.563   3.405  0.0456  0.4672 -0.0386
 2585SOL     OW19387   3.515   0.175  12.570 -0.5476 -0.2602 -0.3848
 2585SOL    HW119388   3.476   0.131  12.645  0.2778  0.5112  0.5015
 2585SOL    HW219389   3.523   0.266  12.601  4.3479 -1.5717  2.1801
 2586SOL     OW19390   2.358   2.048   9.662  0.0557  0.0629  0.0162
 2586SOL    HW119391   2.447   2.025   9.635  0.0597  0.6563 -0.4843
 2586SOL    HW219392   2.314   1.963   9.665  2.0089 -1.0473 -2.0944
 2587SOL     OW19393   0.756   0.923   7.352  0.5032 -0.1082 -0.5047
 2587SOL    HW119394   0.780   0.874   7.431  0.0576  1.9660  0.9378
 2587SOL    HW219395   0.668   0.894   7.328  0.4248  1.2343 -1.8552
 2588SOL     OW19396   3.082   1.667   2.347  0.5794 -0.1673 -0.3631
 2588SOL    HW119397   2.995   1.634   2.372  1.0904 -0.9384  0.4094
 2588SOL    HW219398   3.146   1.606   2.383  1.3643 -0.5563 -2.4474
 2589SOL     OW19399   0.806   4.396   7.951 -0.5184 -0.1989 -0.3324
 2589SOL    HW119400   0.793   4.487   7.977  1.9617  0.0878 -0.1758
 2589SOL    HW219401   0.893   4.407   7.913 -0.2755 -0.2893  0.1919
 2590SOL     OW19402   1.838   0.089   4.254 -0.4403  0.3006  0.1482
 2590SOL    HW119403   1.827   0.138   4.173  2.2781  0.7647  0.0550
 2590SOL    HW219404   1.750   0.053   4.265 -0.6641  0.9776  0.5354
 2591SOL     OW19405   3.694   1.714   6.953  0.1478 -0.0685 -0.0036
 2591SOL    HW119406   3.776   1.754   6.980  1.2109 -1.5031 -1.1156
 2591SOL    HW219407   3.725   1.625   6.936 -0.7253 -0.3020 -0.3975
 2592SOL     OW19408   3.548   1.999  11.230  0.0522 -0.3161  0.6802
 2592SOL    HW119409   3.473   2.059  11.227  0.1607 -0.2775 -1.9283
 2592SOL    HW219410   3.513   1.922  11.185 -0.1086 -0.4221  0.9852
 2593SOL     OW19411   0.160   2.269  15.996 -0.5170  0.4794  0.2875
 2593SOL    HW119412   0.249   2.235  16.007 -1.2349 -1.8294 -0.9715
 2593SOL    HW219413   0.155   2.314  16.080  0.5236 -0.4838  0.8576
 2594SOL     OW19414   0.458   4.562   7.369 -0.2482  0.4224  0.5240
 2594SOL    HW119415   0.488   4.648   7.399  4.1887 -1.0666  0.4124
 2594SOL    HW219416   0.385   4.592   7.315  0.6327 -1.3397 -1.6313
 2595SOL     OW19417   1.096   2.788  13.943 -0.6595 -0.3741 -0.2461
 2595SOL    HW119418   1.172   2.770  13.888 -0.3741 -2.6390  0.9033
 2595SOL    HW219419   1.037   2.719  13.915 -0.2174 -0.0680 -1.9253
 2596SOL     OW19420   0.973   1.169   0.354 -0.1832  0.1391  0.3502
 2596SOL    HW119421   0.938   1.128   0.434 -0.4504  0.3585  0.3455
 2596SOL    HW219422   0.965   1.260   0.382 -1.0935 -0.1016  0.9013
 2597SOL     OW19423   1.827   3.182   7.323  0.5738 -0.1138  0.4201
 2597SOL    HW119424   1.753   3.160   7.267  0.5126  1.4733 -0.1311
 2597SOL    HW219425   1.776   3.229   7.389  2.5090  1.4500  0.8274
 2598SOL     OW19426   3.335   4.736  17.503 -0.5099 -0.7841  0.3090
 2598SOL    HW119427   3.261   0.034  17.552  0.0171  0.4435  0.2244
 2598SOL    HW219428   3.388   4.700  17.574 -0.1383 -2.6133 -0.8791
 2599SOL     OW19429   4.323   0.217  10.070  0.4347 -0.4742  0.0568
 2599SOL    HW119430   4.237   0.191  10.103 -0.1195 -2.8085 -3.2603
 2599SOL    HW219431   4.378   0.176  10.137 -0.5606 -0.6561  0.7538
 2600SOL     OW19432   2.663   0.568   5.546  0.4766 -0.0988  0.1762
 2600SOL    HW119433   2.570   0.547   5.550  0.5457 -0.3215  0.6412
 2600SOL    HW219434   2.685   0.501   5.480 -0.5476  0.2826 -0.5578
 2601SOL     OW19435   3.691   3.307   7.487  0.0446  0.1439  0.4164
 2601SOL    HW119436   3.620   3.243   7.497 -0.4970  0.3586 -2.1409
 2601SOL    HW219437   3.644   3.373   7.538 -0.5516  0.0700 -0.0382
 2602SOL     OW19438   1.745   0.299   9.506  0.3856  0.2160  0.1084
 2602SOL    HW119439   1.814   0.362   9.526  0.1510  1.0794 -1.7738
 2602SOL    HW219440   1.775   0.265   9.422 -1.0994  1.6486 -1.0046
 2603SOL     OW19441   0.513   4.408  12.194 -1.2918 -0.0705  0.6751
 2603SOL    HW119442   0.575   4.475  12.163  0.7561 -2.5711 -0.7081
 2603SOL    HW219443   0.488   4.367  12.111  1.9993 -0.7252 -0.0075
 2604SOL     OW19444   3.842   0.080   6.589 -0.5696 -0.1151  0.2340
 2604SOL    HW119445   3.783   0.018   6.546 -0.9091 -0.5040  1.2685
 2604SOL    HW219446   3.924   0.030   6.582  0.1651  1.1841 -0.5178
 2605SOL     OW19447   4.155   4.595  10.620  0.3237  0.0751  0.0167
 2605SOL    HW119448   4.060   4.602  10.617  0.4236  1.4086 -0.4003
 2605SOL    HW219449   4.178   4.505  10.598  2.5595  1.3299 -2.8141
 2606SOL     OW19450   3.828   0.728   5.325 -0.3722 -0.4260  0.4669
 2606SOL    HW119451   3.861   0.662   5.264  0.0244  0.4384 -0.2747
 2606SOL    HW219452   3.875   0.799   5.280 -0.3236  0.7899  2.4642
 2607SOL     OW19453   3.761   2.178  11.037  0.1242 -0.0957 -0.0329
 2607SOL    HW119454   3.723   2.090  11.032 -0.5653  0.1505  0.8244
 2607SOL    HW219455   3.728   2.229  10.963  0.6844 -0.1706 -0.3300
 2608SOL     OW19456   3.718   0.681   7.426  0.1360  0.3028 -0.0906
 2608SOL    HW119457   3.698   0.737   7.501  0.4746 -1.2267  1.1463
 2608SOL    HW219458   3.732   0.751   7.362 -0.1506  0.6977  0.2779
 2609SOL     OW19459   1.937   2.959   6.726  0.1324 -0.0414 -0.1399
 2609SOL    HW119460   1.952   2.878   6.775  0.8149  0.2004  0.0487
 2609SOL    HW219461   1.885   3.005   6.791  0.0299  0.2647 -0.4414
 2610SOL     OW19462   1.540   3.421   1.001  0.3172  0.0893 -0.0594
 2610SOL    HW119463   1.488   3.341   0.997 -0.4125  0.5904 -0.5546
 2610SOL    HW219464   1.484   3.492   0.969 -0.1027  0.3989  1.3716
 2611SOL     OW19465   1.965   3.015   6.203  0.1743  0.3663  0.8887
 2611SOL    HW119466   2.038   2.964   6.237  0.4297 -0.7670 -1.4038
 2611SOL    HW219467   2.000   3.021   6.114 -0.3234  0.5031  0.7015
 2612SOL     OW19468   2.946   1.756  12.618 -0.1454  0.2236 -0.5078
 2612SOL    HW119469   2.986   1.801  12.544 -0.9000 -0.6191 -1.4390
 2612SOL    HW219470   3.013   1.737  12.683  1.0679  0.7248 -1.6316
 2613SOL     OW19471   1.666   0.129   1.989  0.0432 -0.1327  0.0806
 2613SOL    HW119472   1.652   0.043   1.950 -1.3897 -0.6512  1.7317
 2613SOL    HW219473   1.655   0.184   1.912  0.9049 -1.8024 -1.2151
 2614SOL     OW19474   3.087   2.456   3.966 -0.0452 -0.8855  0.0742
 2614SOL    HW119475   3.146   2.380   3.972 -0.3609 -1.0163  1.4635
 2614SOL    HW219476   3.133   2.521   4.018 -0.8179  0.0416 -0.4117
 2615SOL     OW19477   0.892   2.360   2.726 -0.2964  0.0615 -0.1693
 2615SOL    HW119478   0.856   2.422   2.790 -1.2400  0.1330 -0.7634
 2615SOL    HW219479   0.882   2.276   2.771  1.2655 -0.4301 -0.7513
 2616SOL     OW19480   0.700   0.174   5.727 -0.4340  0.0231 -0.6666
 2616SOL    HW119481   0.735   0.261   5.747  0.4387 -0.6615  0.6853
 2616SOL    HW219482   0.745   0.158   5.644 -1.0136 -1.5163 -0.6714
 2617SOL     OW19483   0.308   2.953   2.154  0.1142  0.1817  0.9287
 2617SOL    HW119484   0.364   2.942   2.078 -1.1859  0.0244 -0.0093
 2617SOL    HW219485   0.234   2.911   2.110  0.3192  2.5583 -1.7293
 2618SOL     OW19486   0.613   4.708   4.690  0.1069  0.3487  0.5173
 2618SOL    HW119487   0.598   4.639   4.625  1.2515  1.2408 -0.7131
 2618SOL    HW219488   0.671   4.659   4.748 -0.7116 -1.5992 -0.3094
 2619SOL     OW19489   3.467   0.820  11.850  0.0054 -0.1045 -0.3029
 2619SOL    HW119490   3.516   0.891  11.892 -0.7402  1.6177 -2.3491
 2619SOL    HW219491   3.528   0.748  11.869  0.7826  0.7916  0.6032
 2620SOL     OW19492   3.840   2.328  14.210  0.1540 -0.0743 -0.5742
 2620SOL    HW119493   3.773   2.285  14.156  0.1525 -0.1573 -0.5063
 2620SOL    HW219494   3.897   2.372  14.147  0.9573 -1.1251 -0.5813
 2621SOL     OW19495   0.593   3.586   3.590 -0.5367  0.0014 -0.2722
 2621SOL    HW119496   0.642   3.602   3.509  1.6058 -0.2411  0.9826
 2621SOL    HW219497   0.636   3.643   3.653 -2.2719  0.1801  0.7526
 2622SOL     OW19498   3.057   3.714   5.478  0.3512 -0.3419 -0.9223
 2622SOL    HW119499   3.119   3.705   5.406  0.2447 -2.0081 -0.8041
 2622SOL    HW219500   3.109   3.737   5.555 -0.5982 -2.0223  0.2082
 2623SOL     OW19501   2.802   1.866   6.309  0.0308  0.3202  0.2163
 2623SOL    HW119502   2.759   1.791   6.269  1.5138  0.3702 -1.4816
 2623SOL    HW219503   2.834   1.834   6.393 -0.8697  1.4614  0.9814
 2624SOL     OW19504   3.561   0.364   7.571 -0.4039  0.4166 -0.4510
 2624SOL    HW119505   3.621   0.415   7.626  1.1025 -1.9075  0.0356
 2624SOL    HW219506   3.500   0.329   7.636 -0.3668 -1.3594 -1.3772
 2625SOL     OW19507   3.463   1.509  15.395 -0.2324 -0.0153  0.0877
 2625SOL    HW119508   3.377   1.526  15.358 -0.7886  0.3509  1.5597
 2625SOL    HW219509   3.514   1.574  15.346 -0.2654 -0.6181 -0.7387
 2626SOL     OW19510   4.336   4.017   3.955  0.5535  0.2173 -0.0545
 2626SOL    HW119511   4.373   3.979   3.875  1.6963 -1.0881  1.1050
 2626SOL    HW219512   4.267   4.066   3.910 -1.2961 -1.3736  1.0786
 2627SOL     OW19513   1.427   3.240   3.224 -0.5718 -0.3510  0.2179
 2627SOL    HW119514   1.409   3.307   3.289  2.2821  2.0698 -1.4993
 2627SOL    HW219515   1.503   3.281   3.182  0.1544 -0.1789  1.7210
 2628SOL     OW19516   0.138   2.619   4.285  0.0522 -0.2693  0.4877
 2628SOL    HW119517   0.217   2.598   4.235 -0.9729 -0.1851 -1.1817
 2628SOL    HW219518   0.122   2.536   4.328 -0.8233 -1.2068 -1.6293
 2629SOL     OW19519   1.497   0.893   9.024  0.1025  0.1208 -0.0397
 2629SOL    HW119520   1.551   0.856   9.094 -1.9097  2.9739  3.0378
 2629SOL    HW219521   1.488   0.819   8.964 -0.4678 -0.4418  0.7371
 2630SOL     OW19522   1.744   0.957   1.316 -0.3851 -0.4127  0.0682
 2630SOL    HW119523   1.769   1.030   1.259  2.4881 -0.7452  0.8708
 2630SOL    HW219524   1.761   0.877   1.267  0.8655  0.3379 -0.7292
 2631SOL     OW19525   1.763   2.421   1.408  0.2425 -0.2733  0.1763
 2631SOL    HW119526   1.731   2.374   1.484 -1.5213  1.4206  0.4862
 2631SOL    HW219527   1.855   2.393   1.409 -0.3645 -2.2422 -0.1787
 2632SOL     OW19528   1.410   4.017   9.321  0.0155 -0.6210 -0.5571
 2632SOL    HW119529   1.404   4.078   9.394  4.4173  0.0795 -0.7894
 2632SOL    HW219530   1.453   3.945   9.367 -0.0842 -1.4905 -1.8338
 2633SOL     OW19531   2.303   2.859   8.223  0.4021 -1.2712 -0.3724
 2633SOL    HW119532   2.264   2.772   8.235  0.8184 -1.6475 -1.7705
 2633SOL    HW219533   2.241   2.901   8.164  0.3920  1.1159  1.3514
 2634SOL     OW19534   2.114   3.669   3.239 -0.2636  0.7406  0.3250
 2634SOL    HW119535   2.052   3.710   3.178 -2.3749  0.0087  2.0272
 2634SOL    HW219536   2.168   3.745   3.263  1.1572  0.0493 -0.6575
 2635SOL     OW19537   3.863   3.032   7.098 -0.2584  0.1577 -0.1963
 2635SOL    HW119538   3.933   3.080   7.142 -0.6945  0.3564  0.2834
 2635SOL    HW219539   3.862   3.068   7.009 -0.2546 -0.9385 -0.6284
 2636SOL     OW19540   2.140   1.397   7.482  0.0486  0.9228 -0.6372
 2636SOL    HW119541   2.111   1.360   7.398 -0.1342 -1.8094  0.6271
 2636SOL    HW219542   2.169   1.485   7.458  2.3110  0.0483 -1.0913
 2637SOL     OW19543   3.463   3.642   1.528 -0.4047  0.6050  0.8496
 2637SOL    HW119544   3.472   3.701   1.454 -1.4560 -1.3782 -0.8722
 2637SOL    HW219545   3.373   3.663   1.553 -2.4543 -3.5220 -2.9976
 2638SOL     OW19546   0.349   1.230  17.317  0.6182 -0.2528  0.0916
 2638SOL    HW119547   0.382   1.156  17.265 -0.0102 -0.4361 -0.0492
 2638SOL    HW219548   0.406   1.301  17.288 -1.1039  0.8980 -0.4908
 2639SOL     OW19549   1.442   2.292   5.520  0.2948  0.0831  0.1612
 2639SOL    HW119550   1.504   2.364   5.507  0.7092 -0.6917 -2.1508
 2639SOL    HW219551   1.435   2.256   5.431 -0.8655 -2.1356  1.1620
 2640SOL     OW19552   4.040   3.461   7.287  0.3151  0.5281 -0.4292
 2640SOL    HW119553   4.095   3.526   7.244  0.2285 -0.1175 -1.5227
 2640SOL    HW219554   4.098   3.428   7.356  0.9878 -0.0191 -1.2467
 2641SOL     OW19555   2.045   0.547   5.202  0.4924 -0.8582  0.5063
 2641SOL    HW119556   2.107   0.503   5.259  1.8684  1.2626  0.6592
 2641SOL    HW219557   2.081   0.515   5.119  0.8904  0.2604  0.2496
 2642SOL     OW19558   4.344   3.975  10.793  0.2216 -0.3642  0.0667
 2642SOL    HW119559   4.268   4.033  10.780 -0.0362 -0.4180  1.2960
 2642SOL    HW219560   4.301   3.891  10.777 -0.3906 -0.5492  2.6855
 2643SOL     OW19561   3.649   1.321   3.269 -0.1332 -0.0770  0.3382
 2643SOL    HW119562   3.665   1.412   3.295 -1.7859  1.3369 -3.6807
 2643SOL    HW219563   3.577   1.293   3.325 -0.0824 -0.5329  0.1709
 2644SOL     OW19564   2.780   0.220   4.071  0.3545 -0.3425 -0.2554
 2644SOL    HW119565   2.778   0.283   4.143  1.8221  1.0270 -1.4243
 2644SOL    HW219566   2.785   0.134   4.112 -0.5430 -1.6024 -2.7922
 2645SOL     OW19567   0.815   3.656   7.508  0.4888  0.3908 -0.2711
 2645SOL    HW119568   0.725   3.688   7.522  0.2396 -1.0246  1.3145
 2645SOL    HW219569   0.793   3.563   7.515 -1.5876  0.9208  0.2776
 2646SOL     OW19570   1.456   0.828   7.533 -0.2925 -0.0841 -0.4424
 2646SOL    HW119571   1.438   0.920   7.515  1.7060  0.7340  1.7095
 2646SOL    HW219572   1.392   0.816   7.604 -0.3933 -0.4211 -0.5941
 2647SOL     OW19573   4.481   0.164   5.784  0.3090  0.6115  0.2554
 2647SOL    HW119574   4.554   0.117   5.744 -0.9532 -1.4885  0.3786
 2647SOL    HW219575   4.421   0.176   5.710  1.5028 -0.3337 -0.8625
 2648SOL     OW19576   3.223   4.049   9.297  0.0399 -0.1864 -0.3200
 2648SOL    HW119577   3.307   4.090   9.319 -0.9670  1.8994 -0.3874
 2648SOL    HW219578   3.250   3.958   9.304 -0.2399 -0.2596 -0.2184
 2649SOL     OW19579   4.354   0.954   5.469  0.1247  0.0498 -0.0317
 2649SOL    HW119580   4.270   0.939   5.513 -1.2429 -0.7182 -2.8840
 2649SOL    HW219581   4.369   1.044   5.499 -4.7236  0.5891  0.8123
 2650SOL     OW19582   4.530   0.668   6.890  0.3394  0.2810 -0.0292
 2650SOL    HW119583   4.446   0.658   6.935 -0.3287  1.8584 -0.9113
 2650SOL    HW219584   4.520   0.607   6.817 -1.6767 -0.6772  1.0473
 2651SOL     OW19585   1.149   3.117   6.535  0.3134  0.7508  0.0726
 2651SOL    HW119586   1.238   3.094   6.508  1.5575  1.6488  3.4208
 2651SOL    HW219587   1.119   3.170   6.461 -1.2428 -1.7044 -1.0637
 2652SOL     OW19588   0.999   3.507  11.503 -0.3668  0.0961  0.7168
 2652SOL    HW119589   1.048   3.589  11.513 -3.1918  1.7130  1.3424
 2652SOL    HW219590   0.911   3.515  11.540 -1.4373  1.0228 -2.0141
 2653SOL     OW19591   0.269   1.516   1.174 -0.2079  0.2071 -0.3535
 2653SOL    HW119592   0.182   1.484   1.201 -0.2999 -0.1753 -1.1183
 2653SOL    HW219593   0.240   1.604   1.150 -1.2209 -0.0140  0.0243
 2654SOL     OW19594   2.830   3.675   1.438  0.4287 -0.2199 -0.2797
 2654SOL    HW119595   2.842   3.750   1.496  0.0197  1.2058 -2.0667
 2654SOL    HW219596   2.913   3.628   1.436  1.3186  1.1836  2.8849
 2655SOL     OW19597   1.468   1.528   7.912 -0.2041 -0.4802  0.0961
 2655SOL    HW119598   1.491   1.496   7.825  2.9585  0.7528  0.4742
 2655SOL    HW219599   1.479   1.621   7.893 -2.2501  0.0451  1.5687
 2656SOL     OW19600   1.076   2.477   1.284  0.3466  0.1660 -0.2172
 2656SOL    HW119601   1.066   2.542   1.354 -0.2789 -1.0301  0.8008
 2656SOL    HW219602   1.124   2.405   1.324 -1.7022 -0.1123  1.7806
 2657SOL     OW19603   4.672   1.569   5.647  0.1786  0.3010  0.0396
 2657SOL    HW119604   4.627   1.514   5.711 -0.7984  0.5685 -0.4120
 2657SOL    HW219605   4.725   1.626   5.703 -1.4068  1.1450  0.6992
 2658SOL     OW19606   4.579   1.307   1.809 -0.0219 -0.0450 -0.4835
 2658SOL    HW119607   4.601   1.395   1.840 -0.8520  0.9039 -2.5844
 2658SOL    HW219608   4.533   1.274   1.886  0.4586 -0.3469 -0.3245
 2659SOL     OW19609   3.393   3.366  17.682 -0.3260  0.1270 -0.5250
 2659SOL    HW119610   3.317   3.367  17.624  0.2656  2.7762 -1.2289
 2659SOL    HW219611   3.416   3.274  17.665  1.9548  0.6877 -0.5557
 2660SOL     OW19612   2.540   0.727   7.057  0.2902 -0.3793 -0.2141
 2660SOL    HW119613   2.527   0.758   6.967  2.8929 -2.1619 -1.1794
 2660SOL    HW219614   2.479   0.653   7.053  0.3672 -0.2601 -3.6948
 2661SOL     OW19615   3.800   0.410   5.366  0.0018  0.4865 -0.7673
 2661SOL    HW119616   3.746   0.461   5.427  0.3929  0.6545 -0.5549
 2661SOL    HW219617   3.733   0.399   5.299  0.2830 -1.0886 -0.7825
 2662SOL     OW19618   4.117   0.462   2.659  0.3284  0.1197 -0.5289
 2662SOL    HW119619   4.041   0.510   2.693 -0.7777 -2.3845  0.5656
 2662SOL    HW219620   4.096   0.370   2.676  1.0552 -0.4664 -2.9271
 2663SOL     OW19621   2.128   2.848   4.671 -0.0994 -0.2298  0.1149
 2663SOL    HW119622   2.199   2.880   4.616 -0.7927 -2.0075 -1.8005
 2663SOL    HW219623   2.050   2.867   4.619 -1.2990 -1.8212  1.3274
 2664SOL     OW19624   4.516   2.807   0.430  0.6557  0.0925 -0.0348
 2664SOL    HW119625   4.467   2.819   0.349  0.1965  0.0713  0.2431
 2664SOL    HW219626   4.479   2.882   0.476  1.0720  0.8894 -1.0217
 2665SOL     OW19627   3.250   1.660   1.708  0.2229  0.0222 -0.2808
 2665SOL    HW119628   3.331   1.629   1.668  0.7718  1.2585 -0.1101
 2665SOL    HW219629   3.189   1.587   1.699  1.2410 -0.8654  0.0313
 2666SOL     OW19630   4.039   1.130  13.889 -0.2657 -0.3196 -0.1533
 2666SOL    HW119631   4.024   1.209  13.941  0.5351  0.4107 -1.0359
 2666SOL    HW219632   4.006   1.160  13.805  0.7705  0.9823 -0.0988
 2667SOL     OW19633   3.363   1.750   2.888  0.1212  0.4059  0.2124
 2667SOL    HW119634   3.363   1.768   2.794  1.2746  0.4418  0.2194
 2667SOL    HW219635   3.306   1.817   2.927  0.7967  1.5911 -0.8472
 2668SOL     OW19636   1.729   0.143   8.227  0.2101 -0.1922  0.1485
 2668SOL    HW119637   1.800   0.156   8.290 -0.4063  0.0575  0.7874
 2668SOL    HW219638   1.713   0.225   8.181  1.1015 -0.4500 -0.6197
 2669SOL     OW19639   2.110   3.416   8.844 -0.2164  0.0063 -0.5056
 2669SOL    HW119640   2.188   3.416   8.900 -0.6482 -0.5083  0.0911
 2669SOL    HW219641   2.051   3.421   8.919  1.6676  0.0073  0.9953
 2670SOL     OW19642   3.814   3.844   4.746  0.9340 -0.4060 -0.2794
 2670SOL    HW119643   3.826   3.938   4.759 -0.8382 -0.0068 -1.4943
 2670SOL    HW219644   3.814   3.843   4.650  2.7717  1.5416 -0.3094
 2671SOL     OW19645   4.263   2.232  14.053 -0.7066 -0.2135 -0.5204
 2671SOL    HW119646   4.336   2.273  14.007  0.0754 -1.8173 -0.7016
 2671SOL    HW219647   4.286   2.140  14.062  2.6834  0.3629 -2.9825
 2672SOL     OW19648   1.316   4.141   3.505  0.2139  0.0391  0.1327
 2672SOL    HW119649   1.357   4.156   3.590  2.6045 -0.0513 -1.0234
 2672SOL    HW219650   1.243   4.203   3.506 -0.2673 -0.5366  1.3293
 2673SOL     OW19651   2.462   2.798   8.858  0.4708 -0.0990 -0.0431
 2673SOL    HW119652   2.396   2.753   8.805  0.1799 -1.2446  1.2818
 2673SOL    HW219653   2.409   2.875   8.879 -1.0968 -0.9742 -0.7652
 2674SOL     OW19654   0.715   1.630  16.487 -0.4310  0.2673 -0.7348
 2674SOL    HW119655   0.746   1.570  16.555  1.9392 -0.1895 -2.2226
 2674SOL    HW219656   0.746   1.712  16.525 -1.0432 -0.6524  1.8076
 2675SOL     OW19657   3.013   0.502   0.291 -0.3642  0.1618  0.5160
 2675SOL    HW119658   2.927   0.493   0.333 -1.5746  2.2897 -1.4486
 2675SOL    HW219659   3.063   0.552   0.355  1.4693  0.6616 -1.3149
 2676SOL     OW19660   0.833   3.751   9.072 -0.1323 -0.5949 -0.5025
 2676SOL    HW119661   0.874   3.834   9.048 -0.7079  1.0633  4.2841
 2676SOL    HW219662   0.744   3.762   9.037 -0.8356 -2.7332  0.6494
 2677SOL     OW19663   1.224   0.188  11.865 -0.9504 -0.3786 -0.7619
 2677SOL    HW119664   1.312   0.174  11.830 -0.0109 -2.3524  2.3769
 2677SOL    HW219665   1.169   0.204  11.789  0.1531 -2.4889 -1.9987
 2678SOL     OW19666   1.222   3.576   5.953  0.6471 -0.6608  0.0835
 2678SOL    HW119667   1.303   3.627   5.956 -0.2479  0.8465 -0.9722
 2678SOL    HW219668   1.190   3.590   6.042 -1.2617  0.1184 -0.7067
 2679SOL     OW19669   2.484   1.850   9.467  0.8027 -0.0877  0.4294
 2679SOL    HW119670   2.454   1.889   9.385 -1.5263 -0.6464  1.0137
 2679SOL    HW219671   2.400   1.807   9.486  0.3693 -0.0006 -1.2870
 2680SOL     OW19672   1.971   1.755   9.606  0.4260  0.0717 -0.8540
 2680SOL    HW119673   1.879   1.759   9.582  0.2749  0.7562 -0.1522
 2680SOL    HW219674   1.978   1.816   9.680  0.0763 -0.1011 -0.6780
 2681SOL     OW19675   2.876   3.982   0.264  0.4859 -0.6594 -0.1856
 2681SOL    HW119676   2.791   4.021   0.244 -0.2357 -1.2481  1.7498
 2681SOL    HW219677   2.907   3.968   0.174  0.2950 -1.2577 -0.1553
 2682SOL     OW19678   1.732   1.266   3.959  0.1675 -0.4262 -0.4607
 2682SOL    HW119679   1.673   1.271   3.884  0.3487  1.3537 -0.4654
 2682SOL    HW219680   1.686   1.323   4.021  0.9441 -1.2333  0.8572
 2683SOL     OW19681   4.180   3.178   0.646  0.5472 -0.5603  0.3333
 2683SOL    HW119682   4.188   3.262   0.692 -2.5324  0.0539 -0.2619
 2683SOL    HW219683   4.116   3.204   0.580  0.6732 -0.3352  0.3013
 2684SOL     OW19684   2.597   3.559   7.449  0.8816 -0.5898 -0.1876
 2684SOL    HW119685   2.608   3.472   7.487  3.4928  0.0808  0.5450
 2684SOL    HW219686   2.659   3.611   7.499 -0.4377  1.5303 -0.7249
 2685SOL     OW19687   1.897   0.889   2.891 -1.1524 -0.3334 -0.2748
 2685SOL    HW119688   1.812   0.931   2.900 -0.9116 -0.5128  2.7120
 2685SOL    HW219689   1.918   0.852   2.977  0.6931  1.9075  0.2220
 2686SOL     OW19690   2.084   3.201  16.997 -0.1005  0.5362 -0.3033
 2686SOL    HW119691   2.093   3.291  17.027 -1.4459  0.4910  0.2309
 2686SOL    HW219692   2.144   3.147  17.047 -1.2857 -0.6956 -0.1957
 2687SOL     OW19693   1.350   3.493   7.297  0.6789 -0.0639 -0.0503
 2687SOL    HW119694   1.255   3.492   7.284  0.6552  0.0905  0.1155
 2687SOL    HW219695   1.377   3.555   7.229 -1.6874  0.1827 -0.7490
 2688SOL     OW19696   4.261   2.081   9.597  0.0638 -0.1255  0.0956
 2688SOL    HW119697   4.323   2.037   9.539  0.7645 -1.8882  2.1667
 2688SOL    HW219698   4.232   2.156   9.545  0.2809 -0.4665 -0.5174
 2689SOL     OW19699   4.360   4.622   8.226  0.0273  0.6525 -0.2437
 2689SOL    HW119700   4.356   4.693   8.162  1.0850 -0.0468 -1.0874
 2689SOL    HW219701   4.447   4.635   8.262  0.6816  1.0242 -1.9779
 2690SOL     OW19702   3.665   0.592   7.734  0.0875 -0.3421 -0.0074
 2690SOL    HW119703   3.583   0.624   7.696  0.9956  2.1658  0.1398
 2690SOL    HW219704   3.646   0.603   7.827  0.8643  0.3222  0.0750
 2691SOL     OW19705   2.061   0.147   6.000 -0.8701  0.1794 -0.4777
 2691SOL    HW119706   2.154   0.166   6.013 -0.7618 -0.2469 -0.6052
 2691SOL    HW219707   2.026   0.174   6.085  2.3878 -0.5309  1.0699
 2692SOL     OW19708   0.080   0.137   8.100  0.1116 -0.1377 -0.5386
 2692SOL    HW119709   0.155   0.170   8.050  0.9161 -0.8927  0.1673
 2692SOL    HW219710   0.118   0.097   8.178  0.5344  2.9729  0.8196
 2693SOL     OW19711   0.273   2.303   7.719  0.4358  0.0976  0.2295
 2693SOL    HW119712   0.205   2.367   7.699  1.7334  0.9949 -1.3554
 2693SOL    HW219713   0.346   2.353   7.682  2.3929 -2.9069 -0.0011
 2694SOL     OW19714   0.437   3.986   7.836  0.2172  0.2268 -0.0460
 2694SOL    HW119715   0.511   3.929   7.858 -1.6281 -2.0595  0.2027
 2694SOL    HW219716   0.358   3.936   7.850 -2.0914  3.9093  0.1216
 2695SOL     OW19717   2.792   4.733  16.419  0.0228  0.3395 -0.1463
 2695SOL    HW119718   2.855   4.661  16.415 -0.9699 -0.5398  0.2312
 2695SOL    HW219719   2.708   4.697  16.392  0.1008 -1.1095  1.5798
 2696SOL     OW19720   2.639   3.027   8.524  0.0583 -0.2863  0.0351
 2696SOL    HW119721   2.581   3.076   8.583  1.5565  1.7178 -0.1825
 2696SOL    HW219722   2.576   2.958   8.503 -0.5841  0.6407 -1.1209
 2697SOL     OW19723   4.384   0.687  12.051 -0.4784  0.3954  0.2234
 2697SOL    HW119724   4.370   0.614  12.112 -1.0758 -0.1577 -0.5809
 2697SOL    HW219725   4.315   0.747  12.077 -2.1488 -1.6515  0.5257
 2698SOL     OW19726   2.768   3.584   4.522 -0.2439 -0.0380  0.3684
 2698SOL    HW119727   2.823   3.506   4.516  0.6125  0.4171  2.3249
 2698SOL    HW219728   2.828   3.656   4.503 -1.8290  1.4010  0.8378
 2699SOL     OW19729   2.787   3.467  10.886 -0.3895 -0.0428  0.5100
 2699SOL    HW119730   2.745   3.518  10.817  1.2616 -1.8759 -1.8419
 2699SOL    HW219731   2.880   3.471  10.863  0.6147 -2.9261  4.0167
 2700SOL     OW19732   2.882   0.873   3.820 -0.0988 -0.0877 -0.3541
 2700SOL    HW119733   2.922   0.849   3.904 -1.6637  0.8379  0.6505
 2700SOL    HW219734   2.876   0.782   3.792  0.2759  0.3250 -1.7966
 2701SOL     OW19735   0.066   1.063   8.584 -0.0208 -0.2232  0.5656
 2701SOL    HW119736   4.735   1.051   8.518  0.6728 -1.3116  0.0592
 2701SOL    HW219737   0.077   1.158   8.575 -0.3506 -0.3231 -0.9042
 2702SOL     OW19738   3.460   0.752  15.166  0.5638 -0.5493  0.3026
 2702SOL    HW119739   3.489   0.840  15.187 -0.9492  0.2347 -0.8901
 2702SOL    HW219740   3.440   0.751  15.072  0.3379 -1.2606  0.3576
 2703SOL     OW19741   4.549   1.675   7.413 -0.1720 -0.8041  0.2804
 2703SOL    HW119742   4.582   1.642   7.497  0.9496 -3.7022 -1.3258
 2703SOL    HW219743   4.600   1.625   7.350 -1.1139 -0.1786 -0.9646
 2704SOL     OW19744   0.835   0.604   0.462 -0.2668 -0.0550 -0.4152
 2704SOL    HW119745   0.818   0.520   0.419  0.0175 -0.0634 -0.5114
 2704SOL    HW219746   0.909   0.630   0.407  0.1940  1.3065  0.8762
 2705SOL     OW19747   2.899   4.258   0.309 -0.3500  0.1301  0.1179
 2705SOL    HW119748   2.945   4.299   0.236  1.7536  1.3381  2.1234
 2705SOL    HW219749   2.914   4.164   0.296  3.1027  0.6123  0.7388
 2706SOL     OW19750   3.982   0.370   8.236 -0.3900 -0.1535 -0.2792
 2706SOL    HW119751   4.042   0.304   8.270  1.0169  2.4685  2.3398
 2706SOL    HW219752   3.997   0.351   8.144 -2.2839 -0.4168 -0.5276
 2707SOL     OW19753   4.076   2.479   7.620 -0.0764  0.5865  0.2293
 2707SOL    HW119754   4.068   2.566   7.658 -0.9876  1.5084 -2.1237
 2707SOL    HW219755   4.160   2.454   7.659  0.1207 -0.0103 -0.5684
 2708SOL     OW19756   3.130   2.901   7.672  0.5532 -0.0164  0.1419
 2708SOL    HW119757   3.188   2.854   7.732 -2.4005 -3.2081  0.4908
 2708SOL    HW219758   3.076   2.947   7.736  0.7146 -1.3888  1.2605
 2709SOL     OW19759   1.322   3.083   1.615  0.3299 -0.2606  0.6593
 2709SOL    HW119760   1.296   3.094   1.707  1.1003 -1.4790  1.0314
 2709SOL    HW219761   1.235   3.093   1.577  0.0520  1.4612  1.7424
 2710SOL     OW19762   3.281   4.719   5.010  0.4499 -0.6161  0.1121
 2710SOL    HW119763   3.358   0.036   5.027 -1.8122  2.4343  0.6633
 2710SOL    HW219764   3.299   4.715   4.916 -0.9069 -1.2575 -0.1133
 2711SOL     OW19765   2.767   2.032  14.489  0.4956  0.1651 -0.0205
 2711SOL    HW119766   2.733   2.116  14.520 -2.1343 -1.1156  0.5400
 2711SOL    HW219767   2.840   2.014  14.549  1.1190  1.6433 -0.3143
 2712SOL     OW19768   0.247   3.867   2.321 -0.3080  0.1807 -1.0659
 2712SOL    HW119769   0.200   3.949   2.333 -2.3618 -0.7505 -2.8016
 2712SOL    HW219770   0.276   3.870   2.230 -0.7519 -2.1461 -1.2982
 2713SOL     OW19771   1.490   1.765   4.173  0.1760  0.3727 -0.1093
 2713SOL    HW119772   1.405   1.727   4.193  0.4386  0.9750  2.1289
 2713SOL    HW219773   1.494   1.728   4.085 -1.9149  1.5408 -0.6978
 2714SOL     OW19774   0.890   4.302   4.379  0.4750 -0.4204  0.1048
 2714SOL    HW119775   0.904   4.268   4.468  2.0855  3.0610  1.1875
 2714SOL    HW219776   0.844   4.229   4.336  0.1116  0.4544 -0.9746
 2715SOL     OW19777   0.903   0.085   6.409  0.3940 -0.6723  0.3179
 2715SOL    HW119778   0.907   0.140   6.487  2.1953 -0.3348 -0.0311
 2715SOL    HW219779   0.830   0.122   6.359  0.7362  0.5905  0.7548
 2716SOL     OW19780   2.350   0.697  17.139  0.0673 -0.1290 -0.6500
 2716SOL    HW119781   2.330   0.605  17.123 -1.2760 -0.2924  1.8631
 2716SOL    HW219782   2.435   0.708  17.097  0.8497 -0.3804  0.8440
 2717SOL     OW19783   2.316   0.463  16.272  0.3136 -0.1517  0.2434
 2717SOL    HW119784   2.256   0.426  16.206 -1.2118  1.0457  0.9650
 2717SOL    HW219785   2.330   0.552  16.239  1.7523 -0.6490 -0.4888
 2718SOL     OW19786   2.652   1.265   7.560 -0.3078 -0.2064 -0.9527
 2718SOL    HW119787   2.690   1.329   7.620 -0.9572 -0.6254 -0.0983
 2718SOL    HW219788   2.560   1.265   7.586 -0.1925  2.9696 -0.5951
 2719SOL     OW19789   1.952   1.150  17.405 -0.1322  0.7797 -0.5335
 2719SOL    HW119790   1.903   1.136  17.324  0.5929  0.1186 -0.8635
 2719SOL    HW219791   2.043   1.153  17.378 -0.5370  0.5373 -1.9051
 2720SOL     OW19792   0.413   0.860   5.788 -0.3950 -0.1935  0.1320
 2720SOL    HW119793   0.442   0.844   5.698 -1.7674 -0.2776 -0.3004
 2720SOL    HW219794   0.335   0.804   5.788 -0.2832 -0.3616  2.2564
 2721SOL     OW19795   1.621   2.793   7.114  0.1649 -0.3484  1.0145
 2721SOL    HW119796   1.533   2.794   7.151  1.0485 -2.4179  3.1587
 2721SOL    HW219797   1.642   2.700   7.116  0.2952 -0.3628 -0.8879
 2722SOL     OW19798   1.705   0.098   8.819  0.5074  0.0533 -0.5058
 2722SOL    HW119799   1.678   0.095   8.728  1.4835 -0.8390 -0.7681
 2722SOL    HW219800   1.706   0.004   8.841 -1.9277 -0.1449 -1.2342
 2723SOL     OW19801   1.909   0.355  16.905  0.1247 -0.0717 -0.1339
 2723SOL    HW119802   1.942   0.364  16.815 -0.0548  0.0112 -0.1914
 2723SOL    HW219803   1.982   0.387  16.958  0.6850 -2.1923  0.4022
 2724SOL     OW19804   0.813   1.159  16.893  0.0909  0.4901  0.1023
 2724SOL    HW119805   0.862   1.137  16.972 -2.1882 -0.4567  1.2336
 2724SOL    HW219806   0.736   1.103  16.896 -1.4349  2.5119 -1.2037
 2725SOL     OW19807   1.676   4.259  17.233  0.3255  0.5370  0.2929
 2725SOL    HW119808   1.693   4.235  17.324 -0.4554  3.3877  1.1864
 2725SOL    HW219809   1.638   4.179  17.198  4.9012 -1.4081 -0.1542
 2726SOL     OW19810   3.053   1.949   5.176 -0.2626 -0.2318 -0.4064
 2726SOL    HW119811   2.988   1.883   5.199  0.1866 -0.1912  0.9318
 2726SOL    HW219812   3.004   2.024   5.211 -0.3874 -0.0724 -0.9179
 2727SOL     OW19813   2.057   3.052   3.219 -0.3442  0.1839  0.4957
 2727SOL    HW119814   2.056   3.147   3.229 -1.3772  0.1611  0.6108
 2727SOL    HW219815   2.150   3.046   3.198 -0.2409  0.7333  0.7770
 2728SOL     OW19816   0.598   4.413   8.702  0.3584  0.2804 -0.0414
 2728SOL    HW119817   0.675   4.469   8.691 -0.5714  1.4688 -0.4758
 2728SOL    HW219818   0.530   4.465   8.659 -0.2839 -0.6674 -0.1654
 2729SOL     OW19819   1.346   0.731   2.635  0.1328  0.1222 -0.2713
 2729SOL    HW119820   1.365   0.757   2.726  1.3494  1.3135 -0.8620
 2729SOL    HW219821   1.432   0.696   2.613  0.1462  0.5744 -0.9449
 2730SOL     OW19822   3.620   2.352  10.880  0.0353 -0.0186  0.2158
 2730SOL    HW119823   3.653   2.353  10.791 -1.1582 -0.4313 -0.2410
 2730SOL    HW219824   3.537   2.308  10.860  0.9012 -0.6966 -1.7956
 2731SOL     OW19825   2.828   1.717  14.126 -0.0919  0.3326 -0.4976
 2731SOL    HW119826   2.848   1.719  14.220  0.1677  0.7593 -0.5610
 2731SOL    HW219827   2.772   1.794  14.121 -0.5991  0.1281  1.8634
 2732SOL     OW19828   1.682   4.715   9.512  0.3296  0.1508 -0.0981
 2732SOL    HW119829   1.662   0.055   9.565 -0.3485  0.6820 -1.1201
 2732SOL    HW219830   1.701   4.647   9.577 -0.8629  0.0694  0.1711
 2733SOL     OW19831   4.595   1.853   6.333  0.3094 -0.1038 -0.4122
 2733SOL    HW119832   4.515   1.810   6.300  0.9305 -1.0470 -0.6979
 2733SOL    HW219833   4.594   1.828   6.425 -1.1524  0.5016 -0.2603
 2734SOL     OW19834   2.431   1.635  11.451 -0.3019  0.5173 -0.2699
 2734SOL    HW119835   2.422   1.716  11.401 -1.5313 -0.5112 -1.6886
 2734SOL    HW219836   2.434   1.568  11.383  1.6415  0.0442  0.2890
 2735SOL     OW19837   0.714   4.360  14.954 -0.9619  0.2438  1.0403
 2735SOL    HW119838   0.771   4.370  14.878  0.2973  1.5264  2.1433
 2735SOL    HW219839   0.769   4.322  15.022 -1.0841  0.6228  1.3546
 2736SOL     OW19840   0.750   3.792  14.615 -0.4645  0.7108 -0.2692
 2736SOL    HW119841   0.832   3.761  14.577 -1.0533 -1.0925 -0.0659
 2736SOL    HW219842   0.778   3.814  14.704  0.1774  0.7906 -0.4863
 2737SOL     OW19843   0.387   0.012   5.011 -0.6808  0.0062  0.7015
 2737SOL    HW119844   0.359   0.096   5.048  2.4995  0.7794  1.3073
 2737SOL    HW219845   0.387   0.026   4.916 -0.1218 -0.3624  0.6496
 2738SOL     OW19846   4.513   1.192   2.752  0.2647 -0.2826 -0.1452
 2738SOL    HW119847   4.447   1.262   2.753 -0.5180 -1.0561  1.6298
 2738SOL    HW219848   4.483   1.150   2.671  3.4488 -0.2939 -1.3219
 2739SOL     OW19849   1.934   2.023   5.928 -0.6395 -0.0665  0.3775
 2739SOL    HW119850   2.013   2.075   5.911  0.8232 -2.5891 -0.6778
 2739SOL    HW219851   1.966   1.935   5.905  0.1887  0.7406 -1.6075
 2740SOL     OW19852   3.529   4.402   8.178  0.2537 -0.0426 -0.5449
 2740SOL    HW119853   3.547   4.402   8.084  1.3503 -0.3641 -0.3316
 2740SOL    HW219854   3.593   4.337   8.208 -0.7277 -0.3746  0.8681
 2741SOL     OW19855   3.633   1.413   7.702  0.8021  0.0977  0.3126
 2741SOL    HW119856   3.684   1.494   7.696 -0.4404  0.7988 -0.8554
 2741SOL    HW219857   3.681   1.357   7.763 -1.6147 -0.8800  1.3460
 2742SOL     OW19858   3.750   1.163   6.066 -0.3639  0.3238 -0.4776
 2742SOL    HW119859   3.843   1.161   6.090 -0.9833  0.8592  1.9700
 2742SOL    HW219860   3.734   1.244   6.018 -1.3583  0.9254  0.8845
 2743SOL     OW19861   1.158   0.169   3.574 -0.6096 -0.0279 -0.2702
 2743SOL    HW119862   1.125   0.257   3.589 -2.4928 -0.2465 -3.0589
 2743SOL    HW219863   1.090   0.122   3.622 -0.6861 -0.9906 -1.3162
 2744SOL     OW19864   1.989   1.153   8.977 -0.6612  0.0853 -0.6000
 2744SOL    HW119865   1.954   1.113   9.057  1.8486 -1.2930 -0.1972
 2744SOL    HW219866   1.975   1.246   8.994 -2.5374 -0.5594  1.3283
 2745SOL     OW19867   1.865   4.621  16.295  0.3180 -0.1210  0.3436
 2745SOL    HW119868   1.839   4.615  16.386 -2.1352 -0.1466 -0.3692
 2745SOL    HW219869   1.935   4.686  16.295  0.3261 -0.1627  2.7450
 2746SOL     OW19870   0.524   0.830  10.691 -0.0380 -0.3680  0.5875
 2746SOL    HW119871   0.439   0.865  10.718  0.1647 -1.1866  2.2760
 2746SOL    HW219872   0.581   0.905  10.708 -0.5603  0.1467  0.0255
 2747SOL     OW19873   4.171   0.446   7.371  0.4464  0.4208  0.0817
 2747SOL    HW119874   4.113   0.489   7.309 -1.4759 -1.0940  0.8462
 2747SOL    HW219875   4.133   0.360   7.388 -0.8499  1.1323  0.7217
 2748SOL     OW19876   3.003   4.712   6.392  0.0258 -0.8026  0.3082
 2748SOL    HW119877   3.047   4.639   6.437  1.8258  0.0896  0.0135
 2748SOL    HW219878   3.069   0.043   6.403  0.2406 -0.9147 -0.3121
 2749SOL     OW19879   3.795   0.300   3.974 -0.1733 -0.2692  0.0759
 2749SOL    HW119880   3.744   0.237   3.923 -0.8566 -0.4838  1.0163
 2749SOL    HW219881   3.748   0.297   4.057 -0.0632 -3.5100  0.0439
 2750SOL     OW19882   1.450   0.144   3.595 -0.5328  0.1808  0.1454
 2750SOL    HW119883   1.371   0.118   3.643  0.6572  0.9702  2.5244
 2750SOL    HW219884   1.411   0.211   3.539  0.5090 -0.0424 -0.8386
 2751SOL     OW19885   3.823   4.470  11.956 -0.0207 -0.0658 -0.0212
 2751SOL    HW119886   3.853   4.520  12.031 -0.4703  0.5666 -0.2684
 2751SOL    HW219887   3.767   4.404  11.997  1.7099 -0.6118  1.4835
 2752SOL     OW19888   1.272   2.386   7.836  0.0372  0.2363  0.7216
 2752SOL    HW119889   1.238   2.357   7.921  0.7771 -2.0333  0.2548
 2752SOL    HW219890   1.224   2.330   7.776 -1.2661  1.5418  0.5413
 2753SOL     OW19891   4.498   2.145   4.782  0.3805  0.2181 -0.2201
 2753SOL    HW119892   4.552   2.092   4.841  2.2938 -0.8376 -2.9332
 2753SOL    HW219893   4.419   2.092   4.791  0.3754  0.2705  0.0302
 2754SOL     OW19894   0.839   1.911   2.340 -0.1166 -0.4257  0.5459
 2754SOL    HW119895   0.905   1.842   2.336 -1.1991 -1.4457  0.7444
 2754SOL    HW219896   0.897   1.979   2.303 -0.4155 -1.5178 -1.8979
 2755SOL     OW19897   1.290   0.249  12.229  0.1392 -0.0353  0.5663
 2755SOL    HW119898   1.364   0.223  12.174  0.5078  2.0761  0.0506
 2755SOL    HW219899   1.265   0.340  12.212 -3.6753 -1.2294 -0.1341
 2756SOL     OW19900   1.358   3.783   7.598 -0.2156 -0.2914  0.2118
 2756SOL    HW119901   1.280   3.735   7.571  1.4223 -2.2956 -0.9634
 2756SOL    HW219902   1.429   3.723   7.576 -0.0370 -1.2296  3.2895
 2757SOL     OW19903   4.558   1.767   9.949  0.0393  0.0714 -0.0826
 2757SOL    HW119904   4.576   1.848   9.998  3.5820  0.6768 -2.3704
 2757SOL    HW219905   4.646   1.730   9.949 -0.2196 -0.5634 -2.3245
 2758SOL     OW19906   3.348   0.166   8.340  0.0989 -0.3016 -0.5399
 2758SOL    HW119907   3.394   0.242   8.375 -0.5083 -1.4425  2.7170
 2758SOL    HW219908   3.422   0.127   8.295 -0.2875 -1.4082 -0.2184
 2759SOL     OW19909   4.535   0.704   8.838  0.4613 -0.4545 -0.4277
 2759SOL    HW119910   4.543   0.615   8.803  2.6031 -0.4515  0.0418
 2759SOL    HW219911   4.562   0.749   8.757 -1.7994 -0.4273 -1.1864
 2760SOL     OW19912   3.761   3.240   2.824  1.3434  0.8059  0.4550
 2760SOL    HW119913   3.805   3.177   2.768  1.1172  1.0352  0.0195
 2760SOL    HW219914   3.839   3.294   2.839  1.1925  0.4742  2.3505
 2761SOL     OW19915   0.225   2.298   6.521 -0.2801  0.6487 -0.3774
 2761SOL    HW119916   0.158   2.261   6.578 -0.8582 -2.5993 -3.1008
 2761SOL    HW219917   0.306   2.266   6.561 -1.1016 -0.0529  0.7296
 2762SOL     OW19918   0.084   2.210   3.330 -0.6372 -0.2592 -0.4114
 2762SOL    HW119919   0.150   2.158   3.376  1.0417  2.0801 -0.2047
 2762SOL    HW219920   0.026   2.234   3.402 -0.0819 -1.6613  0.4958
 2763SOL     OW19921   0.327   2.038   1.146 -0.2230 -0.0564  0.0040
 2763SOL    HW119922   0.237   2.068   1.159 -0.7016 -0.9609 -1.1298
 2763SOL    HW219923   0.314   1.945   1.129  3.2920 -0.2436 -1.6731
 2764SOL     OW19924   0.941   2.840   1.151  0.5608  0.4004 -0.5725
 2764SOL    HW119925   1.012   2.838   1.088 -0.7541  1.6910 -2.0868
 2764SOL    HW219926   0.969   2.925   1.187 -0.6425 -0.0347  1.4442
 2765SOL     OW19927   1.050   1.790  17.680  0.3203  0.1904  0.0230
 2765SOL    HW119928   1.054   1.859  17.614  1.0934 -1.9375 -2.1259
 2765SOL    HW219929   0.992   1.724  17.642  0.1327 -0.2045  0.9951
 2766SOL     OW19930   3.099   3.623   6.536 -0.0996 -0.7441 -0.0449
 2766SOL    HW119931   3.018   3.650   6.579  0.2312 -0.1882  0.2278
 2766SOL    HW219932   3.063   3.622   6.447 -0.7664 -2.4891  0.2522
 2767SOL     OW19933   4.661   3.963   7.189  0.3690  0.1628  0.5698
 2767SOL    HW119934   4.662   4.056   7.212 -2.3229  0.3330 -0.0140
 2767SOL    HW219935   4.674   3.969   7.094 -0.6021 -2.9273  0.2288
 2768SOL     OW19936   3.398   4.400   2.393 -0.3624  0.0381  0.4070
 2768SOL    HW119937   3.434   4.486   2.371  1.3477 -0.3969  1.5284
 2768SOL    HW219938   3.312   4.412   2.351 -0.0491 -1.0538 -0.5287
 2769SOL     OW19939   4.101   1.759   0.573 -0.0422  0.5389  0.0015
 2769SOL    HW119940   4.035   1.736   0.507  0.6607 -0.9127 -0.1954
 2769SOL    HW219941   4.145   1.677   0.593  0.8894  0.4779 -2.3694
 2770SOL     OW19942   3.064   4.342  13.535 -0.1985 -0.3908  0.3202
 2770SOL    HW119943   3.156   4.358  13.554 -0.0795 -2.6852  1.7023
 2770SOL    HW219944   3.060   4.354  13.440  1.1460  1.4699  0.4902
 2771SOL     OW19945   3.117   2.219  14.593  0.1300 -0.0412  0.3605
 2771SOL    HW119946   3.120   2.234  14.498  2.6698  1.3623  0.6869
 2771SOL    HW219947   3.197   2.265  14.616 -0.2464  1.0777 -0.5459
 2772SOL     OW19948   2.145   1.323  14.660 -0.7329 -0.5554  0.2350
 2772SOL    HW119949   2.103   1.242  14.632 -1.9205  0.9098 -2.1983
 2772SOL    HW219950   2.236   1.304  14.637 -0.1363  1.7793  0.6380
 2773SOL     OW19951   1.676   2.792   6.860  0.1966 -0.2090 -0.0379
 2773SOL    HW119952   1.758   2.742   6.863  0.0302 -0.6493 -3.3925
 2773SOL    HW219953   1.653   2.798   6.953  3.6133  0.6743  0.7580
 2774SOL     OW19954   0.365   4.005   4.920 -0.0439 -0.1599  0.5187
 2774SOL    HW119955   0.314   4.077   4.956  1.9331  1.6525 -0.3238
 2774SOL    HW219956   0.313   3.924   4.925  2.6081 -1.8957 -0.1003
 2775SOL     OW19957   1.855   4.288   2.339 -0.4363 -0.0559  0.1455
 2775SOL    HW119958   1.903   4.339   2.405 -1.2765  1.1304 -0.1537
 2775SOL    HW219959   1.888   4.200   2.359 -0.1343 -0.0686 -0.4256
 2776SOL     OW19960   1.493   2.715   3.531  0.1937 -0.9185  0.4750
 2776SOL    HW119961   1.585   2.744   3.532 -0.2613  0.5783 -1.3988
 2776SOL    HW219962   1.458   2.762   3.607 -4.5883 -0.3254 -2.0904
 2777SOL     OW19963   0.637   0.734  11.476 -0.5557 -0.3898 -0.3128
 2777SOL    HW119964   0.593   0.737  11.561 -0.9265  1.2584 -0.5676
 2777SOL    HW219965   0.570   0.776  11.423 -1.4569 -1.5382 -0.0784
 2778SOL     OW19966   1.582   1.068   9.305  0.0321  0.5562 -0.1849
 2778SOL    HW119967   1.616   1.117   9.230 -2.1003 -0.3130 -1.7069
 2778SOL    HW219968   1.660   1.041   9.353 -0.4000 -2.1113 -0.9504
 2779SOL     OW19969   2.360   3.186   2.618 -0.1843  0.0332 -0.1883
 2779SOL    HW119970   2.358   3.121   2.547  0.2082 -0.1883  0.0043
 2779SOL    HW219971   2.444   3.174   2.662 -0.4903 -1.6376 -0.0478
 2780SOL     OW19972   0.494   2.115   4.335  0.7741 -0.0466 -0.1962
 2780SOL    HW119973   0.467   2.079   4.251  1.6523 -0.0171 -0.4859
 2780SOL    HW219974   0.476   2.207   4.317 -2.5107 -0.4375  1.1145
 2781SOL     OW19975   4.392   3.739   6.918 -0.5004  0.3676 -0.5481
 2781SOL    HW119976   4.460   3.806   6.932 -1.0036  0.5664  1.0038
 2781SOL    HW219977   4.424   3.688   6.844  1.3132  1.7995 -0.7407
 2782SOL     OW19978   2.810   1.857   7.350 -0.4620 -0.5722 -0.1072
 2782SOL    HW119979   2.817   1.792   7.279 -0.7964 -0.0644 -0.6014
 2782SOL    HW219980   2.724   1.892   7.326  0.2111 -0.5341 -2.4628
 2783SOL     OW19981   1.080   1.587   9.883  0.4499  0.2492 -0.2715
 2783SOL    HW119982   1.049   1.559   9.969  1.1092 -0.9873 -0.4353
 2783SOL    HW219983   1.001   1.622   9.842  0.2618 -0.1541 -0.2513
 2784SOL     OW19984   3.860   3.429   3.677  0.1457  0.0884 -0.3600
 2784SOL    HW119985   3.838   3.499   3.738  2.8446  1.4001 -0.8678
 2784SOL    HW219986   3.772   3.393   3.678  0.3197 -0.3124  0.5076
 2785SOL     OW19987   4.195   3.188   5.905  0.2363 -0.2133  0.1474
 2785SOL    HW119988   4.229   3.104   5.874  0.5915 -0.1571  0.3875
 2785SOL    HW219989   4.111   3.157   5.939 -1.0348  2.2071 -0.7665
 2786SOL     OW19990   0.968   0.477   1.380  0.2625 -0.1843  0.1809
 2786SOL    HW119991   0.920   0.398   1.356  1.3446 -0.1142 -2.1487
 2786SOL    HW219992   0.979   0.473   1.475  0.1472 -0.2097  0.1931
 2787SOL     OW19993   3.076   3.367  10.101 -0.5438 -0.1407 -0.0300
 2787SOL    HW119994   3.150   3.409  10.055  0.4588  0.8446  2.5025
 2787SOL    HW219995   3.118   3.315  10.169  0.0124 -0.4128 -0.5842
 2788SOL     OW19996   3.443   4.102   7.805  0.1706 -0.3530 -0.7874
 2788SOL    HW119997   3.455   4.157   7.882 -3.4138  0.3309 -0.7526
 2788SOL    HW219998   3.523   4.127   7.758 -0.1163  0.3527 -0.9050
 2789SOL     OW19999   0.877   1.949   4.094 -0.3040 -0.2071  0.2659
 2789SOL    HW120000   0.933   1.954   4.016  1.8803 -1.9344  1.7216
 2789SOL    HW220001   0.919   1.876   4.139 -0.3728 -1.0124 -0.9888
 2790SOL     OW20002   0.755   3.879  13.937 -0.6670 -0.0614  0.1135
 2790SOL    HW120003   0.776   3.957  13.989  1.3231 -1.2462  1.1094
 2790SOL    HW220004   0.713   3.816  13.996  0.4592 -2.0490 -1.1818
 2791SOL     OW20005   0.529   1.345   3.566  0.0299  0.3469 -0.4033
 2791SOL    HW120006   0.574   1.280   3.513 -0.2708 -0.6420  0.5478
 2791SOL    HW220007   0.592   1.349   3.639  0.7975 -1.7166 -0.9662
 2792SOL     OW20008   2.649   3.510   0.901  0.5899 -0.2939 -0.2569
 2792SOL    HW120009   2.560   3.543   0.892  1.2113  1.2417 -0.6469
 2792SOL    HW220010   2.650   3.439   0.837 -2.4135  0.8559 -1.5503
 2793SOL     OW20011   4.078   0.687  14.661  0.7950 -0.0069 -0.3502
 2793SOL    HW120012   4.095   0.673  14.568  0.8166  1.0497 -0.5049
 2793SOL    HW220013   4.041   0.603  14.686 -1.5305  0.7916 -1.1627
 2794SOL     OW20014   3.515   3.960  12.800 -0.8169 -0.1608  0.1887
 2794SOL    HW120015   3.441   3.928  12.748  0.1687  1.2381 -2.0828
 2794SOL    HW220016   3.552   3.883  12.843 -1.0554 -1.6149 -2.1903
 2795SOL     OW20017   2.751   1.180  15.118 -0.5064  0.7078  0.0081
 2795SOL    HW120018   2.707   1.118  15.060  0.0024  0.6495 -0.3155
 2795SOL    HW220019   2.840   1.147  15.105 -0.2865  1.7756 -1.2282
 2796SOL     OW20020   1.291   1.506   9.283 -0.2992 -0.1714 -0.6009
 2796SOL    HW120021   1.322   1.455   9.208  0.7781 -1.6433  0.8472
 2796SOL    HW220022   1.254   1.582   9.238  0.7109  0.4506 -0.3682
 2797SOL     OW20023   4.177   0.083   3.578 -0.4379  0.2337  0.2238
 2797SOL    HW120024   4.107   0.053   3.520  0.0134  0.7809 -0.6079
 2797SOL    HW220025   4.149   0.169   3.608  0.9248  1.2478 -1.4228
 2798SOL     OW20026   0.835   3.342   4.972  0.3321 -0.0576 -0.0612
 2798SOL    HW120027   0.874   3.360   4.886 -0.5841 -2.1629 -0.9283
 2798SOL    HW220028   0.918   3.334   5.019 -0.0652 -0.1998  0.6098
 2799SOL     OW20029   3.479   2.366   7.545  0.2973 -0.2296 -0.3106
 2799SOL    HW120030   3.552   2.335   7.599  0.4336 -0.7895 -0.8170
 2799SOL    HW220031   3.504   2.457   7.528  1.5079 -0.4182  0.4307
 2800SOL     OW20032   4.550   4.389   0.703  0.0264  0.0568  0.3255
 2800SOL    HW120033   4.533   4.356   0.791 -0.5448 -2.3943 -0.6931
 2800SOL    HW220034   4.515   4.309   0.663 -1.5067  1.0599 -0.3473
 2801SOL     OW20035   3.659   1.193  14.639  0.5923 -0.4526  0.3418
 2801SOL    HW120036   3.656   1.112  14.590  1.7608 -1.3259  1.7074
 2801SOL    HW220037   3.648   1.172  14.732 -1.3247  1.3075  0.5203
 2802SOL     OW20038   4.190   1.029   5.109 -0.4304  0.4708  0.0028
 2802SOL    HW120039   4.232   0.949   5.079 -0.7526  0.6127 -0.8044
 2802SOL    HW220040   4.142   1.053   5.030 -0.3201  3.6192  0.8932
 2803SOL     OW20041   0.741   3.363   2.363 -0.2663  0.0648 -0.4497
 2803SOL    HW120042   0.806   3.369   2.433 -0.8685  0.8993  0.0293
 2803SOL    HW220043   0.726   3.270   2.349 -1.1077  0.0044  0.8114
 2804SOL     OW20044   2.579   0.950   3.386 -0.0743 -0.2742 -0.3943
 2804SOL    HW120045   2.507   0.955   3.450  0.4639  1.5200  0.0709
 2804SOL    HW220046   2.612   1.038   3.403 -1.4415 -0.0361  1.1489
 2805SOL     OW20047   4.056   0.208   9.535 -0.2634  0.0409 -0.4366
 2805SOL    HW120048   4.060   0.244   9.446 -1.3222 -0.7976 -0.8288
 2805SOL    HW220049   4.099   0.281   9.579  1.2219 -2.1298  1.6779
 2806SOL     OW20050   1.732   2.837   9.040 -0.1269  0.7649 -0.5240
 2806SOL    HW120051   1.692   2.910   9.087 -2.5208 -0.9472  0.1105
 2806SOL    HW220052   1.684   2.839   8.957  1.4503 -1.2332 -1.4991
 2807SOL     OW20053   2.239   2.384  11.616  0.2649  0.2202  0.0745
 2807SOL    HW120054   2.244   2.309  11.557  0.3591  0.3124 -0.0343
 2807SOL    HW220055   2.287   2.450  11.565 -1.2124  0.1127 -1.4513
 2808SOL     OW20056   4.090   3.025   5.671  0.2488  0.0519 -0.1628
 2808SOL    HW120057   4.032   2.955   5.702  2.1078 -0.4572  2.1227
 2808SOL    HW220058   4.034   3.086   5.623 -0.4433  2.8723  4.2873
 2809SOL     OW20059   0.099   0.974   2.666  0.6191  0.2327  0.1332
 2809SOL    HW120060   0.102   0.960   2.760  1.1002  1.5546  0.3028
 2809SOL    HW220061   0.152   1.049   2.642 -0.6663  0.5574 -1.7514
 2810SOL     OW20062   1.354   4.258   7.221 -0.2336  0.2759 -0.1251
 2810SOL    HW120063   1.439   4.255   7.264  0.2020  1.6205 -0.8999
 2810SOL    HW220064   1.329   4.168   7.243  0.4777 -0.3085 -1.7604
 2811SOL     OW20065   2.701   2.294  14.514  0.0908  0.3089  0.1359
 2811SOL    HW120066   2.644   2.361  14.552 -2.9715 -1.9049 -0.5060
 2811SOL    HW220067   2.790   2.327  14.505  0.6287 -0.9989  0.6597
 2812SOL     OW20068   4.387   3.684   5.654  0.0982  0.0481  0.4825
 2812SOL    HW120069   4.385   3.779   5.656  1.4166  0.1060 -0.6108
 2812SOL    HW220070   4.458   3.669   5.716  0.2773 -1.8913 -0.1950
 2813SOL     OW20071   4.641   4.008   4.727 -0.0653 -0.2550 -0.4512
 2813SOL    HW120072   4.587   3.959   4.665 -1.3088  0.4278  0.0972
 2813SOL    HW220073   4.724   3.987   4.684  0.5835 -0.0375  0.7131
 2814SOL     OW20074   1.663   1.283   8.665  0.6729  0.1250  0.4222
 2814SOL    HW120075   1.610   1.281   8.586  0.9195  1.4809  0.2164
 2814SOL    HW220076   1.619   1.222   8.725 -1.0794 -0.7130 -1.7427
 2815SOL     OW20077   4.316   0.952   6.522 -0.3937 -0.3274 -0.2362
 2815SOL    HW120078   4.328   0.869   6.569 -1.4948  0.3408  1.2361
 2815SOL    HW220079   4.229   0.939   6.483 -1.1209  0.5267  1.0906
 2816SOL     OW20080   4.108   2.833   7.001  0.4616  0.1235  0.2223
 2816SOL    HW120081   4.134   2.911   6.953 -0.7896 -0.2246 -0.9962
 2816SOL    HW220082   4.190   2.809   7.045  1.0661  0.8569 -0.5096
 2817SOL     OW20083   2.619   1.096   5.011  0.2175 -0.3704  0.3334
 2817SOL    HW120084   2.619   1.008   4.973  0.2128  0.4306 -1.5046
 2817SOL    HW220085   2.708   1.093   5.048  1.3864  0.6257 -2.4387
 2818SOL     OW20086   2.994   4.275  11.237 -0.1454 -0.0741  0.4014
 2818SOL    HW120087   2.941   4.293  11.315  0.6169  3.4523  0.1108
 2818SOL    HW220088   3.080   4.255  11.274  0.2583 -0.0633 -0.5311
 2819SOL     OW20089   0.296   1.015   8.215 -0.0783 -0.1387 -0.0019
 2819SOL    HW120090   0.232   0.955   8.251 -1.0192  0.0564 -1.3399
 2819SOL    HW220091   0.316   1.069   8.291  0.0046  2.4764 -1.8717
 2820SOL     OW20092   0.155   3.260   4.546 -0.0623  0.4455 -0.1925
 2820SOL    HW120093   0.083   3.228   4.492 -0.3620  1.6581 -0.5142
 2820SOL    HW220094   0.112   3.289   4.627  0.7458  0.7550  0.1225
 2821SOL     OW20095   3.180   2.296  17.341 -0.5549  0.0286  0.9767
 2821SOL    HW120096   3.231   2.339  17.272 -0.4454 -1.4634  0.1382
 2821SOL    HW220097   3.179   2.205  17.310  4.4506  1.0843 -2.2826
 2822SOL     OW20098   1.527   3.083   2.849  0.5660  0.2582  0.0320
 2822SOL    HW120099   1.616   3.119   2.846  0.7213 -0.2362 -1.3875
 2822SOL    HW220100   1.482   3.149   2.798  2.1614  1.7787  0.5799
 2823SOL     OW20101   1.544   1.147   9.993  0.5538 -0.4483  0.0208
 2823SOL    HW120102   1.596   1.104  10.062 -3.1684 -2.7541  1.3711
 2823SOL    HW220103   1.599   1.224   9.981 -2.7154  1.9116  0.2316
 2824SOL     OW20104   4.659   1.615  12.867 -0.3473 -0.6352 -0.3529
 2824SOL    HW120105   4.721   1.590  12.799 -1.7729  1.0171 -2.2582
 2824SOL    HW220106   4.718   1.641  12.938  1.1692 -1.8842 -1.1827
 2825SOL     OW20107   1.971   1.107  10.275 -0.0303  0.4925 -0.5145
 2825SOL    HW120108   2.042   1.043  10.274 -0.5291 -0.0747  0.2055
 2825SOL    HW220109   2.000   1.185  10.321  1.3736  0.0885 -0.7065
 2826SOL     OW20110   1.773   0.213   4.025 -0.4579 -0.0918 -0.6929
 2826SOL    HW120111   1.748   0.208   3.932 -2.1623 -0.5099 -0.2080
 2826SOL    HW220112   1.758   0.303   4.052  0.2065 -0.2339  0.1569
 2827SOL     OW20113   1.913   2.125  16.131  0.0676  1.3300 -0.1578
 2827SOL    HW120114   1.860   2.183  16.186  0.8839  1.4663  0.4804
 2827SOL    HW220115   1.880   2.154  16.045 -1.0116  0.4207 -0.0513
 2828SOL     OW20116   0.687   1.429   6.368 -0.0667  0.2392 -0.2182
 2828SOL    HW120117   0.738   1.371   6.426 -0.6762 -0.1890 -0.1119
 2828SOL    HW220118   0.742   1.506   6.383 -0.1356  0.0096  1.2620
 2829SOL     OW20119   4.540   4.239   3.509 -0.6093  0.1727 -0.4509
 2829SOL    HW120120   4.471   4.219   3.445 -0.8309  1.1177 -0.4983
 2829SOL    HW220121   4.563   4.331   3.500  3.7461 -0.9796 -1.3704
 2830SOL     OW20122   1.328   2.301  10.495  0.3546  0.6973 -0.2886
 2830SOL    HW120123   1.349   2.244  10.421 -1.3666 -0.4428  0.0885
 2830SOL    HW220124   1.395   2.369  10.496  1.4269 -0.3584 -0.4429
 2831SOL     OW20125   1.551   1.906  13.404 -0.2771 -0.8808  0.5274
 2831SOL    HW120126   1.464   1.946  13.405 -0.2073 -0.7281  0.5777
 2831SOL    HW220127   1.596   1.946  13.330  1.7214  0.1481  2.3088
 2832SOL     OW20128   4.640   3.359   4.114 -0.8343 -0.7754 -0.4739
 2832SOL    HW120129   4.598   3.388   4.033 -0.0216  0.2969 -0.5091
 2832SOL    HW220130   4.567   3.319   4.162  0.3877 -1.8049  0.5290
 2833SOL     OW20131   3.957   0.348   0.150 -0.6400 -0.2465 -0.2354
 2833SOL    HW120132   4.052   0.342   0.145 -0.4744  0.5111  1.9985
 2833SOL    HW220133   3.949   0.443   0.159  1.5873 -0.4794  4.2528
 2834SOL     OW20134   0.490   1.091  17.145  0.1260 -0.3531  0.5866
 2834SOL    HW120135   0.570   1.077  17.196  0.1771 -0.9689  0.3310
 2834SOL    HW220136   0.531   1.117  17.063 -3.3514 -0.8714 -1.2833
 2835SOL     OW20137   1.643   4.147   5.600 -0.1110  0.2101  0.0385
 2835SOL    HW120138   1.607   4.132   5.512  1.6909 -0.6249 -0.5584
 2835SOL    HW220139   1.734   4.170   5.582  0.3166 -1.2079  0.4196
 2836SOL     OW20140   3.664   0.485   6.828 -0.6110  0.0518 -0.8194
 2836SOL    HW120141   3.638   0.556   6.768  1.3106  1.9185  0.5738
 2836SOL    HW220142   3.584   0.433   6.833  0.0584 -0.9103 -0.3371
 2837SOL     OW20143   4.554   3.936   8.707 -0.4231  0.2571 -0.1937
 2837SOL    HW120144   4.465   3.907   8.725 -0.3827  0.4374  0.3002
 2837SOL    HW220145   4.584   3.864   8.652 -1.6495 -1.0724  0.8844
 2838SOL     OW20146   3.187   0.636   7.397 -0.2321 -0.3328 -0.4856
 2838SOL    HW120147   3.093   0.618   7.396 -0.2289 -0.5914  2.0006
 2838SOL    HW220148   3.215   0.558   7.349  0.9734  0.8480 -1.6859
 2839SOL     OW20149   1.978   2.299  12.756 -0.3042 -0.5754 -0.0765
 2839SOL    HW120150   1.989   2.224  12.699 -1.0825 -2.6916  2.5769
 2839SOL    HW220151   2.061   2.345  12.743 -0.8570  0.3604 -0.3504
 2840SOL     OW20152   4.067   4.587   3.225 -0.3939 -0.4465 -0.3539
 2840SOL    HW120153   4.037   4.550   3.142  1.7861  1.0744 -1.8338
 2840SOL    HW220154   3.982   4.622   3.252  0.2940  0.4595  0.6218
 2841SOL     OW20155   0.858   3.576   2.250 -0.3439 -0.3173 -0.3857
 2841SOL    HW120156   0.815   3.648   2.297  2.0322 -0.2911  1.7606
 2841SOL    HW220157   0.812   3.505   2.294 -0.0907  0.6506  1.4470
 2842SOL     OW20158   0.928   3.350   2.723  0.2305 -0.0724  0.0022
 2842SOL    HW120159   0.907   3.438   2.754  0.2117  0.2694 -0.9762
 2842SOL    HW220160   1.020   3.346   2.750  0.9226  1.7820 -2.1255
 2843SOL     OW20161   1.371   4.311   1.753 -0.4554  0.3006 -0.3177
 2843SOL    HW120162   1.307   4.267   1.810 -0.4619 -0.5396 -0.9825
 2843SOL    HW220163   1.450   4.265   1.782  0.3350  1.2584 -0.9640
 2844SOL     OW20164   1.888   3.985   4.146 -0.5199 -0.7187 -0.1298
 2844SOL    HW120165   1.815   4.040   4.174 -0.7121 -1.6199  1.1244
 2844SOL    HW220166   1.842   3.935   4.079 -0.0227  0.1276 -1.1102
 2845SOL     OW20167   4.387   2.582  15.086 -0.3315  0.2571  0.2730
 2845SOL    HW120168   4.432   2.648  15.032  0.0008 -0.4041 -0.2613
 2845SOL    HW220169   4.342   2.533  15.017  3.0661 -1.5529 -0.6520
 2846SOL     OW20170   4.079   1.694   2.889  0.3401 -0.2289 -0.2126
 2846SOL    HW120171   4.105   1.617   2.940  1.1305 -0.9212 -1.6803
 2846SOL    HW220172   3.987   1.671   2.874 -0.1265  1.2511  0.3725
 2847SOL     OW20173   0.503   3.817  10.353  0.7404  0.4869 -0.1009
 2847SOL    HW120174   0.431   3.776  10.305  0.8707  0.6003 -0.3961
 2847SOL    HW220175   0.538   3.872  10.283 -2.1252  0.7589 -1.3645
 2848SOL     OW20176   1.384   2.179  10.241  0.4627  0.2194 -0.2558
 2848SOL    HW120177   1.434   2.097  10.235  0.2760  0.0162  1.0366
 2848SOL    HW220178   1.430   2.238  10.181  1.5559  0.2897  0.6588
 2849SOL     OW20179   0.334   3.652  11.016  0.0153 -0.6659 -0.1752
 2849SOL    HW120180   0.247   3.636  11.053 -0.0953 -0.4762 -0.3539
 2849SOL    HW220181   0.325   3.728  10.958  3.7615 -0.7920 -0.9231
 2850SOL     OW20182   0.399   2.898  11.129 -0.5739  0.3433  0.3324
 2850SOL    HW120183   0.463   2.964  11.105  0.8419 -0.7747  1.0075
 2850SOL    HW220184   0.453   2.819  11.137 -1.0638  0.0323  0.5898
 2851SOL     OW20185   2.117   3.652   2.707  0.2297  0.7046 -0.1835
 2851SOL    HW120186   2.182   3.605   2.760 -0.0582 -0.1460 -0.5742
 2851SOL    HW220187   2.168   3.693   2.637  1.2531 -1.4118 -0.7013
 2852SOL     OW20188   2.178   3.107   6.824 -0.6660  0.1080 -0.1974
 2852SOL    HW120189   2.096   3.058   6.817 -0.1318 -1.1654  2.4173
 2852SOL    HW220190   2.212   3.074   6.908 -1.5457 -0.7550 -0.1748
 2853SOL     OW20191   0.531   3.972   1.740 -0.2292 -0.0696 -0.3425
 2853SOL    HW120192   0.556   4.009   1.655  0.5293 -3.3116 -1.5348
 2853SOL    HW220193   0.489   3.888   1.726 -0.4836 -0.0182  0.1456
 2854SOL     OW20194   0.569   1.894   9.725  0.3586 -0.8690  0.0768
 2854SOL    HW120195   0.503   1.914   9.659 -0.0341  1.4919  1.1943
 2854SOL    HW220196   0.528   1.929   9.804 -0.1890  1.7294 -1.3715
 2855SOL     OW20197   0.994   4.443   5.258 -0.5980 -0.5854 -0.1032
 2855SOL    HW120198   1.064   4.380   5.275  0.2196  0.4238  0.1859
 2855SOL    HW220199   1.017   4.475   5.171 -2.8354  1.7600  0.1661
 2856SOL     OW20200   2.539   2.249   6.532  0.0044  0.1876  0.0366
 2856SOL    HW120201   2.502   2.289   6.611 -0.7017 -0.9944  0.3040
 2856SOL    HW220202   2.557   2.162   6.567  3.1137  1.9319  2.7064
 2857SOL     OW20203   2.070   3.088   9.487 -0.0104 -0.0350 -0.2885
 2857SOL    HW120204   2.048   3.001   9.452 -0.3375  0.9963 -2.6695
 2857SOL    HW220205   2.035   3.078   9.576  0.4397  1.0795  0.0127
 2858SOL     OW20206   3.855   0.194  12.630 -0.3253 -1.0640 -0.2587
 2858SOL    HW120207   3.815   0.143  12.559  0.7461 -2.9242  0.4859
 2858SOL    HW220208   3.925   0.243  12.587 -1.3728  1.0360  0.4443
 2859SOL     OW20209   2.576   2.971   6.804  0.3926 -0.5378 -0.2887
 2859SOL    HW120210   2.657   2.923   6.785  0.9664  0.9504 -1.5601
 2859SOL    HW220211   2.512   2.946   6.737  1.4002  4.5458 -3.1461
 2860SOL     OW20212   0.664   4.532   8.385 -0.3841  0.8970  0.2185
 2860SOL    HW120213   0.683   4.621   8.415 -0.5418  0.3261  2.0020
 2860SOL    HW220214   0.569   4.541   8.379 -0.6212 -2.2199 -0.6242
 2861SOL     OW20215   2.262   1.898  11.779  0.8043 -0.1959  0.0655
 2861SOL    HW120216   2.253   1.825  11.841  1.7004  0.7764  1.3481
 2861SOL    HW220217   2.296   1.970  11.833 -0.9473  1.6209 -1.2170
 2862SOL     OW20218   1.378   3.364  16.598 -0.3702  0.6261 -0.3439
 2862SOL    HW120219   1.417   3.298  16.540  1.5332 -0.3203  2.0570
 2862SOL    HW220220   1.360   3.431  16.532  1.9385  1.4341 -0.1227
 2863SOL     OW20221   0.212   0.771   4.663 -0.1545  0.3809  0.3608
 2863SOL    HW120222   0.288   0.714   4.664  0.6646  1.4844  0.5070
 2863SOL    HW220223   0.164   0.743   4.742  0.8593  1.4382  1.3463
 2864SOL     OW20224   3.448   4.690   8.638 -0.6555  0.2016 -0.2893
 2864SOL    HW120225   3.466   0.012   8.565 -3.0490 -0.5565 -1.4909
 2864SOL    HW220226   3.354   4.689   8.622 -0.6637 -0.2550 -0.2105
 2865SOL     OW20227   0.622   0.067   3.416  0.0670  0.2235  0.0318
 2865SOL    HW120228   0.715   0.046   3.405  0.1553  0.0353  1.0903
 2865SOL    HW220229   0.620   0.162   3.430 -4.3776  0.1717 -0.3183
 2866SOL     OW20230   4.003   0.499   7.172  0.2317 -0.4320 -0.1926
 2866SOL    HW120231   3.986   0.567   7.107 -0.1498  0.0888  0.4479
 2866SOL    HW220232   3.924   0.477   7.222 -0.2831  1.6067 -0.0907
 2867SOL     OW20233   1.343   0.251   2.135 -0.3677 -0.0246  0.1579
 2867SOL    HW120234   1.272   0.299   2.091 -2.4830 -2.3433  1.0356
 2867SOL    HW220235   1.343   0.182   2.069 -0.0105 -1.4450  1.6284
 2868SOL     OW20236   1.572   4.385   4.470  0.8437  0.1750  0.2184
 2868SOL    HW120237   1.628   4.422   4.402  0.1602  0.6120 -0.1150
 2868SOL    HW220238   1.491   4.409   4.424  1.4186  1.1069 -0.3046
 2869SOL     OW20239   4.015   4.250   7.253 -0.4011 -0.6699 -0.6418
 2869SOL    HW120240   4.099   4.266   7.209 -1.0455  2.5697 -0.6795
 2869SOL    HW220241   4.027   4.158   7.276 -0.5971 -1.1273 -2.3736
 2870SOL     OW20242   4.261   2.753   5.660  0.0724 -0.7204 -0.0005
 2870SOL    HW120243   4.341   2.733   5.610 -0.5860 -0.4919 -1.1436
 2870SOL    HW220244   4.286   2.708   5.741 -0.6401 -1.6455 -0.2893
 2871SOL     OW20245   4.382   2.129   7.948  0.0876  0.1669  0.0306
 2871SOL    HW120246   4.473   2.099   7.940 -1.0201 -3.6293  1.8742
 2871SOL    HW220247   4.398   2.173   8.032 -0.9144  1.5473 -0.5102
 2872SOL     OW20248   3.270   4.198  16.477  0.2489 -0.4716 -1.1085
 2872SOL    HW120249   3.338   4.191  16.410  0.6403  0.9465 -0.8531
 2872SOL    HW220250   3.294   4.278  16.523  1.1752 -1.1397 -0.4218
 2873SOL     OW20251   0.285   2.395  12.106  0.0802  0.4201  0.0870
 2873SOL    HW120252   0.284   2.487  12.081  0.0632  1.3250  3.3522
 2873SOL    HW220253   0.224   2.360  12.042  1.9799 -1.9086 -0.4619
 2874SOL     OW20254   4.322   2.008  12.002  0.0761  0.8464 -0.1719
 2874SOL    HW120255   4.250   2.004  12.065 -0.0667 -0.7010 -0.4250
 2874SOL    HW220256   4.388   1.955  12.048 -1.0492  0.9814  1.6013
 2875SOL     OW20257   2.272   1.406   7.195  0.5065  0.5475  0.1483
 2875SOL    HW120258   2.224   1.352   7.132  2.9654  0.7299 -1.8298
 2875SOL    HW220259   2.332   1.456   7.141  2.4510 -1.3130  0.5897
 2876SOL     OW20260   1.739   0.400   6.544 -0.2794 -0.3054 -0.5138
 2876SOL    HW120261   1.653   0.384   6.507 -0.2756 -0.9414 -0.2531
 2876SOL    HW220262   1.741   0.327   6.606  0.0603  1.4643  1.5551
 2877SOL     OW20263   3.706   0.392  12.431 -0.1858  0.1970  0.0927
 2877SOL    HW120264   3.665   0.389  12.345  1.2950 -0.0214 -0.6200
 2877SOL    HW220265   3.797   0.364  12.416  0.0627 -0.6235  3.1153
 2878SOL     OW20266   0.648   0.551   9.139  0.0386  0.0531  0.2732
 2878SOL    HW120267   0.585   0.623   9.133  0.6123  0.2748 -3.0420
 2878SOL    HW220268   0.734   0.592   9.126 -0.3289  0.5367 -0.5995
 2879SOL     OW20269   3.446   0.933   7.391  0.1003  0.0204  0.3772
 2879SOL    HW120270   3.492   0.901   7.468 -0.8875 -1.8336  0.2022
 2879SOL    HW220271   3.357   0.941   7.425 -0.2909  1.1876 -0.9355
 2880SOL     OW20272   4.142   3.025  10.849  0.4993  0.1652 -0.7444
 2880SOL    HW120273   4.078   3.092  10.826  0.0412 -0.2329 -0.6491
 2880SOL    HW220274   4.187   3.013  10.765  0.9780 -0.4972 -0.3942
 2881SOL     OW20275   1.147   0.508   7.711 -0.2250  0.4594 -0.4029
 2881SOL    HW120276   1.225   0.476   7.665  0.6108  1.5070  0.2799
 2881SOL    HW220277   1.186   0.532   7.795 -1.0807 -1.4749  0.5444
 2882SOL     OW20278   3.556   2.283  14.089  0.0641  0.1120  0.1258
 2882SOL    HW120279   3.479   2.335  14.111  0.6957  0.7625  0.7682
 2882SOL    HW220280   3.530   2.254  14.002  0.8271 -1.2103  0.3242
 2883SOL     OW20281   0.389   4.564  15.746 -0.3143 -0.0569  0.0592
 2883SOL    HW120282   0.455   4.560  15.677 -0.5106  0.7929 -0.1715
 2883SOL    HW220283   0.313   4.569  15.687 -0.7800 -2.4370  0.4331
 2884SOL     OW20284   3.530   0.490   7.250 -0.3894 -0.8973 -0.0907
 2884SOL    HW120285   3.521   0.545   7.328 -0.3703  1.1422 -1.5196
 2884SOL    HW220286   3.597   0.425   7.269 -1.1151 -0.3249  4.3343
 2885SOL     OW20287   4.091   1.852   8.228  0.2103  0.3854  0.1824
 2885SOL    HW120288   4.067   1.762   8.251  1.9007 -0.8425 -2.8085
 2885SOL    HW220289   4.186   1.840   8.226 -0.0907 -1.7969 -1.2238
 2886SOL     OW20290   4.117   1.522   5.676 -0.2552 -0.3732 -0.2569
 2886SOL    HW120291   4.134   1.500   5.584  0.7103  5.4464 -1.4455
 2886SOL    HW220292   4.137   1.614   5.691 -0.4657 -0.5810  1.2465
 2887SOL     OW20293   1.668   0.892   4.153  0.2698  0.4365 -0.6261
 2887SOL    HW120294   1.717   0.866   4.231  0.3650  2.3831 -0.0374
 2887SOL    HW220295   1.666   0.987   4.166  1.6020 -0.0342  2.9783
 2888SOL     OW20296   3.448   1.626  14.161  0.1031  0.1319  0.5646
 2888SOL    HW120297   3.481   1.585  14.241 -0.1871  1.0438  1.1528
 2888SOL    HW220298   3.510   1.699  14.155  1.3726 -0.8772  1.4071
 2889SOL     OW20299   0.883   1.571  14.702  0.0353 -0.0862  0.2792
 2889SOL    HW120300   0.900   1.535  14.614  0.3951 -1.7168  1.0106
 2889SOL    HW220301   0.789   1.590  14.707  0.0860 -0.1608  1.4543
 2890SOL     OW20302   3.814   4.508   7.897 -0.3940 -0.2428  0.0550
 2890SOL    HW120303   3.842   4.504   7.989  0.8042 -0.5033 -0.3203
 2890SOL    HW220304   3.906   4.506   7.871 -0.7857  0.5187 -1.3823
 2891SOL     OW20305   3.300   0.635   9.821 -0.1984 -0.1984 -0.5087
 2891SOL    HW120306   3.332   0.628   9.731  0.6735 -0.7567 -0.1580
 2891SOL    HW220307   3.289   0.729   9.831  1.5151 -0.0893  0.4168
 2892SOL     OW20308   1.415   4.299   9.079  0.0473 -0.5467  0.2827
 2892SOL    HW120309   1.395   4.205   9.078 -0.4556 -0.4273 -0.7476
 2892SOL    HW220310   1.507   4.287   9.101 -0.0737  0.5861  1.4220
 2893SOL     OW20311   1.129   0.301   4.550 -0.2809 -0.6552  0.0314
 2893SOL    HW120312   1.137   0.276   4.642  0.0633 -0.7552 -0.0231
 2893SOL    HW220313   1.223   0.305   4.533 -0.1257  0.0794  1.0385
 2894SOL     OW20314   0.732   0.470   6.957 -0.8346 -0.0758  0.4036
 2894SOL    HW120315   0.748   0.561   6.931  0.2245 -1.1060 -2.4678
 2894SOL    HW220316   0.822   0.438   6.957 -0.4577  0.9992 -0.7637
 2895SOL     OW20317   0.679   0.671   7.206 -0.1808  0.3441  1.0200
 2895SOL    HW120318   0.741   0.693   7.136 -1.7220  0.0102 -0.4493
 2895SOL    HW220319   0.639   0.757   7.220 -0.0389  0.6054 -0.1212
 2896SOL     OW20320   1.337   4.499   9.246 -0.5762  0.8795 -0.7547
 2896SOL    HW120321   1.356   4.425   9.189 -0.1258  1.1187 -0.9140
 2896SOL    HW220322   1.243   4.504   9.227 -0.3862  0.8133 -1.7410
 2897SOL     OW20323   3.666   4.339   2.441 -0.6461 -0.3744 -0.6382
 2897SOL    HW120324   3.577   4.343   2.405 -0.9471 -1.0875  0.0277
 2897SOL    HW220325   3.677   4.415   2.499 -0.3152 -0.0722 -1.0953
 2898SOL     OW20326   3.411   2.275   7.202 -0.1349  0.5144  0.3930
 2898SOL    HW120327   3.431   2.358   7.160  1.2849 -0.8553 -1.6351
 2898SOL    HW220328   3.401   2.297   7.295 -1.6751 -0.3881  0.4485
 2899SOL     OW20329   1.629   1.465  14.087  0.3238  0.2252  0.0835
 2899SOL    HW120330   1.718   1.475  14.120  0.2653 -0.5383  0.4665
 2899SOL    HW220331   1.584   1.533  14.138 -2.8533 -0.4317 -1.8503
 2900SOL     OW20332   1.992   3.746   2.110 -0.0940  0.2618  0.3188
 2900SOL    HW120333   2.028   3.691   2.179 -1.6252 -0.8774  0.2307
 2900SOL    HW220334   1.998   3.701   2.026  1.5501  2.8759 -0.9548
 2901SOL     OW20335   0.527   1.506   1.648 -0.2488  0.1974 -0.5695
 2901SOL    HW120336   0.560   1.485   1.560  0.7446  0.2882 -0.2190
 2901SOL    HW220337   0.439   1.473   1.629 -0.9283  1.2329  0.7387
 2902SOL     OW20338   3.210   2.481   3.480  0.1148 -0.1656  0.3153
 2902SOL    HW120339   3.224   2.492   3.574  0.0348 -1.3571  0.4654
 2902SOL    HW220340   3.135   2.540   3.473 -0.8815 -1.4273  0.3537
 2903SOL     OW20341   2.987   1.340   7.078  0.1910  0.0290 -0.0457
 2903SOL    HW120342   2.939   1.265   7.114  2.7801 -0.1411  3.1310
 2903SOL    HW220343   2.936   1.413   7.113  0.4097  0.0060  0.3206
 2904SOL     OW20344   3.882   0.558  14.442  0.1140  0.2541 -0.1561
 2904SOL    HW120345   3.890   0.476  14.490  0.2694  0.7318  0.6424
 2904SOL    HW220346   3.900   0.543  14.349  0.3941  1.5773 -0.3188
 2905SOL     OW20347   3.192   4.321   5.851 -0.2415 -0.5643  0.9648
 2905SOL    HW120348   3.246   4.270   5.911 -1.4812 -0.4786  2.1424
 2905SOL    HW220349   3.194   4.287   5.761  0.1827  1.4854  0.2059
 2906SOL     OW20350   3.368   1.297   4.913  0.0368 -0.1088  0.3818
 2906SOL    HW120351   3.402   1.211   4.888 -1.5304  0.2575 -3.1214
 2906SOL    HW220352   3.403   1.349   4.841  0.4826 -0.7144  0.1631
 2907SOL     OW20353   1.230   4.223  12.805 -0.4467 -0.0590  0.2696
 2907SOL    HW120354   1.266   4.215  12.893  3.1921 -0.4035 -1.2652
 2907SOL    HW220355   1.302   4.224  12.742 -1.3979 -0.9180 -0.8256
 2908SOL     OW20356   4.488   3.506   8.060 -0.5227 -0.4741 -0.0487
 2908SOL    HW120357   4.556   3.548   8.112 -1.0961  0.0130  0.3072
 2908SOL    HW220358   4.536   3.443   8.006  1.1486  1.3963 -0.7408
 2909SOL     OW20359   4.354   3.657   8.266 -0.4130 -0.0744  0.1439
 2909SOL    HW120360   4.392   3.611   8.191  1.1862 -0.9580  1.5036
 2909SOL    HW220361   4.316   3.735   8.225  1.4649  0.3042 -0.9235
 2910SOL     OW20362   2.447   1.547  17.198 -0.6555  0.3237 -0.0823
 2910SOL    HW120363   2.522   1.576  17.146 -0.9073  0.5583 -0.3150
 2910SOL    HW220364   2.406   1.632  17.183  3.0354  1.8934 -1.2449
 2911SOL     OW20365   1.519   2.372   7.073 -0.9144  0.3453  0.3533
 2911SOL    HW120366   1.451   2.436   7.052 -2.0625 -0.9283  0.1535
 2911SOL    HW220367   1.584   2.426   7.118  0.9568 -1.3327 -0.3346
 2912SOL     OW20368   0.251   1.038   6.500 -0.1498  0.7603  0.2498
 2912SOL    HW120369   0.276   0.975   6.433 -0.5738 -0.2105  1.0063
 2912SOL    HW220370   0.159   1.057   6.484 -0.7699 -1.3274  1.3286
 2913SOL     OW20371   0.163   2.619   9.531 -0.0650  0.4835 -0.2614
 2913SOL    HW120372   0.111   2.545   9.563 -0.8067  1.8768  1.7666
 2913SOL    HW220373   0.103   2.693   9.534  1.3346  1.6980 -2.4180
 2914SOL     OW20374   2.234   0.924   2.883  0.2832 -0.1256 -0.1540
 2914SOL    HW120375   2.284   0.882   2.954 -0.2119 -1.5356 -0.6427
 2914SOL    HW220376   2.150   0.882   2.903  0.8234 -1.7902 -1.4013
 2915SOL     OW20377   4.423   1.410   3.983 -0.6554 -0.3179  0.3380
 2915SOL    HW120378   4.515   1.431   3.993 -1.1412  0.4602  3.1292
 2915SOL    HW220379   4.429   1.339   3.919  0.1240 -2.1043  2.4137
 2916SOL     OW20380   1.005   3.886   8.754  0.2238  0.7639 -0.0500
 2916SOL    HW120381   0.977   3.814   8.698  0.3271  1.1702 -0.6179
 2916SOL    HW220382   0.927   3.902   8.807  0.2214  2.0003 -0.4219
 2917SOL     OW20383   0.959   0.012   6.779  0.1232 -0.3088  0.2966
 2917SOL    HW120384   1.038   4.728   6.828  0.2064  2.2887  1.2701
 2917SOL    HW220385   0.884   4.710   6.826 -0.2967  0.4007  0.2220
 2918SOL     OW20386   1.135   2.276   8.068 -0.1377 -0.2284  0.3825
 2918SOL    HW120387   1.063   2.334   8.040  0.7405  0.0082 -1.3849
 2918SOL    HW220388   1.092   2.209   8.121 -0.0622 -0.5967 -0.0231
 2919SOL     OW20389   0.623   1.251   6.151  0.0424 -0.0974 -0.0643
 2919SOL    HW120390   0.636   1.325   6.211 -2.2853  0.7956 -0.6873
 2919SOL    HW220391   0.581   1.296   6.078  1.1329  3.0792  1.2401
 2920SOL     OW20392   3.971   0.564   8.805  0.3610 -0.0102  0.5228
 2920SOL    HW120393   4.057   0.602   8.822  1.0188 -1.3071  0.0879
 2920SOL    HW220394   3.982   0.545   8.711  3.0275  0.4910  0.7273
 2921SOL     OW20395   1.516   4.417   5.497  0.1114  0.3920 -0.1276
 2921SOL    HW120396   1.427   4.417   5.532 -0.1390 -0.4424 -0.7582
 2921SOL    HW220397   1.525   4.327   5.466 -3.2136 -0.4670  1.3902
 2922SOL     OW20398   3.260   0.581   6.869  0.4572  0.5814  0.7221
 2922SOL    HW120399   3.244   0.506   6.926  1.3569  0.1576  0.4152
 2922SOL    HW220400   3.237   0.541   6.785 -1.8760  0.9213  1.1893
 2923SOL     OW20401   2.362   3.321   5.721  0.5896 -0.0387 -0.0450
 2923SOL    HW120402   2.431   3.349   5.662 -1.0074  0.7313 -1.5567
 2923SOL    HW220403   2.389   3.381   5.791 -0.4570  0.6466 -0.2269
 2924SOL     OW20404   0.583   1.259  12.169 -0.0518 -0.3860 -0.0652
 2924SOL    HW120405   0.492   1.230  12.161  0.1513 -1.0898  0.1507
 2924SOL    HW220406   0.625   1.200  12.107  2.1432  0.6588  0.4271
 2925SOL     OW20407   0.198   1.624  13.327 -0.2485  0.5305 -0.3039
 2925SOL    HW120408   0.153   1.559  13.381  0.6051  0.0802 -0.1368
 2925SOL    HW220409   0.186   1.593  13.237  1.5430 -2.4312  0.4453
 2926SOL     OW20410   0.452   1.544   9.178 -0.1978  0.0694  0.0823
 2926SOL    HW120411   0.428   1.618   9.232  0.5951  0.6019 -0.2886
 2926SOL    HW220412   0.389   1.550   9.106  1.9179  0.7956 -1.7194
 2927SOL     OW20413   0.741   4.228  15.856 -0.3886  0.6191  0.4679
 2927SOL    HW120414   0.661   4.194  15.897 -0.6504 -0.4792 -0.9503
 2927SOL    HW220415   0.761   4.159  15.792 -0.8720  0.1098  0.8651
 2928SOL     OW20416   3.892   3.991   4.323  0.0684 -0.3411 -0.1937
 2928SOL    HW120417   3.971   3.951   4.287  1.2374  0.6406  1.2122
 2928SOL    HW220418   3.901   4.086   4.311  0.8224 -0.3615  0.1614
 2929SOL     OW20419   0.997   2.987   4.295  0.3843 -0.5590 -0.2997
 2929SOL    HW120420   1.001   3.031   4.210  1.8972  0.4692  0.2831
 2929SOL    HW220421   0.995   2.894   4.274 -0.7696 -0.5581 -0.1644
 2930SOL     OW20422   1.445   4.101   6.383 -0.2597  0.2376 -0.2714
 2930SOL    HW120423   1.452   4.181   6.436 -0.9109  0.7580 -0.9819
 2930SOL    HW220424   1.527   4.118   6.337  1.7230 -0.6889  2.9113
 2931SOL     OW20425   0.239   2.025   7.047  0.1602  0.5847 -0.3181
 2931SOL    HW120426   0.172   1.979   7.099 -0.8377  0.2981 -1.8221
 2931SOL    HW220427   0.247   1.964   6.973 -0.2296  0.6926 -0.4491
 2932SOL     OW20428   2.141   3.160   2.230  0.1721  0.7825 -0.1277
 2932SOL    HW120429   2.085   3.138   2.156 -0.6171  2.9451 -0.1671
 2932SOL    HW220430   2.104   3.111   2.303  0.8971 -0.8403 -0.8600
 2933SOL     OW20431   0.046   1.705   6.978 -0.6327  0.1034  0.3209
 2933SOL    HW120432   0.010   1.780   7.025  0.7107  1.2026 -0.4273
 2933SOL    HW220433   0.040   1.742   6.890 -1.2568 -1.5072 -0.3258
 2934SOL     OW20434   0.512   4.278   5.164 -0.0745 -0.2356 -0.1656
 2934SOL    HW120435   0.526   4.339   5.237 -0.6370  0.2700 -0.4867
 2934SOL    HW220436   0.421   4.249   5.170 -0.2972  0.6461  0.8374
 2935SOL     OW20437   3.132   1.497  15.620 -0.1814  0.0467 -0.0337
 2935SOL    HW120438   3.040   1.501  15.643  0.0555 -2.3146  1.2434
 2935SOL    HW220439   3.138   1.546  15.537  0.7874 -0.6045 -0.3529
 2936SOL     OW20440   1.942   0.111   6.649 -0.1275  0.2070  0.5881
 2936SOL    HW120441   1.874   0.149   6.704 -0.6068  0.9609 -0.5306
 2936SOL    HW220442   2.011   0.103   6.715 -0.2427  1.2339  0.8340
 2937SOL     OW20443   0.911   4.691   2.957  0.1830 -0.7325 -0.3622
 2937SOL    HW120444   0.857   4.614   2.977  0.9706 -1.3682 -0.7091
 2937SOL    HW220445   0.855   0.031   2.957 -1.9901 -2.3139  1.5510
 2938SOL     OW20446   1.756   2.295   8.513 -0.0230  0.7495 -0.0739
 2938SOL    HW120447   1.752   2.372   8.571 -1.9034  1.1177 -0.7200
 2938SOL    HW220448   1.843   2.302   8.473  0.5716 -0.4664  1.0175
 2939SOL     OW20449   3.705   1.594   5.232  0.1681 -0.3859 -0.2207
 2939SOL    HW120450   3.746   1.655   5.293 -1.9610  0.1770  0.6468
 2939SOL    HW220451   3.634   1.551   5.280 -0.3074 -1.4695 -1.8728
 2940SOL     OW20452   1.191   3.522   8.786  0.0183  0.1951  0.3131
 2940SOL    HW120453   1.111   3.513   8.734 -1.5007 -0.6200  2.7906
 2940SOL    HW220454   1.174   3.455   8.853  2.4725 -2.9481 -2.2059
 2941SOL     OW20455   4.080   0.749   0.394 -0.0032 -0.1596 -0.4179
 2941SOL    HW120456   4.165   0.709   0.377  0.3356  1.1410 -1.8165
 2941SOL    HW220457   4.080   0.827   0.339  0.0730 -0.7184 -1.2036
 2942SOL     OW20458   3.860   0.429   4.466  0.1710 -0.1902  0.0590
 2942SOL    HW120459   3.930   0.368   4.444  1.2259  0.5838  1.2459
 2942SOL    HW220460   3.859   0.430   4.562 -0.4504  0.5468  0.0438
 2943SOL     OW20461   1.699   3.389   4.737 -0.2562  0.0741  0.7339
 2943SOL    HW120462   1.730   3.472   4.774 -0.7447  0.4924  0.1989
 2943SOL    HW220463   1.730   3.406   4.647  1.6653  1.3541  1.6334
 2944SOL     OW20464   1.790   0.624  14.218 -0.3806  0.2383 -0.2953
 2944SOL    HW120465   1.746   0.700  14.179  1.3135  0.8583 -1.0046
 2944SOL    HW220466   1.849   0.670  14.277 -1.9641  0.3692  1.1816
 2945SOL     OW20467   0.385   2.684   1.908  0.2571  0.3936 -0.3739
 2945SOL    HW120468   0.418   2.703   1.820  1.3547  1.4972  0.2877
 2945SOL    HW220469   0.459   2.707   1.964 -0.1222  2.3282 -0.6828
 2946SOL     OW20470   3.381   3.174   2.501  0.1313  0.2398 -0.6947
 2946SOL    HW120471   3.401   3.211   2.415  0.3770 -0.0547 -0.7615
 2946SOL    HW220472   3.359   3.249   2.557 -2.9175 -1.6913  0.6788
 2947SOL     OW20473   0.121   1.936   1.922  0.0187  0.0334 -0.0040
 2947SOL    HW120474   0.062   1.988   1.867  0.7340  0.1909 -0.6189
 2947SOL    HW220475   0.109   2.002   1.991 -2.8623 -1.8530  1.2718
 2948SOL     OW20476   1.291   1.659   7.504 -0.5287  0.2122 -0.5553
 2948SOL    HW120477   1.357   1.615   7.450 -0.9173 -1.8420  0.6902
 2948SOL    HW220478   1.308   1.751   7.484  1.2767  0.2086  1.0111
 2949SOL     OW20479   2.134   1.515   3.727  0.7604 -0.6115  0.2937
 2949SOL    HW120480   2.127   1.542   3.819 -0.6873 -0.2240  0.0610
 2949SOL    HW220481   2.213   1.563   3.701  0.9673 -0.0740  1.9111
 2950SOL     OW20482   2.448   1.303   0.375  0.1303  0.3875 -0.7236
 2950SOL    HW120483   2.520   1.296   0.437  0.3076 -1.1718 -1.0947
 2950SOL    HW220484   2.444   1.219   0.328  1.7533  0.0172 -0.1993
 2951SOL     OW20485   4.523   1.640   4.875  0.1248 -0.2447 -0.4076
 2951SOL    HW120486   4.592   1.701   4.848 -2.3450  2.3602 -0.7866
 2951SOL    HW220487   4.514   1.689   4.957  3.6768  0.2001 -0.2987
 2952SOL     OW20488   1.261   1.042   2.923 -0.5444 -0.3308 -0.1770
 2952SOL    HW120489   1.208   1.113   2.887 -1.7882 -2.9373 -3.4648
 2952SOL    HW220490   1.261   1.065   3.016 -1.5086 -1.3309  0.0687
 2953SOL     OW20491   1.988   2.434   9.276  0.0934  0.2360 -0.2705
 2953SOL    HW120492   1.894   2.449   9.263 -0.2181 -2.0381 -0.5864
 2953SOL    HW220493   2.024   2.518   9.248 -2.1861  0.8107 -1.4726
 2954SOL     OW20494   0.845   4.434  16.011  0.3192  0.0817 -0.2847
 2954SOL    HW120495   0.768   4.491  16.013 -0.0935 -0.5722  1.9146
 2954SOL    HW220496   0.819   4.375  15.940  0.0863  0.6725 -0.6926
 2955SOL     OW20497   0.565   0.312   1.634 -0.3847 -0.0101 -0.0961
 2955SOL    HW120498   0.613   0.365   1.571 -1.8069  2.4580  0.8838
 2955SOL    HW220499   0.585   0.364   1.712  0.3550  0.8303 -0.8630
 2956SOL     OW20500   3.230   3.610   1.195  0.1485  0.0595  0.2601
 2956SOL    HW120501   3.324   3.628   1.199  0.4144 -2.1414  3.9229
 2956SOL    HW220502   3.195   3.689   1.154  0.6499  0.4873  0.6430
 2957SOL     OW20503   4.404   0.493   7.198  0.1899 -1.2037 -0.0821
 2957SOL    HW120504   4.377   0.557   7.131  1.2707 -1.8168 -1.1016
 2957SOL    HW220505   4.324   0.487   7.250  0.0528  2.5178  0.1155
 2958SOL     OW20506   0.036   0.152   3.808 -0.4167  0.2744  0.5658
 2958SOL    HW120507   0.119   0.111   3.832 -0.0498  0.4140 -0.4857
 2958SOL    HW220508   4.714   0.115   3.874  0.6518  0.1797  1.4787
 2959SOL     OW20509   2.891   3.406   5.868  0.1853  0.3795  0.0083
 2959SOL    HW120510   2.839   3.326   5.874 -0.0908  0.7612  2.8806
 2959SOL    HW220511   2.913   3.407   5.775 -0.8609  1.7885 -0.2248
 2960SOL     OW20512   2.389   2.480   5.335  0.3932  0.2465  0.6030
 2960SOL    HW120513   2.440   2.403   5.308  2.2390  1.4161  0.7695
 2960SOL    HW220514   2.339   2.440   5.405 -0.1940  1.1948  0.7226
 2961SOL     OW20515   3.702   4.114  12.365  0.0287  0.3199 -0.0276
 2961SOL    HW120516   3.609   4.094  12.362  0.1445 -0.5707  2.1060
 2961SOL    HW220517   3.718   4.138  12.457  0.2162 -1.6391  0.4493
 2962SOL     OW20518   3.204   3.662   3.876  1.0714 -0.0645 -0.0203
 2962SOL    HW120519   3.186   3.571   3.855  0.4870 -0.0063  0.2425
 2962SOL    HW220520   3.132   3.681   3.936 -0.0595  1.0899 -1.7385
 2963SOL     OW20521   1.379   2.884   4.371 -0.6166  0.0190  0.3166
 2963SOL    HW120522   1.316   2.949   4.402 -2.1418 -1.4669  0.3059
 2963SOL    HW220523   1.454   2.890   4.431  0.7510 -0.3111 -1.3598
 2964SOL     OW20524   0.231   1.727  17.008 -0.5808 -0.1491  0.0681
 2964SOL    HW120525   0.285   1.794  17.049 -1.0290  0.1854  0.1158
 2964SOL    HW220526   0.149   1.776  17.012 -0.9566 -0.8769  1.1198
 2965SOL     OW20527   1.784   0.797  17.216 -0.5747  0.3063  0.5680
 2965SOL    HW120528   1.869   0.787  17.258  0.0206 -1.5578 -1.0824
 2965SOL    HW220529   1.816   0.792  17.126  0.0103  2.9960  0.6212
 2966SOL     OW20530   2.891   1.367   3.710  0.4632  0.0900  0.4244
 2966SOL    HW120531   2.907   1.365   3.616 -1.9449 -0.7192  0.0288
 2966SOL    HW220532   2.911   1.458   3.729  1.8271  0.1155 -1.1406
 2967SOL     OW20533   1.671   3.534   1.281  0.8332  0.2169 -0.3354
 2967SOL    HW120534   1.715   3.452   1.259  0.9238  0.2996 -0.4661
 2967SOL    HW220535   1.579   3.509   1.276  0.6861  0.4984  1.1285
 2968SOL     OW20536   4.300   3.290   2.918 -0.2209  0.6299 -0.4125
 2968SOL    HW120537   4.353   3.266   2.843 -1.0823 -2.0912 -0.1367
 2968SOL    HW220538   4.297   3.211   2.972  1.3226  0.7797 -0.1138
 2969SOL     OW20539   2.467   1.277   3.704  0.0630  0.5280  0.6545
 2969SOL    HW120540   2.511   1.325   3.633 -0.9821  0.5271  0.0139
 2969SOL    HW220541   2.542   1.254   3.758 -0.2562  0.9001  1.2540
 2970SOL     OW20542   2.994   3.370   2.700 -1.0474  0.6835 -0.1565
 2970SOL    HW120543   3.072   3.328   2.737 -0.2279  2.3224  0.0061
 2970SOL    HW220544   3.009   3.458   2.733 -0.6120  0.5463  0.0084
 2971SOL     OW20545   1.280   3.049   5.646  0.4045  0.1107 -0.3296
 2971SOL    HW120546   1.276   3.116   5.578  1.0115 -0.5163 -0.9782
 2971SOL    HW220547   1.373   3.027   5.637  0.6607  1.1801 -0.3478
 2972SOL     OW20548   1.405   1.621   5.822  0.5814  0.1608 -0.0578
 2972SOL    HW120549   1.439   1.654   5.739  0.1684  0.9185  0.0753
 2972SOL    HW220550   1.310   1.633   5.811 -0.0010 -4.2897  0.1536
 2973SOL     OW20551   3.451   0.439   8.454  0.2394 -0.3052 -0.5383
 2973SOL    HW120552   3.537   0.396   8.450 -0.0038 -0.8386 -0.0911
 2973SOL    HW220553   3.463   0.516   8.399 -0.0226  0.3721  0.3422
 2974SOL     OW20554   3.399   3.444   3.203 -0.1106  0.1785 -0.0997
 2974SOL    HW120555   3.428   3.386   3.273 -0.3415  0.1862  0.0035
 2974SOL    HW220556   3.305   3.451   3.218 -0.3121 -2.7653 -0.0393
 2975SOL     OW20557   0.599   1.034   4.744  0.6984 -0.2203  0.3138
 2975SOL    HW120558   0.613   1.023   4.650  1.4278  0.0854  0.3912
 2975SOL    HW220559   0.619   1.126   4.755 -0.2231 -0.0762  0.8209
 2976SOL     OW20560   4.284   1.502  15.311  0.7394 -0.2691 -0.2996
 2976SOL    HW120561   4.327   1.420  15.334  0.8586  0.1747  1.1062
 2976SOL    HW220562   4.355   1.566  15.301  0.9656 -0.3438  0.8274
 2977SOL     OW20563   3.552   0.563   9.050  0.1519 -0.4362 -0.5869
 2977SOL    HW120564   3.633   0.609   9.072  1.3470 -2.7312 -0.1880
 2977SOL    HW220565   3.584   0.478   9.022 -0.4739 -0.9593  0.2854
 2978SOL     OW20566   0.046   0.543  14.406 -0.3817  0.4937 -0.3241
 2978SOL    HW120567   4.725   0.476  14.371 -1.9852  1.6079  0.2477
 2978SOL    HW220568   0.106   0.485  14.454 -0.2978 -0.5533 -1.7195
 2979SOL     OW20569   3.006   0.513   8.456  0.5076 -0.5252  0.5761
 2979SOL    HW120570   3.023   0.450   8.526  0.8179 -1.2849 -0.1936
 2979SOL    HW220571   3.022   0.452   8.385  2.3520  0.7508 -0.1038
 2980SOL     OW20572   1.140   0.809   7.654  0.1533 -0.6243  0.6212
 2980SOL    HW120573   1.088   0.815   7.735 -0.6478  0.3804  0.0253
 2980SOL    HW220574   1.213   0.757   7.688  1.2512 -0.1730 -1.0896
 2981SOL     OW20575   0.411   1.382   9.774 -0.1362  0.0425  0.4135
 2981SOL    HW120576   0.321   1.350   9.774  0.5941 -1.9764 -0.6894
 2981SOL    HW220577   0.447   1.326   9.842  0.6340  0.2005  0.1268
 2982SOL     OW20578   0.582   1.771   7.145  0.8400  0.0117 -0.1036
 2982SOL    HW120579   0.579   1.766   7.049  0.1508 -1.3349 -0.0128
 2982SOL    HW220580   0.663   1.723   7.164 -0.5512 -2.1570  0.2703
 2983SOL     OW20581   4.349   0.259   9.197  0.3048 -0.1892  0.7432
 2983SOL    HW120582   4.329   0.352   9.185 -1.6919 -0.4942  1.6531
 2983SOL    HW220583   4.314   0.221   9.117  0.6821 -1.1923  1.0593
 2984SOL     OW20584   2.750   4.345   0.541 -0.1196  0.2347  0.8119
 2984SOL    HW120585   2.802   4.315   0.466 -0.0854 -0.3119  1.0526
 2984SOL    HW220586   2.702   4.417   0.499  2.2611  1.6934  0.5921
 2985SOL     OW20587   0.854   2.356   3.970  0.5695  0.4117  0.0898
 2985SOL    HW120588   0.870   2.430   4.029  1.4279 -0.1784  0.6090
 2985SOL    HW220589   0.944   2.322   3.972  0.6241  0.4912 -0.9024
 2986SOL     OW20590   4.237   2.020   7.162 -0.2916 -0.2378  0.4550
 2986SOL    HW120591   4.214   1.946   7.218 -2.2320  0.9674  1.2639
 2986SOL    HW220592   4.315   2.051   7.208  0.2576  0.1841 -0.7670
 2987SOL     OW20593   2.449   0.861   3.163  0.3879 -0.3873  0.1663
 2987SOL    HW120594   2.468   0.924   3.094  2.6256 -1.1906  0.0529
 2987SOL    HW220595   2.486   0.901   3.242  1.2201  1.1514 -0.9974
 2988SOL     OW20596   1.042   3.494   1.506 -0.2051 -0.0227 -0.0525
 2988SOL    HW120597   1.129   3.468   1.537 -1.1000 -1.4664  1.2306
 2988SOL    HW220598   1.064   3.486   1.413 -1.1094 -0.9573 -0.1904
 2989SOL     OW20599   2.406   1.039   3.595 -0.1848 -0.4772 -0.3098
 2989SOL    HW120600   2.312   1.022   3.609 -0.3994  2.1368  1.5025
 2989SOL    HW220601   2.402   1.135   3.595  1.2864 -0.4231  0.4159
 2990SOL     OW20602   4.663   4.630   6.232  0.5237 -0.4481  0.2075
 2990SOL    HW120603   4.647   4.606   6.141 -3.2452  0.3548  0.6702
 2990SOL    HW220604   4.714   4.710   6.216  2.0383 -0.6479  4.0784
 2991SOL     OW20605   3.132   3.883   6.940 -0.5008 -0.2069  0.3552
 2991SOL    HW120606   3.115   3.798   6.900 -0.5616  0.6458 -1.4226
 2991SOL    HW220607   3.043   3.919   6.942 -0.7434 -0.7761 -0.3507
 2992SOL     OW20608   1.315   0.814   6.987 -0.0005  0.6734 -0.2250
 2992SOL    HW120609   1.293   0.890   6.933  0.7276 -0.1454 -1.7006
 2992SOL    HW220610   1.233   0.764   6.985  0.1587  0.4600 -2.5292
 2993SOL     OW20611   1.126   4.730   7.232 -0.0672  0.0396 -0.3591
 2993SOL    HW120612   1.146   0.025   7.319 -0.5908  0.7459 -0.5000
 2993SOL    HW220613   1.143   4.637   7.246 -0.6492  0.2423  1.6172
 2994SOL     OW20614   2.632   0.306   7.640 -0.4059  0.4042  0.1378
 2994SOL    HW120615   2.671   0.247   7.575  0.0515 -0.6783  1.4010
 2994SOL    HW220616   2.538   0.303   7.623 -0.2934  1.1838 -0.6447
 2995SOL     OW20617   1.874   3.495   6.191  0.3413 -0.2833 -0.0210
 2995SOL    HW120618   1.788   3.462   6.165  0.8874 -0.6350 -1.4000
 2995SOL    HW220619   1.917   3.506   6.106 -0.3266 -0.5171 -0.3931
 2996SOL     OW20620   2.192   4.545   2.393  0.2090  0.0902  0.2884
 2996SOL    HW120621   2.141   4.512   2.466 -0.6693 -0.3116 -0.5130
 2996SOL    HW220622   2.284   4.537   2.421  1.2327  1.0718 -2.7595
 2997SOL     OW20623   4.687   0.308   6.101  0.5348 -0.4395  0.0921
 2997SOL    HW120624   4.737   0.364   6.040  1.0551  0.2353  1.1393
 2997SOL    HW220625   4.602   0.308   6.057  0.9644 -1.2416 -0.7388
 2998SOL     OW20626   2.682   1.931  14.090  0.6228  0.2588 -0.2272
 2998SOL    HW120627   2.715   2.017  14.065 -0.4196  0.4584 -0.9364
 2998SOL    HW220628   2.590   1.941  14.062 -0.2472 -1.9507  1.8346
 2999SOL     OW20629   2.587   3.744   1.646  0.0616 -0.2415 -0.3691
 2999SOL    HW120630   2.570   3.703   1.562  1.0405 -2.0820  0.3426
 2999SOL    HW220631   2.594   3.833   1.610  0.3848 -0.4650 -0.8547
 3000SOL     OW20632   1.196   4.379   6.973  0.3510  0.5957 -0.7652
 3000SOL    HW120633   1.220   4.458   6.923  0.2280  1.8299  1.1271
 3000SOL    HW220634   1.225   4.314   6.910  0.4769  0.6661 -0.7799
 3001SOL     OW20635   0.862   4.338   3.752  0.1231 -0.7435  0.2117
 3001SOL    HW120636   0.886   4.299   3.836  1.8118 -2.5035 -1.0827
 3001SOL    HW220637   0.777   4.301   3.729  0.4169 -1.8483  0.8944
 3002SOL     OW20638   3.617   0.071   6.792  0.4287 -0.7092  0.6891
 3002SOL    HW120639   3.636   4.725   6.749  0.3098 -1.0846  1.3520
 3002SOL    HW220640   3.707   0.103   6.802  0.0115 -0.0536  2.2641
 3003SOL     OW20641   0.385   1.057   3.118 -0.3062  0.2842  0.0886
 3003SOL    HW120642   0.344   0.981   3.159  3.6850 -1.6049  0.6238
 3003SOL    HW220643   0.354   1.032   3.030 -3.2434  0.6451  1.0324
 3004SOL     OW20644   0.281   1.274   6.989 -0.0048  0.0356  0.1699
 3004SOL    HW120645   0.250   1.207   6.929  2.0441 -0.6225 -0.1610
 3004SOL    HW220646   0.280   1.232   7.074 -0.1941 -2.9360 -1.2943
 3005SOL     OW20647   1.586   1.976   4.325  0.0135  0.2914  0.0176
 3005SOL    HW120648   1.553   2.023   4.248 -1.9745 -0.1022  0.6359
 3005SOL    HW220649   1.534   1.901   4.295  1.6893 -0.5070 -0.9174
 3006SOL     OW20650   3.392   0.026  15.408 -0.1868 -0.2566  0.5552
 3006SOL    HW120651   3.377   0.100  15.467 -1.4144 -1.6791  2.0598
 3006SOL    HW220652   3.387   4.694  15.474  3.2273  0.2009  1.2634
 3007SOL     OW20653   4.061   4.155   6.119 -0.4090 -0.0410  0.2632
 3007SOL    HW120654   4.123   4.195   6.180 -0.3823  0.4805 -0.1044
 3007SOL    HW220655   4.120   4.128   6.049 -1.8062  0.5011 -1.1212
 3008SOL     OW20656   4.281   0.177   4.200  0.0260  0.3421 -0.5703
 3008SOL    HW120657   4.372   0.201   4.216 -0.3505  0.5918  1.1692
 3008SOL    HW220658   4.281   0.181   4.104  0.4010 -1.4149 -0.6489
 3009SOL     OW20659   1.243   2.292   8.618 -0.3725 -0.4066 -0.1327
 3009SOL    HW120660   1.188   2.352   8.668 -1.2478 -0.2786 -1.2428
 3009SOL    HW220661   1.327   2.286   8.662 -0.9707  0.2355  1.0935
 3010SOL     OW20662   3.343   2.333   6.058 -0.1747  0.1744 -0.4077
 3010SOL    HW120663   3.361   2.380   5.976 -0.0101  3.3830  1.4417
 3010SOL    HW220664   3.420   2.359   6.109 -0.1618  0.4787 -0.5774
 3011SOL     OW20665   2.206   3.519  15.126 -0.1866  0.1476 -0.4508
 3011SOL    HW120666   2.240   3.468  15.052 -0.4692 -0.5294 -0.1172
 3011SOL    HW220667   2.282   3.576  15.139 -0.6753  0.2596  1.8326
 3012SOL     OW20668   0.670   1.362  17.024 -0.1883 -0.0855  0.1705
 3012SOL    HW120669   0.737   1.324  16.967 -1.8580 -1.9148 -0.5684
 3012SOL    HW220670   0.722   1.377  17.103 -0.9883  0.9091  0.5100
 3013SOL     OW20671   1.306   3.442   1.635  0.5568  0.6046  0.3365
 3013SOL    HW120672   1.287   3.471   1.724  1.4430  2.1652  0.0123
 3013SOL    HW220673   1.275   3.351   1.628 -0.5025  0.9303  0.7851
 3014SOL     OW20674   1.840   4.584   7.742  0.1521 -0.2796 -0.4736
 3014SOL    HW120675   1.803   4.509   7.790  0.0114  0.2562  0.2502
 3014SOL    HW220676   1.928   4.597   7.779 -0.8779 -1.9073  2.5984
 3015SOL     OW20677   3.633   1.710   2.667 -0.4023 -0.4536 -0.5212
 3015SOL    HW120678   3.607   1.728   2.577  1.3025 -2.2145 -1.3735
 3015SOL    HW220679   3.576   1.635   2.686  4.4031 -3.2137  3.0372
 3016SOL     OW20680   0.081   4.425  14.484  0.4745 -0.2010 -0.8717
 3016SOL    HW120681   0.037   4.509  14.500  0.2267 -0.4688 -0.1455
 3016SOL    HW220682   0.143   4.427  14.557 -1.5473 -0.0667  0.8620
 3017SOL     OW20683   0.229   4.407   4.067 -0.1115  0.1360  0.4952
 3017SOL    HW120684   0.200   4.498   4.067 -0.6370 -0.0492 -1.7832
 3017SOL    HW220685   0.141   4.371   4.080 -0.4634  1.2368  1.1619
 3018SOL     OW20686   4.210   2.485   3.930 -0.2083  0.6092  0.0638
 3018SOL    HW120687   4.187   2.527   3.847 -2.6370  2.2167  1.5563
 3018SOL    HW220688   4.163   2.401   3.928  0.5887  0.1680 -0.2273
 3019SOL     OW20689   1.593   4.691   4.256  0.6659 -0.5661  0.2418
 3019SOL    HW120690   1.563   4.648   4.176  2.4390 -2.0569  0.3897
 3019SOL    HW220691   1.632   4.615   4.299  0.4310 -1.8435 -1.7942
 3020SOL     OW20692   3.302   0.348  16.817 -0.2892  0.3140 -0.2966
 3020SOL    HW120693   3.383   0.350  16.869 -1.7709 -0.8622  2.0629
 3020SOL    HW220694   3.330   0.309  16.734 -1.2823  0.6019 -0.7663
 3021SOL     OW20695   0.201   2.911   7.439 -0.0137 -0.0810  0.0305
 3021SOL    HW120696   0.152   2.893   7.360  0.2932  0.8240 -0.3707
 3021SOL    HW220697   0.171   2.840   7.495 -2.6551  1.1562  0.1849
 3022SOL     OW20698   2.224   1.756   2.248  1.0476  0.0861  1.5080
 3022SOL    HW120699   2.217   1.819   2.176 -0.8367 -1.3098  0.4357
 3022SOL    HW220700   2.172   1.793   2.319 -1.3371  1.3103 -0.8563
 3023SOL     OW20701   4.282   1.533   4.769 -0.3569  0.0856  0.0650
 3023SOL    HW120702   4.368   1.556   4.804  0.2029 -1.2285 -0.4614
 3023SOL    HW220703   4.276   1.600   4.701 -0.7719  0.1987  0.2152
 3024SOL     OW20704   2.398   2.331   7.803 -0.1618  0.2497  0.2197
 3024SOL    HW120705   2.461   2.296   7.867  0.1181  1.2168  0.4703
 3024SOL    HW220706   2.335   2.371   7.861  0.2752  1.8544 -0.4118
 3025SOL     OW20707   3.530   0.127  12.194 -0.4667 -0.3412  0.7509
 3025SOL    HW120708   3.577   0.211  12.186  1.5879 -1.4666  1.0556
 3025SOL    HW220709   3.467   0.135  12.122  0.4522 -0.3261 -0.0685
 3026SOL     OW20710   2.586   3.840   7.764  0.0365  0.2371  0.1439
 3026SOL    HW120711   2.678   3.848   7.738  0.1953 -0.0750  0.6003
 3026SOL    HW220712   2.586   3.752   7.803 -1.8823  0.1660 -0.0312
 3027SOL     OW20713   1.558   4.399   4.737  0.1316 -0.0042  0.3425
 3027SOL    HW120714   1.584   4.395   4.645  1.8704 -1.6336  0.8961
 3027SOL    HW220715   1.497   4.473   4.734  0.5659  0.2988 -0.9888
 3028SOL     OW20716   2.845   0.644  13.574  0.1545  0.4139 -0.4469
 3028SOL    HW120717   2.822   0.718  13.630 -0.9737  0.3997 -0.8777
 3028SOL    HW220718   2.765   0.591  13.572  0.0277  0.5439  1.3253
 3029SOL     OW20719   0.495   2.112   0.888 -0.4427 -0.1816 -0.1927
 3029SOL    HW120720   0.440   2.116   0.810  0.5907  0.5201 -0.8779
 3029SOL    HW220721   0.437   2.070   0.951  1.1459  0.7480  1.8926
 3030SOL     OW20722   3.082   2.214   3.543 -0.0905  0.3721  0.8110
 3030SOL    HW120723   3.092   2.123   3.573 -0.7326  0.5783  1.6549
 3030SOL    HW220724   3.169   2.252   3.551  0.2598  0.0441 -1.4894
 3031SOL     OW20725   2.366   2.546   5.699  0.0985 -0.7944 -0.0311
 3031SOL    HW120726   2.456   2.543   5.665 -0.3777 -2.5909 -1.1512
 3031SOL    HW220727   2.340   2.637   5.691 -0.1281 -0.6481  2.3845
 3032SOL     OW20728   3.872   4.259   2.889  0.4739  0.4949  0.1050
 3032SOL    HW120729   3.812   4.332   2.876  0.6453  1.1324  2.9481
 3032SOL    HW220730   3.826   4.201   2.950 -0.2256 -0.0515 -0.9335
 3033SOL     OW20731   0.848   3.357  12.727  0.1532  0.4284  0.7611
 3033SOL    HW120732   0.790   3.351  12.804  0.8692  0.2472  1.2865
 3033SOL    HW220733   0.918   3.295  12.743 -0.4426 -0.6332 -0.8016
 3034SOL     OW20734   1.178   1.793   5.779 -0.0306  0.9995 -0.5130
 3034SOL    HW120735   1.098   1.840   5.757  0.0232  2.8074  3.0244
 3034SOL    HW220736   1.225   1.866   5.819  0.8871  0.3249 -0.3687
 3035SOL     OW20737   0.575   2.759   8.810  0.0415  0.6084 -0.1825
 3035SOL    HW120738   0.603   2.672   8.838 -0.5864  1.1542  2.1350
 3035SOL    HW220739   0.614   2.802   8.887  1.5463  0.5905 -0.9270
 3036SOL     OW20740   3.992   1.899   8.518  0.0010  0.5105  0.3477
 3036SOL    HW120741   4.054   1.898   8.445 -0.7647  0.6984 -0.2976
 3036SOL    HW220742   4.053   1.874   8.587 -0.8572 -0.6137  0.6970
 3037SOL     OW20743   2.890   1.216  12.781 -0.3263 -0.1879 -0.5176
 3037SOL    HW120744   2.937   1.257  12.854 -3.2332  1.6111  0.3586
 3037SOL    HW220745   2.814   1.272  12.769 -2.3232 -3.1575 -1.6427
 3038SOL     OW20746   3.055   1.139  15.698 -0.0630 -0.0031 -0.7704
 3038SOL    HW120747   3.096   1.157  15.782 -0.4737  2.5066 -1.1008
 3038SOL    HW220748   3.012   1.058  15.725  0.6207 -0.5694 -1.3827
 3039SOL     OW20749   4.072   2.374   7.053 -0.4119  0.2413  0.0935
 3039SOL    HW120750   4.072   2.328   7.137  0.8235 -0.1813 -0.1320
 3039SOL    HW220751   4.002   2.439   7.058 -1.1766 -0.5265 -0.7547
 3040SOL     OW20752   0.466   3.401   8.397  0.0644 -0.2411 -0.4502
 3040SOL    HW120753   0.485   3.319   8.352  1.5986  0.5120 -1.1803
 3040SOL    HW220754   0.414   3.451   8.333  1.4365  2.4248  0.5268
 3041SOL     OW20755   3.625   1.107  14.904  0.1245 -0.1458 -0.0590
 3041SOL    HW120756   3.657   1.186  14.948 -1.9658  0.4702  0.3491
 3041SOL    HW220757   3.594   1.053  14.977  1.2276 -0.3696  0.2391
 3042SOL     OW20758   3.469   4.389  16.918 -0.1832 -0.1161  0.2889
 3042SOL    HW120759   3.557   4.381  16.953 -0.1495 -0.7582  0.0615
 3042SOL    HW220760   3.421   4.406  16.999  2.4853 -0.7715  1.9722
 3043SOL     OW20761   4.376   2.464  16.969 -0.3325  0.2458 -0.5352
 3043SOL    HW120762   4.333   2.492  16.889 -1.0954 -1.5868 -0.7747
 3043SOL    HW220763   4.441   2.533  16.982  0.7340 -0.5607 -1.5687
 3044SOL     OW20764   3.586   4.050   0.593 -0.4665 -1.2159  0.1861
 3044SOL    HW120765   3.631   3.965   0.595 -2.1825 -2.1228  0.4911
 3044SOL    HW220766   3.603   4.083   0.681 -0.8057  1.4633 -0.7521
 3045SOL     OW20767   3.775   0.921   6.878 -0.3843  0.4493  0.0377
 3045SOL    HW120768   3.821   0.932   6.795  2.2170 -1.0968  1.2810
 3045SOL    HW220769   3.687   0.888   6.863  0.0360 -0.5487 -0.2477
 3046SOL     OW20770   3.642   3.010   9.118 -0.6176  0.0371  0.0081
 3046SOL    HW120771   3.579   2.940   9.103 -2.0011  1.0943  0.8670
 3046SOL    HW220772   3.709   2.966   9.170 -0.7120 -0.7791 -0.5611
 3047SOL     OW20773   1.458   4.123   5.807  0.6399 -0.1389  0.5173
 3047SOL    HW120774   1.473   4.187   5.877 -0.4724  0.4178  0.2460
 3047SOL    HW220775   1.522   4.143   5.738  0.9892  1.4061  1.2876
 3048SOL     OW20776   4.635   1.870   5.945 -0.0658  0.3045  0.1302
 3048SOL    HW120777   4.708   1.812   5.921 -0.0381  0.4960 -0.2494
 3048SOL    HW220778   4.683   1.925   6.007  0.6282 -0.9881  0.7387
 3049SOL     OW20779   1.354   3.075   9.108  0.5673  0.5330  0.4321
 3049SOL    HW120780   1.319   3.152   9.153  0.0543 -0.5074  1.7987
 3049SOL    HW220781   1.428   3.063   9.167 -1.1738 -1.7976  2.1230
 3050SOL     OW20782   2.269   4.497   0.985  0.1968 -0.0602  0.5880
 3050SOL    HW120783   2.180   4.488   0.949 -0.7866  1.5734  2.6614
 3050SOL    HW220784   2.251   4.557   1.057  3.2364  2.6940 -0.9767
 3051SOL     OW20785   0.781   2.266   8.808 -0.2516 -0.0204 -0.3610
 3051SOL    HW120786   0.718   2.275   8.880  0.7233  1.1060  0.3454
 3051SOL    HW220787   0.728   2.206   8.756  0.9354 -2.0765  0.7879
 3052SOL     OW20788   2.915   4.462   9.699 -0.6175  0.2819  0.5251
 3052SOL    HW120789   2.999   4.464   9.746 -0.3732  0.8409  0.0583
 3052SOL    HW220790   2.860   4.409   9.757 -0.5959 -0.8142 -0.4673
 3053SOL     OW20791   3.392   1.302  11.315  0.3377  0.1418 -0.1088
 3053SOL    HW120792   3.384   1.305  11.411  1.5678  2.6486 -0.0699
 3053SOL    HW220793   3.485   1.283  11.305  0.5496 -0.7516  3.4290
 3054SOL     OW20794   2.358   0.591  14.494  0.4094 -0.6900 -0.1972
 3054SOL    HW120795   2.288   0.654  14.506 -1.1738 -2.4297 -0.2563
 3054SOL    HW220796   2.342   0.565  14.403 -1.0133  1.2343 -0.4655
 3055SOL     OW20797   1.447   1.262  13.920  0.4746  0.1804  0.0183
 3055SOL    HW120798   1.507   1.305  13.980  1.4359 -0.0183 -0.8031
 3055SOL    HW220799   1.472   1.307  13.839  1.5761 -0.5582 -0.0399
 3056SOL     OW20800   0.097   4.522   2.482 -0.3053 -0.1791 -0.3607
 3056SOL    HW120801   0.126   4.484   2.399 -0.6201  0.7097 -0.8798
 3056SOL    HW220802   0.129   4.612   2.481 -1.2122  0.1296 -2.1775
 3057SOL     OW20803   2.860   1.342   2.743 -0.1943  0.2020  0.2799
 3057SOL    HW120804   2.949   1.376   2.737  0.0181 -0.4286 -0.1108
 3057SOL    HW220805   2.842   1.326   2.650  1.5764  1.0897 -0.2070
 3058SOL     OW20806   0.473   4.317   7.712  0.0973  0.3465 -0.2542
 3058SOL    HW120807   0.494   4.410   7.704  2.2330 -0.1369 -0.2719
 3058SOL    HW220808   0.559   4.280   7.690 -0.5399 -1.6937  0.6801
 3059SOL     OW20809   2.163   1.189  15.143  0.3328  0.0937  0.7202
 3059SOL    HW120810   2.098   1.127  15.175  0.0078 -0.6366 -1.3923
 3059SOL    HW220811   2.121   1.214  15.061  0.4555  0.7534  0.8510
 3060SOL     OW20812   3.648   1.093  10.516 -0.2203  0.1776 -0.1597
 3060SOL    HW120813   3.697   1.169  10.546 -1.5553  0.6532  0.7891
 3060SOL    HW220814   3.708   1.023  10.542  0.3826  0.4483 -0.8335
 3061SOL     OW20815   1.355   4.045   7.688 -0.4621  0.2324 -0.2222
 3061SOL    HW120816   1.377   3.954   7.667 -2.3185 -0.2851 -0.0095
 3061SOL    HW220817   1.296   4.072   7.617  0.3027 -0.3323 -1.0645
 3062SOL     OW20818   0.141   3.120   3.809 -0.3120  0.4086 -0.3042
 3062SOL    HW120819   0.148   3.083   3.721 -1.0365 -1.1592  0.2844
 3062SOL    HW220820   0.092   3.054   3.859  1.1724 -0.5367 -0.1123
 3063SOL     OW20821   2.874   4.470   5.738 -0.7541 -0.0532 -0.1415
 3063SOL    HW120822   2.832   4.480   5.653 -0.0097 -1.9828 -0.7316
 3063SOL    HW220823   2.901   4.562   5.740  1.4071 -0.6754 -0.6028
 3064SOL     OW20824   4.310   0.779   7.740  0.0201 -0.0880  0.2985
 3064SOL    HW120825   4.367   0.703   7.728 -0.1962  0.2342 -2.6908
 3064SOL    HW220826   4.262   0.762   7.822  0.6764  0.8209  0.8678
 3065SOL     OW20827   1.661   4.033   3.679 -0.0594  0.2409  0.4204
 3065SOL    HW120828   1.690   4.106   3.624 -0.8838 -0.6105 -1.1367
 3065SOL    HW220829   1.664   3.958   3.619 -1.1063  1.2523 -0.9132
 3066SOL     OW20830   1.515   4.145   3.048  0.8417  0.2280  0.0389
 3066SOL    HW120831   1.479   4.212   3.105  1.4384  0.1463  0.5188
 3066SOL    HW220832   1.530   4.192   2.966  0.8037 -0.6455 -0.4688
 3067SOL     OW20833   3.550   0.325   4.449 -0.3234  0.2029 -0.1608
 3067SOL    HW120834   3.540   0.420   4.454  2.3036  0.5002 -0.1779
 3067SOL    HW220835   3.604   0.310   4.527 -0.5332 -1.2472 -0.2907
 3068SOL     OW20836   2.999   4.128   0.557  0.0207 -0.7237  0.3272
 3068SOL    HW120837   2.920   4.079   0.580  1.3031 -2.0508  1.9138
 3068SOL    HW220838   2.975   4.158   0.469 -1.6377  0.9808  1.3470
 3069SOL     OW20839   1.141   0.666  13.168 -0.1076 -0.1704  0.1178
 3069SOL    HW120840   1.201   0.738  13.188  1.7680 -1.0919 -2.2031
 3069SOL    HW220841   1.092   0.652  13.249  2.7154 -1.4963  1.6224
 3070SOL     OW20842   1.374   1.851   7.315 -0.5589  0.5202  0.9592
 3070SOL    HW120843   1.382   1.774   7.259 -0.5937  2.1355 -1.2674
 3070SOL    HW220844   1.358   1.924   7.255  0.4898 -0.8812 -1.0273
 3071SOL     OW20845   3.249   2.580   9.086  0.4003 -0.6349 -0.2935
 3071SOL    HW120846   3.229   2.508   9.145  0.7697 -1.0870 -0.7186
 3071SOL    HW220847   3.193   2.554   9.012  2.6513 -1.4655 -1.6816
 3072SOL     OW20848   2.397   1.585   7.024 -0.3433 -0.1975  0.5596
 3072SOL    HW120849   2.398   1.679   7.041 -2.0310 -0.4882  2.2180
 3072SOL    HW220850   2.486   1.568   6.991 -0.9064 -4.4708  1.2676
 3073SOL     OW20851   1.264   0.121   5.826  0.3391  0.2997 -0.4492
 3073SOL    HW120852   1.304   0.045   5.785 -1.3710 -0.4579 -0.7081
 3073SOL    HW220853   1.284   0.183   5.756 -1.6256 -0.7537 -1.9308
 3074SOL     OW20854   3.463   1.489   2.672  0.1059 -0.0174  0.5885
 3074SOL    HW120855   3.431   1.477   2.582 -0.3858  1.2447  0.5899
 3074SOL    HW220856   3.446   1.402   2.708 -0.7664 -0.5307 -1.0550
 3075SOL     OW20857   1.000   1.941   6.420 -0.2462  0.0378  0.0916
 3075SOL    HW120858   0.944   1.864   6.430  0.4765 -0.6390 -1.0492
 3075SOL    HW220859   1.064   1.915   6.485  1.1570  4.0528  0.3108
 3076SOL     OW20860   0.776   4.123   1.312  0.0575  0.0670 -0.5373
 3076SOL    HW120861   0.856   4.074   1.333 -0.9438 -2.0520 -1.6622
 3076SOL    HW220862   0.740   4.055   1.255 -0.9789  0.0824  0.0918
 3077SOL     OW20863   3.271   2.684   4.896 -0.0265 -0.4124 -0.0361
 3077SOL    HW120864   3.350   2.648   4.935  0.1776  0.0103 -0.0580
 3077SOL    HW220865   3.200   2.638   4.940  0.6030  0.0271  1.4367
 3078SOL     OW20866   3.610   0.068   8.372 -0.5034 -0.0147  0.5452
 3078SOL    HW120867   3.650   0.018   8.444 -0.6383  0.8112  1.1960
 3078SOL    HW220868   3.683   0.090   8.314  0.3690  0.7170  1.9257
 3079SOL     OW20869   2.387   0.073  10.228  0.3258  0.1383 -0.5933
 3079SOL    HW120870   2.406   4.719  10.206  0.5081  0.4933 -1.9185
 3079SOL    HW220871   2.454   0.126  10.183  1.5878  1.1237  2.4439
 3080SOL     OW20872   1.601   2.764   2.229 -0.5906  0.1320 -0.3425
 3080SOL    HW120873   1.568   2.782   2.317  0.1575 -1.7190  0.3179
 3080SOL    HW220874   1.524   2.799   2.184 -0.7949 -0.0259 -0.1151
 3081SOL     OW20875   1.908   3.806   6.628  0.3019  0.6338 -0.6033
 3081SOL    HW120876   1.950   3.721   6.620 -0.9180  0.0805 -1.0794
 3081SOL    HW220877   1.855   3.812   6.549 -2.4649 -3.1460  0.9345
 3082SOL     OW20878   2.849   2.195   6.832 -0.3790 -0.2365 -0.0190
 3082SOL    HW120879   2.934   2.152   6.836 -0.1703  0.3401  1.7382
 3082SOL    HW220880   2.792   2.145   6.774 -1.6108  1.6375 -0.4539
 3083SOL     OW20881   4.222   2.035   6.883  0.4274 -0.5054  0.3961
 3083SOL    HW120882   4.318   2.027   6.880  0.3575 -0.1529 -2.3402
 3083SOL    HW220883   4.220   2.016   6.977  0.6945  0.7016  0.6425
 3084SOL     OW20884   0.817   3.068  15.663 -0.3949  0.0766  0.0418
 3084SOL    HW120885   0.806   3.150  15.711 -0.2898 -0.3041  0.7072
 3084SOL    HW220886   0.912   3.053  15.658 -0.8113 -1.8600 -2.2247
 3085SOL     OW20887   4.344   3.924   6.344 -0.4254 -0.6930  0.0669
 3085SOL    HW120888   4.423   3.874   6.323  0.5018  0.1424  1.5886
 3085SOL    HW220889   4.286   3.851   6.366 -1.0486 -0.4272 -0.6816
 3086SOL     OW20890   3.378   4.100   6.570 -0.3846  0.1927  0.0165
 3086SOL    HW120891   3.291   4.110   6.532  0.4427 -1.0827 -2.1699
 3086SOL    HW220892   3.361   4.073   6.660 -0.1113 -1.5296 -0.4585
 3087SOL     OW20893   0.173   4.521  10.328  0.1103 -0.1903 -0.4692
 3087SOL    HW120894   0.261   4.510  10.363  0.3313  1.7561 -0.4286
 3087SOL    HW220895   0.182   4.465  10.250 -4.5153 -1.9089  0.2239
 3088SOL     OW20896   1.307   2.965   5.186 -0.4466 -0.3277 -0.5845
 3088SOL    HW120897   1.338   2.900   5.249  0.7403  0.3982 -0.4181
 3088SOL    HW220898   1.389   3.005   5.155  1.0313 -3.5273 -0.8380
 3089SOL     OW20899   3.414   2.449   6.510 -0.0818 -0.1114 -0.4994
 3089SOL    HW120900   3.381   2.370   6.555  0.8051 -0.6716 -0.8378
 3089SOL    HW220901   3.436   2.398   6.433  2.9816  2.0293 -1.0015
 3090SOL     OW20902   0.145   3.581   8.397 -0.9185  0.4154  0.3564
 3090SOL    HW120903   0.088   3.516   8.357  0.7720  0.7049 -2.5042
 3090SOL    HW220904   0.225   3.575   8.344 -0.4139  2.2083  0.9093
 3091SOL     OW20905   1.328   0.371  10.092  0.0060 -0.2235 -0.3550
 3091SOL    HW120906   1.320   0.354   9.998  1.3015 -1.3846 -0.2545
 3091SOL    HW220907   1.243   0.337  10.121  0.3804  0.0149  1.0166
 3092SOL     OW20908   2.275   2.020   6.368 -0.2650 -0.1094  0.3558
 3092SOL    HW120909   2.327   1.943   6.342 -0.5675 -0.7448  1.6369
 3092SOL    HW220910   2.290   2.081   6.296 -3.6374 -0.5833 -0.7172
 3093SOL     OW20911   2.353   2.905   3.948 -0.0007 -0.2830 -0.6060
 3093SOL    HW120912   2.364   2.963   3.873 -1.0631 -4.4318 -3.9347
 3093SOL    HW220913   2.260   2.912   3.967  0.3486  2.7201  0.0594
 3094SOL     OW20914   1.410   0.794  16.701  0.1731  0.0477 -0.2306
 3094SOL    HW120915   1.414   0.777  16.606  1.2953  1.5849 -0.4601
 3094SOL    HW220916   1.480   0.740  16.737  1.2081  2.3469  1.1869
 3095SOL     OW20917   3.727   0.046   1.930  0.1441 -0.1266  0.3082
 3095SOL    HW120918   3.802   0.063   1.988 -0.9603  1.9151  1.1470
 3095SOL    HW220919   3.721   4.688   1.931  0.3883 -0.1737 -3.2174
 3096SOL     OW20920   3.375   4.120   3.111 -0.0911  0.5410 -0.0311
 3096SOL    HW120921   3.296   4.173   3.125 -0.2140  1.0389 -2.7449
 3096SOL    HW220922   3.391   4.130   3.018  0.1860  0.7316  0.0403
 3097SOL     OW20923   4.258   0.431  14.645  0.5514  0.2561 -0.1723
 3097SOL    HW120924   4.184   0.444  14.704  0.8905  0.3598  0.2264
 3097SOL    HW220925   4.280   0.343  14.676 -1.9431 -0.9818 -1.8505
 3098SOL     OW20926   3.413   4.611  15.183 -0.2607 -0.1402  0.0540
 3098SOL    HW120927   3.419   4.678  15.250  1.3668  1.5779 -1.8122
 3098SOL    HW220928   3.318   4.606  15.170 -0.0933  0.1638 -1.2929
 3099SOL     OW20929   3.874   0.122   2.599  0.1887 -0.2876 -0.4629
 3099SOL    HW120930   3.827   0.152   2.677  1.8341 -0.4423  0.5843
 3099SOL    HW220931   3.958   0.158   2.628  1.0003  0.0347 -3.1980
 3100SOL     OW20932   2.291   1.668   4.605 -0.2319 -0.2174  0.0151
 3100SOL    HW120933   2.321   1.750   4.643  0.4261 -0.8351  0.8184
 3100SOL    HW220934   2.220   1.702   4.550  1.5048  1.3363 -1.2707
 3101SOL     OW20935   2.459   0.622  10.931  0.3088  0.3482 -0.2538
 3101SOL    HW120936   2.384   0.682  10.939 -0.7041 -1.0268  0.4294
 3101SOL    HW220937   2.450   0.548  10.991 -1.8556  0.2097 -0.7457
 3102SOL     OW20938   0.039   4.369   5.405  0.6482  1.2068  0.0642
 3102SOL    HW120939   4.714   4.363   5.332 -0.7469  0.0857  1.3657
 3102SOL    HW220940   0.097   4.436   5.370  0.5089  2.6903  2.7043
 3103SOL     OW20941   1.319   1.339   3.635  0.1560 -0.0383  0.4705
 3103SOL    HW120942   1.280   1.281   3.569  1.4314  1.2727 -1.4514
 3103SOL    HW220943   1.256   1.411   3.633  1.3136  0.8942 -1.8918
 3104SOL     OW20944   3.195   2.686  13.278  0.3145  0.5695  0.1988
 3104SOL    HW120945   3.119   2.627  13.278  1.4577 -0.9134  0.8737
 3104SOL    HW220946   3.179   2.756  13.215  2.7656 -1.3569 -2.5704
 3105SOL     OW20947   1.610   3.734   5.201 -0.3425 -0.0605  0.6108
 3105SOL    HW120948   1.611   3.821   5.162 -0.0039  0.2185  1.2334
 3105SOL    HW220949   1.529   3.692   5.175 -0.3118 -0.8794  1.8200
 3106SOL     OW20950   2.712   2.693  16.212 -0.1916 -0.0475  0.0163
 3106SOL    HW120951   2.765   2.646  16.276  0.5372  0.6268 -0.0980
 3106SOL    HW220952   2.663   2.747  16.274  1.2908  1.3600 -0.0497
 3107SOL     OW20953   2.660   3.300   5.125  0.7221  0.1632  0.6617
 3107SOL    HW120954   2.741   3.271   5.082 -0.1218  0.3334 -1.0478
 3107SOL    HW220955   2.624   3.211   5.122  2.8403 -0.6207 -1.7398
 3108SOL     OW20956   0.080   4.051   5.754 -0.0822  0.0880  0.1053
 3108SOL    HW120957   0.023   3.996   5.700 -0.7200  2.0517 -1.2543
 3108SOL    HW220958   0.035   4.045   5.838  1.4689 -0.3590  0.8983
 3109SOL     OW20959   4.518   0.489   8.652  0.4095 -0.4404  0.4583
 3109SOL    HW120960   4.599   0.517   8.610  0.0512 -0.6821 -0.4115
 3109SOL    HW220961   4.546   0.401   8.676  0.6526  1.0882  5.7051
 3110SOL     OW20962   4.293   1.689  14.429  0.1810  0.2992 -0.1679
 3110SOL    HW120963   4.372   1.742  14.444  0.7891 -0.5363 -0.4100
 3110SOL    HW220964   4.230   1.761  14.425 -0.8355 -0.6146 -0.4375
 3111SOL     OW20965   1.104   3.323   7.808  0.0162  0.7990 -0.1451
 3111SOL    HW120966   1.085   3.267   7.883  0.9260  0.1720 -0.3836
 3111SOL    HW220967   1.088   3.413   7.838 -4.5155 -0.0524 -0.1023
 3112SOL     OW20968   2.497   1.659  16.581 -0.3982  0.5898  0.0490
 3112SOL    HW120969   2.502   1.754  16.565  2.0629  0.3518 -0.5180
 3112SOL    HW220970   2.527   1.625  16.497  2.1025  2.6962  0.0635
 3113SOL     OW20971   0.633   3.398  11.814 -0.7585  0.0916 -0.2578
 3113SOL    HW120972   0.716   3.350  11.810  0.2309  1.8282 -0.5019
 3113SOL    HW220973   0.629   3.424  11.906 -0.6750  2.5107 -0.9268
 3114SOL     OW20974   0.543   2.712   8.175  0.1820 -0.0707 -0.5422
 3114SOL    HW120975   0.501   2.640   8.222 -0.5535  0.0642 -1.0038
 3114SOL    HW220976   0.554   2.775   8.246 -1.2671 -1.5572  1.0133
 3115SOL     OW20977   3.455   2.680   8.811  0.2454  0.1772 -0.0655
 3115SOL    HW120978   3.440   2.715   8.723 -0.2144 -1.1035 -0.4947
 3115SOL    HW220979   3.375   2.627   8.819  1.0082 -0.8860  0.4484
 3116SOL     OW20980   2.784   0.466   6.212  0.5315 -0.1022 -0.0355
 3116SOL    HW120981   2.793   0.394   6.149 -1.9201  1.4855 -2.1525
 3116SOL    HW220982   2.808   0.418   6.291  1.7808  1.2197  0.3816
 3117SOL     OW20983   2.836   0.016   7.850  0.1286  0.9769  0.5818
 3117SOL    HW120984   2.915   0.068   7.865 -1.1842  3.4015 -0.9777
 3117SOL    HW220985   2.869   4.663   7.843  1.0068  1.4563 -1.6378
 3118SOL     OW20986   2.811   3.353   9.592  0.2358 -0.3258 -0.3076
 3118SOL    HW120987   2.740   3.339   9.529  0.8214 -1.9974 -0.6014
 3118SOL    HW220988   2.769   3.416   9.651  0.1784 -1.3617  0.7559
 3119SOL     OW20989   3.658   2.782   6.553  0.7652 -0.5800  0.5740
 3119SOL    HW120990   3.719   2.826   6.613 -0.0064 -0.8559  1.5444
 3119SOL    HW220991   3.663   2.695   6.592 -2.0927 -2.0250 -2.3466
 3120SOL     OW20992   0.613   3.837   8.477 -0.2372 -0.0033  0.9281
 3120SOL    HW120993   0.644   3.763   8.529 -2.6934 -0.5261  1.6429
 3120SOL    HW220994   0.696   3.859   8.433 -1.7734  3.1985 -0.4216
 3121SOL     OW20995   3.828   3.775   9.628  0.0548  0.1572 -0.3709
 3121SOL    HW120996   3.813   3.686   9.659  0.0715 -0.2666 -1.5797
 3121SOL    HW220997   3.892   3.770   9.557  3.2331 -1.3577  2.6102
 3122SOL     OW20998   0.097   2.877   4.314 -0.2401 -0.3230  0.6275
 3122SOL    HW120999   0.121   2.784   4.319 -0.4606 -0.3884  0.4478
 3122SOL    HW221000   0.160   2.907   4.248 -0.2030 -1.0973  0.3107
 3123SOL     OW21001   0.449   3.662   4.214  0.1262 -0.4508 -0.0285
 3123SOL    HW121002   0.395   3.730   4.175 -0.7957 -0.6038  0.9891
 3123SOL    HW221003   0.450   3.600   4.141  1.7463 -1.2714  0.6639
 3124SOL     OW21004   0.777   2.951   5.158  0.0164 -0.2486  0.0596
 3124SOL    HW121005   0.684   2.960   5.137  0.1246  0.0100 -0.3302
 3124SOL    HW221006   0.779   2.856   5.147 -1.0983  0.0480 -2.9151
 3125SOL     OW21007   0.875   1.314  17.612 -0.1300  0.5608 -0.4676
 3125SOL    HW121008   0.792   1.294  17.570  0.0404 -0.8993 -0.1202
 3125SOL    HW221009   0.932   1.249  17.570 -0.1944 -0.0051  0.3119
 3126SOL     OW21010   0.244   0.717   2.549 -0.3413  1.0419  0.0360
 3126SOL    HW121011   0.279   0.799   2.514 -1.9501  1.7000 -0.0409
 3126SOL    HW221012   0.183   0.756   2.612 -0.4034  2.5955 -0.9980
 3127SOL     OW21013   3.091   1.590  13.528  1.0616  0.2132 -0.2152
 3127SOL    HW121014   3.072   1.678  13.498 -2.2108 -0.0801  1.0313
 3127SOL    HW221015   3.118   1.552  13.445 -0.3037  0.2142 -0.6599
 3128SOL     OW21016   3.856   2.312   6.018 -0.2600 -0.5089  0.2930
 3128SOL    HW121017   3.900   2.340   5.938 -0.1501  3.0906  1.6064
 3128SOL    HW221018   3.799   2.243   5.987 -1.0898  0.2484  0.1323
 3129SOL     OW21019   4.735   2.565   4.613 -0.4059  0.0789 -0.4236
 3129SOL    HW121020   4.712   2.658   4.618 -0.4620  0.1133 -1.3885
 3129SOL    HW221021   4.649   2.537   4.645 -0.5882  0.5624 -0.4785
 3130SOL     OW21022   3.186   4.161  10.036  0.6066  0.3119  0.4242
 3130SOL    HW121023   3.272   4.187  10.068  0.3932 -1.6444  2.6011
 3130SOL    HW221024   3.134   4.140  10.113  1.2061  0.4286  0.8546
 3131SOL     OW21025   1.522   1.886   9.822  0.4126 -0.1240 -0.3088
 3131SOL    HW121026   1.453   1.904   9.886  0.5992 -1.6958  0.3296
 3131SOL    HW221027   1.469   1.915   9.748 -1.4935 -1.3463  0.5860
 3132SOL     OW21028   4.439   1.302   7.822  0.5780  0.5590 -0.2088
 3132SOL    HW121029   4.426   1.317   7.728  0.7013 -0.9466 -0.4607
 3132SOL    HW221030   4.529   1.270   7.829 -0.2603 -2.1434 -1.7484
 3133SOL     OW21031   0.845   4.365   7.344 -0.2274  0.6812  0.3558
 3133SOL    HW121032   0.915   4.313   7.305  1.2352  1.7546  1.5620
 3133SOL    HW221033   0.833   4.432   7.277 -1.6386  0.5333  0.4561
 3134SOL     OW21034   3.334   0.445  15.774  0.1593 -0.3171  0.0904
 3134SOL    HW121035   3.324   0.441  15.869 -0.3780 -0.5038  0.0245
 3134SOL    HW221036   3.340   0.541  15.768  0.4672 -0.4908 -2.1795
 3135SOL     OW21037   0.943   1.945   5.620 -0.5984  0.2845  0.0356
 3135SOL    HW121038   1.008   2.004   5.659  1.5201 -2.7373  1.1172
 3135SOL    HW221039   0.866   2.001   5.621 -0.2482  0.7749 -0.1109
 3136SOL     OW21040   1.850   4.590   6.918  0.4322 -0.5961  0.0339
 3136SOL    HW121041   1.787   4.520   6.906  0.2888 -0.4794  0.1089
 3136SOL    HW221042   1.802   4.673   6.916 -0.2309 -0.9806 -0.1212
 3137SOL     OW21043   3.052   2.814  12.692 -0.7086 -0.1953  0.3994
 3137SOL    HW121044   3.128   2.760  12.674 -1.1030 -1.9047  3.9275
 3137SOL    HW221045   3.073   2.856  12.775 -0.0936  0.3605 -0.0314
 3138SOL     OW21046   0.230   3.857   3.665 -0.7960 -0.9825 -0.2613
 3138SOL    HW121047   0.204   3.908   3.742  1.1527 -0.3504 -0.0210
 3138SOL    HW221048   0.234   3.925   3.598 -1.5588  0.6410  1.3480
 3139SOL     OW21049   3.459   2.118   9.543  0.0726 -0.0009 -0.2745
 3139SOL    HW121050   3.485   2.188   9.602 -0.9651 -0.2378  0.4777
 3139SOL    HW221051   3.526   2.102   9.477 -0.9267  0.1153 -1.3304
 3140SOL     OW21052   3.426   2.497  15.858 -0.0032 -0.2025 -0.3135
 3140SOL    HW121053   3.460   2.425  15.910 -1.0103 -0.1699  0.3884
 3140SOL    HW221054   3.361   2.449  15.806  0.7442 -0.8498 -0.6403
 3141SOL     OW21055   1.931   0.736   4.539 -0.3312  0.7750 -0.0140
 3141SOL    HW121056   1.965   0.787   4.613 -0.9355  1.4813 -0.2178
 3141SOL    HW221057   2.004   0.705   4.486 -0.4580 -2.8712  1.9001
 3142SOL     OW21058   1.185   2.933  15.190 -0.1807 -0.5061 -0.3395
 3142SOL    HW121059   1.212   2.923  15.281 -0.0998  0.0422 -0.3058
 3142SOL    HW221060   1.205   2.845  15.157  1.5784 -1.5172  3.3554
 3143SOL     OW21061   2.961   3.086   8.785  0.3228 -0.7459 -0.1217
 3143SOL    HW121062   2.881   3.046   8.818 -1.2552  1.0298 -1.7211
 3143SOL    HW221063   2.991   3.114   8.871  0.7647 -1.7586  0.0430
 3144SOL     OW21064   4.701   4.155   0.972  0.1593 -0.8184  0.2368
 3144SOL    HW121065   4.676   4.165   1.064 -0.4683  0.4497 -0.0762
 3144SOL    HW221066   4.737   4.066   0.968  1.6251 -0.1599 -1.3521
 3145SOL     OW21067   1.909   0.697  16.728  0.4138  0.4194 -0.0380
 3145SOL    HW121068   1.928   0.735  16.813  1.3352 -2.1949  0.9148
 3145SOL    HW221069   1.938   0.771  16.673  2.4812  0.0677  0.5770
 3146SOL     OW21070   2.204   3.275   3.961 -0.0045  0.1433 -0.4293
 3146SOL    HW121071   2.292   3.264   3.997 -0.1543 -0.6702 -0.3235
 3146SOL    HW221072   2.229   3.292   3.870  1.3685  0.4820  0.0024
 3147SOL     OW21073   0.900   1.162   7.972  0.0237 -0.8878  0.2312
 3147SOL    HW121074   0.960   1.221   7.927 -0.2701  0.3273  1.4242
 3147SOL    HW221075   0.954   1.127   8.043 -1.9537 -0.2466  2.0624
 3148SOL     OW21076   2.577   0.585   7.569 -0.6184 -0.2591 -0.4759
 3148SOL    HW121077   2.599   0.495   7.592 -0.5798 -0.1263  0.0134
 3148SOL    HW221078   2.595   0.575   7.476 -2.6405 -0.8853 -0.8007
 3149SOL     OW21079   3.120   1.221   9.851  0.1353  0.4612 -0.6352
 3149SOL    HW121080   3.059   1.148   9.856  0.7923  0.0041  0.4464
 3149SOL    HW221081   3.095   1.271   9.773 -0.6490  3.5202  1.5630
 3150SOL     OW21082   1.824   1.051   0.584 -0.3618  0.4484 -0.1255
 3150SOL    HW121083   1.887   0.990   0.621 -0.3520 -1.0816 -2.6621
 3150SOL    HW221084   1.764   0.987   0.546 -0.6857  0.1167  0.9445
 3151SOL     OW21085   0.436   4.194   6.346  0.7539  0.0327  0.4659
 3151SOL    HW121086   0.502   4.149   6.292 -1.4565 -1.7599 -0.7182
 3151SOL    HW221087   0.473   4.230   6.426  1.8517  1.0851 -0.5077
 3152SOL     OW21088   3.018   1.981   8.612  0.0688  0.4664  0.1735
 3152SOL    HW121089   3.046   1.893   8.589 -1.4884 -0.6323  2.4807
 3152SOL    HW221090   3.061   2.036   8.547  0.6331  1.5489  1.4705
 3153SOL     OW21091   0.685   0.590   2.218 -0.1691  0.0508 -0.2275
 3153SOL    HW121092   0.610   0.580   2.159 -0.7288  0.7772  0.3544
 3153SOL    HW221093   0.712   0.498   2.218 -1.7945 -0.4222 -2.8207
 3154SOL     OW21094   1.052   4.327   5.918 -0.0663  0.3660  0.4389
 3154SOL    HW121095   0.984   4.392   5.934 -1.7946 -0.8329 -1.9518
 3154SOL    HW221096   1.129   4.377   5.944 -1.0415  1.4755  1.2068
 3155SOL     OW21097   4.164   0.889   8.366 -0.5598 -0.5113  0.7770
 3155SOL    HW121098   4.255   0.866   8.347 -0.6430 -0.2330  0.0589
 3155SOL    HW221099   4.133   0.877   8.277 -0.0368 -3.7176  1.0263
 3156SOL     OW21100   1.016   3.115   1.696  0.0466  0.0611 -0.5713
 3156SOL    HW121101   0.925   3.142   1.712 -0.7973 -1.0150 -3.3412
 3156SOL    HW221102   1.056   3.172   1.761  2.5258 -1.2200 -0.9890
 3157SOL     OW21103   2.609   0.680   3.332 -0.4064  0.0394 -0.1575
 3157SOL    HW121104   2.645   0.762   3.367 -0.0304 -0.8342  1.4654
 3157SOL    HW221105   2.554   0.715   3.262 -2.8204  0.8856  2.2031
 3158SOL     OW21106   2.568   2.830  13.481 -0.3610  0.2913 -0.0009
 3158SOL    HW121107   2.612   2.885  13.416 -1.4046  0.8112 -0.2742
 3158SOL    HW221108   2.523   2.761  13.432 -1.2897  1.5077 -0.8546
 3159SOL     OW21109   4.118   0.797   4.956  0.2371  0.0426  0.0287
 3159SOL    HW121110   4.049   0.863   4.950  0.8444  0.5584 -1.4296
 3159SOL    HW221111   4.157   0.801   4.868 -1.4903 -0.9850 -0.7842
 3160SOL     OW21112   2.022   2.732  10.578 -1.1214  0.0277  0.7327
 3160SOL    HW121113   2.020   2.761  10.487 -3.0525  1.1537  1.1109
 3160SOL    HW221114   2.113   2.747  10.603 -1.2940  0.9525  0.8117
 3161SOL     OW21115   2.490   2.265   4.876  0.1519  0.4726  0.5915
 3161SOL    HW121116   2.503   2.183   4.829 -1.3522 -0.5459  1.9299
 3161SOL    HW221117   2.544   2.256   4.954 -1.6744 -2.1395  1.5450
 3162SOL     OW21118   4.573   4.204   3.142 -0.3408  0.0660  0.1527
 3162SOL    HW121119   4.538   4.239   3.060  0.1904 -1.5651 -0.7587
 3162SOL    HW221120   4.556   4.110   3.134  0.4908  0.0601 -1.4501
 3163SOL     OW21121   3.603   2.851   7.570 -0.0982  0.1777  0.0033
 3163SOL    HW121122   3.546   2.922   7.542 -2.5694 -3.0090 -3.0770
 3163SOL    HW221123   3.630   2.873   7.658  1.1825  0.6409 -0.5072
 3164SOL     OW21124   0.252   3.748   2.790  0.1645 -0.0115  0.0400
 3164SOL    HW121125   0.319   3.683   2.769  1.1612  1.2395 -0.5976
 3164SOL    HW221126   0.170   3.708   2.760  0.4138 -0.9163  0.5686
 3165SOL     OW21127   2.857   3.728  14.336  0.1592  0.0991  0.3977
 3165SOL    HW121128   2.868   3.796  14.403  0.1373 -1.1221  1.6199
 3165SOL    HW221129   2.893   3.644  14.364  1.1131 -0.0399 -1.1929
 3166SOL     OW21130   0.996   4.568   1.660 -0.2194  0.0692 -0.0299
 3166SOL    HW121131   1.007   4.645   1.605 -0.9830 -0.2428 -0.6194
 3166SOL    HW221132   0.996   4.601   1.750  0.9203  0.1481 -0.0651
 3167SOL     OW21133   3.622   2.402  16.474 -0.0570  0.1749  0.5883
 3167SOL    HW121134   3.546   2.345  16.483 -0.3268  0.0849 -2.3642
 3167SOL    HW221135   3.639   2.444  16.559  1.0398  1.8518 -0.4559
 3168SOL     OW21136   0.549   1.434   8.750 -0.1291 -0.1439  0.3169
 3168SOL    HW121137   0.512   1.375   8.816 -2.6773  1.1067  0.0091
 3168SOL    HW221138   0.634   1.391   8.739  0.2576  0.3838  1.2377
 3169SOL     OW21139   3.023   0.845  10.078  0.0991  0.8870  0.2006
 3169SOL    HW121140   3.089   0.801  10.132 -0.8452  0.0771  0.6895
 3169SOL    HW221141   3.066   0.930  10.067 -0.4770  1.1335 -0.1500
 3170SOL     OW21142   4.312   4.301   4.173 -0.4344 -0.0391 -0.1940
 3170SOL    HW121143   4.391   4.346   4.144 -1.7238  1.0451 -2.0492
 3170SOL    HW221144   4.265   4.298   4.089 -2.5780  0.8690  0.9719
 3171SOL     OW21145   1.293   1.814   6.283 -0.5969  0.2351  0.3392
 3171SOL    HW121146   1.311   1.763   6.204  0.8570 -1.5100  1.7933
 3171SOL    HW221147   1.215   1.866   6.262  0.3934  1.7140  0.3344
 3172SOL     OW21148   3.822   1.575   8.750 -0.5534 -0.1975  0.2848
 3172SOL    HW121149   3.796   1.543   8.836  1.8684 -1.9336  0.3708
 3172SOL    HW221150   3.757   1.644   8.745 -2.9603 -2.3750  1.6854
 3173SOL     OW21151   1.373   2.378   1.713  0.6108  0.0417 -0.2062
 3173SOL    HW121152   1.451   2.350   1.762  1.2229 -0.9692 -1.7689
 3173SOL    HW221153   1.402   2.362   1.623  1.4220  4.3941 -0.7166
 3174SOL     OW21154   1.412   2.999   2.201 -0.4472  0.6979 -0.2579
 3174SOL    HW121155   1.488   3.046   2.234  0.3673 -0.1362 -0.9129
 3174SOL    HW221156   1.379   2.945   2.272  1.3579  0.4253  0.3725
 3175SOL     OW21157   0.672   1.722   4.002  0.5328 -0.2564  0.4031
 3175SOL    HW121158   0.584   1.685   3.991 -0.7570  1.3305  5.5565
 3175SOL    HW221159   0.660   1.785   4.073  2.1463  1.0008 -0.4451
 3176SOL     OW21160   1.311   3.433   3.785 -0.7482 -0.0669  0.0173
 3176SOL    HW121161   1.389   3.465   3.829  0.2989  0.4882 -2.2526
 3176SOL    HW221162   1.243   3.457   3.848 -0.7202 -0.7757  0.3154
 3177SOL     OW21163   1.048   2.701   0.293 -0.2186  0.1132 -0.5145
 3177SOL    HW121164   1.137   2.734   0.305 -1.1680  1.5695  2.4838
 3177SOL    HW221165   1.027   2.719   0.202 -2.4251 -0.1485 -0.0498
 3178SOL     OW21166   0.533   3.873   3.670  0.2995 -0.1485 -0.0193
 3178SOL    HW121167   0.440   3.868   3.692 -0.4429  0.6337 -3.0313
 3178SOL    HW221168   0.529   3.882   3.575  1.5609 -1.4316 -0.1999
 3179SOL     OW21169   1.162   1.388   8.189 -0.5145 -0.5467 -0.7999
 3179SOL    HW121170   1.125   1.474   8.170  1.3515  0.3149 -0.4937
 3179SOL    HW221171   1.193   1.393   8.280  0.6619 -2.1645 -1.1238
 3180SOL     OW21172   2.166   1.589  11.937  0.5563 -0.0983 -0.4855
 3180SOL    HW121173   2.185   1.506  11.981  0.2908 -0.2523 -0.6592
 3180SOL    HW221174   2.243   1.608  11.883  0.9311  0.0862  0.1142
 3181SOL     OW21175   4.360   0.096   7.774  0.3044 -0.0793 -0.1237
 3181SOL    HW121176   4.276   0.133   7.748  0.0512 -0.7741 -0.2926
 3181SOL    HW221177   4.415   0.119   7.699  0.9825 -0.8227  0.1541
 3182SOL     OW21178   3.443   3.962  10.525  0.2257  0.2747 -0.4587
 3182SOL    HW121179   3.400   3.897  10.469  2.4425 -1.5082 -0.1139
 3182SOL    HW221180   3.357   3.982  10.560 -0.0587  1.8254 -2.0587
 3183SOL     OW21181   0.623   2.005  13.634 -0.1317  0.0240  0.2146
 3183SOL    HW121182   0.686   2.072  13.608 -2.5632  2.8372  1.7141
 3183SOL    HW221183   0.636   1.995  13.728  0.8082  1.8230  0.2740
 3184SOL     OW21184   0.413   2.081   5.477 -0.1282 -0.1239  0.0984
 3184SOL    HW121185   0.472   2.125   5.539 -1.4086  1.0768  0.4557
 3184SOL    HW221186   0.336   2.137   5.483  0.1699  0.2747  0.1891
 3185SOL     OW21187   2.063   4.512   6.723  0.3838 -0.3873  0.3345
 3185SOL    HW121188   2.073   4.475   6.811 -0.1903  0.6933  0.8551
 3185SOL    HW221189   1.970   4.533   6.726  0.8955  1.9049  0.8403
 3186SOL     OW21190   0.124   4.479   7.626  0.5059  0.0260 -0.1464
 3186SOL    HW121191   0.083   4.405   7.671 -1.7224  1.2712 -0.1546
 3186SOL    HW221192   0.190   4.432   7.573 -0.4331 -2.8524  1.2270
 3187SOL     OW21193   2.613   1.038   1.052 -0.0212 -0.3369 -0.2132
 3187SOL    HW121194   2.646   1.043   1.141 -1.5153 -0.1898  0.3325
 3187SOL    HW221195   2.536   0.986   1.076 -0.4232 -1.1695 -3.2179
 3188SOL     OW21196   3.451   2.320   2.791  0.2782 -0.3674  0.0818
 3188SOL    HW121197   3.408   2.272   2.861 -0.5287  0.2158  0.0007
 3188SOL    HW221198   3.421   2.409   2.811  1.8952  0.5257 -1.4774
 3189SOL     OW21199   4.050   1.971   2.717  0.4793  0.1616  0.4013
 3189SOL    HW121200   4.113   1.903   2.741  0.7478  0.8263  1.5680
 3189SOL    HW221201   4.025   2.011   2.800 -0.9418 -1.1035  0.5868
 3190SOL     OW21202   4.508   3.051   5.977 -0.2127  0.1339  0.4584
 3190SOL    HW121203   4.482   3.140   5.953  0.5919 -0.7497 -3.6592
 3190SOL    HW221204   4.565   3.059   6.053  0.9135  2.9953 -0.6989
 3191SOL     OW21205   1.234   2.402   9.255 -0.2816  0.3165  0.2994
 3191SOL    HW121206   1.239   2.422   9.348  1.7429 -0.3827  0.3307
 3191SOL    HW221207   1.161   2.340   9.258 -0.5019  0.6732  2.1383
 3192SOL     OW21208   1.475   2.396   9.073 -0.1983 -0.8316 -0.1633
 3192SOL    HW121209   1.434   2.431   8.994  1.1691  3.4566  1.0479
 3192SOL    HW221210   1.397   2.404   9.127 -0.2986 -1.2502 -0.2409
 3193SOL     OW21211   4.426   1.130   2.469 -0.0457  0.3816 -0.0997
 3193SOL    HW121212   4.500   1.071   2.460 -1.2617 -1.5926  2.5249
 3193SOL    HW221213   4.366   1.058   2.487  0.9149 -1.0166 -2.5650
 3194SOL     OW21214   1.224   0.370   8.468  0.5187 -0.0317 -0.0490
 3194SOL    HW121215   1.317   0.387   8.484  0.6750 -0.0641 -0.9049
 3194SOL    HW221216   1.222   0.358   8.373  0.4553  1.0475 -0.1805
 3195SOL     OW21217   3.016   3.056   3.464 -0.2292  0.0792  0.6030
 3195SOL    HW121218   3.002   3.073   3.371 -2.6482 -0.7832  0.8037
 3195SOL    HW221219   3.067   2.976   3.471  0.7233  0.8552  2.6192
 3196SOL     OW21220   1.706   3.422   8.940 -0.6125 -0.2902 -0.4405
 3196SOL    HW121221   1.669   3.500   8.897 -2.3973 -1.6316 -1.3346
 3196SOL    HW221222   1.626   3.382   8.973  0.0237  0.8201  2.4516
 3197SOL     OW21223   1.781   0.141   4.818  0.4614  0.3515  0.1086
 3197SOL    HW121224   1.757   0.173   4.731  1.4584  0.7339 -0.0278
 3197SOL    HW221225   1.746   0.213   4.869 -2.0773  0.8428 -2.3292
 3198SOL     OW21226   2.731   3.258   5.560  0.3329  0.0676  0.1787
 3198SOL    HW121227   2.815   3.299   5.582 -1.0878  1.6605  2.5853
 3198SOL    HW221228   2.760   3.199   5.490  0.2232 -0.4794  0.5934
 3199SOL     OW21229   1.049   1.091   1.412  0.2630  0.4436 -0.1178
 3199SOL    HW121230   1.083   1.167   1.460 -0.7553  0.4893  0.5249
 3199SOL    HW221231   1.119   1.080   1.348  2.0123  1.3348  1.6550
 3200SOL     OW21232   0.915   1.125   9.042 -0.0478  0.1446  0.2332
 3200SOL    HW121233   0.934   1.050   9.099 -0.9637  1.1065  1.8069
 3200SOL    HW221234   1.002   1.152   9.013 -0.8085  2.1991 -0.1563
 3201SOL     OW21235   2.380   3.496   8.043 -0.3813  0.7823 -0.5961
 3201SOL    HW121236   2.369   3.516   7.950 -0.3962  0.0970 -0.7422
 3201SOL    HW221237   2.380   3.400   8.048 -1.5930  0.7014 -2.1064
 3202SOL     OW21238   0.644   0.793   3.765 -0.4351  0.2590 -0.3912
 3202SOL    HW121239   0.680   0.718   3.716  0.2559 -0.5197  1.3052
 3202SOL    HW221240   0.646   0.764   3.856  0.0523 -1.6459 -1.0083
 3203SOL     OW21241   1.010   2.699   9.243  0.1657  0.1601 -0.0687
 3203SOL    HW121242   1.051   2.764   9.299  1.4725 -1.9430  1.4276
 3203SOL    HW221243   0.972   2.754   9.174 -0.1999  0.1345  0.1113
 3204SOL     OW21244   0.232   0.302   2.997 -0.0110  0.4322 -0.2656
 3204SOL    HW121245   0.308   0.336   2.950  1.5209  0.6625  2.3828
 3204SOL    HW221246   0.244   0.339   3.085 -0.6511  0.3962 -0.1683
 3205SOL     OW21247   0.536   1.927   3.821 -0.5726 -0.1625 -0.6973
 3205SOL    HW121248   0.571   2.013   3.796 -2.5448  0.8728  0.0377
 3205SOL    HW221249   0.483   1.952   3.896  1.4819 -1.3370  1.1401
 3206SOL     OW21250   0.964   3.874   7.904 -0.3990 -0.3706  0.2416
 3206SOL    HW121251   1.057   3.897   7.914  0.8785 -4.5898 -1.7472
 3206SOL    HW221252   0.941   3.902   7.815 -1.6740  0.8119  0.9517
 3207SOL     OW21253   3.533   1.897  15.372 -0.0386  0.2076 -0.1446
 3207SOL    HW121254   3.555   1.812  15.334 -1.1831 -0.3941  0.5396
 3207SOL    HW221255   3.549   1.959  15.301  0.8074 -1.3537 -1.3211
 3208SOL     OW21256   0.545   1.778   8.321  0.3871 -0.6686 -0.1341
 3208SOL    HW121257   0.608   1.841   8.286 -0.0636  0.3273  0.8593
 3208SOL    HW221258   0.500   1.748   8.242  0.1632 -2.9144  0.8370
 3209SOL     OW21259   3.996   0.486   8.531  0.1171 -0.8291  0.4386
 3209SOL    HW121260   4.073   0.505   8.478  0.7930 -4.0967  0.2144
 3209SOL    HW221261   3.928   0.454   8.471 -1.0725  1.6752  0.4592
 3210SOL     OW21262   4.105   2.744  14.909 -0.2838 -0.1505 -0.2908
 3210SOL    HW121263   4.153   2.798  14.846  1.6393 -1.5315 -0.0066
 3210SOL    HW221264   4.035   2.809  14.915 -0.6194 -0.5245 -0.1433
 3211SOL     OW21265   3.821   1.833   1.322 -0.3314  0.0130 -0.8925
 3211SOL    HW121266   3.886   1.883   1.273  0.2337 -0.4612 -0.6381
 3211SOL    HW221267   3.805   1.899   1.389  0.4135  0.7171 -1.3993
 3212SOL     OW21268   3.578   0.869   0.335 -0.0602 -0.3445 -0.3286
 3212SOL    HW121269   3.596   0.791   0.387  1.0416  0.5552  0.6132
 3212SOL    HW221270   3.482   0.876   0.339  0.2305  2.4487  1.5673
 3213SOL     OW21271   1.338   1.507   6.799 -0.6197 -0.9032  0.0806
 3213SOL    HW121272   1.418   1.533   6.754 -0.1948 -0.8284  0.8717
 3213SOL    HW221273   1.287   1.588   6.790  1.8497  0.7443  0.6891
 3214SOL     OW21274   0.254   2.817  14.298 -0.0804 -0.2733 -0.1415
 3214SOL    HW121275   0.244   2.877  14.224  0.6478 -0.0309 -0.0427
 3214SOL    HW221276   0.199   2.858  14.365 -0.7412  0.4160 -1.0998
 3215SOL     OW21277   1.356   3.274   7.453 -0.1138 -0.2356 -0.3642
 3215SOL    HW121278   1.352   3.185   7.416  1.7826 -0.4823  0.0335
 3215SOL    HW221279   1.346   3.335   7.380  2.2524  1.5823  0.8111
 3216SOL     OW21280   1.890   2.325  16.872 -0.1916  0.4577 -0.5213
 3216SOL    HW121281   1.909   2.283  16.788  1.3988  0.3170 -0.0950
 3216SOL    HW221282   1.832   2.398  16.852  1.7953  2.4779  1.1315
 3217SOL     OW21283   1.496   0.156  11.738  0.1463  0.2772  0.3012
 3217SOL    HW121284   1.577   0.172  11.691 -0.6426  0.5579 -0.9530
 3217SOL    HW221285   1.488   0.061  11.749  2.3441  0.2722  1.7701
 3218SOL     OW21286   0.338   4.726   4.736 -0.2142  0.1906  0.0493
 3218SOL    HW121287   0.429   4.727   4.705  0.1460 -1.2264  1.0533
 3218SOL    HW221288   0.312   4.636   4.715  0.6349 -0.2429  0.8769
 3219SOL     OW21289   4.654   1.431   0.912 -0.0407 -0.2561  0.2843
 3219SOL    HW121290   4.688   1.509   0.956 -2.3367  2.1109 -2.1431
 3219SOL    HW221291   4.560   1.442   0.929 -0.4188 -1.2666 -1.2152
 3220SOL     OW21292   0.219   4.616   3.513 -0.1779 -0.8545 -0.0870
 3220SOL    HW121293   0.253   4.553   3.449  1.8646  1.1968 -1.0002
 3220SOL    HW221294   0.296   4.659   3.550 -0.2156 -0.2911 -0.6651
 3221SOL     OW21295   1.652   0.630  15.273 -0.0382  0.0309  0.1274
 3221SOL    HW121296   1.565   0.631  15.311 -0.2883 -1.8655 -0.3772
 3221SOL    HW221297   1.651   0.590  15.186 -0.1888 -0.7655  0.4962
 3222SOL     OW21298   4.494   1.942   4.313  0.1665 -0.1187  0.3787
 3222SOL    HW121299   4.492   1.898   4.398 -2.2536  0.7152  0.7521
 3222SOL    HW221300   4.521   2.032   4.329 -1.0241  0.5695 -1.5930
 3223SOL     OW21301   3.749   1.057   2.831 -0.3445 -0.1434 -0.1270
 3223SOL    HW121302   3.822   1.118   2.816 -0.4345  0.0358  0.1686
 3223SOL    HW221303   3.732   1.087   2.920 -1.3866 -1.4416  0.1051
 3224SOL     OW21304   0.871   0.551   8.866  0.0620 -0.2086  0.4859
 3224SOL    HW121305   0.881   0.596   8.950  2.0657 -0.4495  0.3597
 3224SOL    HW221306   0.962   0.544   8.837  0.4466  0.9065  1.4274
 3225SOL     OW21307   1.408   4.269   6.768  0.0707 -0.1392  0.0168
 3225SOL    HW121308   1.469   4.205   6.803  1.5324  1.3582  0.1764
 3225SOL    HW221309   1.453   4.289   6.686 -0.5859 -0.2619 -0.3747
 3226SOL     OW21310   4.010   4.069   6.530  0.3162  0.1182  0.1708
 3226SOL    HW121311   3.978   4.047   6.442  0.0016 -1.1181  0.5971
 3226SOL    HW221312   3.931   4.075   6.584 -0.1372  1.3654 -0.6354
 3227SOL     OW21313   3.701   3.983  11.503 -0.0421  0.3442 -0.0836
 3227SOL    HW121314   3.750   4.015  11.427 -1.2310  2.3663  0.0078
 3227SOL    HW221315   3.705   4.066  11.550  0.6857  0.9175 -1.1506
 3228SOL     OW21316   3.696   0.027  12.453 -0.3212 -0.6503 -0.0099
 3228SOL    HW121317   3.646   0.061  12.379 -0.4391 -0.5769  0.1051
 3228SOL    HW221318   3.639   0.066  12.519  1.7153  2.3697 -0.0556
 3229SOL     OW21319   1.106   2.303  13.081 -0.2168 -0.3884 -0.0934
 3229SOL    HW121320   1.053   2.370  13.123  1.2946  1.3752 -1.0037
 3229SOL    HW221321   1.074   2.312  12.991  2.9170 -1.3248 -1.3113
 3230SOL     OW21322   0.890   4.045  11.595  0.0838  0.1259  0.1302
 3230SOL    HW121323   0.978   4.059  11.561  0.0231  0.4449  0.1051
 3230SOL    HW221324   0.863   3.955  11.574  1.3634 -0.1100 -0.4583
 3231SOL     OW21325   3.881   0.203  13.051 -0.3874  0.4560 -0.0398
 3231SOL    HW121326   3.934   0.282  13.048  0.2379  0.0828  1.4025
 3231SOL    HW221327   3.815   0.232  12.988  0.2472  1.4795 -0.2221
 3232SOL     OW21328   3.341   0.869   8.938  0.7841 -0.8465  0.4609
 3232SOL    HW121329   3.307   0.791   8.893  0.5122 -0.4190 -0.0801
 3232SOL    HW221330   3.263   0.893   8.988 -0.5337 -0.0725 -1.9449
 3233SOL     OW21331   2.751   0.432   5.343 -0.0390  0.2638 -1.0405
 3233SOL    HW121332   2.807   0.415   5.267  2.9795  0.6407  1.1252
 3233SOL    HW221333   2.665   0.434   5.300 -0.4704 -0.0002 -0.1881
 3234SOL     OW21334   3.061   1.723   3.242  0.2858 -0.0296  0.8971
 3234SOL    HW121335   3.147   1.683   3.246  1.2935  2.0625  0.0872
 3234SOL    HW221336   3.086   1.803   3.196 -1.5687 -0.3130 -0.6252
 3235SOL     OW21337   2.089   3.884  16.311 -0.5371  0.1615  0.3254
 3235SOL    HW121338   2.116   3.975  16.305 -2.9134  1.0176  2.3105
 3235SOL    HW221339   2.142   3.854  16.237 -1.9958 -1.0250 -0.2556
 3236SOL     OW21340   2.817   0.910   7.963 -0.1095  0.2836  0.9478
 3236SOL    HW121341   2.791   0.935   7.874  1.5863 -2.1278 -0.2268
 3236SOL    HW221342   2.866   0.990   7.983  0.9278 -0.6720  2.2309
 3237SOL     OW21343   3.289   4.724   5.675 -0.3926  0.2007 -0.0899
 3237SOL    HW121344   3.369   0.030   5.705 -0.7963  1.6971 -1.1599
 3237SOL    HW221345   3.313   4.706   5.584 -0.2223 -1.5059  0.3039
 3238SOL     OW21346   1.277   0.381   9.447  0.1370 -0.3678  0.3784
 3238SOL    HW121347   1.351   0.413   9.499 -1.4945  2.4274  1.0008
 3238SOL    HW221348   1.326   0.355   9.370  1.2724  2.0229  0.2733
 3239SOL     OW21349   0.785   0.645   1.817 -0.0970 -0.7286 -0.2328
 3239SOL    HW121350   0.808   0.564   1.864 -2.1355 -0.1544  1.7452
 3239SOL    HW221351   0.726   0.679   1.883  1.8730  1.4402  0.4122
 3240SOL     OW21352   1.822   3.139  10.053  0.3272  0.5861 -0.5844
 3240SOL    HW121353   1.908   3.137  10.011 -0.1176 -0.0188 -1.4751
 3240SOL    HW221354   1.830   3.206  10.121 -1.4003 -0.3981  0.5920
 3241SOL     OW21355   4.153   3.207   8.533 -0.1785 -0.0660  0.4878
 3241SOL    HW121356   4.175   3.250   8.450  0.4418  0.0518  0.7094
 3241SOL    HW221357   4.138   3.119   8.500  0.6502 -0.1192  0.2462
 3242SOL     OW21358   1.271   1.135   8.414  0.3809  0.0719 -0.3491
 3242SOL    HW121359   1.362   1.113   8.395 -0.1751 -0.7032 -2.1000
 3242SOL    HW221360   1.281   1.226   8.444  1.0380  0.6234 -2.2534
 3243SOL     OW21361   1.459   0.755   1.195 -1.0303 -0.2066  0.0235
 3243SOL    HW121362   1.434   0.725   1.282 -0.3028 -1.6716 -0.2762
 3243SOL    HW221363   1.378   0.755   1.144 -0.1904  0.7148 -1.3212
 3244SOL     OW21364   4.468   0.881   5.020 -0.4316 -0.1463 -0.8496
 3244SOL    HW121365   4.529   0.899   5.091 -0.8620  0.1553 -0.5565
 3244SOL    HW221366   4.503   0.932   4.947 -2.4655 -0.2077 -1.8805
 3245SOL     OW21367   0.803   1.904   9.600  0.0617  0.1120  0.1543
 3245SOL    HW121368   0.795   1.992   9.564  1.1071 -0.8813 -2.5054
 3245SOL    HW221369   0.734   1.904   9.667  0.4325 -0.5748  0.5393
 3246SOL     OW21370   2.077   3.146   4.506 -0.0267 -0.1708  0.3185
 3246SOL    HW121371   2.163   3.106   4.519  1.0479  1.4512 -1.8216
 3246SOL    HW221372   2.068   3.202   4.583 -0.7720  0.0190  0.1025
 3247SOL     OW21373   2.005   2.812   1.130  0.6637 -0.2024  0.8594
 3247SOL    HW121374   1.964   2.752   1.192  2.5104  1.0885  3.3335
 3247SOL    HW221375   2.096   2.784   1.139  0.9370  0.0612 -0.9929
 3248SOL     OW21376   1.413   0.801  16.425 -0.2442  0.1512  0.0255
 3248SOL    HW121377   1.355   0.740  16.379 -1.0367  1.0716 -0.1858
 3248SOL    HW221378   1.456   0.830  16.344 -0.9696 -1.3601 -0.9192
 3249SOL     OW21379   3.160   1.994  12.645  0.4054 -0.6558  0.7869
 3249SOL    HW121380   3.175   1.911  12.690  0.8088 -0.6407  0.6748
 3249SOL    HW221381   3.065   1.981  12.638  0.1589  2.0563 -1.1412
 3250SOL     OW21382   1.020   4.210   3.543  0.0512 -0.2041 -0.4209
 3250SOL    HW121383   0.936   4.196   3.498  0.3815 -1.7659 -0.5290
 3250SOL    HW221384   0.980   4.249   3.621 -1.5875  0.6643 -1.6860
 3251SOL     OW21385   0.506   3.021  16.939 -0.5912 -1.0812 -0.1834
 3251SOL    HW121386   0.433   2.982  16.891 -0.0598 -1.8428 -0.3665
 3251SOL    HW221387   0.552   2.943  16.969 -1.1042 -1.8847 -1.4725
 3252SOL     OW21388   0.307   2.353  12.578  0.3993 -0.0802  0.6798
 3252SOL    HW121389   0.343   2.442  12.572 -0.6158  0.5193  3.2832
 3252SOL    HW221390   0.284   2.359  12.671 -0.9261  0.7584  0.3034
 3253SOL     OW21391   2.091   0.094   7.666 -0.1220  0.0823  0.4659
 3253SOL    HW121392   2.135   0.070   7.585 -3.3652 -0.1196 -1.2543
 3253SOL    HW221393   2.146   0.049   7.730 -0.8102 -2.4887 -0.7389
 3254SOL     OW21394   1.588   2.510   5.466  0.1594  0.2771 -0.3916
 3254SOL    HW121395   1.570   2.592   5.513  1.1654 -0.3795  1.1269
 3254SOL    HW221396   1.680   2.514   5.440  0.1140  0.9440 -0.4489
 3255SOL     OW21397   1.657   0.272   1.762  0.1035  0.1882 -0.7818
 3255SOL    HW121398   1.607   0.255   1.682  1.3616 -0.0139 -1.5232
 3255SOL    HW221399   1.742   0.230   1.749  0.3523  0.2431  0.6590
 3256SOL     OW21400   1.869   0.587   3.662 -0.0157 -0.9362 -0.4026
 3256SOL    HW121401   1.841   0.668   3.619 -1.0685 -0.0502  1.9048
 3256SOL    HW221402   1.959   0.610   3.683  0.2450 -0.1515 -2.3837
 3257SOL     OW21403   0.014   1.329  15.754  0.4482 -0.4390 -0.2263
 3257SOL    HW121404   0.018   1.257  15.818 -2.9299  0.1987  0.7035
 3257SOL    HW221405   4.657   1.334  15.741  0.2964  0.2297  1.1552
 3258SOL     OW21406   0.331   0.381   5.742  0.2569 -0.2448 -0.3098
 3258SOL    HW121407   0.338   0.289   5.716  0.3358  0.0531 -1.3608
 3258SOL    HW221408   0.423   0.400   5.761 -0.5316  3.1215  0.0104
 3259SOL     OW21409   3.176   2.943  17.642 -0.0804 -0.2035 -0.1830
 3259SOL    HW121410   3.224   2.894  17.575 -0.2320  0.6325 -0.9056
 3259SOL    HW221411   3.105   2.880  17.653 -0.5967  0.1691 -1.4074
 3260SOL     OW21412   0.443   4.641   0.293  0.4726 -0.5909  0.1451
 3260SOL    HW121413   0.461   4.685   0.376 -1.2244  0.1677  0.1129
 3260SOL    HW221414   0.348   4.639   0.304  0.5980  0.2292  1.4646
 3261SOL     OW21415   0.556   3.089   1.823  0.5182  0.0551 -0.2317
 3261SOL    HW121416   0.464   3.064   1.827  0.2800  1.3117  2.4063
 3261SOL    HW221417   0.547   3.161   1.761 -1.9379 -0.3461 -0.3350
 3262SOL     OW21418   2.760   0.747  15.278 -0.1167  0.0479  0.1944
 3262SOL    HW121419   2.717   0.827  15.308 -3.0022 -1.4682  0.1243
 3262SOL    HW221420   2.786   0.778  15.191  0.7343  3.6165  1.7442
 3263SOL     OW21421   0.106   4.036   8.657 -0.0377  0.0465  0.0333
 3263SOL    HW121422   0.070   4.000   8.738  0.1128 -1.3988 -0.5398
 3263SOL    HW221423   0.088   3.961   8.600  1.5332 -0.8497  0.7474
 3264SOL     OW21424   3.669   0.138  13.660 -0.1346 -0.1983 -0.3694
 3264SOL    HW121425   3.744   0.191  13.683  0.3920 -1.4546  0.8287
 3264SOL    HW221426   3.660   0.176  13.573 -1.8201 -0.0032 -0.1161
 3265SOL     OW21427   2.569   2.277  12.023  0.4316  0.0353 -0.0644
 3265SOL    HW121428   2.571   2.321  12.108  2.2027  0.1139 -0.1452
 3265SOL    HW221429   2.655   2.301  11.987  0.4002 -0.4094 -0.4416
 3266SOL     OW21430   2.229   1.356  12.253  0.3047  0.3833 -0.1726
 3266SOL    HW121431   2.227   1.320  12.342 -1.7348 -0.2308 -0.4764
 3266SOL    HW221432   2.169   1.297  12.208 -0.5455  0.6047  0.6739
 3267SOL     OW21433   4.605   2.409   8.678 -0.7635  0.6325  0.0153
 3267SOL    HW121434   4.639   2.498   8.686 -0.0541  0.5347 -1.8969
 3267SOL    HW221435   4.678   2.346   8.677 -0.5642  0.8671 -0.0773
 3268SOL     OW21436   1.090   1.037  13.909  0.2394  0.0040  0.2125
 3268SOL    HW121437   1.015   0.999  13.955  0.2359 -0.1612  0.0675
 3268SOL    HW221438   1.160   0.976  13.931 -0.2722 -0.3298  0.9088
 3269SOL     OW21439   1.013   1.870   8.907 -0.4307  0.2459 -0.3874
 3269SOL    HW121440   0.933   1.905   8.868 -3.0812 -1.0958  3.8733
 3269SOL    HW221441   1.029   1.934   8.977  1.2109  0.3471 -0.8621
 3270SOL     OW21442   2.506   0.568   1.146  1.0846  0.1927 -0.0305
 3270SOL    HW121443   2.599   0.583   1.162  0.7756  1.0043  1.0364
 3270SOL    HW221444   2.505   0.480   1.108  0.1218  0.3149 -0.3075
 3271SOL     OW21445   2.746   3.799  17.318 -0.0995 -0.6430 -0.2579
 3271SOL    HW121446   2.782   3.771  17.402  4.2833  1.1591 -1.5145
 3271SOL    HW221447   2.783   3.729  17.264 -0.4953 -0.2106 -1.0994
 3272SOL     OW21448   1.750   4.634   8.513  0.0890 -0.1023 -0.3891
 3272SOL    HW121449   1.762   4.611   8.605 -0.1970 -1.4419 -0.6802
 3272SOL    HW221450   1.828   4.689   8.511  0.0754 -0.1472 -1.9416
 3273SOL     OW21451   2.705   1.720   2.719 -0.0299  0.4809  0.4383
 3273SOL    HW121452   2.781   1.774   2.739 -0.7492  1.3187  0.9026
 3273SOL    HW221453   2.710   1.647   2.780  2.0229 -0.2182 -0.5389
 3274SOL     OW21454   3.184   1.090  11.107  0.3802 -0.0972  0.0835
 3274SOL    HW121455   3.271   1.096  11.067 -0.4162 -2.9525 -2.0160
 3274SOL    HW221456   3.201   1.087  11.202 -1.5020  0.3055  0.4251
 3275SOL     OW21457   3.727   1.695   1.640  0.3065 -0.0665  0.1607
 3275SOL    HW121458   3.823   1.703   1.637  0.4764 -1.3801  2.0821
 3275SOL    HW221459   3.714   1.604   1.665 -3.1565 -0.0039 -1.5224
 3276SOL     OW21460   0.786   4.353   9.363  0.2311 -0.8443  0.0438
 3276SOL    HW121461   0.867   4.393   9.394 -0.0309 -0.6303  0.4592
 3276SOL    HW221462   0.773   4.407   9.285  0.2818 -1.2581 -0.2473
 3277SOL     OW21463   4.417   3.157  10.681 -0.8480  0.2472 -0.8460
 3277SOL    HW121464   4.353   3.087  10.665 -0.3693 -0.1991 -0.8145
 3277SOL    HW221465   4.496   3.103  10.687 -0.8610  0.2233 -0.8855
 3278SOL     OW21466   0.347   0.977  16.210 -0.3912  0.2945 -0.0504
 3278SOL    HW121467   0.265   0.938  16.179  1.7100 -3.6008 -0.7224
 3278SOL    HW221468   0.335   1.070  16.191 -0.6698  0.2621 -0.0410
 3279SOL     OW21469   1.275   3.981   7.282 -0.3407 -0.1874  0.0410
 3279SOL    HW121470   1.275   3.959   7.375  1.4285 -0.7692 -0.0910
 3279SOL    HW221471   1.354   3.928   7.266 -1.4780 -1.3442 -1.8053
 3280SOL     OW21472   2.898   1.663   6.488  0.4480  0.0183 -0.3147
 3280SOL    HW121473   2.892   1.671   6.583  0.0339 -1.5160 -0.2097
 3280SOL    HW221474   2.889   1.569   6.470 -1.5825 -0.1329  1.4637
 3281SOL     OW21475   4.366   3.442   1.737 -0.6912  0.1276  0.0877
 3281SOL    HW121476   4.358   3.479   1.649  2.0368 -0.0758 -0.2465
 3281SOL    HW221477   4.383   3.522   1.788 -0.3467  0.8156 -1.1015
 3282SOL     OW21478   0.127   1.067   6.814  0.2929 -0.2326 -0.4320
 3282SOL    HW121479   0.099   0.977   6.835  0.0278  0.3461  1.7022
 3282SOL    HW221480   0.165   1.050   6.728  2.6121 -0.1267  0.5749
 3283SOL     OW21481   4.130   4.279   5.564 -0.6882  0.1217 -0.4376
 3283SOL    HW121482   4.151   4.288   5.471 -0.9482 -0.2114 -0.5277
 3283SOL    HW221483   4.113   4.186   5.574  3.2316 -0.5704 -0.0950
 3284SOL     OW21484   4.508   0.649   7.449  0.1840  0.2433 -0.2456
 3284SOL    HW121485   4.548   0.710   7.388  0.3461 -1.1461 -1.5148
 3284SOL    HW221486   4.462   0.598   7.383  0.8936 -0.7584  0.0353
 3285SOL     OW21487   4.414   0.655  14.545 -0.3478  0.4242 -0.2546
 3285SOL    HW121488   4.324   0.661  14.512 -0.4961 -1.1304 -0.1703
 3285SOL    HW221489   4.403   0.574  14.596 -0.2289  1.1650  0.9533
 3286SOL     OW21490   0.570   2.022   7.241  0.0485  0.3768 -0.1612
 3286SOL    HW121491   0.633   2.058   7.179 -0.0123 -0.8283 -0.9282
 3286SOL    HW221492   0.545   1.941   7.195 -1.4865 -0.1173  1.5101
 3287SOL     OW21493   2.597   3.413  10.392 -0.0241 -0.0691  0.0564
 3287SOL    HW121494   2.639   3.329  10.374  1.7847  0.3932  2.1229
 3287SOL    HW221495   2.679   3.461  10.384  0.5510 -1.1823 -0.6248
 3288SOL     OW21496   4.415   2.515   4.100 -0.2773  0.2526  0.1657
 3288SOL    HW121497   4.341   2.502   4.040  0.4881 -0.2254 -0.6716
 3288SOL    HW221498   4.481   2.556   4.045  2.1371 -0.6802  2.3833
 3289SOL     OW21499   1.212   1.242   0.169 -0.4696 -0.7746  0.4621
 3289SOL    HW121500   1.143   1.228   0.234  0.6560  1.0679  2.0786
 3289SOL    HW221501   1.167   1.294   0.103 -0.6261 -2.0871 -0.4571
 3290SOL     OW21502   2.878   3.588  17.209  0.1152  0.4372 -0.1697
 3290SOL    HW121503   2.830   3.523  17.260 -0.1833 -0.9209 -2.2113
 3290SOL    HW221504   2.921   3.536  17.141 -0.1270  1.4968 -1.1394
 3291SOL     OW21505   0.108   0.783   5.227 -0.1737  0.6946 -0.4305
 3291SOL    HW121506   0.135   0.773   5.318  0.4721 -1.3810 -0.8402
 3291SOL    HW221507   0.014   0.802   5.237 -0.7718 -3.2502  1.3392
 3292SOL     OW21508   0.161   1.665  16.158 -0.6931 -0.3267 -0.1866
 3292SOL    HW121509   0.093   1.609  16.195 -0.5924  2.2776  3.8283
 3292SOL    HW221510   0.119   1.689  16.076  1.5991  0.8720 -1.0225
 3293SOL     OW21511   1.593   2.246   6.261 -0.0410 -0.4990  0.4527
 3293SOL    HW121512   1.604   2.194   6.182 -1.8148  2.6668 -1.8995
 3293SOL    HW221513   1.548   2.320   6.219  1.4519  0.3736  0.3920
 3294SOL     OW21514   0.753   0.595  10.140  0.0015  0.3881  0.0140
 3294SOL    HW121515   0.834   0.580  10.092  0.8976 -0.2055  1.7155
 3294SOL    HW221516   0.761   0.546  10.221  0.2870 -0.7651 -0.7083
 3295SOL     OW21517   3.580   2.717   7.070  0.0551  0.0243  0.1366
 3295SOL    HW121518   3.623   2.700   7.154 -2.4076  0.7223  1.5424
 3295SOL    HW221519   3.647   2.755   7.012 -0.5613 -0.3474 -0.8125
 3296SOL     OW21520   2.878   0.174   6.115  0.4735 -0.0558  0.0357
 3296SOL    HW121521   2.925   0.116   6.056  1.4377  2.0052 -1.2266
 3296SOL    HW221522   2.950   0.204   6.171  0.1610  0.7135  0.0350
 3297SOL     OW21523   0.761   3.831   3.837 -0.0149  0.3369  0.1055
 3297SOL    HW121524   0.686   3.843   3.779  0.0871 -0.3352 -0.1618
 3297SOL    HW221525   0.827   3.889   3.800  0.1412  0.2617  0.2645
 3298SOL     OW21526   1.721   4.414   1.313  0.2823  0.2380 -0.2175
 3298SOL    HW121527   1.640   4.451   1.348  0.2340  0.1418 -0.2251
 3298SOL    HW221528   1.738   4.334   1.363 -0.4980  0.4396  0.3625
 3299SOL     OW21529   4.706   0.836  17.071  0.4103  0.0852  0.3226
 3299SOL    HW121530   4.652   0.823  16.993  0.5909 -0.8187  0.3467
 3299SOL    HW221531   0.050   0.864  17.028 -0.2314 -1.4578 -1.8944
 3300SOL     OW21532   2.999   4.094   3.297 -0.7174  0.1265  0.3117
 3300SOL    HW121533   3.031   4.137   3.376 -0.1916 -0.7128  0.5541
 3300SOL    HW221534   2.986   4.004   3.325  3.3458 -0.5887 -0.1512
 3301SOL     OW21535   0.318   1.772   9.329 -0.0012 -0.3518  0.9347
 3301SOL    HW121536   0.350   1.859   9.304 -1.0393 -0.8784 -2.1986
 3301SOL    HW221537   0.234   1.769   9.284  0.1580 -0.5478  0.6519
 3302SOL     OW21538   1.939   0.986   4.245 -0.3226  0.6974 -0.2116
 3302SOL    HW121539   2.020   0.969   4.198  0.9624  1.7766  1.6097
 3302SOL    HW221540   1.975   0.969   4.332 -0.9451  0.2656 -0.0353
 3303SOL     OW21541   0.778   0.325  13.206  0.6196  0.4591  0.0976
 3303SOL    HW121542   0.768   0.240  13.249 -1.3393 -0.0355 -1.3209
 3303SOL    HW221543   0.845   0.308  13.140  0.1945 -0.1817 -0.1801
 3304SOL     OW21544   1.468   4.304   6.020  0.2233 -0.2774  0.1162
 3304SOL    HW121545   1.496   4.388   5.983 -0.4967  0.9610  2.3834
 3304SOL    HW221546   1.534   4.278   6.084  1.2255 -0.6089 -1.0624
 3305SOL     OW21547   1.469   1.252   2.297 -0.0679 -0.2370  0.2149
 3305SOL    HW121548   1.477   1.339   2.336  1.9095 -0.0808 -0.5028
 3305SOL    HW221549   1.436   1.274   2.210  1.8608  0.1340 -0.4308
 3306SOL     OW21550   2.154   2.587   6.560 -0.5845 -0.4186  0.0232
 3306SOL    HW121551   2.248   2.567   6.556 -0.3146  0.4648  2.2349
 3306SOL    HW221552   2.156   2.649   6.633  0.4034 -1.0593  0.5350
 3307SOL     OW21553   4.316   3.723   4.180  0.5607  0.1567 -0.1416
 3307SOL    HW121554   4.344   3.711   4.089 -0.2121 -2.4619 -0.0334
 3307SOL    HW221555   4.406   3.719   4.213  0.5843 -1.4872 -0.3956
 3308SOL     OW21556   0.024   2.499   5.271  0.0493 -0.0919  0.1875
 3308SOL    HW121557   0.099   2.558   5.268  0.6369 -0.7679  1.5049
 3308SOL    HW221558   4.736   2.509   5.363 -2.0831  1.9218 -0.6100
 3309SOL     OW21559   2.082   2.541   8.874 -0.1919 -0.5024 -0.3820
 3309SOL    HW121560   2.071   2.618   8.929  0.0725 -0.3133 -0.5958
 3309SOL    HW221561   2.167   2.557   8.834 -0.3562  0.6299 -0.2849
 3310SOL     OW21562   2.122   2.961   8.024  0.6203  0.9748 -0.3058
 3310SOL    HW121563   2.074   3.038   8.054  2.4504  1.7111  0.7656
 3310SOL    HW221564   2.090   2.945   7.935 -2.1994  0.4548  0.8033
 3311SOL     OW21565   4.163   2.595   8.576 -0.2587  0.6421  0.1129
 3311SOL    HW121566   4.115   2.552   8.504  2.2399 -1.4780 -0.2972
 3311SOL    HW221567   4.236   2.641   8.535  0.6784 -0.1734  0.8726
 3312SOL     OW21568   3.082   2.947  12.215 -0.6570 -0.7139  0.2294
 3312SOL    HW121569   3.175   2.965  12.224 -0.8649  0.3176  0.4299
 3312SOL    HW221570   3.072   2.936  12.121  1.2731  0.8012 -0.1501
 3313SOL     OW21571   3.653   3.200   2.048  0.0453  0.2135  0.2663
 3313SOL    HW121572   3.726   3.247   2.008 -0.0618 -0.9230 -1.2765
 3313SOL    HW221573   3.583   3.192   1.983  0.3393 -3.4053  0.3714
 3314SOL     OW21574   4.013   3.574   2.410  0.0494 -0.0041 -0.6994
 3314SOL    HW121575   4.001   3.491   2.364 -2.9337 -0.6609  1.2371
 3314SOL    HW221576   4.098   3.608   2.382  0.0599  0.8206  0.3412
 3315SOL     OW21577   4.077   0.074   2.175  0.1213  0.2806 -0.8339
 3315SOL    HW121578   4.130   0.023   2.236  0.3913  0.8569 -0.5933
 3315SOL    HW221579   4.011   0.009   2.151 -0.9379 -0.6842  4.6882
 3316SOL     OW21580   0.248   0.288   1.799 -0.6659 -0.0435  0.6260
 3316SOL    HW121581   0.250   0.350   1.726 -1.0800 -1.4718 -0.5903
 3316SOL    HW221582   0.300   0.222   1.753 -2.7288  0.8256 -2.9733
 3317SOL     OW21583   1.311   3.739   5.218 -0.7306 -0.4171 -0.1833
 3317SOL    HW121584   1.222   3.771   5.237 -0.0024  2.3863 -1.5307
 3317SOL    HW221585   1.357   3.760   5.299  1.4288  0.4662 -1.6399
 3318SOL     OW21586   2.152   3.133   8.739 -0.1517 -0.4070  1.1660
 3318SOL    HW121587   2.161   3.098   8.827 -1.8161 -1.3213  0.9684
 3318SOL    HW221588   2.120   3.223   8.750  0.5486  0.4151 -3.3647
 3319SOL     OW21589   3.152   4.291   0.953 -0.3403 -0.5074  0.3578
 3319SOL    HW121590   3.243   4.268   0.932 -0.2421 -0.8378  1.1370
 3319SOL    HW221591   3.157   4.341   1.035  0.9876  1.5061 -0.9493
 3320SOL     OW21592   3.223   3.167  16.377 -0.5159  0.2599 -0.4861
 3320SOL    HW121593   3.209   3.096  16.315 -3.6889  1.4183 -1.0661
 3320SOL    HW221594   3.255   3.111  16.448  1.3123  1.5377 -0.3017
 3321SOL     OW21595   2.145   4.351  11.420 -0.0144  0.2792  0.4443
 3321SOL    HW121596   2.218   4.290  11.414 -0.8995 -0.9052  1.6639
 3321SOL    HW221597   2.068   4.295  11.409 -0.3016  0.4222  1.7077
 3322SOL     OW21598   0.508   2.765   2.458 -0.0445  0.0811  0.1612
 3322SOL    HW121599   0.576   2.708   2.424 -1.4362 -1.3543 -0.2354
 3322SOL    HW221600   0.524   2.736   2.548 -0.8802  0.7384  0.5198
 3323SOL     OW21601   2.734   0.029   0.199  0.7376 -0.5882 -0.0463
 3323SOL    HW121602   2.794   4.692   0.192  1.3498 -0.2278  1.5244
 3323SOL    HW221603   2.804   0.093   0.211  1.1366 -1.2504  1.1033
 3324SOL     OW21604   1.020   0.078   0.630 -0.1264 -0.9845  0.4060
 3324SOL    HW121605   0.927   0.088   0.610  0.6826  1.7345 -2.0449
 3324SOL    HW221606   1.062   0.160   0.603  0.3467 -0.8232  1.6245
 3325SOL     OW21607   3.787   0.056   7.943 -0.0190 -0.5810 -0.0647
 3325SOL    HW121608   3.767   4.734   8.016  3.3253  0.3585  1.6201
 3325SOL    HW221609   3.881   0.043   7.931  0.2595  0.1587  1.2556
 3326SOL     OW21610   1.527   4.221   2.769  0.6121  0.3646 -0.0075
 3326SOL    HW121611   1.563   4.180   2.691 -0.1604 -0.8705  0.2869
 3326SOL    HW221612   1.434   4.200   2.756  0.1655  1.6659  1.0965
 3327SOL     OW21613   2.258   3.778   8.367  0.2100  0.5699  0.5251
 3327SOL    HW121614   2.234   3.800   8.457  0.3816  1.3871  0.3737
 3327SOL    HW221615   2.334   3.723   8.384 -1.7451 -2.8872 -1.9144
 3328SOL     OW21616   1.373   4.279  11.665  0.3792  0.1362  0.1506
 3328SOL    HW121617   1.443   4.272  11.600  1.6276  1.6538  1.3626
 3328SOL    HW221618   1.339   4.189  11.658  0.7814 -0.0636  0.7604
 3329SOL     OW21619   2.302   4.431   7.636  1.0833  0.6089 -0.2901
 3329SOL    HW121620   2.270   4.443   7.546 -3.0506  0.5205  1.1982
 3329SOL    HW221621   2.386   4.476   7.635  1.2655  0.2392 -1.8073
 3330SOL     OW21622   0.483   1.381  12.594 -0.5820  0.3881 -0.1492
 3330SOL    HW121623   0.545   1.331  12.645 -1.2254  0.5139  0.7513
 3330SOL    HW221624   0.408   1.398  12.652  0.2222  0.4287  0.8750
 3331SOL     OW21625   2.800   2.104  12.021 -0.0837  0.4618 -0.0761
 3331SOL    HW121626   2.781   2.179  11.965 -0.0474  0.5797  0.0679
 3331SOL    HW221627   2.896   2.102  12.014 -0.1527  1.1945 -1.1601
 3332SOL     OW21628   3.493   4.276   3.720 -0.0834  0.2867  0.3007
 3332SOL    HW121629   3.580   4.236   3.729 -0.5859 -0.8895 -0.0960
 3332SOL    HW221630   3.497   4.346   3.654 -0.1386 -1.5820 -1.6765
 3333SOL     OW21631   1.328   3.685   3.645 -0.1896  0.3777 -0.0574
 3333SOL    HW121632   1.346   3.591   3.643  0.1717  0.5080 -2.4798
 3333SOL    HW221633   1.273   3.701   3.568  0.9065  0.2105 -0.8712
 3334SOL     OW21634   0.532   2.164   3.310 -0.2822  0.0133 -0.0368
 3334SOL    HW121635   0.496   2.184   3.223 -0.7341 -0.1059  0.1191
 3334SOL    HW221636   0.581   2.084   3.290  0.0388  0.2347 -0.1269
 3335SOL     OW21637   1.068   4.260   9.474 -0.0139  0.4322  0.2739
 3335SOL    HW121638   1.146   4.315   9.485  0.1721  0.1751  0.2470
 3335SOL    HW221639   1.087   4.222   9.388  0.9960 -0.3960  0.8549
 3336SOL     OW21640   2.987   1.901   8.280 -0.0040 -0.2444 -0.5504
 3336SOL    HW121641   2.937   1.865   8.207 -0.9563  0.7532 -0.3896
 3336SOL    HW221642   2.992   1.832   8.346 -1.5847 -0.2172 -0.3976
 3337SOL     OW21643   3.646   0.315   4.730 -0.1390  0.5463 -0.0669
 3337SOL    HW121644   3.598   0.340   4.809 -0.8111 -3.2582  0.7529
 3337SOL    HW221645   3.715   0.380   4.722 -1.0654  1.5722  0.1858
 3338SOL     OW21646   3.993   0.012  16.740  0.2690  0.4974  0.3535
 3338SOL    HW121647   4.068   0.046  16.691  0.7655  1.3461  1.7166
 3338SOL    HW221648   3.988   0.087  16.799 -0.5555  1.5131 -1.0019
 3339SOL     OW21649   3.807   3.801  13.120  0.0513  0.6491 -0.2632
 3339SOL    HW121650   3.782   3.893  13.129 -1.8222  0.0075  1.0652
 3339SOL    HW221651   3.835   3.781  13.209  2.2365  4.2368 -0.1397
 3340SOL     OW21652   2.855   4.191   8.288  0.4142 -0.2415  0.2049
 3340SOL    HW121653   2.910   4.137   8.345  1.8048  0.5441 -0.4068
 3340SOL    HW221654   2.832   4.262   8.347 -3.4297 -1.7958  0.6017
 3341SOL     OW21655   1.002   2.315   7.642 -0.2082 -0.2939 -0.1551
 3341SOL    HW121656   0.972   2.305   7.552 -0.2322  0.0176 -0.1816
 3341SOL    HW221657   0.935   2.373   7.679 -0.0803  0.6958 -1.4893
 3342SOL     OW21658   1.125   2.378   9.506 -0.0071 -0.3985 -0.0295
 3342SOL    HW121659   1.048   2.433   9.513  1.2394  1.4576 -1.0896
 3342SOL    HW221660   1.084   2.292   9.503 -0.8070 -0.0222  0.3137
 3343SOL     OW21661   2.223   4.038   2.857  0.1072  0.2276  0.0377
 3343SOL    HW121662   2.185   4.088   2.930 -0.2207  0.5419 -0.3456
 3343SOL    HW221663   2.307   4.018   2.898  0.3080  0.0260 -0.4778
 3344SOL     OW21664   1.901   0.764   2.098  0.5069  0.2244  0.1394
 3344SOL    HW121665   1.897   0.769   2.193  1.0628 -1.4441  0.2463
 3344SOL    HW221666   1.955   0.839   2.073  0.6295  0.1336  0.1313
 3345SOL     OW21667   2.840   3.623   3.811 -0.2624 -0.7226 -0.8862
 3345SOL    HW121668   2.745   3.627   3.800  0.0697  2.2820 -2.6361
 3345SOL    HW221669   2.841   3.530   3.834  1.3384 -1.1423 -2.6504
 3346SOL     OW21670   2.331   4.020  16.673 -0.5779 -0.1888  0.5841
 3346SOL    HW121671   2.380   3.943  16.643 -0.9239 -0.8237  1.6434
 3346SOL    HW221672   2.327   4.001  16.767 -2.3426  0.8521  0.7208
 3347SOL     OW21673   0.500   3.615   2.664 -0.0148  0.4401  0.4468
 3347SOL    HW121674   0.576   3.600   2.719  0.9744 -2.1637 -1.6244
 3347SOL    HW221675   0.453   3.539   2.697 -1.1368  1.1621  0.5154
 3348SOL     OW21676   1.990   2.109   3.958  0.6533  0.1856 -0.1123
 3348SOL    HW121677   1.960   2.031   4.003 -0.4420 -0.3538 -1.7733
 3348SOL    HW221678   2.073   2.078   3.923  1.4144  0.9653  1.0089
 3349SOL     OW21679   3.788   2.685   5.076  0.2810 -0.2788 -0.0157
 3349SOL    HW121680   3.852   2.692   5.147  1.3879  2.1326 -1.2578
 3349SOL    HW221681   3.775   2.780   5.068 -2.9602 -0.6903  0.1460
 3350SOL     OW21682   1.687   1.151   4.732  0.1140 -0.5456 -0.2697
 3350SOL    HW121683   1.676   1.060   4.758 -3.8190 -0.6568 -2.2740
 3350SOL    HW221684   1.751   1.152   4.661 -1.6573  1.5955 -1.8615
 3351SOL     OW21685   2.822   1.000  12.916 -0.5254  0.8167 -0.1722
 3351SOL    HW121686   2.754   0.978  12.853 -0.6179 -1.3789  0.6891
 3351SOL    HW221687   2.868   1.071  12.872  2.8475  0.0857  2.1438
 3352SOL     OW21688   2.505   2.568   2.662 -0.2667 -0.3212 -0.0621
 3352SOL    HW121689   2.502   2.660   2.636 -1.3243 -0.5285 -0.6866
 3352SOL    HW221690   2.478   2.574   2.753 -0.5842 -0.0139 -0.1735
 3353SOL     OW21691   2.044   0.659   7.287 -0.5703  0.3540  0.4209
 3353SOL    HW121692   1.964   0.644   7.236  0.0604 -1.2671 -0.0913
 3353SOL    HW221693   2.108   0.623   7.226 -0.2908  1.9717 -0.2398
 3354SOL     OW21694   4.298   3.363  15.979 -0.1000 -0.3592 -0.6431
 3354SOL    HW121695   4.345   3.292  15.936 -0.0232 -1.1615  0.7637
 3354SOL    HW221696   4.269   3.407  15.899 -1.2729 -0.4287 -0.2665
 3355SOL     OW21697   0.976   1.096   4.735  0.0418 -0.0548 -0.4412
 3355SOL    HW121698   0.984   1.023   4.796 -0.4110  1.7156  1.7204
 3355SOL    HW221699   0.998   1.052   4.653 -0.7900  0.6366 -1.0376
 3356SOL     OW21700   0.293   2.227   4.117  0.1927  0.2421  0.2626
 3356SOL    HW121701   0.342   2.300   4.157 -0.0108  0.8639 -0.6118
 3356SOL    HW221702   0.227   2.213   4.185  1.0625  0.5202  1.1623
 3357SOL     OW21703   3.234   1.971   7.496 -0.0740  0.4376  0.1481
 3357SOL    HW121704   3.315   1.955   7.449  0.7378 -0.1611  1.7595
 3357SOL    HW221705   3.234   1.906   7.566  1.0071 -1.0597 -1.2384
 3358SOL     OW21706   4.391   0.211   2.637 -0.3503  0.6502  0.6237
 3358SOL    HW121707   4.420   0.238   2.550 -2.0479  0.7120  0.0785
 3358SOL    HW221708   4.471   0.245   2.676  0.8782  0.1156 -1.4441
 3359SOL     OW21709   3.225   4.652  12.095 -0.0981 -0.4151  0.1113
 3359SOL    HW121710   3.305   4.697  12.071 -0.6802  0.2419 -0.6130
 3359SOL    HW221711   3.261   4.571  12.131  1.4334 -0.4689 -1.5495
 3360SOL     OW21712   3.532   3.383   2.654  0.1067 -0.1290  0.5521
 3360SOL    HW121713   3.552   3.303   2.703 -2.3460 -0.8155  0.4094
 3360SOL    HW221714   3.442   3.400   2.681  0.1270  3.1376 -1.4676
 3361SOL     OW21715   3.353   0.308   5.576  0.0221 -0.0448  0.2446
 3361SOL    HW121716   3.389   0.396   5.591  0.3994  0.0198 -1.0206
 3361SOL    HW221717   3.426   0.269   5.527  0.0579  0.7066 -0.3071
 3362SOL     OW21718   4.495   1.382   6.167  0.2137  0.2128 -0.0218
 3362SOL    HW121719   4.402   1.356   6.166 -0.7030  3.4426  2.5623
 3362SOL    HW221720   4.531   1.304   6.124  0.4466  1.6289 -2.3820
 3363SOL     OW21721   4.634   1.600  14.103 -0.3503 -0.7336  0.5256
 3363SOL    HW121722   4.547   1.569  14.126 -0.5293 -1.3968 -1.0344
 3363SOL    HW221723   4.657   1.555  14.021  0.2064 -0.0928  0.3314
 3364SOL     OW21724   2.426   0.953   7.613  0.4186 -0.0909  0.6318
 3364SOL    HW121725   2.504   0.942   7.668 -0.5339 -0.5686  1.8666
 3364SOL    HW221726   2.472   0.990   7.537 -0.1528  0.8659  0.7467
 3365SOL     OW21727   2.099   0.403  17.669  0.0854 -0.3940 -0.4436
 3365SOL    HW121728   2.157   0.327  17.662 -0.2239 -0.6035 -0.7625
 3365SOL    HW221729   2.022   0.382  17.722  0.6779  0.1918  0.6581
 3366SOL     OW21730   2.247   3.012   7.119 -0.3608 -0.6462  0.0272
 3366SOL    HW121731   2.195   2.931   7.117 -3.1685  1.1733 -0.6584
 3366SOL    HW221732   2.207   3.040   7.202  2.7381  0.1663  1.2262
 3367SOL     OW21733   3.153   2.143   1.007 -0.2537  0.3279 -0.2089
 3367SOL    HW121734   3.174   2.185   0.923  2.3251  0.4651  0.5078
 3367SOL    HW221735   3.137   2.225   1.055 -0.0855  1.4531 -2.0691
 3368SOL     OW21736   3.418   1.211   7.617 -0.5833 -0.1010  0.3423
 3368SOL    HW121737   3.343   1.189   7.562  0.5574  0.3976 -1.4455
 3368SOL    HW221738   3.379   1.236   7.701 -0.6822  2.5737 -0.4951
 3369SOL     OW21739   4.736   0.382   4.195  0.4910 -0.2073 -0.2031
 3369SOL    HW121740   4.683   0.441   4.249 -0.8467 -0.3812 -1.3286
 3369SOL    HW221741   4.705   0.429   4.117  4.0726  1.0062 -0.8863
 3370SOL     OW21742   1.170   3.359   2.324  0.6600  0.8273 -0.4500
 3370SOL    HW121743   1.227   3.407   2.384  1.5305 -0.7484 -0.0034
 3370SOL    HW221744   1.142   3.281   2.373 -0.7470  0.5266 -1.7609
 3371SOL     OW21745   3.313   1.698   2.208 -0.3289 -0.5660  0.2060
 3371SOL    HW121746   3.303   1.689   2.113 -3.1568 -1.2016  0.5614
 3371SOL    HW221747   3.223   1.716   2.234  0.5115  1.9252  1.3663
 3372SOL     OW21748   2.642   2.402   7.458  0.1308 -0.5468 -0.1300
 3372SOL    HW121749   2.694   2.446   7.390  0.9437 -1.4736 -0.1121
 3372SOL    HW221750   2.699   2.422   7.533 -2.0317  1.7876  0.9064
 3373SOL     OW21751   4.247   1.358   6.385  0.2365  0.2509  0.2119
 3373SOL    HW121752   4.240   1.397   6.298  1.6784  2.0990  0.9256
 3373SOL    HW221753   4.159   1.369   6.421 -0.6936 -0.6892 -1.7545
 3374SOL     OW21754   4.081   0.597   2.143  0.5523  0.0834  0.3605
 3374SOL    HW121755   4.147   0.612   2.210 -0.3581  1.0184  1.0653
 3374SOL    HW221756   4.100   0.505   2.125  1.8707  0.1799  1.3053
 3375SOL     OW21757   1.087   1.546  16.963 -0.1055  0.0852 -0.5534
 3375SOL    HW121758   1.019   1.555  16.896 -1.1075  4.1158  0.9933
 3375SOL    HW221759   1.085   1.626  17.016  1.6516  0.2748 -0.7949
 3376SOL     OW21760   0.163   4.398  14.203  0.2336 -0.0676  0.5087
 3376SOL    HW121761   0.145   4.349  14.284 -0.0087 -3.0342 -1.3465
 3376SOL    HW221762   0.096   4.466  14.195  1.7116  1.0826 -1.9451
 3377SOL     OW21763   4.006   1.056   2.532  0.2697  0.1872  0.8384
 3377SOL    HW121764   3.975   1.119   2.467  0.0191  1.6314  2.3516
 3377SOL    HW221765   3.991   1.102   2.615  1.1756 -0.4881  1.3668
 3378SOL     OW21766   1.761   4.555   8.773 -0.1177  0.5459 -0.0894
 3378SOL    HW121767   1.804   4.469   8.782 -0.0284  0.8266  2.2992
 3378SOL    HW221768   1.671   4.526   8.782  0.1615 -0.4611 -0.5003
 3379SOL     OW21769   3.341   2.611   7.442  0.1564 -0.4811  0.4466
 3379SOL    HW121770   3.329   2.593   7.349 -1.6991 -0.5259  0.6949
 3379SOL    HW221771   3.416   2.670   7.432 -0.2681 -0.0806 -0.3777
 3380SOL     OW21772   3.507   1.117   2.349  0.2045 -0.1349  0.0291
 3380SOL    HW121773   3.546   1.128   2.262 -1.2991  0.4299 -0.5832
 3380SOL    HW221774   3.578   1.106   2.412  1.0675  0.1154 -0.9030
 3381SOL     OW21775   4.030   0.164   3.886  0.4615 -0.4266 -0.0675
 3381SOL    HW121776   3.955   0.210   3.924  0.4153 -1.4891  1.1333
 3381SOL    HW221777   4.044   0.213   3.805 -0.1905 -0.2282 -0.0604
 3382SOL     OW21778   4.166   2.042   2.485  0.1318 -0.0319  0.0102
 3382SOL    HW121779   4.165   1.957   2.441  1.5184 -0.2877  0.4620
 3382SOL    HW221780   4.113   2.028   2.564  0.0046 -0.9216 -0.2364
 3383SOL     OW21781   2.361   4.635   2.950 -0.3560 -0.4083  0.0870
 3383SOL    HW121782   2.317   4.697   2.892 -0.2732 -0.1313  0.3178
 3383SOL    HW221783   2.409   4.700   3.001  0.1891 -0.8256  0.1147
 3384SOL     OW21784   3.121   4.487   6.833  0.4160  0.2112  0.2835
 3384SOL    HW121785   3.154   4.541   6.762 -1.9930  1.2281 -0.0449
 3384SOL    HW221786   3.027   4.504   6.843  1.2442  1.6489  5.3927
 3385SOL     OW21787   4.316   4.009  12.947 -0.0218 -0.1547 -0.5332
 3385SOL    HW121788   4.312   4.023  12.853 -1.0146 -2.8068 -0.8608
 3385SOL    HW221789   4.296   4.099  12.973 -1.3397  0.1272 -2.5780
 3386SOL     OW21790   4.153   1.687   6.372  0.6514  0.3615 -0.4282
 3386SOL    HW121791   4.231   1.631   6.371  1.0878  0.9619  0.0180
 3386SOL    HW221792   4.114   1.665   6.287  0.1736  0.4250 -0.2247
 3387SOL     OW21793   2.528   4.051   7.929 -0.0307 -0.1091  1.1707
 3387SOL    HW121794   2.546   3.981   7.866  2.1420  1.9372 -0.4773
 3387SOL    HW221795   2.567   4.026   8.012 -2.3997 -0.5602  2.1504
 3388SOL     OW21796   2.635   0.464   2.965  0.8413  0.0664  0.1572
 3388SOL    HW121797   2.557   0.475   2.910  2.7854 -1.4106 -2.9039
 3388SOL    HW221798   2.691   0.414   2.905  0.3634  1.1617 -1.2165
 3389SOL     OW21799   0.791   1.389  11.653 -0.2508 -0.4988 -0.2861
 3389SOL    HW121800   0.819   1.430  11.735 -1.5076 -0.8916  0.3313
 3389SOL    HW221801   0.797   1.297  11.677 -0.8539 -0.6606 -0.7549
 3390SOL     OW21802   4.326   0.498  10.091  0.1542 -0.0759  0.3763
 3390SOL    HW121803   4.369   0.492  10.006  0.0773  1.2471  0.2426
 3390SOL    HW221804   4.330   0.404  10.108 -0.9873  0.2317  2.4157
 3391SOL     OW21805   4.709   1.431   8.131  0.3349  0.6041  0.3302
 3391SOL    HW121806   0.065   1.432   8.110  0.3415  0.7840  0.3674
 3391SOL    HW221807   4.720   1.480   8.213 -1.3691  0.7100  0.4985
 3392SOL     OW21808   1.872   4.682   2.153  0.0471  0.1822  0.3416
 3392SOL    HW121809   1.783   4.715   2.168 -0.1658 -0.1944 -0.1117
 3392SOL    HW221810   1.904   4.699   2.242 -3.3492  2.0209  1.2303
 3393SOL     OW21811   3.913   0.708   6.191 -0.0176  0.7554 -0.2285
 3393SOL    HW121812   3.957   0.623   6.198  1.6096  1.6039 -0.2003
 3393SOL    HW221813   3.900   0.731   6.283  2.2002  0.5537  0.1357
 3394SOL     OW21814   1.928   2.902   2.996  0.5602  0.6052  0.6359
 3394SOL    HW121815   1.991   2.936   3.059  0.2980  0.3436  1.0380
 3394SOL    HW221816   1.976   2.905   2.913 -0.4432  0.7573  0.0688
 3395SOL     OW21817   3.457   4.492   1.207 -0.2532  0.7359 -0.6308
 3395SOL    HW121818   3.370   4.462   1.233 -1.4205  3.1575 -1.7645
 3395SOL    HW221819   3.515   4.435   1.257 -1.7122 -1.4223 -1.3970
 3396SOL     OW21820   1.337   0.207   9.206 -0.2140 -0.0510  0.2247
 3396SOL    HW121821   1.399   0.225   9.135 -0.3799  0.3408  0.1820
 3396SOL    HW221822   1.397   0.176   9.274  0.3794  0.4251 -0.0840
 3397SOL     OW21823   3.615   2.982   4.246 -0.2449  0.2718  0.1277
 3397SOL    HW121824   3.670   2.904   4.257 -0.6415 -0.1285 -0.7276
 3397SOL    HW221825   3.679   3.053   4.251 -1.3880  1.2088  1.5675
 3398SOL     OW21826   3.388   0.200   3.800 -0.3229  0.2993  0.0256
 3398SOL    HW121827   3.361   0.272   3.857  4.8931  1.9883  0.3763
 3398SOL    HW221828   3.317   0.199   3.736 -1.8465  1.4107  1.7128
 3399SOL     OW21829   2.102   1.464   8.096  0.4693 -0.3488 -0.1494
 3399SOL    HW121830   2.020   1.418   8.079  0.0299 -0.1051  1.3090
 3399SOL    HW221831   2.109   1.470   8.191  1.8172 -0.6689 -0.2264
 3400SOL     OW21832   3.029   2.659   9.366  0.0633 -0.2292 -0.1848
 3400SOL    HW121833   2.997   2.708   9.442 -0.3535  1.0512 -1.1880
 3400SOL    HW221834   3.121   2.655   9.390  0.4960 -2.3086 -2.2231
 3401SOL     OW21835   3.818   2.943   9.326 -0.1987 -0.3471  0.2397
 3401SOL    HW121836   3.857   2.856   9.321  1.0074  0.0952  1.8821
 3401SOL    HW221837   3.774   2.946   9.411 -0.0438 -1.9441  0.3618
 3402SOL     OW21838   2.638   0.640   6.049 -0.0984  0.2582  0.0817
 3402SOL    HW121839   2.689   0.588   6.112 -1.2642  0.0428  0.8518
 3402SOL    HW221840   2.665   0.611   5.962 -0.9200 -0.5329  0.0928
 3403SOL     OW21841   1.116   4.695   3.141 -0.2159  0.3388  0.3714
 3403SOL    HW121842   1.066   4.690   3.059  3.2472  0.1361 -1.7284
 3403SOL    HW221843   1.094   4.618   3.193  0.6002 -1.8512 -2.5386
 3404SOL     OW21844   3.553   1.406   2.099 -0.3747  0.0005  0.3140
 3404SOL    HW121845   3.587   1.473   2.040  1.6613  0.0067  1.4917
 3404SOL    HW221846   3.459   1.413   2.082 -0.4474 -0.6256  0.4479
 3405SOL     OW21847   0.171   2.287   6.988 -0.0250 -0.0423 -0.0070
 3405SOL    HW121848   0.118   2.303   7.066  1.2677 -1.7528  1.2282
 3405SOL    HW221849   0.199   2.196   7.000 -0.3477 -0.3601 -1.5185
 3406SOL     OW21850   4.173   3.785  12.822  0.3433 -0.4802  0.3965
 3406SOL    HW121851   4.112   3.813  12.755  1.6196  0.4305 -0.3813
 3406SOL    HW221852   4.259   3.791  12.779  0.9456 -3.1068  1.1886
 3407SOL     OW21853   2.076   2.229  15.741  0.6229  0.1751 -0.0056
 3407SOL    HW121854   1.988   2.227  15.779 -0.5520  1.1455 -2.7362
 3407SOL    HW221855   2.051   2.273  15.660  1.3174 -0.3336 -0.4909
 3408SOL     OW21856   2.325   4.719   4.597  0.0889  0.8000  0.1119
 3408SOL    HW121857   2.322   4.665   4.677  1.9569  2.4254  1.2651
 3408SOL    HW221858   2.395   4.670   4.556 -2.7470 -2.1003 -1.2612
 3409SOL     OW21859   4.480   4.594   7.828 -0.1098  0.0520 -0.0052
 3409SOL    HW121860   4.516   4.580   7.741  2.0676  0.2312  0.8795
 3409SOL    HW221861   4.428   4.672   7.809 -1.2331 -0.7131 -0.0731
 3410SOL     OW21862   2.904   2.566   1.475  0.0083  0.5435  0.2576
 3410SOL    HW121863   2.869   2.516   1.548 -0.3107  0.7883  0.2694
 3410SOL    HW221864   2.988   2.580   1.519  0.2559  0.5958 -0.2328
 3411SOL     OW21865   3.605   0.112   5.756 -0.0706 -0.8149 -0.4537
 3411SOL    HW121866   3.694   0.123   5.790 -0.0913 -1.3546 -0.2290
 3411SOL    HW221867   3.562   0.171   5.818 -1.0550  0.6551 -2.5073
 3412SOL     OW21868   3.166   4.347  15.970 -0.2135  0.3735  0.6337
 3412SOL    HW121869   3.155   4.309  16.058  2.0567  0.4358  0.9360
 3412SOL    HW221870   3.159   4.273  15.909 -4.4743  0.2880  1.2360
 3413SOL     OW21871   2.574   3.245  10.881 -0.3147 -0.3262 -0.2471
 3413SOL    HW121872   2.508   3.285  10.824 -0.8271  0.1553  0.6941
 3413SOL    HW221873   2.642   3.312  10.871 -0.0390 -0.3263  1.7699
 3414SOL     OW21874   1.334   3.442   4.353  0.0225 -0.5987 -0.3757
 3414SOL    HW121875   1.241   3.462   4.345 -0.1469 -0.5832  1.4447
 3414SOL    HW221876   1.371   3.520   4.395 -0.6914  0.3496 -1.4863
 3415SOL     OW21877   1.681   0.586   4.313 -0.3095 -0.0028 -0.2061
 3415SOL    HW121878   1.665   0.529   4.237 -1.1295  0.7268 -0.5731
 3415SOL    HW221879   1.627   0.662   4.294 -0.2021  0.9989  3.5685
 3416SOL     OW21880   4.179   3.434   5.742  0.0559  0.2372 -0.3639
 3416SOL    HW121881   4.171   3.350   5.787 -0.7283  0.7668  0.4754
 3416SOL    HW221882   4.119   3.423   5.668 -1.3117  1.1601  0.6076
 3417SOL     OW21883   4.452   2.072   5.117  0.3209 -0.3539  0.8598
 3417SOL    HW121884   4.358   2.091   5.119 -0.1769 -2.8307  0.6211
 3417SOL    HW221885   4.488   2.159   5.135 -1.3145  0.5474 -0.0990
 3418SOL     OW21886   0.067   1.399   7.344 -0.0581  0.0811  0.0210
 3418SOL    HW121887   0.107   1.460   7.406 -1.2648  2.6655 -1.7010
 3418SOL    HW221888   0.037   1.454   7.271  3.9055  1.2841 -0.6550
 3419SOL     OW21889   0.553   2.683  13.445 -0.3537 -0.6820 -0.4323
 3419SOL    HW121890   0.527   2.774  13.431  0.8941 -0.9480 -4.6809
 3419SOL    HW221891   0.608   2.683  13.523 -0.0481 -0.6645 -0.6421
 3420SOL     OW21892   3.874   0.774  15.665 -0.4051 -0.8019 -0.3422
 3420SOL    HW121893   3.814   0.748  15.595  0.3769  1.0269 -1.6917
 3420SOL    HW221894   3.806   0.791  15.730 -0.0924 -0.5749 -0.0768
 3421SOL     OW21895   0.305   4.638   7.807 -0.1871  0.1967  0.0070
 3421SOL    HW121896   0.284   4.593   7.888 -0.4346  0.0161 -0.1590
 3421SOL    HW221897   0.265   4.591   7.734 -1.5333 -0.3246  1.0896
 3422SOL     OW21898   2.216   0.753   5.173  0.3223  0.3008  0.1359
 3422SOL    HW121899   2.182   0.668   5.202  1.0940  0.4668  1.4949
 3422SOL    HW221900   2.177   0.812   5.237  0.6738  1.1899 -0.4779
 3423SOL     OW21901   0.850   3.749   5.948 -0.0710  1.1281  0.0664
 3423SOL    HW121902   0.918   3.682   5.954 -0.9259  0.1846 -0.8642
 3423SOL    HW221903   0.796   3.726   6.024 -0.6908 -0.3262 -0.7944
 3424SOL     OW21904   3.670   3.840   8.335  0.5255  0.2267 -0.2181
 3424SOL    HW121905   3.665   3.748   8.308 -0.4496  0.0972  0.3886
 3424SOL    HW221906   3.601   3.881   8.283 -0.1407  0.2279  0.6629
 3425SOL     OW21907   4.410   2.201   6.212  0.2874 -0.1216 -1.1036
 3425SOL    HW121908   4.489   2.181   6.162  1.2379 -0.7602  0.6521
 3425SOL    HW221909   4.439   2.200   6.304 -1.8182  1.6420 -0.4009
 3426SOL     OW21910   0.936   1.649   3.532 -0.2764 -0.6545  0.0417
 3426SOL    HW121911   0.885   1.584   3.484 -2.0247  0.8393 -0.1452
 3426SOL    HW221912   0.867   1.675   3.593 -0.8960  1.3019 -1.4794
 3427SOL     OW21913   2.955   4.453   7.265  0.2859 -0.7121 -0.0302
 3427SOL    HW121914   3.047   4.477   7.278 -0.6170  2.5142  0.3657
 3427SOL    HW221915   2.945   4.422   7.355 -2.4607 -0.3904 -0.2100
 3428SOL     OW21916   3.353   3.892   4.273 -0.8143  0.0522 -0.0895
 3428SOL    HW121917   3.443   3.888   4.240 -0.6466 -0.5932  0.4413
 3428SOL    HW221918   3.366   3.874   4.366 -0.3157 -0.5108 -0.2665
 3429SOL     OW21919   3.047   1.303  13.380  0.2038 -0.5303 -0.0514
 3429SOL    HW121920   2.963   1.330  13.416  0.6615  1.3189 -0.4091
 3429SOL    HW221921   3.093   1.253  13.448 -0.4754 -2.3827 -0.9415
 3430SOL     OW21922   3.537   2.958   3.975  0.0866 -0.0655  0.0606
 3430SOL    HW121923   3.621   3.002   3.961  1.1459 -2.3973 -0.9849
 3430SOL    HW221924   3.526   2.986   4.066  0.2682  0.7504 -0.1696
 3431SOL     OW21925   0.947   3.127   5.275 -0.8552 -0.7258  0.0578
 3431SOL    HW121926   0.976   3.184   5.203 -0.5533 -1.3843 -0.3397
 3431SOL    HW221927   0.889   3.065   5.230 -1.3582  1.9037 -2.9641
 3432SOL     OW21928   0.544   0.554   1.985 -0.3507  0.2069 -0.1071
 3432SOL    HW121929   0.502   0.555   1.899 -0.4093  0.7504 -0.0720
 3432SOL    HW221930   0.570   0.462   1.975  0.8280  0.5528 -0.1940
 3433SOL     OW21931   1.120   1.613  15.456  0.1407 -0.3115  0.1383
 3433SOL    HW121932   1.195   1.670  15.438 -1.1423  1.0253 -0.9759
 3433SOL    HW221933   1.173   1.544  15.495  0.3783  0.4407  1.1395
 3434SOL     OW21934   4.726   2.524   7.108  0.6982 -0.0557  0.0408
 3434SOL    HW121935   4.696   2.591   7.169 -1.8516 -2.5039  1.4977
 3434SOL    HW221936   0.083   2.540   7.115  0.6875  1.8160 -3.8784
 3435SOL     OW21937   4.444   1.079   6.318  0.3290 -0.3408  0.0082
 3435SOL    HW121938   4.421   1.013   6.384 -1.8108  0.8982  0.4865
 3435SOL    HW221939   4.444   1.161   6.368  0.6050 -0.7230  0.6416
 3436SOL     OW21940   4.360   3.682   3.475  0.4213 -0.6830  0.5747
 3436SOL    HW121941   4.281   3.644   3.438  0.5071 -1.1913  0.9215
 3436SOL    HW221942   4.426   3.624   3.437 -0.8506  0.3925 -3.2687
 3437SOL     OW21943   0.194   4.658   0.352 -0.3878 -0.8250 -0.0507
 3437SOL    HW121944   0.138   4.631   0.425 -1.2128  0.4858 -0.2003
 3437SOL    HW221945   0.172   0.013   0.351  1.6327 -0.3482 -0.1304
 3438SOL     OW21946   3.712   4.552   8.846  0.1903 -0.1890 -0.0902
 3438SOL    HW121947   3.700   4.565   8.940 -0.0305 -1.0129 -0.0016
 3438SOL    HW221948   3.666   4.469   8.831 -0.3604  0.1392 -0.2081
 3439SOL     OW21949   1.384   2.834   1.424 -0.1437  0.2010 -0.8383
 3439SOL    HW121950   1.447   2.766   1.402 -0.4446 -0.6604  0.9843
 3439SOL    HW221951   1.376   2.835   1.520  0.9742  0.9209 -0.7510
 3440SOL     OW21952   1.945   1.591  10.298  0.3095 -0.2616  0.0762
 3440SOL    HW121953   1.895   1.532  10.241 -0.4151 -1.5986  2.0963
 3440SOL    HW221954   2.004   1.525  10.333  1.4757  0.0224 -1.3899
 3441SOL     OW21955   3.281   2.270   3.952 -0.3573 -0.4327 -0.0374
 3441SOL    HW121956   3.347   2.250   4.018 -0.5500  0.0603  0.3001
 3441SOL    HW221957   3.301   2.208   3.882  3.2720  0.6228  0.0925
 3442SOL     OW21958   1.086   4.089   2.861  0.5718  0.6591 -0.3200
 3442SOL    HW121959   1.144   4.028   2.906 -2.3937  0.4914  3.3315
 3442SOL    HW221960   1.121   4.094   2.772  1.4505  2.6134  0.1555
 3443SOL     OW21961   2.003   3.762  13.312  0.0057 -0.4456  0.1496
 3443SOL    HW121962   2.068   3.817  13.355 -0.3942 -1.8569  2.6125
 3443SOL    HW221963   1.987   3.702  13.386  0.8111  0.9453  1.4603
 3444SOL     OW21964   3.594   0.089   7.077 -0.3157  0.8216 -0.1369
 3444SOL    HW121965   3.618   0.069   6.987  1.4820 -0.6644  0.6502
 3444SOL    HW221966   3.652   0.040   7.136 -0.8805  1.1005  0.6603
 3445SOL     OW21967   3.599   0.843   8.813 -0.1196 -0.6321  0.2599
 3445SOL    HW121968   3.515   0.862   8.855  0.5356 -0.7175  1.6162
 3445SOL    HW221969   3.642   0.797   8.885  0.9557 -0.1429 -0.0656
 3446SOL     OW21970   0.688   4.174   2.570 -0.3568  0.6279 -0.3450
 3446SOL    HW121971   0.718   4.222   2.647  4.3858 -1.4619 -0.8877
 3446SOL    HW221972   0.753   4.105   2.559  0.3198  1.0698  0.9401
 3447SOL     OW21973   2.669   2.521   9.506  0.3922  0.2461  0.3036
 3447SOL    HW121974   2.699   2.606   9.539 -2.3375  1.4570 -0.2468
 3447SOL    HW221975   2.574   2.536   9.499  0.5822 -0.2430 -3.0825
 3448SOL     OW21976   2.960   4.280   0.011  0.0386 -0.2235  0.3017
 3448SOL    HW121977   2.993   4.191   0.009  0.4132 -0.0544 -0.8467
 3448SOL    HW221978   2.890   4.280  17.693  0.9366  2.2035 -0.6648
 3449SOL     OW21979   3.349   2.239   3.025  0.1449  0.7511  0.7120
 3449SOL    HW121980   3.332   2.282   3.108  1.1032  1.5706  0.4849
 3449SOL    HW221981   3.261   2.243   2.988  0.2763 -1.9466  0.0696
 3450SOL     OW21982   3.113   2.326  10.282 -0.0126  0.2220 -0.3183
 3450SOL    HW121983   3.041   2.310  10.221 -0.7039 -0.4777  0.6968
 3450SOL    HW221984   3.114   2.422  10.288  0.7947  0.2104 -0.3039
 3451SOL     OW21985   1.617   0.736  14.752 -0.4744  0.6509  0.6857
 3451SOL    HW121986   1.651   0.800  14.689  3.1820 -1.0283  0.9066
 3451SOL    HW221987   1.588   0.663  14.696 -2.3386 -0.3254  2.9272
 3452SOL     OW21988   4.446   0.944   4.096  0.7048  0.2513  0.3486
 3452SOL    HW121989   4.407   1.028   4.117 -0.6060  0.0427 -1.2269
 3452SOL    HW221990   4.530   0.977   4.063 -0.9353  2.0230 -2.0634
 3453SOL     OW21991   4.114   1.976   6.645  0.3658 -0.2502  0.0858
 3453SOL    HW121992   4.155   2.011   6.724 -2.1534 -0.8482  1.6493
 3453SOL    HW221993   4.115   1.882   6.663 -0.0318  0.2768  2.9322
 3454SOL     OW21994   2.346   0.848   4.693  0.5535  0.4918 -0.1068
 3454SOL    HW121995   2.313   0.937   4.702  0.6549  0.2475  2.5290
 3454SOL    HW221996   2.293   0.801   4.757 -0.4194  1.1770 -0.4246
 3455SOL     OW21997   2.750   3.422   8.504  0.3318 -0.8659  0.6559
 3455SOL    HW121998   2.674   3.401   8.450  1.2227  1.5409 -1.5121
 3455SOL    HW221999   2.783   3.336   8.529  3.7322 -0.6505 -3.2850
 3456SOL     OW22000   0.705   1.920   1.005 -0.0214 -0.2980  0.0301
 3456SOL    HW122001   0.659   1.996   0.970  3.7829  0.9547 -2.2285
 3456SOL    HW222002   0.756   1.954   1.078  0.8668 -0.5889 -0.4584
 3457SOL     OW22003   4.034   3.114   1.917  0.3021 -0.0572  0.2759
 3457SOL    HW122004   4.000   3.031   1.950 -3.1336 -0.7109 -4.9238
 3457SOL    HW222005   4.121   3.085   1.888  0.3338  0.2449  0.0663
 3458SOL     OW22006   2.378   3.597   3.955 -0.6199 -0.0428 -0.5932
 3458SOL    HW122007   2.304   3.581   4.014 -0.4599  0.4093 -0.2643
 3458SOL    HW222008   2.339   3.616   3.870  1.8834  0.6498 -1.5737
 3459SOL     OW22009   2.917   0.633   7.437 -0.0412  0.1785  0.3180
 3459SOL    HW122010   2.901   0.614   7.344  1.7318 -0.1832  0.0882
 3459SOL    HW222011   2.835   0.676   7.461 -0.6534 -0.6664 -0.2549
 3460SOL     OW22012   3.510   2.332   0.654  0.4294 -0.1198  0.2052
 3460SOL    HW122013   3.428   2.356   0.698  0.2241  0.3725 -0.4442
 3460SOL    HW222014   3.501   2.364   0.564  0.2754 -2.1734 -0.5035
 3461SOL     OW22015   2.258   2.664   5.152 -0.2426  0.1934  0.3474
 3461SOL    HW122016   2.296   2.628   5.072 -0.4850  2.8593 -0.9661
 3461SOL    HW222017   2.293   2.619   5.229  1.4630 -0.6578 -0.9392
 3462SOL     OW22018   2.224   1.906  15.210 -0.0164  0.1750  0.0660
 3462SOL    HW122019   2.240   1.821  15.170 -1.3116  0.4613 -1.0576
 3462SOL    HW222020   2.226   1.880  15.302 -2.1404  0.9789  0.3299
 3463SOL     OW22021   3.985   4.138   3.462 -0.3509 -0.5449  0.7027
 3463SOL    HW122022   3.935   4.115   3.383  1.2669 -2.1279  0.1401
 3463SOL    HW222023   3.913   4.149   3.524 -1.8218 -0.4427 -0.9940
 3464SOL     OW22024   0.061   4.199  16.506 -0.0078  0.0993 -0.5183
 3464SOL    HW122025   4.703   4.207  16.511 -0.0048 -0.9024  0.9940
 3464SOL    HW222026   0.075   4.152  16.588 -2.0640  1.2882  0.5367
 3465SOL     OW22027   3.236   1.150  15.918 -0.4273 -0.1778  0.0588
 3465SOL    HW122028   3.291   1.085  15.874 -2.1196 -1.6765  0.1923
 3465SOL    HW222029   3.217   1.106  16.000 -0.0364  1.1695  0.8874
 3466SOL     OW22030   2.410   3.531   6.902 -0.4363  0.1620  0.1702
 3466SOL    HW122031   2.365   3.475   6.965 -1.0158  0.1252 -0.2788
 3466SOL    HW222032   2.364   3.505   6.822 -0.7601 -1.8146  1.0039
 3467SOL     OW22033   3.452   3.038   0.782  0.7115  0.4196  0.1357
 3467SOL    HW122034   3.419   3.117   0.738 -1.5300  0.0291  1.1285
 3467SOL    HW222035   3.525   3.019   0.723 -0.7708  1.1539 -1.9286
 3468SOL     OW22036   1.633   1.602   0.487  0.0142  0.1664  0.4024
 3468SOL    HW122037   1.601   1.519   0.452  2.5318 -0.4679 -0.3535
 3468SOL    HW222038   1.557   1.644   0.529 -0.9221 -2.3488  1.2289
 3469SOL     OW22039   3.316   1.104   8.697  0.1966  0.2301 -0.6810
 3469SOL    HW122040   3.271   1.188   8.695 -2.0733 -0.8923  2.7829
 3469SOL    HW222041   3.263   1.050   8.756  1.6310  1.8910  2.1721
 3470SOL     OW22042   4.687   0.981   7.170 -0.0660  0.7115  0.1113
 3470SOL    HW122043   4.696   0.984   7.075  2.3895 -1.4103  0.2825
 3470SOL    HW222044   4.652   1.070   7.179 -0.1448  0.8370 -1.4300
 3471SOL     OW22045   3.443   1.328   4.121  0.8222  0.5890 -0.2769
 3471SOL    HW122046   3.360   1.337   4.168  1.3526  0.0006  0.7815
 3471SOL    HW222047   3.420   1.250   4.070 -0.7943 -0.1558  1.5950
 3472SOL     OW22048   1.898   0.280   6.203 -0.1828 -0.2697  0.0399
 3472SOL    HW122049   1.833   0.315   6.142  0.0853 -0.2971 -0.2636
 3472SOL    HW222050   1.841   0.221   6.253 -1.7682  1.3996  0.2006
 3473SOL     OW22051   2.291   2.560   3.963 -0.1272  0.3259  0.2229
 3473SOL    HW122052   2.221   2.592   4.019 -1.0982  0.8127 -1.2668
 3473SOL    HW222053   2.271   2.467   3.951  1.2325 -0.2178  2.0701
 3474SOL     OW22054   1.174   1.955   5.046 -0.1336  0.1561  0.2601
 3474SOL    HW122055   1.256   1.907   5.061 -0.8892 -1.0431  0.5384
 3474SOL    HW222056   1.177   1.976   4.953 -2.3876  1.6556  0.5306
 3475SOL     OW22057   3.847   3.142  11.522 -0.1382  0.7009  0.1408
 3475SOL    HW122058   3.773   3.122  11.465  1.3769  0.3479 -1.7014
 3475SOL    HW222059   3.800   3.133  11.605 -2.8045 -2.0434 -1.6602
 3476SOL     OW22060   2.113   0.159   6.413  0.1775  0.5697 -0.2571
 3476SOL    HW122061   2.117   0.063   6.410  0.2225  0.5303  1.1044
 3476SOL    HW222062   2.049   0.174   6.483  2.2860 -0.1849  1.8397
 3477SOL     OW22063   1.349   2.482   4.987 -0.0092  0.0995 -0.0351
 3477SOL    HW122064   1.325   2.566   5.026  0.4396 -0.2151  0.9111
 3477SOL    HW222065   1.427   2.464   5.039  0.0886  1.1154  0.1567
 3478SOL     OW22066   3.954   0.015   4.327  0.1204 -0.6217 -0.1325
 3478SOL    HW122067   4.048   4.736   4.314 -0.4873 -2.3689 -2.3320
 3478SOL    HW222068   3.964   0.109   4.343  1.2979 -0.5910 -1.0604
 3479SOL     OW22069   2.488   4.103   8.269  0.4118 -0.4659  0.1039
 3479SOL    HW122070   2.457   4.177   8.217 -2.1242 -0.3024  1.8460
 3479SOL    HW222071   2.436   4.027   8.243  0.8053 -0.0489 -1.8868
 3480SOL     OW22072   3.305   1.125   6.433  0.1113 -0.3619  0.1159
 3480SOL    HW122073   3.368   1.196   6.421 -0.6526  0.1637 -0.7325
 3480SOL    HW222074   3.248   1.183   6.483 -0.1278 -0.2146 -0.3264
 3481SOL     OW22075   2.054   1.801   3.797  0.1765 -0.0439  0.1241
 3481SOL    HW122076   2.011   1.833   3.876 -0.8971 -1.2910  0.0502
 3481SOL    HW222077   2.097   1.723   3.833  1.9149  1.3193  0.9835
 3482SOL     OW22078   1.133   0.471   3.498 -0.1924 -0.6245  0.3940
 3482SOL    HW122079   1.129   0.564   3.520  1.5433 -0.2425 -0.8937
 3482SOL    HW222080   1.225   0.448   3.506  0.6600  2.1942 -1.1953
 3483SOL     OW22081   1.243   4.443   2.849 -0.0013  0.0641 -0.3895
 3483SOL    HW122082   1.305   4.454   2.920 -0.9287  1.1485  0.2456
 3483SOL    HW222083   1.272   4.507   2.784  1.1749 -0.5524 -0.4770
 3484SOL     OW22084   0.305   2.326   5.173  0.2018 -0.4921 -0.5673
 3484SOL    HW122085   0.276   2.386   5.104  1.5823 -0.7696 -1.3776
 3484SOL    HW222086   0.348   2.396   5.222  0.5999 -1.1060 -0.0513
 3485SOL     OW22087   0.632   3.971  16.449 -0.0193  0.4899 -0.5077
 3485SOL    HW122088   0.546   3.978  16.491  0.4407  0.4223  0.4582
 3485SOL    HW222089   0.640   4.065  16.432  0.2419  0.3329 -1.2454
 3486SOL     OW22090   0.623   3.953   6.068  0.0916 -0.0455  0.1980
 3486SOL    HW122091   0.647   4.018   6.134 -1.8348  1.7516 -0.8643
 3486SOL    HW222092   0.662   4.004   5.997  1.1650 -0.7180  0.3004
 3487SOL     OW22093   0.441   4.399   2.860  0.1429 -0.6580 -0.3412
 3487SOL    HW122094   0.351   4.371   2.875  0.0147 -0.9191 -1.6308
 3487SOL    HW222095   0.442   4.426   2.769  0.1407  0.5195  0.0118
 3488SOL     OW22096   4.549   0.736   3.506  0.3283  0.2609  0.3207
 3488SOL    HW122097   4.613   0.749   3.436  1.5710 -0.7190  1.2808
 3488SOL    HW222098   4.470   0.731   3.453 -0.6623 -0.1682  1.8604
 3489SOL     OW22099   4.335   4.710   9.081  0.0994 -0.5347  0.3829
 3489SOL    HW122100   4.292   4.681   9.001  2.0393 -0.1129 -0.8222
 3489SOL    HW222101   4.264   4.719   9.145 -0.9991 -2.0214 -0.6320
 3490SOL     OW22102   4.482   0.022   6.016 -0.1860 -0.0554 -0.2293
 3490SOL    HW122103   4.479   0.086   5.944  0.8440 -0.6111 -0.7708
 3490SOL    HW222104   4.495   4.673   5.976 -0.1479 -0.2418  0.1871
 3491SOL     OW22105   2.674   2.107   0.561  0.2176  0.3086  0.7276
 3491SOL    HW122106   2.761   2.078   0.536 -0.1531 -0.5014  0.3660
 3491SOL    HW222107   2.678   2.198   0.589  1.0962  0.4237  0.2078
 3492SOL     OW22108   0.495   1.900  16.532  0.1841  0.1332  0.4737
 3492SOL    HW122109   0.508   1.829  16.594  0.2678  0.8199  1.2420
 3492SOL    HW222110   0.431   1.863  16.471  2.6066  0.4991 -2.3458
 3493SOL     OW22111   0.361   3.061   6.105  0.1366 -0.0093 -0.0233
 3493SOL    HW122112   0.355   3.149   6.069  1.1629  0.0546 -0.0188
 3493SOL    HW222113   0.397   3.072   6.193  2.5111 -1.3059 -0.8271
 3494SOL     OW22114   4.080   3.974   2.920  0.3215 -0.0735  0.4089
 3494SOL    HW122115   4.109   3.956   3.009 -2.1113 -1.1426  0.9785
 3494SOL    HW222116   3.999   3.924   2.930  1.6033 -1.8986  1.6775
 3495SOL     OW22117   2.868   4.524   0.144 -0.1498 -0.1021 -0.8518
 3495SOL    HW122118   2.873   4.515   0.049 -2.3115  2.7115 -1.2324
 3495SOL    HW222119   2.957   4.513   0.177 -0.4556  1.9566  0.6866
 3496SOL     OW22120   0.332   2.308   3.791  0.0522  0.4159  0.3339
 3496SOL    HW122121   0.353   2.290   3.699 -2.8761  0.7461 -0.4028
 3496SOL    HW222122   0.402   2.363   3.825  1.3485 -1.6832  1.0642
 3497SOL     OW22123   3.620   3.069   3.016  0.0045 -0.0898 -0.0973
 3497SOL    HW122124   3.531   3.103   3.012 -0.8606 -2.5689 -1.4643
 3497SOL    HW222125   3.665   3.135   2.964  0.4096  0.0628  0.4413
 3498SOL     OW22126   3.838   0.964   8.522  0.0157  0.2636 -0.5063
 3498SOL    HW122127   3.765   1.014   8.557  1.3957  0.5276  2.0504
 3498SOL    HW222128   3.807   0.873   8.518 -1.0083  0.6654 -1.5557
 3499SOL     OW22129   2.790   2.760   5.408 -0.1090  0.1171  0.0404
 3499SOL    HW122130   2.819   2.678   5.447  1.6944  0.6784 -0.1266
 3499SOL    HW222131   2.698   2.738   5.399 -0.1066  0.5627 -1.1477
 3500SOL     OW22132   2.053   2.428   9.960  0.0554  0.6132 -0.2139
 3500SOL    HW122133   2.104   2.375   9.899 -2.3563 -2.7684  0.7394
 3500SOL    HW222134   2.086   2.516   9.939 -1.0757  0.9088 -0.7878
 3501SOL     OW22135   2.362   0.629   0.396 -0.2321  0.1203  0.0443
 3501SOL    HW122136   2.271   0.600   0.396 -0.3375  0.4252  1.6707
 3501SOL    HW222137   2.339   0.706   0.450  0.1442  0.2146  0.0677
 3502SOL     OW22138   4.003   0.891   9.075 -0.0268 -0.1299  0.4924
 3502SOL    HW122139   4.010   0.981   9.106  1.1407  1.0056 -3.0722
 3502SOL    HW222140   4.005   0.897   8.980  0.5015 -2.0578  0.3743
 3503SOL     OW22141   3.843   1.053  10.809  0.4357 -0.1178 -0.1596
 3503SOL    HW122142   3.922   1.085  10.854  0.7572 -0.6001 -0.3886
 3503SOL    HW222143   3.852   0.958  10.804 -1.1175 -0.1984 -1.3176
 3504SOL     OW22144   3.601   3.107  14.836  0.1846  0.3231  0.5869
 3504SOL    HW122145   3.629   3.016  14.840 -0.4268  0.1749  1.3808
 3504SOL    HW222146   3.611   3.132  14.744  1.1254  2.0101  1.1357
 3505SOL     OW22147   3.140   0.698  10.272  0.2635 -0.5190 -0.1787
 3505SOL    HW122148   3.083   0.629  10.236 -1.8093 -0.4900  3.0473
 3505SOL    HW222149   3.191   0.651  10.338  1.2381 -1.2811 -1.4934
 3506SOL     OW22150   2.340   0.982   8.723 -0.4001 -0.1102 -0.1257
 3506SOL    HW122151   2.340   1.048   8.654 -2.5072 -0.2532 -0.2831
 3506SOL    HW222152   2.287   0.908   8.692 -1.6020  1.0098 -0.7599
 3507SOL     OW22153   3.344   1.761   2.598  0.5948 -0.3854  0.2706
 3507SOL    HW122154   3.355   1.672   2.565 -0.6002 -0.6752  0.6730
 3507SOL    HW222155   3.290   1.807   2.533 -0.6078 -0.2648  1.3468
 3508SOL     OW22156   3.911   1.746  14.215  0.0362  0.2272  0.1049
 3508SOL    HW122157   3.912   1.822  14.157  1.7777 -1.3195 -1.9171
 3508SOL    HW222158   3.818   1.723  14.212  0.3553 -0.8705 -1.5118
 3509SOL     OW22159   0.390   4.411   6.108  0.0917 -0.1728 -0.2337
 3509SOL    HW122160   0.310   4.382   6.065  0.2758 -1.9235  0.6408
 3509SOL    HW222161   0.355   4.396   6.196 -2.1752  0.1460 -1.0794
 3510SOL     OW22162   0.909   1.542   5.950  0.3861  0.0399 -0.5458
 3510SOL    HW122163   0.860   1.485   5.890 -0.7814  0.6852 -0.2115
 3510SOL    HW222164   0.950   1.603   5.888  0.3360  1.2395  0.6077
 3511SOL     OW22165   3.714   0.121  16.757 -0.1881  0.0088 -0.4372
 3511SOL    HW122166   3.696   0.028  16.770  0.6205 -0.0470  0.2581
 3511SOL    HW222167   3.795   0.125  16.808 -0.0358 -0.2047 -0.6629
 3512SOL     OW22168   2.587   2.918   2.071 -0.5846  0.2486  0.1788
 3512SOL    HW122169   2.515   2.978   2.089 -0.0418  0.7491  0.6617
 3512SOL    HW222170   2.596   2.884   2.161  1.3510  2.5990  0.8594
 3513SOL     OW22171   1.211   2.152  15.619  0.4598  0.0118  0.3112
 3513SOL    HW122172   1.163   2.088  15.672  1.3835  1.0697  2.4269
 3513SOL    HW222173   1.276   2.180  15.683 -1.3708  1.4663  1.5549
 3514SOL     OW22174   2.137   4.579  11.612  0.0206 -0.3345 -0.2223
 3514SOL    HW122175   2.171   4.514  11.551  0.8085 -0.1379  0.0087
 3514SOL    HW222176   2.041   4.574  11.604 -0.1502 -2.5037  3.0408
 3515SOL     OW22177   1.431   0.772   8.705  0.2200  0.1044 -0.5155
 3515SOL    HW122178   1.478   0.810   8.631  0.0615  0.4193 -0.4541
 3515SOL    HW222179   1.403   0.858   8.736 -0.9744  0.4329 -2.5166
 3516SOL     OW22180   0.988   1.103   3.744  0.5252 -0.4828  0.5493
 3516SOL    HW122181   0.894   1.119   3.737  0.6847  2.0602  3.8180
 3516SOL    HW222182   1.025   1.190   3.758 -0.5978  0.0967 -0.0772
 3517SOL     OW22183   0.059   0.994   4.903 -0.4690 -0.3408  0.0860
 3517SOL    HW122184   0.115   1.042   4.841 -0.1192 -0.0032  0.6632
 3517SOL    HW222185   0.116   1.016   4.977 -0.0079  0.3043 -0.4507
 3518SOL     OW22186   4.297   4.558   6.300  0.1794 -0.3692  0.2013
 3518SOL    HW122187   4.306   4.653   6.292  2.2263 -0.5826  0.1589
 3518SOL    HW222188   4.291   4.541   6.206  4.1175 -0.2741 -0.0439
 3519SOL     OW22189   4.202   0.403   9.656  0.5081 -0.1774  0.1507
 3519SOL    HW122190   4.242   0.485   9.626 -1.5392  0.4805 -0.7315
 3519SOL    HW222191   4.271   0.345   9.623 -1.7037 -1.5107 -2.1132
 3520SOL     OW22192   2.975   4.077   7.877  0.8798 -0.4282 -0.0754
 3520SOL    HW122193   2.915   4.099   7.805 -0.0228  0.1937  0.8600
 3520SOL    HW222194   2.964   4.155   7.932 -0.2135  1.2727 -2.6936
 3521SOL     OW22195   1.958   1.603  15.421  0.3489  0.1030  0.1144
 3521SOL    HW122196   2.045   1.592  15.461 -0.9168 -1.3616  2.4309
 3521SOL    HW222197   1.908   1.540  15.473 -0.5532 -0.8225 -1.8853
 3522SOL     OW22198   0.950   4.673  14.764 -0.0121 -0.1965 -0.4898
 3522SOL    HW122199   0.909   4.736  14.706  0.0776  0.3031 -0.0071
 3522SOL    HW222200   1.000   4.619  14.702  1.5091  0.7791 -0.1066
 3523SOL     OW22201   1.304   0.700   3.744 -0.0968 -0.0135  0.1812
 3523SOL    HW122202   1.247   0.671   3.674  0.6627  0.9317 -0.8413
 3523SOL    HW222203   1.345   0.773   3.697 -0.9376 -0.6097 -1.4685
 3524SOL     OW22204   2.594   2.494   2.367  0.6956  0.0859  0.0120
 3524SOL    HW122205   2.612   2.587   2.362  0.0215  0.1478 -1.3047
 3524SOL    HW222206   2.607   2.478   2.461 -1.2318  1.2863  0.4958
 3525SOL     OW22207   4.471   4.267   0.934 -0.6554  0.0911 -0.2455
 3525SOL    HW122208   4.565   4.250   0.944 -0.9611 -3.1320 -3.0062
 3525SOL    HW222209   4.430   4.257   1.020 -1.3670  1.2358 -0.4649
 3526SOL     OW22210   1.736   1.440   7.213  0.3920 -0.2407 -1.1246
 3526SOL    HW122211   1.829   1.450   7.194 -0.0880  1.4360 -2.6504
 3526SOL    HW222212   1.696   1.409   7.131  0.8837 -0.7142 -1.1883
 3527SOL     OW22213   3.075   2.991   9.284 -0.2919  0.9014 -0.0672
 3527SOL    HW122214   3.048   3.058   9.347 -1.4098  0.7652 -0.4153
 3527SOL    HW222215   3.160   2.963   9.319 -0.0356 -0.5613 -1.8784
 3528SOL     OW22216   1.183   3.146  10.447  0.7831  0.3130 -0.3245
 3528SOL    HW122217   1.277   3.164  10.452  0.5969  1.2478 -0.2071
 3528SOL    HW222218   1.151   3.221  10.396 -0.6142 -1.5716 -2.2633
 3529SOL     OW22219   3.718   0.250   8.655 -0.0899  0.3297  0.0466
 3529SOL    HW122220   3.676   0.220   8.735 -0.0446  0.7868  0.2398
 3529SOL    HW222221   3.789   0.186   8.653  1.1211  1.6791 -0.0365
 3530SOL     OW22222   1.846   1.292   8.230  0.7321  0.0067 -0.0298
 3530SOL    HW122223   1.886   1.277   8.316 -0.4676 -2.5549  0.0716
 3530SOL    HW222224   1.767   1.239   8.244  1.8937 -1.2310  1.9621
 3531SOL     OW22225   0.150   4.028   1.244  0.5070 -0.1419  0.1817
 3531SOL    HW122226   0.162   3.998   1.154  0.3239 -0.0613  0.1290
 3531SOL    HW222227   0.224   4.088   1.251  0.5048 -0.3914  2.2068
 3532SOL     OW22228   1.715   3.718   4.396 -0.0456  0.2413  0.2009
 3532SOL    HW122229   1.782   3.652   4.411  0.1158  0.4002  0.1739
 3532SOL    HW222230   1.754   3.768   4.324 -0.6811 -0.3785 -0.5781
 3533SOL     OW22231   1.738   3.562  14.226 -0.7984 -1.1862  0.1744
 3533SOL    HW122232   1.796   3.619  14.276  0.5702 -1.7228 -0.7943
 3533SOL    HW222233   1.692   3.520  14.299 -0.0176 -0.2473  1.2079
 3534SOL     OW22234   0.164   2.636   6.064  0.0819  0.3528 -0.2381
 3534SOL    HW122235   0.255   2.643   6.035 -0.1004 -0.6030 -1.0616
 3534SOL    HW222236   0.156   2.720   6.110 -0.2373  0.9084 -1.2973
 3535SOL     OW22237   0.644   2.024  12.238  0.1798 -0.0324 -0.2666
 3535SOL    HW122238   0.553   2.032  12.209 -0.2130 -0.8532  0.7166
 3535SOL    HW222239   0.654   2.114  12.270 -0.3193  0.1843 -0.7300
 3536SOL     OW22240   3.160   2.693   2.041  0.1852  0.2018 -0.7011
 3536SOL    HW122241   3.246   2.658   2.062  0.0007 -0.2670 -0.7141
 3536SOL    HW222242   3.185   2.773   1.995  0.3219  1.3515  1.3648
 3537SOL     OW22243   0.185   4.207  15.230  0.2855  0.6624 -0.2087
 3537SOL    HW122244   0.156   4.175  15.145  2.2524  1.1677 -1.0638
 3537SOL    HW222245   0.246   4.134  15.238 -0.0970  0.4729  1.0895
 3538SOL     OW22246   2.266   0.573  16.529  1.0132 -0.8551  0.1881
 3538SOL    HW122247   2.280   0.517  16.452  0.3487 -2.7210  1.4065
 3538SOL    HW222248   2.245   0.652  16.481 -1.2750 -1.8841 -0.4772
 3539SOL     OW22249   3.163   1.041   4.812 -0.5290  0.1349  0.2567
 3539SOL    HW122250   3.255   1.041   4.840 -0.1881  0.2444 -0.8454
 3539SOL    HW222251   3.126   0.988   4.882  1.1944 -0.4171  0.7510
 3540SOL     OW22252   3.244   2.357   1.472  0.0666  0.1236  0.5487
 3540SOL    HW122253   3.237   2.344   1.377  0.0325 -1.2793  0.7482
 3540SOL    HW222254   3.178   2.296   1.504 -1.0460  0.6365 -0.7560
 3541SOL     OW22255   3.201   4.388   1.233  0.4262  0.3154  0.2860
 3541SOL    HW122256   3.109   4.410   1.249  1.0288  2.8922  0.2336
 3541SOL    HW222257   3.188   4.296   1.256 -0.5241  0.1070 -1.0968
 3542SOL     OW22258   4.547   2.048   3.997  0.3124  0.0777  0.0138
 3542SOL    HW122259   4.497   1.970   4.021 -0.9941  0.5764 -1.1390
 3542SOL    HW222260   4.495   2.126   4.013 -2.0912 -0.9058 -2.9011
 3543SOL     OW22261   0.412   1.781   2.637 -0.0443  0.4145  0.0206
 3543SOL    HW122262   0.426   1.845   2.707  1.9109 -1.2202  1.1450
 3543SOL    HW222263   0.408   1.840   2.562 -0.6161 -1.0043 -1.0686
 3544SOL     OW22264   3.456   1.639  15.950  0.2912 -0.8263 -0.3838
 3544SOL    HW122265   3.482   1.574  16.015 -0.7379 -1.9300 -1.0753
 3544SOL    HW222266   3.514   1.712  15.970  0.7445 -1.1559 -0.5003
 3545SOL     OW22267   3.750   1.430   1.683 -0.4489 -0.6476  0.0465
 3545SOL    HW122268   3.779   1.368   1.616 -1.7823 -1.1319 -0.0769
 3545SOL    HW222269   3.832   1.429   1.731  0.6964 -2.2439 -1.9361
 3546SOL     OW22270   2.684   3.894   5.253  0.1273  0.2552  0.0916
 3546SOL    HW122271   2.771   3.855   5.258  1.6801  3.6845 -0.1960
 3546SOL    HW222272   2.704   3.985   5.273 -0.9166  0.3606  0.6579
 3547SOL     OW22273   1.780   4.458   1.702  0.2808  0.3561 -0.2654
 3547SOL    HW122274   1.774   4.364   1.686  0.9217  0.2744 -0.0152
 3547SOL    HW222275   1.859   4.482   1.654  0.9928 -1.5615 -0.0508
 3548SOL     OW22276   4.236   2.566   5.859  0.6145  0.1770  0.3713
 3548SOL    HW122277   4.171   2.612   5.913  1.0259  0.8167  0.3227
 3548SOL    HW222278   4.278   2.519   5.932 -1.0253  0.2298  1.3391
 3549SOL     OW22279   0.329   2.768   3.720 -0.5967  0.0537  0.0518
 3549SOL    HW122280   0.405   2.825   3.711  0.4049 -1.4336 -0.7807
 3549SOL    HW222281   0.366   2.685   3.692  0.1475  0.7767 -1.0739
 3550SOL     OW22282   3.337   2.731  15.950 -0.5266 -0.5379  0.0559
 3550SOL    HW122283   3.415   2.786  15.944 -0.9518  0.0149 -0.3859
 3550SOL    HW222284   3.373   2.646  15.926  0.3806  0.0644 -0.6539
 3551SOL     OW22285   0.951   0.904   7.880  0.4215 -0.0684 -0.2394
 3551SOL    HW122286   0.872   0.863   7.916  0.3433 -0.3964 -0.7677
 3551SOL    HW222287   0.922   0.995   7.888  2.2896  0.3314  1.9668
 3552SOL     OW22288   4.059   2.103  14.172 -0.2018 -0.3245  0.2607
 3552SOL    HW122289   3.973   2.114  14.131  0.7227  1.1710 -1.2988
 3552SOL    HW222290   4.109   2.174  14.133  0.7092 -1.1408 -0.0340
 3553SOL     OW22291   2.449   0.117   3.101 -0.0127  0.1167 -0.1279
 3553SOL    HW122292   2.516   0.164   3.149  0.7385 -1.1260  0.0388
 3553SOL    HW222293   2.402   0.188   3.056  1.9729  1.0233 -0.7339
 3554SOL     OW22294   4.033   2.733  16.464  0.2097 -0.6013 -1.0746
 3554SOL    HW122295   4.074   2.808  16.507  0.1024 -1.5577  0.7047
 3554SOL    HW222296   3.976   2.710  16.537  1.2884 -0.0955 -0.0642
 3555SOL     OW22297   2.866   3.983   1.859  0.6995 -0.5330  0.0638
 3555SOL    HW122298   2.846   4.052   1.796  1.9017 -1.1304 -0.9560
 3555SOL    HW222299   2.947   3.947   1.824  2.4651  0.2106  3.3596
 3556SOL     OW22300   0.844   1.669   0.542  0.2145 -0.3234 -0.3163
 3556SOL    HW122301   0.907   1.682   0.613 -1.7814  1.5894  1.0836
 3556SOL    HW222302   0.875   1.739   0.485  0.4091 -1.6822 -1.8860
 3557SOL     OW22303   1.776   2.288   1.676 -0.4970 -0.0120  0.0666
 3557SOL    HW122304   1.854   2.272   1.729  1.1706  3.0144 -1.4993
 3557SOL    HW222305   1.717   2.311   1.748  0.9779 -0.5596  1.4469
 3558SOL     OW22306   1.983   0.943   5.143 -0.5324 -0.1387  0.2380
 3558SOL    HW122307   1.918   1.013   5.135 -0.1410  0.1189 -0.6491
 3558SOL    HW222308   1.959   0.883   5.072  0.7967  0.3335 -0.5983
 3559SOL     OW22309   1.253   1.045   3.202  0.2209 -0.0888  0.3909
 3559SOL    HW122310   1.181   1.101   3.231 -0.3181 -0.0145 -1.0958
 3559SOL    HW222311   1.326   1.066   3.261 -0.0548  1.1779  0.2811
 3560SOL     OW22312   1.072   3.757  14.070  0.0619 -0.0011 -0.1663
 3560SOL    HW122313   1.036   3.703  13.999 -0.2560  0.9618 -0.7427
 3560SOL    HW222314   1.058   3.713  14.153 -1.5583  0.5060 -0.1856
 3561SOL     OW22315   4.458   2.347   2.073 -0.4084 -0.2520  0.5004
 3561SOL    HW122316   4.415   2.431   2.052 -0.6650 -0.6052 -0.3699
 3561SOL    HW222317   4.410   2.292   2.011 -1.8571 -1.6243  2.8474
 3562SOL     OW22318   4.514   4.232   8.772 -0.2500  0.3610 -0.2111
 3562SOL    HW122319   4.584   4.275   8.724 -0.7877  0.9114 -0.4921
 3562SOL    HW222320   4.532   4.139   8.757  0.2819  0.2512  1.1220
 3563SOL     OW22321   0.058   3.874   1.003 -0.4813  0.1701  0.0355
 3563SOL    HW122322   4.729   3.819   1.046  0.9755 -0.4753  1.4243
 3563SOL    HW222323   0.078   3.814   0.932 -2.1937 -3.4690  2.6621
 3564SOL     OW22324   4.045   3.972  13.852 -0.3735  0.4834 -0.5059
 3564SOL    HW122325   4.059   4.044  13.790 -1.6036 -0.9772 -2.5030
 3564SOL    HW222326   4.095   4.006  13.926 -0.1617  2.1479 -1.4042
 3565SOL     OW22327   3.820   3.963   6.370 -0.1164 -0.3073 -0.1780
 3565SOL    HW122328   3.808   3.879   6.326  1.6310  0.4357 -2.0464
 3565SOL    HW222329   3.740   3.958   6.423  1.5931 -2.6268  2.1627
 3566SOL     OW22330   0.863   1.186   6.045 -0.2607  0.0347  0.2356
 3566SOL    HW122331   0.856   1.218   5.955 -0.8649  0.6939  0.5178
 3566SOL    HW222332   0.775   1.215   6.071 -0.8816 -0.5355 -1.1999
 3567SOL     OW22333   3.421   2.319   9.252  0.4781  0.0921 -0.3304
 3567SOL    HW122334   3.474   2.337   9.175  0.3287 -0.1543 -0.4918
 3567SOL    HW222335   3.337   2.295   9.215  1.2211 -1.3488 -1.1166
 3568SOL     OW22336   0.373   1.912   3.135 -0.1790  0.0605 -0.2382
 3568SOL    HW122337   0.318   1.990   3.133 -1.2428 -0.7397 -1.7235
 3568SOL    HW222338   0.333   1.853   3.200 -3.4715  0.1708 -2.2004
 3569SOL     OW22339   3.715   4.554   2.614 -0.2211  0.0960  0.3954
 3569SOL    HW122340   3.747   4.560   2.704 -1.9906  1.9685  0.9102
 3569SOL    HW222341   3.633   4.603   2.615  0.0060  0.5116 -0.7079
 3570SOL     OW22342   3.193   2.199   2.668 -0.1508  0.2291  0.7250
 3570SOL    HW122343   3.215   2.291   2.654 -2.5568  0.6429 -0.3395
 3570SOL    HW222344   3.270   2.148   2.641  0.1219  1.2745 -0.4481
 3571SOL     OW22345   3.389   1.167  13.731  0.3385  0.2769 -0.2895
 3571SOL    HW122346   3.437   1.177  13.813 -2.0319  1.0275  0.9967
 3571SOL    HW222347   3.331   1.091  13.736  1.6782 -0.7675 -0.8288
 3572SOL     OW22348   3.277   2.204   7.661  0.1608  0.5010 -0.3467
 3572SOL    HW122349   3.343   2.259   7.619 -0.5501  0.7079 -1.2076
 3572SOL    HW222350   3.274   2.129   7.601 -0.6823 -0.1646  0.5306
 3573SOL     OW22351   1.366   2.840   8.589  0.2351  0.0238  0.6311
 3573SOL    HW122352   1.290   2.782   8.581  0.2885  0.4134 -2.6478
 3573SOL    HW222353   1.400   2.854   8.501 -0.7950  2.8669  0.6785
 3574SOL     OW22354   3.529   1.653   2.381  0.4010 -0.5022 -0.0888
 3574SOL    HW122355   3.557   1.690   2.297  0.1785 -3.2412 -1.3776
 3574SOL    HW222356   3.444   1.616   2.356 -0.4149  0.1274  1.7540
 3575SOL     OW22357   3.777   1.035   4.258 -0.2902 -0.4037 -0.1714
 3575SOL    HW122358   3.873   1.028   4.254 -0.2541  0.7129 -1.1961
 3575SOL    HW222359   3.744   0.974   4.192 -0.1505 -2.1853  1.4028
 3576SOL     OW22360   1.448   3.882   4.215  0.5912 -0.3548 -0.0255
 3576SOL    HW122361   1.418   3.844   4.297  0.2087 -2.0992 -0.9690
 3576SOL    HW222362   1.371   3.914   4.168  0.0696 -0.6945  0.6000
 3577SOL     OW22363   4.490   2.426  14.014 -0.0434  0.1882  0.5522
 3577SOL    HW122364   4.502   2.402  13.922 -2.6845  3.4095 -0.6473
 3577SOL    HW222365   4.507   2.520  14.007  1.6471 -0.3018 -1.6485
 3578SOL     OW22366   3.617   1.107   8.248 -0.7157 -0.2489  0.1005
 3578SOL    HW122367   3.529   1.141   8.268 -0.0891  1.1396  0.5570
 3578SOL    HW222368   3.672   1.181   8.273 -1.8965  1.5273 -2.4962
 3579SOL     OW22369   2.620   4.263   7.793 -0.6649 -0.1708 -0.2241
 3579SOL    HW122370   2.594   4.185   7.843  1.0051  0.2828  1.3298
 3579SOL    HW222371   2.686   4.233   7.732  0.5957 -1.8772  1.9860
 3580SOL     OW22372   1.111   4.399   9.134 -0.2330  0.3615 -1.2042
 3580SOL    HW122373   1.094   4.465   9.068  2.0383  1.9260 -0.2246
 3580SOL    HW222374   1.064   4.322   9.102 -2.6976  2.1418 -1.8763
 3581SOL     OW22375   3.729   3.320   7.049 -0.0177 -0.7283 -0.0701
 3581SOL    HW122376   3.768   3.295   7.132  0.4097  2.0354  0.5615
 3581SOL    HW222377   3.644   3.344   7.086  0.5160  0.3900  0.4183
 3582SOL     OW22378   1.448   4.343  17.401 -0.1623 -0.2809  0.0957
 3582SOL    HW122379   1.529   4.301  17.371  0.4014  0.4843  0.5279
 3582SOL    HW222380   1.472   4.414  17.461 -0.6226  1.1982 -1.4740
 3583SOL     OW22381   0.374   2.026   9.246 -0.5872 -0.3945  0.3162
 3583SOL    HW122382   0.407   2.084   9.315  0.0912  2.1191 -2.1259
 3583SOL    HW222383   0.319   2.088   9.199 -0.6659  0.5375  1.6269
 3584SOL     OW22384   4.670   4.512   5.970 -1.1413 -0.0600 -0.4649
 3584SOL    HW122385   4.726   4.578   5.929 -1.5119  1.5712  1.6759
 3584SOL    HW222386   0.001   4.451   5.998  0.2619  0.9375 -1.7544
 3585SOL     OW22387   1.137   1.168   5.125 -0.2220  0.2092  0.1296
 3585SOL    HW122388   1.212   1.170   5.066  0.7499 -2.0889  1.2831
 3585SOL    HW222389   1.124   1.074   5.124  2.0207 -0.0979 -0.5892
 3586SOL     OW22390   2.338   2.393   9.034 -0.3441  0.4327  0.1446
 3586SOL    HW122391   2.430   2.411   9.013  0.0103 -1.3898  0.1339
 3586SOL    HW222392   2.332   2.298   9.024  1.7704  0.3296 -0.1143
 3587SOL     OW22393   0.744   2.692   1.270 -0.5110 -0.6971 -0.0119
 3587SOL    HW122394   0.767   2.765   1.328  1.6064 -1.3676 -0.0167
 3587SOL    HW222395   0.814   2.713   1.208 -0.4476 -0.8255  0.0165
 3588SOL     OW22396   1.489   3.925  12.093 -0.1474  0.1086  0.2283
 3588SOL    HW122397   1.543   4.003  12.080  0.3484 -0.9147 -3.9481
 3588SOL    HW222398   1.535   3.873  12.027  0.0745  0.1334  0.3665
 3589SOL     OW22399   1.482   3.712   3.383 -0.1289  0.5095 -0.1782
 3589SOL    HW122400   1.521   3.742   3.465 -0.3254  1.3623 -0.3970
 3589SOL    HW222401   1.461   3.790   3.332  2.4839  0.9924 -0.5146
 3590SOL     OW22402   1.944   0.937  16.542 -0.0873  0.8463  0.2532
 3590SOL    HW122403   1.925   0.965  16.452  0.7019  0.7596  0.0588
 3590SOL    HW222404   1.922   1.016  16.590 -0.6918  1.2267 -0.6406
 3591SOL     OW22405   2.898   1.958   9.739  0.3766 -0.2252  0.0041
 3591SOL    HW122406   2.970   1.996   9.688  2.4793 -1.7244  1.8420
 3591SOL    HW222407   2.884   1.877   9.690 -0.5213  0.0450 -0.1794
 3592SOL     OW22408   0.164   1.815  13.527  0.1854  0.2849  0.3344
 3592SOL    HW122409   0.071   1.797  13.515 -0.3726  1.9432  2.2743
 3592SOL    HW222410   0.195   1.748  13.465 -2.7703  1.6167 -2.5197
 3593SOL     OW22411   2.057   1.517   3.104  0.5808 -0.0303  0.1293
 3593SOL    HW122412   1.999   1.574   3.053  0.4512  0.2348  0.5793
 3593SOL    HW222413   2.049   1.555   3.191  0.9963 -1.9824  1.0308
 3594SOL     OW22414   3.490   0.030   1.470 -0.3771  0.5137 -0.1795
 3594SOL    HW122415   3.558   0.056   1.408  0.2391 -0.9801 -0.1273
 3594SOL    HW222416   3.419   0.094   1.460  0.9192  2.3367  2.3646
 3595SOL     OW22417   3.140   3.309   3.356  0.1749  0.7253  0.3039
 3595SOL    HW122418   3.186   3.386   3.388 -0.1577  1.6048 -1.3406
 3595SOL    HW222419   3.103   3.276   3.438  1.7584 -2.8156 -0.4084
 3596SOL     OW22420   2.759   3.919   7.510  0.3072  0.0724  0.1159
 3596SOL    HW122421   2.831   3.952   7.457  2.3953 -3.1385  0.9554
 3596SOL    HW222422   2.689   3.908   7.446  0.5782 -1.1276  0.0104
 3597SOL     OW22423   1.250   2.987  16.719  0.2195  0.1344 -0.0069
 3597SOL    HW122424   1.256   2.980  16.815  1.3997 -1.8686 -0.2267
 3597SOL    HW222425   1.344   2.973  16.707  0.2331 -1.2926  1.7378
 3598SOL     OW22426   0.553   2.062   4.827  0.0579 -0.7776  0.2235
 3598SOL    HW122427   0.471   2.102   4.800  0.4047  0.7929  1.5581
 3598SOL    HW222428   0.537   2.057   4.921  1.3349  0.3362  0.5011
 3599SOL     OW22429   4.343   0.331  15.615 -0.2369 -0.0865  0.0465
 3599SOL    HW122430   4.362   0.348  15.523 -0.5840 -2.2188 -0.4184
 3599SOL    HW222431   4.270   0.392  15.627 -0.1524  0.5485 -2.7249
 3600SOL     OW22432   3.889   4.461   7.081  0.2600 -0.1208 -0.0922
 3600SOL    HW122433   3.841   4.382   7.105  1.0997 -0.5773  0.0924
 3600SOL    HW222434   3.855   4.472   6.992 -0.0497  0.9621  0.1607
 3601SOL     OW22435   4.086   0.017   6.514 -0.2002  0.3894  0.6494
 3601SOL    HW122436   4.087   4.664   6.549 -0.6041  1.6545  3.9583
 3601SOL    HW222437   4.177   0.047   6.517 -0.5658  1.6377 -1.1582
 3602SOL     OW22438   3.089   4.481   0.294  0.5044  0.0058  0.6534
 3602SOL    HW122439   3.156   4.540   0.329 -1.5826  1.3728  2.4241
 3602SOL    HW222440   3.143   4.435   0.231  0.9925  2.9681 -1.1011
 3603SOL     OW22441   3.584   2.634   5.876 -0.0188  0.3654  0.2110
 3603SOL    HW122442   3.506   2.582   5.859  1.3710 -2.1018  1.4159
 3603SOL    HW222443   3.646   2.582   5.825 -0.0089 -0.0663  0.6652
 3604SOL     OW22444   2.346   2.559   3.178 -0.3538  0.3422 -0.1889
 3604SOL    HW122445   2.319   2.470   3.200  0.4201  0.2197  0.2759
 3604SOL    HW222446   2.266   2.598   3.212 -0.5473  1.0447 -1.4760
 3605SOL     OW22447   2.898   4.286   8.050 -0.0917 -0.5268  0.8095
 3605SOL    HW122448   2.915   4.371   8.090  1.2926 -1.2858  1.8482
 3605SOL    HW222449   2.883   4.231   8.127 -1.5889 -0.1826  0.7565
 3606SOL     OW22450   2.626   2.190   8.769  0.4253 -0.5200  0.1755
 3606SOL    HW122451   2.535   2.163   8.778  1.2647 -3.2333  0.3822
 3606SOL    HW222452   2.647   2.133   8.695 -1.1415 -2.5852  1.3235
 3607SOL     OW22453   0.593   0.418   6.726  0.1783  0.1679 -0.3514
 3607SOL    HW122454   0.630   0.433   6.813 -0.9186 -0.0886  0.1633
 3607SOL    HW222455   0.535   0.493   6.714  0.6515  0.5670 -0.1643
 3608SOL     OW22456   2.857   1.586   8.171 -0.5062 -0.3634  0.1205
 3608SOL    HW122457   2.791   1.576   8.239 -1.3105 -1.3914 -0.8169
 3608SOL    HW222458   2.797   1.602   8.098 -0.3809 -0.5749 -0.0271
 3609SOL     OW22459   3.545   2.045   8.576  0.0210  0.2242 -0.4355
 3609SOL    HW122460   3.502   2.115   8.526 -1.1925  0.6430  1.2131
 3609SOL    HW222461   3.638   2.068   8.564  0.3674 -0.7352  0.4345
 3610SOL     OW22462   2.919   1.919   2.773 -0.0443 -0.1074  0.3041
 3610SOL    HW122463   2.884   1.974   2.703 -0.9415 -1.7809 -0.5560
 3610SOL    HW222464   3.011   1.914   2.747  0.0769  2.7546  0.1426
 3611SOL     OW22465   1.907   3.579   5.921  0.0634 -0.8632  0.4680
 3611SOL    HW122466   2.002   3.589   5.911  0.3172 -2.3456  1.4831
 3611SOL    HW222467   1.879   3.574   5.830 -0.4449  0.3978  0.5535
 3612SOL     OW22468   0.617   2.953  12.848  0.0175  0.0150  0.3852
 3612SOL    HW122469   0.686   2.911  12.796 -2.6579 -0.5721 -2.6919
 3612SOL    HW222470   0.621   2.911  12.933 -1.6227 -1.1570 -0.1194
 3613SOL     OW22471   1.858   2.019   7.663 -0.0443  0.2725  0.2484
 3613SOL    HW122472   1.945   2.037   7.698  0.0412 -1.4496  0.9219
 3613SOL    HW222473   1.810   2.044   7.742 -1.6233 -3.1273  0.3752
 3614SOL     OW22474   3.161   4.671   8.622 -0.5724  0.5471 -0.4877
 3614SOL    HW122475   3.073   4.682   8.658  0.0305  1.7133  0.6262
 3614SOL    HW222476   3.145   4.620   8.542  2.5820 -0.2318 -0.6082
 3615SOL     OW22477   3.251   1.403   5.684  0.1494 -0.3763  0.1848
 3615SOL    HW122478   3.291   1.405   5.771 -1.8297 -2.3397  1.1563
 3615SOL    HW222479   3.317   1.440   5.626 -0.7736  0.1326 -0.5422
 3616SOL     OW22480   3.313   3.613   6.984  0.6196  0.1040  0.0526
 3616SOL    HW122481   3.245   3.545   6.979  2.8861 -2.3639  3.1242
 3616SOL    HW222482   3.299   3.660   6.901 -1.0881 -0.5704 -0.0497
 3617SOL     OW22483   3.793   4.642   0.836 -0.0298 -0.3778 -0.4053
 3617SOL    HW122484   3.823   4.699   0.907  2.1627 -1.4419 -0.4725
 3617SOL    HW222485   3.708   4.610   0.867 -0.5773  1.7362  0.2949
 3618SOL     OW22486   1.538   1.204  11.132  0.4903 -0.0566  0.0964
 3618SOL    HW122487   1.590   1.274  11.172  1.3537 -0.9530  0.5534
 3618SOL    HW222488   1.456   1.211  11.181  1.3174 -0.8642  1.5989
 3619SOL     OW22489   3.490   4.486   2.012  0.2751 -0.2625  0.3822
 3619SOL    HW122490   3.468   4.557   2.072  0.1179  0.7306 -0.8554
 3619SOL    HW222491   3.411   4.433   2.022 -1.1045  1.7118  0.0640
 3620SOL     OW22492   1.489   1.629  10.277  0.2568  0.3186 -0.1664
 3620SOL    HW122493   1.493   1.553  10.334 -1.2000  0.0544 -0.4281
 3620SOL    HW222494   1.397   1.637  10.253  0.7450  0.8054 -1.9202
 3621SOL     OW22495   2.623   4.012  17.045 -0.0897  0.2388 -0.0185
 3621SOL    HW122496   2.713   4.040  17.030  0.0844 -0.5308 -0.4366
 3621SOL    HW222497   2.570   4.090  17.035  0.8306  0.9565  0.7104
 3622SOL     OW22498   0.589   3.869   2.876 -0.7958 -0.1774 -0.0583
 3622SOL    HW122499   0.522   3.850   2.810 -2.6407 -0.3271  1.8442
 3622SOL    HW222500   0.545   3.919   2.946 -0.2606 -0.0141  0.1590
 3623SOL     OW22501   1.558   2.502  10.711  0.4607  0.0175 -0.6274
 3623SOL    HW122502   1.496   2.572  10.730  1.1024  0.3914  0.0706
 3623SOL    HW222503   1.614   2.557  10.657  1.2828 -0.8853 -0.6769
 3624SOL     OW22504   3.770   2.316   6.497  0.5996 -0.1696 -0.5588
 3624SOL    HW122505   3.833   2.303   6.426  1.1153  0.7435 -0.2640
 3624SOL    HW222506   3.793   2.255   6.567 -1.2828 -0.8232 -0.5105
 3625SOL     OW22507   2.663   3.846   3.693 -0.3660 -0.4688 -0.5155
 3625SOL    HW122508   2.593   3.911   3.686  1.1348  1.1630 -0.3745
 3625SOL    HW222509   2.744   3.892   3.672 -1.7083  1.8973 -0.4511
 3626SOL     OW22510   3.209   2.476   2.671 -0.0510 -0.0352  0.3312
 3626SOL    HW122511   3.292   2.502   2.712  0.1407 -0.5108  0.2479
 3626SOL    HW222512   3.143   2.511   2.731  0.7449 -1.2428  1.9292
 3627SOL     OW22513   0.393   1.498  16.110 -0.1591 -0.5210 -0.2805
 3627SOL    HW122514   0.450   1.541  16.174 -1.4022 -1.9842  1.8497
 3627SOL    HW222515   0.322   1.562  16.114 -1.7694 -2.3474  0.9046
 3628SOL     OW22516   1.814   2.986   7.687  0.3322  0.0850  0.2549
 3628SOL    HW122517   1.829   2.944   7.602 -2.6571 -0.6877  0.1171
 3628SOL    HW222518   1.719   3.001   7.690  0.5039  1.5062 -1.5332
 3629SOL     OW22519   4.098   3.638  13.254  0.2575  0.1295 -0.0584
 3629SOL    HW122520   4.154   3.711  13.229  0.2785 -0.6566 -2.3489
 3629SOL    HW222521   4.079   3.591  13.173  1.5457  1.5170 -1.1784
 3630SOL     OW22522   0.123   1.102  13.293 -0.5615  0.0290 -0.1867
 3630SOL    HW122523   0.122   1.177  13.233 -2.1019  0.2252  0.0732
 3630SOL    HW222524   0.212   1.116  13.325  0.0619  2.6574 -3.0709
 3631SOL     OW22525   2.826   3.582  10.436  0.8852 -0.6996 -0.4651
 3631SOL    HW122526   2.918   3.586  10.412  1.2799 -0.7700  1.0491
 3631SOL    HW222527   2.790   3.597  10.348  0.8759  1.0988 -0.1375
 3632SOL     OW22528   3.134   1.555   8.091 -0.1012  0.0112 -0.1561
 3632SOL    HW122529   3.046   1.567   8.126  0.1095  0.8376  0.0958
 3632SOL    HW222530   3.101   1.550   8.001 -1.8281 -1.2020  0.5528
 3633SOL     OW22531   4.201   2.419   3.354  0.9052 -0.7736 -0.2534
 3633SOL    HW122532   4.293   2.446   3.355  1.1687 -1.6340 -1.3204
 3633SOL    HW222533   4.164   2.502   3.324  1.2136 -0.6618 -0.3290
 3634SOL     OW22534   3.709   0.620  17.029 -0.8763 -0.4689 -0.2670
 3634SOL    HW122535   3.765   0.555  17.072 -0.2617  0.7110  0.7002
 3634SOL    HW222536   3.684   0.557  16.961 -2.7157  0.6536 -0.6099
 3635SOL     OW22537   3.702   3.898  12.056 -0.0166  0.1732  0.0767
 3635SOL    HW122538   3.627   3.900  12.117 -1.4352  0.7955 -1.6894
 3635SOL    HW222539   3.670   3.946  11.980  0.4627  0.7499  0.2378
 3636SOL     OW22540   2.723   2.030  12.254  0.2195 -0.0475  0.9389
 3636SOL    HW122541   2.634   2.002  12.232  0.2538  0.6655 -0.1060
 3636SOL    HW222542   2.746   2.052  12.164  2.8387 -1.7904  1.1675
 3637SOL     OW22543   3.833   3.793   4.477  0.1989  0.1087  0.0189
 3637SOL    HW122544   3.867   3.861   4.419  2.0394  0.6369  1.7441
 3637SOL    HW222545   3.906   3.742   4.512 -0.2285  0.2088  1.0511
 3638SOL     OW22546   4.066   3.372   8.164 -0.0297  0.1758  0.0222
 3638SOL    HW122547   4.016   3.397   8.087 -0.7186 -0.4585  0.2621
 3638SOL    HW222548   3.988   3.390   8.217  0.3444 -0.6837  0.8647
 3639SOL     OW22549   3.032   1.916   9.335 -0.0089  0.4118 -0.1135
 3639SOL    HW122550   3.120   1.953   9.344  1.1903 -2.4070 -0.3436
 3639SOL    HW222551   2.977   1.975   9.387 -1.3424  1.1008 -2.3163
 3640SOL     OW22552   0.879   0.166   4.930  0.5007 -0.2273 -0.2071
 3640SOL    HW122553   0.834   0.084   4.948  1.8722 -1.3085 -1.7346
 3640SOL    HW222554   0.827   0.192   4.855 -2.1211  0.9821  2.0466
 3641SOL     OW22555   1.721   0.810   3.542 -0.4470  0.1658  0.6985
 3641SOL    HW122556   1.687   0.855   3.465 -2.3720 -0.0066  1.4418
 3641SOL    HW222557   1.701   0.880   3.604  2.7756  2.5520 -0.9509
 3642SOL     OW22558   2.467   3.874   9.254  0.4454 -0.1473 -0.5604
 3642SOL    HW122559   2.431   3.910   9.173  0.8176 -0.6036 -0.9291
 3642SOL    HW222560   2.561   3.886   9.243  0.3651  0.6059 -0.4270
 3643SOL     OW22561   1.090   1.426  16.609 -0.2378  0.3275  0.1506
 3643SOL    HW122562   1.067   1.349  16.557  3.0343 -1.2924  1.0645
 3643SOL    HW222563   1.078   1.399  16.700  3.1911 -1.8293 -0.0437
 3644SOL     OW22564   4.286   4.403  13.146  0.0211 -0.1050 -0.3899
 3644SOL    HW122565   4.290   4.372  13.055  2.5205  0.7734 -0.5867
 3644SOL    HW222566   4.300   4.498  13.148 -0.6445 -0.0004 -0.4757
 3645SOL     OW22567   0.803   2.475   9.939  0.7829  0.1787 -0.4427
 3645SOL    HW122568   0.732   2.480   9.875  0.4182 -0.1230 -0.0647
 3645SOL    HW222569   0.867   2.534   9.901  0.9186  1.4796  1.7995
 3646SOL     OW22570   2.270   3.382  14.897  0.8047  0.8315  0.4269
 3646SOL    HW122571   2.342   3.348  14.843  0.5620  1.2108 -0.1310
 3646SOL    HW222572   2.195   3.325  14.879  0.7249  0.7010  1.1976
 3647SOL     OW22573   4.306   0.706   3.956  0.5397  0.0441  0.5822
 3647SOL    HW122574   4.385   0.718   3.902  1.4074  1.4521  2.1499
 3647SOL    HW222575   4.281   0.796   3.980 -0.1487  0.4143 -1.5555
 3648SOL     OW22576   1.527   4.140   5.362 -0.0716  0.5992  0.3888
 3648SOL    HW122577   1.552   4.111   5.274 -1.8729 -0.0399  0.0730
 3648SOL    HW222578   1.437   4.105   5.364 -0.7002  2.3573  1.7939
 3649SOL     OW22579   3.533   4.638   3.966 -0.2881  0.2343  0.4995
 3649SOL    HW122580   3.459   4.664   3.911  0.8726  0.8839 -0.7426
 3649SOL    HW222581   3.487   4.647   4.050 -1.8598  2.5786 -0.6038
 3650SOL     OW22582   0.098   2.815   1.947  0.5024 -0.5953 -0.0650
 3650SOL    HW122583   0.159   2.868   1.897 -0.0937  0.6267  0.5011
 3650SOL    HW222584   0.022   2.870   1.930  0.2742 -0.8099  0.2491
 3651SOL     OW22585   4.519   0.893   8.610  0.1085  0.3274 -0.3057
 3651SOL    HW122586   4.519   0.989   8.607  0.5488  0.2898 -1.5054
 3651SOL    HW222587   4.555   0.887   8.522 -2.1033  0.0897 -1.1898
 3652SOL     OW22588   0.247   0.990   5.321  0.4114  0.3652 -0.4954
 3652SOL    HW122589   0.211   0.938   5.249 -1.8485  3.8530 -1.8915
 3652SOL    HW222590   0.164   0.991   5.368  0.7363  0.2245  0.0722
 3653SOL     OW22591   1.007   1.292   9.597  0.0899  0.4634  0.2982
 3653SOL    HW122592   1.007   1.229   9.669  0.8499 -0.9427 -0.9353
 3653SOL    HW222593   0.926   1.342   9.608 -0.0133 -0.0354  1.7674
 3654SOL     OW22594   2.507   2.719   5.412 -0.3297 -0.1623  0.2445
 3654SOL    HW122595   2.454   2.774   5.353 -1.4334 -0.0235  1.3562
 3654SOL    HW222596   2.492   2.631   5.377 -0.1908  0.4771 -1.4160
 3655SOL     OW22597   1.221   1.386   1.399  0.4242  0.0336 -0.2047
 3655SOL    HW122598   1.277   1.390   1.477  2.0802  0.3100 -1.4174
 3655SOL    HW222599   1.290   1.388   1.332  0.9082  0.4228  0.3052
 3656SOL     OW22600   3.303   3.767   4.824  0.3870  0.3362  0.2840
 3656SOL    HW122601   3.283   3.856   4.854 -1.7316 -0.1158  0.2018
 3656SOL    HW222602   3.228   3.720   4.861 -1.3835  1.5717 -1.7453
 3657SOL     OW22603   0.076   4.567   4.537  0.4876  0.4293  0.1018
 3657SOL    HW122604   4.720   4.581   4.524  0.5827  1.2676  0.3285
 3657SOL    HW222605   0.067   4.472   4.550 -2.7078  0.6122 -0.8867
 3658SOL     OW22606   0.645   1.582   0.729 -0.6198 -0.4861  0.1693
 3658SOL    HW122607   0.703   1.608   0.658  0.0561 -1.9831  0.1698
 3658SOL    HW222608   0.666   1.653   0.789  1.4989  0.4712 -1.7322
 3659SOL     OW22609   1.875   4.723   0.685  0.4797  0.1985 -0.0848
 3659SOL    HW122610   1.847   0.003   0.595  2.7695 -0.1964 -0.8640
 3659SOL    HW222611   1.832   0.062   0.723 -0.2306  1.3471 -3.2263
 3660SOL     OW22612   0.615   0.627   6.267 -0.1068 -0.2338  0.5540
 3660SOL    HW122613   0.579   0.698   6.214  2.6777  1.2059  0.5521
 3660SOL    HW222614   0.580   0.642   6.355  0.8439 -0.6853  1.0149
 3661SOL     OW22615   3.423   0.362   9.264 -0.3502  0.0641  0.1120
 3661SOL    HW122616   3.437   0.437   9.206  1.0734  1.2150  1.9123
 3661SOL    HW222617   3.382   0.400   9.342 -0.1816 -1.4230  0.9219
 3662SOL     OW22618   1.840   4.321   8.881  0.6352 -0.3071  0.1081
 3662SOL    HW122619   1.831   4.295   8.973  3.2502 -0.6412  0.2558
 3662SOL    HW222620   1.916   4.271   8.854 -0.6450 -2.1882  0.0109
 3663SOL     OW22621   1.427   1.043   8.046  0.5131 -0.4226  0.2485
 3663SOL    HW122622   1.395   1.130   8.021  0.0561 -0.1822  1.7148
 3663SOL    HW222623   1.521   1.062   8.054  0.0653  1.8726  0.0483
 3664SOL     OW22624   0.805   3.872   3.084 -0.8272  0.4716 -0.2752
 3664SOL    HW122625   0.775   3.791   3.043 -0.2004 -0.0204  0.2195
 3664SOL    HW222626   0.895   3.880   3.053 -0.8988  0.3870 -0.5019
 3665SOL     OW22627   1.953   0.196   4.480 -0.4693  0.5624  0.1018
 3665SOL    HW122628   1.932   0.165   4.392  0.8116 -0.5442  0.1854
 3665SOL    HW222629   1.866   0.234   4.493 -1.2784 -1.6843  1.3164
 3666SOL     OW22630   1.096   2.574  16.346  0.6299 -0.1376  0.2341
 3666SOL    HW122631   1.108   2.607  16.256 -1.0727 -0.3950 -0.0895
 3666SOL    HW222632   1.026   2.631  16.377  1.5442  0.3402  1.4426
 3667SOL     OW22633   3.266   1.430   5.961 -0.2047  0.3732 -0.3284
 3667SOL    HW122634   3.196   1.440   6.026 -0.4006 -2.8685 -0.0543
 3667SOL    HW222635   3.330   1.487   6.004  0.1627  0.6742 -1.2910
 3668SOL     OW22636   3.651   1.997   9.375  0.1991  0.3862  0.3862
 3668SOL    HW122637   3.594   1.943   9.320 -0.5195  0.6769  0.8476
 3668SOL    HW222638   3.721   2.029   9.318 -0.6593  0.5177 -0.5874
 3669SOL     OW22639   4.076   2.191   1.352  0.2261  0.3993  0.3703
 3669SOL    HW122640   4.152   2.237   1.388  1.1442  0.9225 -2.2562
 3669SOL    HW222641   4.011   2.204   1.421 -0.3126  0.8493 -0.2262
 3670SOL     OW22642   2.451   1.140   5.372 -0.4355  0.9838  0.2172
 3670SOL    HW122643   2.492   1.100   5.449 -0.8033  0.4100  0.1151
 3670SOL    HW222644   2.358   1.131   5.393 -0.8847  1.2326 -1.7135
 3671SOL     OW22645   4.409   4.046   8.412  0.0283 -0.1119  0.3385
 3671SOL    HW122646   4.333   4.076   8.362 -0.4070 -2.9184 -0.7050
 3671SOL    HW222647   4.475   4.108   8.383 -0.7668  0.0976 -1.0003
 3672SOL     OW22648   3.764   3.582   8.240 -0.1306 -0.1277 -0.2442
 3672SOL    HW122649   3.777   3.489   8.226  0.0570 -0.1986  0.3979
 3672SOL    HW222650   3.839   3.625   8.201 -1.2698  1.8070 -0.3132
 3673SOL     OW22651   3.993   1.454  13.317  0.3851  0.3644 -0.0277
 3673SOL    HW122652   3.907   1.484  13.348  0.6234 -1.1135  2.0162
 3673SOL    HW222653   3.979   1.470  13.223 -0.5585 -2.1937 -0.3173
 3674SOL     OW22654   0.181   0.560   1.654  0.0711 -0.1280  0.3317
 3674SOL    HW122655   0.159   0.625   1.588 -0.9177 -0.7234  0.0727
 3674SOL    HW222656   0.101   0.559   1.705 -1.1122 -1.4375 -1.5354
 3675SOL     OW22657   3.686   0.117   7.488 -0.2302 -0.1659 -0.1832
 3675SOL    HW122658   3.763   0.101   7.542  0.9847  0.1394 -1.8066
 3675SOL    HW222659   3.658   0.202   7.523 -2.9700 -0.2128 -2.2253
 3676SOL     OW22660   2.490   4.321   1.082 -0.7828  0.0260 -0.1246
 3676SOL    HW122661   2.458   4.408   1.105  1.2805  1.0127 -0.9681
 3676SOL    HW222662   2.423   4.309   1.015 -1.8582  1.2427  0.7329
 3677SOL     OW22663   3.941   1.999   7.471 -0.4264 -0.1072 -0.3366
 3677SOL    HW122664   3.959   1.911   7.438 -1.6093 -0.2943 -0.4954
 3677SOL    HW222665   4.008   1.996   7.540 -0.6056 -2.2791 -0.2753
 3678SOL     OW22666   3.869   1.073   6.403  0.0499 -0.2726 -0.1848
 3678SOL    HW122667   3.927   1.085   6.328  0.2892 -3.9279 -0.6044
 3678SOL    HW222668   3.794   1.034   6.359 -0.0595  0.6639 -0.8222
 3679SOL     OW22669   1.994   3.649   3.722  0.2735 -0.5981  0.3923
 3679SOL    HW122670   1.974   3.678   3.811  0.6927  1.6600 -0.2444
 3679SOL    HW222671   1.943   3.568   3.716 -1.9617  0.9291 -1.5228
 3680SOL     OW22672   0.127   2.578   5.537 -0.0012  0.4674  0.5439
 3680SOL    HW122673   0.130   2.499   5.592 -2.3431 -0.4498 -0.6504
 3680SOL    HW222674   0.155   2.652   5.591 -2.4881  2.1705 -0.5388
 3681SOL     OW22675   4.184   0.664  14.406  0.0268  0.1153  0.1428
 3681SOL    HW122676   4.227   0.724  14.344 -1.6548  0.7836 -0.3590
 3681SOL    HW222677   4.147   0.610  14.336  0.0770 -0.2231  0.3794
 3682SOL     OW22678   3.965   3.921   5.859  0.4507 -0.3632  0.1131
 3682SOL    HW122679   4.052   3.954   5.882 -0.2182  1.5448 -0.1181
 3682SOL    HW222680   3.994   3.854   5.796 -3.1590 -3.7355  2.0474
 3683SOL     OW22681   1.031   1.869   3.397 -0.9844 -0.4111 -0.0439
 3683SOL    HW122682   1.126   1.874   3.402 -1.1079  0.4535  1.3982
 3683SOL    HW222683   1.010   1.786   3.440  0.5449 -1.2562 -0.9604
 3684SOL     OW22684   3.783   2.730  15.902 -0.2027 -0.4254 -0.2370
 3684SOL    HW122685   3.692   2.753  15.924  0.5822  0.3722  2.0936
 3684SOL    HW222686   3.773   2.667  15.830  0.1821  0.8588 -1.4120
 3685SOL     OW22687   1.217   4.695  11.983 -0.1156 -1.0655 -0.2503
 3685SOL    HW122688   1.219   0.050  11.955  1.3815 -0.6456  1.2078
 3685SOL    HW222689   1.305   4.672  11.955  0.0546 -0.3349 -0.3189
 3686SOL     OW22690   3.628   0.383  12.177  0.0970  0.0192  0.8615
 3686SOL    HW122691   3.574   0.455  12.145  0.2582  0.3031  1.2325
 3686SOL    HW222692   3.696   0.375  12.110 -0.9225 -2.3251  0.1130
 3687SOL     OW22693   0.987   2.976   7.321 -0.0166  0.2914  0.5704
 3687SOL    HW122694   0.994   2.927   7.403 -1.3252  1.2455  1.2629
 3687SOL    HW222695   0.894   2.992   7.303  0.6792  1.7504 -1.7187
 3688SOL     OW22696   3.630   2.240   3.931 -0.0914 -0.1157  0.4091
 3688SOL    HW122697   3.575   2.177   3.977 -0.4592  0.0575  0.1995
 3688SOL    HW222698   3.608   2.324   3.970 -1.3815 -0.1189 -0.3380
 3689SOL     OW22699   4.547   0.182   4.273  0.5080 -0.8786 -0.1492
 3689SOL    HW122700   4.608   0.255   4.262 -0.6087  0.3400  1.6499
 3689SOL    HW222701   4.531   0.189   4.368 -1.6312 -2.4273 -0.3861
 3690SOL     OW22702   2.660   2.079   9.806  0.2964 -0.3610 -0.0132
 3690SOL    HW122703   2.675   2.130   9.726  0.5736 -1.9788 -0.9999
 3690SOL    HW222704   2.750   2.047   9.809  0.5690  0.4370  0.2503
 3691SOL     OW22705   1.382   1.024   4.300 -0.1824 -0.3220 -0.3152
 3691SOL    HW122706   1.381   1.055   4.391  1.6857 -0.1406 -0.3574
 3691SOL    HW222707   1.413   0.936   4.319  0.9158 -0.1509 -1.3733
 3692SOL     OW22708   2.509   2.904  16.566  0.2771 -0.2169  0.1932
 3692SOL    HW122709   2.472   2.988  16.540  0.6768 -0.0871  0.0466
 3692SOL    HW222710   2.601   2.912  16.539  1.1020 -0.7393  2.8552
 3693SOL     OW22711   0.192   1.651   0.465  0.2850 -0.4779 -0.1103
 3693SOL    HW122712   0.199   1.556   0.472 -0.1316 -0.5343 -0.4387
 3693SOL    HW222713   0.283   1.663   0.491  0.7446 -0.1506 -1.8928
 3694SOL     OW22714   3.428   1.768   7.485 -0.2962 -0.2301  0.2757
 3694SOL    HW122715   3.518   1.772   7.450 -0.3309  0.0030  0.2172
 3694SOL    HW222716   3.401   1.677   7.472  0.4109 -0.3623 -0.3264
 3695SOL     OW22717   0.145   2.881   8.256  0.4034  0.1190  0.6270
 3695SOL    HW122718   0.053   2.886   8.282  0.6335  3.2584  0.8472
 3695SOL    HW222719   0.169   2.973   8.252  1.2356 -0.1992 -1.7695
 3696SOL     OW22720   4.208   3.457   2.032  0.1026 -0.1505 -0.0270
 3696SOL    HW122721   4.235   3.385   1.975  0.4595  0.6065 -0.8012
 3696SOL    HW222722   4.258   3.432   2.110  1.1188 -0.8805 -0.9221
 3697SOL     OW22723   2.656   1.858   4.487 -0.1942 -0.1626  0.6853
 3697SOL    HW122724   2.588   1.914   4.526 -1.5489 -1.6683  0.4721
 3697SOL    HW222725   2.649   1.780   4.542 -0.1624 -0.9366 -0.4198
 3698SOL     OW22726   2.309   2.806   5.602  0.6791 -0.3319 -0.6618
 3698SOL    HW122727   2.334   2.896   5.620 -1.5376  0.1683 -0.0448
 3698SOL    HW222728   2.386   2.781   5.552  2.9222  0.2438  2.5129
 3699SOL     OW22729   0.435   3.635  14.185  0.6576 -0.0573  0.1554
 3699SOL    HW122730   0.341   3.651  14.182  0.2224 -2.2502  1.8074
 3699SOL    HW222731   0.438   3.575  14.260  0.4810 -2.1992 -1.5474
 3700SOL     OW22732   1.945   1.112   1.851  0.0463 -0.1814 -0.5820
 3700SOL    HW122733   1.971   1.098   1.760  1.5688  0.8040 -0.3044
 3700SOL    HW222734   1.871   1.171   1.838 -0.4303 -0.8129 -0.6893
 3701SOL     OW22735   4.207   4.216   5.303 -0.3579  0.6199 -0.3135
 3701SOL    HW122736   4.275   4.182   5.362  0.6653  0.5107 -1.5648
 3701SOL    HW222737   4.249   4.216   5.217 -0.4119  1.3488 -0.3395
 3702SOL     OW22738   4.076   1.438   5.049 -0.6392  0.0171  0.4028
 3702SOL    HW122739   4.104   1.373   4.985 -0.8767  0.3638 -0.0512
 3702SOL    HW222740   4.128   1.516   5.027  0.5054 -0.6570  0.7210
 3703SOL     OW22741   4.394   1.842   5.428  0.0973  0.7020  0.8023
 3703SOL    HW122742   4.407   1.754   5.393  1.3810  0.3251  2.1745
 3703SOL    HW222743   4.360   1.887   5.352  0.0141  1.2127  1.1443
 3704SOL     OW22744   1.686   0.485   2.284  0.5023  0.1732  0.4839
 3704SOL    HW122745   1.625   0.412   2.280  1.8602 -0.8966 -1.2362
 3704SOL    HW222746   1.741   0.467   2.207 -0.6205  0.6411 -0.4274
 3705SOL     OW22747   0.857   3.885   2.747 -0.3420 -0.0746  0.0097
 3705SOL    HW122748   0.918   3.944   2.791 -0.3322  0.2136 -0.3881
 3705SOL    HW222749   0.770   3.917   2.772 -1.0937 -1.0060 -1.4327
 3706SOL     OW22750   3.037   0.243  12.844 -0.0377  0.0798  0.4710
 3706SOL    HW122751   3.042   0.151  12.871 -2.5979 -0.4782 -0.9600
 3706SOL    HW222752   3.060   0.293  12.923  1.4997  0.6828 -0.3487
 3707SOL     OW22753   1.485   0.707   4.174  0.3168  0.2654 -0.2401
 3707SOL    HW122754   1.551   0.776   4.170  1.8750 -1.2193 -0.0123
 3707SOL    HW222755   1.423   0.729   4.105  1.5309 -1.6044 -1.9227
 3708SOL     OW22756   4.031   4.397   2.285 -0.1035  0.3784 -0.3304
 3708SOL    HW122757   4.118   4.425   2.311 -0.5369  1.7847 -0.4054
 3708SOL    HW222758   3.977   4.456   2.337 -0.9116 -2.5873  2.1584
 3709SOL     OW22759   0.398   0.841  16.475  0.4051 -0.2390 -0.2382
 3709SOL    HW122760   0.448   0.778  16.423  0.9904  0.9297 -1.1057
 3709SOL    HW222761   0.345   0.883  16.408  0.8847 -1.1005 -1.1529
 3710SOL     OW22762   2.561   3.775   2.657 -0.1957 -0.1726 -0.2859
 3710SOL    HW122763   2.523   3.839   2.597 -2.3482  0.1047  1.3776
 3710SOL    HW222764   2.542   3.695   2.608  1.8195 -1.9809  1.9105
 3711SOL     OW22765   3.864   0.318  13.556 -0.0640  0.5407  0.0383
 3711SOL    HW122766   3.914   0.394  13.526 -3.4066  1.3551 -3.3928
 3711SOL    HW222767   3.791   0.309  13.495  0.8515 -0.9838 -0.8010
 3712SOL     OW22768   2.831   1.750   9.529  0.3714  0.3894  0.6025
 3712SOL    HW122769   2.738   1.770   9.522 -0.1882 -1.9670  1.6181
 3712SOL    HW222770   2.870   1.771   9.444 -1.9105 -2.1868 -1.0528
 3713SOL     OW22771   4.007   3.624   6.297 -0.2318  0.4001  0.3442
 3713SOL    HW122772   4.001   3.684   6.222 -0.2867  1.4272  1.1733
 3713SOL    HW222773   3.952   3.549   6.274  1.1574 -1.0797  1.8629
 3714SOL     OW22774   4.090   1.797   7.296 -0.2768 -0.0336  0.4885
 3714SOL    HW122775   4.145   1.720   7.308 -1.2403 -0.6546  0.9474
 3714SOL    HW222776   4.004   1.758   7.309  0.3378 -1.7820 -0.6905
 3715SOL     OW22777   3.508   0.196   3.093 -0.1355 -0.2177 -0.3832
 3715SOL    HW122778   3.413   0.186   3.085 -0.0893  0.2230 -1.6063
 3715SOL    HW222779   3.513   0.278   3.043  1.2710 -0.3921 -0.5172
 3716SOL     OW22780   2.078   2.650   4.114  0.1206 -0.0260 -0.6019
 3716SOL    HW122781   1.993   2.610   4.097  0.4760 -0.7326 -0.6820
 3716SOL    HW222782   2.053   2.732   4.157 -1.8872 -0.4266 -1.0245
 3717SOL     OW22783   0.808   1.526   4.948 -0.1632  0.2868  0.7252
 3717SOL    HW122784   0.796   1.442   4.905 -1.3349  0.2015  1.2192
 3717SOL    HW222785   0.899   1.537   4.919 -0.4026 -0.1096 -0.1628
 3718SOL     OW22786   0.855   2.148   6.306  0.2098  0.0717  0.4177
 3718SOL    HW122787   0.920   2.081   6.328  0.0070 -0.4858 -0.7213
 3718SOL    HW222788   0.913   2.224   6.315  0.0366  0.2750 -0.1697
 3719SOL     OW22789   1.865   4.177   5.266  0.3622  0.2631 -0.0817
 3719SOL    HW122790   1.882   4.267   5.297 -1.7528  0.6682 -0.1486
 3719SOL    HW222791   1.779   4.186   5.227  1.2743  1.4973 -1.8056
 3720SOL     OW22792   3.199   0.321   2.724  0.4865  0.1344 -0.0991
 3720SOL    HW122793   3.118   0.281   2.695  0.0473  2.3627 -1.8926
 3720SOL    HW222794   3.180   0.414   2.731 -0.9797 -0.1918  0.1264
 3721SOL     OW22795   0.514   2.389   1.796 -0.5497  0.3237  0.1745
 3721SOL    HW122796   0.607   2.389   1.819 -0.3016 -1.5825 -0.8398
 3721SOL    HW222797   0.477   2.439   1.868  1.0040  0.3629  0.9627
 3722SOL     OW22798   0.897   2.119  14.136  0.3731 -0.4264  0.4859
 3722SOL    HW122799   0.935   2.205  14.118 -0.8921 -0.0827 -0.5352
 3722SOL    HW222800   0.846   2.113  14.217 -1.3878  0.4762 -0.5749
 3723SOL     OW22801   0.713   4.708   8.953 -0.7021 -0.1066 -0.3355
 3723SOL    HW122802   0.754   0.028   9.018 -0.3752  0.3068 -0.9008
 3723SOL    HW222803   0.624   0.006   8.951 -1.0238 -0.8878  0.0511
 3724SOL     OW22804   3.519   4.645  17.688 -0.5907  0.3999  0.1606
 3724SOL    HW122805   3.551   4.711   0.003 -1.9601 -0.6774  1.9900
 3724SOL    HW222806   3.585   4.578  17.707  2.5723  2.9303 -1.9745
 3725SOL     OW22807   1.431   0.350   4.508 -0.2413  0.0376  0.5764
 3725SOL    HW122808   1.429   0.288   4.436  0.7641  0.2091  0.4078
 3725SOL    HW222809   1.433   0.433   4.459 -1.1018  0.0199  0.5153
 3726SOL     OW22810   3.914   3.112   2.650  0.2913  0.0494  0.1753
 3726SOL    HW122811   3.955   3.188   2.608 -0.9968  0.6713  0.0308
 3726SOL    HW222812   3.984   3.052   2.623 -0.1220 -1.1030  1.6850
 3727SOL     OW22813   4.344   0.005   2.937  0.4073 -0.2230 -0.0465
 3727SOL    HW122814   4.264   0.052   2.958  1.0493  1.8599 -2.3582
 3727SOL    HW222815   4.403   0.072   2.903  0.9555 -0.6806 -0.0076
 3728SOL     OW22816   3.724   0.407   8.361 -0.0781  0.4654  0.1759
 3728SOL    HW122817   3.816   0.392   8.339 -0.5584  0.3989 -1.7660
 3728SOL    HW222818   3.686   0.359   8.287  0.0267  0.1223  0.3430
 3729SOL     OW22819   4.491   0.577   7.966 -0.5480 -0.0313 -0.2415
 3729SOL    HW122820   4.529   0.499   7.924 -0.2669 -1.7422  3.2136
 3729SOL    HW222821   4.538   0.644   7.917 -2.0225 -0.3011 -2.0402
 3730SOL     OW22822   2.563   3.343  17.469  0.0864 -0.3501 -0.4253
 3730SOL    HW122823   2.650   3.336  17.507 -0.0473  2.0361  0.2709
 3730SOL    HW222824   2.562   3.439  17.473  2.5417 -0.3685  0.8202
 3731SOL     OW22825   4.326   4.457   4.470 -0.1258 -0.2956 -0.9488
 3731SOL    HW122826   4.417   4.481   4.488 -0.5796  0.7351 -0.0336
 3731SOL    HW222827   4.305   4.535   4.419 -0.1063  0.9010  0.8862
 3732SOL     OW22828   2.356   3.782   1.899  0.8069 -1.3679  0.2526
 3732SOL    HW122829   2.312   3.729   1.832  0.8602  1.1571 -1.7655
 3732SOL    HW222830   2.443   3.744   1.912  1.6931  0.3551 -0.7186
 3733SOL     OW22831   2.849   2.065   4.495 -0.2882 -0.1199 -0.0726
 3733SOL    HW122832   2.796   2.001   4.447  0.2812 -2.4712  2.3952
 3733SOL    HW222833   2.830   2.154   4.466  0.0793 -0.5898 -1.7556
 3734SOL     OW22834   3.580   3.009   5.631 -1.0258  0.0475  0.3840
 3734SOL    HW122835   3.512   3.075   5.628 -2.7932 -1.7100  1.4767
 3734SOL    HW222836   3.532   2.927   5.640 -1.3534  0.5086  2.9861
 3735SOL     OW22837   1.651   3.857   7.476 -0.0203  0.3881 -0.2844
 3735SOL    HW122838   1.658   3.776   7.526 -1.2632  0.8894  0.7030
 3735SOL    HW222839   1.642   3.922   7.545  2.2549 -0.3060  0.6825
 3736SOL     OW22840   0.068   0.450   1.909  0.1719  0.0663 -0.0031
 3736SOL    HW122841   0.108   0.434   1.994  2.4408 -0.9825 -1.2557
 3736SOL    HW222842   0.129   0.387   1.871 -0.6006 -0.5580 -0.2190
 3737SOL     OW22843   1.141   4.139   7.523 -0.3303 -0.5733  0.1261
 3737SOL    HW122844   1.153   4.232   7.541  1.8611 -0.6442 -0.9662
 3737SOL    HW222845   1.070   4.144   7.459 -1.5339 -1.7495  1.3355
 3738SOL     OW22846   2.743   3.903   5.993 -0.3809 -0.5223 -0.5274
 3738SOL    HW122847   2.826   3.946   5.973 -0.2486 -0.9690 -0.9405
 3738SOL    HW222848   2.684   3.952   5.937  0.6412  0.0558 -1.0986
 3739SOL     OW22849   2.861   0.009   4.259  0.1674  0.3572 -0.2424
 3739SOL    HW122850   2.943   0.037   4.300 -0.8852 -1.0796  2.8270
 3739SOL    HW222851   2.894   4.661   4.229  0.6725  0.6073 -0.4003
 3740SOL     OW22852   1.691   0.252   4.583 -0.1485  0.2450  0.0468
 3740SOL    HW122853   1.696   0.348   4.582 -1.5947  0.3115 -0.5808
 3740SOL    HW222854   1.596   0.246   4.588 -0.1216  1.2955  1.8951
 3741SOL     OW22855   1.054   1.643   1.786  0.0483 -0.2995  0.2158
 3741SOL    HW122856   1.030   1.574   1.724 -0.1473  0.5267 -0.6343
 3741SOL    HW222857   1.095   1.700   1.720  0.3806 -1.6143 -0.7052
 3742SOL     OW22858   0.761   3.167   6.801  0.7472 -0.1104  0.5115
 3742SOL    HW122859   0.769   3.078   6.767 -0.1243  0.3946 -1.0099
 3742SOL    HW222860   0.669   3.191   6.788  0.3941 -1.5327  0.4100
 3743SOL     OW22861   4.664   4.626   7.112  0.1176  0.1388 -0.0136
 3743SOL    HW122862   4.719   4.701   7.092 -0.0247  0.3642  0.4280
 3743SOL    HW222863   4.595   4.680   7.152  1.0756  1.1306  0.2939
 3744SOL     OW22864   3.715   2.795   1.839  0.0079  0.3301  0.1869
 3744SOL    HW122865   3.695   2.884   1.810 -0.9929  0.7176  2.0593
 3744SOL    HW222866   3.636   2.749   1.809  0.5747  0.3214 -1.3120
 3745SOL     OW22867   3.290   1.726   3.420 -0.0870 -0.5759  0.6637
 3745SOL    HW122868   3.328   1.644   3.390 -0.3843 -0.2168 -0.7011
 3745SOL    HW222869   3.370   1.757   3.463 -0.9215  1.6842  0.6134
 3746SOL     OW22870   0.884   1.611  17.564 -0.1392 -0.5095  0.6042
 3746SOL    HW122871   0.928   1.532  17.532 -0.4284  0.2062 -1.5471
 3746SOL    HW222872   0.800   1.576  17.595  0.0389 -2.1011 -0.6955
 3747SOL     OW22873   1.570   1.759   7.818 -0.4985 -0.5581 -0.0722
 3747SOL    HW122874   1.511   1.833   7.834  0.2715 -0.0498  0.4223
 3747SOL    HW222875   1.603   1.777   7.730 -0.7281  0.4305  0.0383
 3748SOL     OW22876   1.194   4.539  14.261 -0.1242  0.0890 -0.4852
 3748SOL    HW122877   1.247   4.460  14.249 -1.0788 -0.3371 -1.9196
 3748SOL    HW222878   1.107   4.505  14.241 -0.8868  0.0250  3.1267
 3749SOL     OW22879   3.789   3.948   7.579  0.4959 -0.4175 -0.4882
 3749SOL    HW122880   3.866   3.911   7.623 -0.0614  1.5292  2.1229
 3749SOL    HW222881   3.780   4.039   7.606  1.2726 -0.4574 -0.0889
 3750SOL     OW22882   1.137   4.247   1.870 -0.0086  0.4108 -0.3810
 3750SOL    HW122883   1.094   4.168   1.904 -0.1718 -0.3935 -2.4558
 3750SOL    HW222884   1.091   4.258   1.787 -2.3535  0.9205  0.9719
 3751SOL     OW22885   0.620   3.189   4.805  0.7476  0.5713 -0.1803
 3751SOL    HW122886   0.681   3.207   4.876 -1.3359 -0.8008  1.9432
 3751SOL    HW222887   0.667   3.130   4.746  0.2713  1.7049 -1.7024
 3752SOL     OW22888   4.378   0.243   9.479 -0.4321  0.7402 -0.1175
 3752SOL    HW122889   4.375   0.262   9.385 -2.2954  2.3656  0.2679
 3752SOL    HW222890   4.465   0.270   9.509 -0.5458 -1.6265  2.2883
 3753SOL     OW22891   2.047   3.879   8.929 -0.0334  0.3653 -0.0803
 3753SOL    HW122892   2.015   3.932   8.856 -1.1547 -0.5313 -0.2359
 3753SOL    HW222893   2.025   3.791   8.898  1.4356  0.4071 -1.2416
 3754SOL     OW22894   2.340   1.729  15.656 -0.1506 -0.0169 -0.2229
 3754SOL    HW122895   2.397   1.744  15.581 -0.8368 -0.2670 -0.8056
 3754SOL    HW222896   2.409   1.725  15.722  1.5381 -0.1308 -2.0015
 3755SOL     OW22897   0.924   1.837   6.851 -0.0853 -0.4008  0.0071
 3755SOL    HW122898   0.830   1.819   6.849  0.0888 -1.2503 -0.5182
 3755SOL    HW222899   0.960   1.749   6.865  0.3462 -0.7498 -3.2826
 3756SOL     OW22900   3.288   2.472  10.749  0.2104  0.1721 -0.0974
 3756SOL    HW122901   3.204   2.518  10.742  2.1286  3.4809 -1.3652
 3756SOL    HW222902   3.275   2.407  10.680 -1.5339 -0.4418  0.8153
 3757SOL     OW22903   1.862   0.787   8.159 -0.4879  0.3857 -0.5593
 3757SOL    HW122904   1.948   0.776   8.200 -0.6699  0.1252 -0.2427
 3757SOL    HW222905   1.884   0.843   8.085 -0.2900  1.4723  0.3307
 3758SOL     OW22906   0.779   2.833   8.089  0.0680  0.0559 -0.6803
 3758SOL    HW122907   0.700   2.804   8.135  0.3568  0.7495  0.2639
 3758SOL    HW222908   0.794   2.768   8.020  1.1873  1.0453 -1.3694
 3759SOL     OW22909   4.736   3.687   3.655  0.2769  0.4653 -0.1040
 3759SOL    HW122910   0.039   3.733   3.582  1.2803  1.0921  0.8506
 3759SOL    HW222911   0.052   3.714   3.729  0.1071  1.8007 -0.4744
 3760SOL     OW22912   1.331   1.952  10.019 -0.7013  0.3175  0.2153
 3760SOL    HW122913   1.374   1.915  10.095  2.2825 -0.8784 -2.0559
 3760SOL    HW222914   1.334   2.046  10.039  0.2720  0.5486 -0.9648
 3761SOL     OW22915   0.794   0.666   6.699 -0.1604  0.2214  0.3159
 3761SOL    HW122916   0.717   0.711   6.733  0.1016  0.3112  0.7825
 3761SOL    HW222917   0.847   0.740   6.671 -1.6141  1.6179  1.2400
 3762SOL     OW22918   3.392   1.689   8.954  0.4157  0.0749  0.4258
 3762SOL    HW122919   3.317   1.635   8.929 -0.4321  0.7924  1.4458
 3762SOL    HW222920   3.389   1.738   8.872 -1.3810 -2.7423 -1.1780
 3763SOL     OW22921   2.189   3.440  10.412 -0.0647 -0.0623 -0.0462
 3763SOL    HW122922   2.200   3.398  10.498  1.8936  1.1204  0.2687
 3763SOL    HW222923   2.098   3.469  10.419  0.1697  0.7475 -0.4570
 3764SOL     OW22924   0.392   1.225   3.308 -0.2184 -0.4106 -0.1717
 3764SOL    HW122925   0.300   1.251   3.306  0.2905  1.4106  0.9770
 3764SOL    HW222926   0.402   1.172   3.229 -0.8587  1.4983 -1.5340
 3765SOL     OW22927   4.349   3.684   4.939 -0.0672 -0.0303  0.0231
 3765SOL    HW122928   4.308   3.598   4.947  0.0002 -0.1839 -1.2132
 3765SOL    HW222929   4.312   3.727   4.861 -0.1729 -0.9761 -0.4469
 3766SOL     OW22930   3.731   3.107   7.700 -0.0783  0.1186 -0.3182
 3766SOL    HW122931   3.804   3.134   7.644  0.1564  0.4392  0.1403
 3766SOL    HW222932   3.655   3.092   7.645 -1.9983 -0.6647  2.5324
 3767SOL     OW22933   1.788   3.221   2.828 -0.4107 -0.5199 -0.3147
 3767SOL    HW122934   1.805   3.152   2.764  0.1732  1.2979 -2.1030
 3767SOL    HW222935   1.869   3.225   2.879 -1.3752  0.4312  1.1413
 3768SOL     OW22936   3.449   0.046   1.902 -0.5571 -0.1444  0.4490
 3768SOL    HW122937   3.540   0.025   1.922 -0.4341  0.5598  0.6136
 3768SOL    HW222938   3.454   0.009   1.814 -1.7503  0.9316 -0.0772
 3769SOL     OW22939   0.948   1.818   8.250  0.2236 -0.6901  0.0839
 3769SOL    HW122940   0.916   1.729   8.259 -1.9393  0.0250 -0.4365
 3769SOL    HW222941   1.028   1.810   8.302 -0.8619  0.2054  1.8853
 3770SOL     OW22942   2.870   0.255   5.600  0.0097 -0.3321 -0.4731
 3770SOL    HW122943   2.824   0.187   5.551  4.5868 -2.2492 -2.0462
 3770SOL    HW222944   2.889   0.311   5.525 -1.9828  0.9127 -0.0421
 3771SOL     OW22945   0.507   0.531  11.308  0.3813 -0.3332  0.2837
 3771SOL    HW122946   0.494   0.625  11.323 -0.2961 -0.1872 -1.2038
 3771SOL    HW222947   0.449   0.512  11.235  0.3707  0.0037  0.2037
 3772SOL     OW22948   1.016   0.913   7.074 -0.1451 -0.7775 -0.3314
 3772SOL    HW122949   1.038   0.855   7.147  2.0514 -0.1174 -0.4701
 3772SOL    HW222950   1.005   0.994   7.124  1.8226 -0.6236 -0.1379
 3773SOL     OW22951   3.455   3.594   6.301 -0.1243  0.7809  0.1022
 3773SOL    HW122952   3.465   3.499   6.311 -0.6781  0.9265  2.1076
 3773SOL    HW222953   3.359   3.597   6.295 -0.1754  1.1144  1.0165
 3774SOL     OW22954   3.716   0.834   4.460 -0.3302  0.0123 -0.6512
 3774SOL    HW122955   3.726   0.915   4.410 -1.3810 -0.0470 -0.9573
 3774SOL    HW222956   3.802   0.797   4.439 -0.6427  0.5035 -2.7722
 3775SOL     OW22957   3.716   1.376   7.217  0.0226 -0.0425 -0.3042
 3775SOL    HW122958   3.683   1.290   7.243  2.5636 -0.3194  2.0593
 3775SOL    HW222959   3.810   1.388   7.235  0.2749 -0.1503 -1.5186
 3776SOL     OW22960   3.979   1.707  14.479 -0.2827  0.1869 -0.3852
 3776SOL    HW122961   4.017   1.794  14.463 -0.1111 -0.0432 -1.2696
 3776SOL    HW222962   3.935   1.687  14.397  0.4555 -2.8875 -0.0438
 3777SOL     OW22963   0.941   3.053   5.517 -0.2215 -0.2330  0.6056
 3777SOL    HW122964   0.935   3.077   5.425 -1.0299  0.2862  0.7967
 3777SOL    HW222965   0.908   3.136   5.551  0.0732  0.8260 -1.6530
 3778SOL     OW22966   2.665   1.296   3.891  0.2147  0.5407 -0.0941
 3778SOL    HW122967   2.690   1.207   3.916 -0.9922  0.1384 -0.3022
 3778SOL    HW222968   2.749   1.335   3.870 -0.3536  0.9659 -1.5253
 3779SOL     OW22969   4.055   1.552  15.182 -0.0136 -0.0724  0.3000
 3779SOL    HW122970   4.139   1.547  15.228 -0.9123 -2.7902  1.6719
 3779SOL    HW222971   4.048   1.462  15.152  3.7782 -0.0663 -0.6738
 3780SOL     OW22972   2.205   2.562  10.356  0.8691  0.4665 -0.1352
 3780SOL    HW122973   2.144   2.489  10.352 -1.0635  2.0764 -0.1700
 3780SOL    HW222974   2.161   2.627  10.301  3.1919  1.7830 -0.4492
 3781SOL     OW22975   0.044   2.846   7.224 -0.3395 -0.2809  0.0294
 3781SOL    HW122976   0.101   2.814   7.154  1.3219  0.2861  1.1097
 3781SOL    HW222977   0.003   2.919   7.179  1.1598 -1.2233 -2.8322
 3782SOL     OW22978   1.349   1.950   9.653 -0.1337 -0.0359 -0.1418
 3782SOL    HW122979   1.293   1.910   9.586  1.1738 -1.3689 -0.4277
 3782SOL    HW222980   1.377   2.035   9.620  0.7270  0.0993  0.9319
 3783SOL     OW22981   1.731   4.110  15.342 -0.5861 -0.7107 -0.5854
 3783SOL    HW122982   1.759   4.130  15.252 -0.9461  2.0449 -0.0865
 3783SOL    HW222983   1.642   4.139  15.361 -0.1597  0.1813  0.0286
 3784SOL     OW22984   0.085   4.693   3.261 -0.4102  0.4155  0.8241
 3784SOL    HW122985   0.092   4.716   3.353  0.7172 -0.6054  0.9891
 3784SOL    HW222986   0.178   4.689   3.241 -0.4566  2.0473  0.3079
 3785SOL     OW22987   1.420   1.266   6.950 -0.6939 -0.4865  0.1945
 3785SOL    HW122988   1.378   1.215   6.881 -0.3633 -0.5815  0.0638
 3785SOL    HW222989   1.451   1.346   6.907 -1.0197 -1.1969 -1.3613
 3786SOL     OW22990   2.896   0.074   3.478  0.5119  0.4864 -0.0690
 3786SOL    HW122991   2.930   0.040   3.561 -0.2358  3.0176  1.3029
 3786SOL    HW222992   2.837   0.005   3.449  1.3913  0.8321 -2.6189
 3787SOL     OW22993   1.881   1.255  13.165  0.7593  0.0691  0.3231
 3787SOL    HW122994   1.885   1.317  13.093  1.6678  0.2860  0.5531
 3787SOL    HW222995   1.841   1.308  13.235 -0.8261  0.6741 -1.0364
 3788SOL     OW22996   0.872   1.533   2.406 -0.5152  0.3175 -0.1065
 3788SOL    HW122997   0.889   1.460   2.466 -1.5207  1.1994  1.2601
 3788SOL    HW222998   0.820   1.594   2.459 -0.6776  0.4407 -0.4075
 3789SOL     OW22999   3.820   0.211   6.090  0.4226  0.3801  0.0780
 3789SOL    HW123000   3.830   0.143   6.157 -2.1770 -2.8475 -2.8155
 3789SOL    HW223001   3.725   0.223   6.092  0.4805  0.9707 -1.1761
 3790SOL     OW23002   0.075   4.443  17.463  0.2411 -0.6182  0.4868
 3790SOL    HW123003   0.084   4.369  17.524  0.6258 -1.4215 -0.5469
 3790SOL    HW223004   0.004   4.416  17.404 -0.1043  1.6410 -0.1170
 3791SOL     OW23005   3.239   3.689  17.492  0.0732  0.0926 -0.4013
 3791SOL    HW123006   3.207   3.672  17.403  2.1881 -3.3526 -0.4888
 3791SOL    HW223007   3.243   3.600  17.526 -2.8727 -0.2623 -0.9511
 3792SOL     OW23008   0.325   0.442   6.430  0.0995  0.2188  0.2154
 3792SOL    HW123009   0.289   0.417   6.345 -1.8295 -2.5898  1.8275
 3792SOL    HW223010   0.286   0.384   6.496 -2.4338  0.4245 -1.0857
 3793SOL     OW23011   0.010   0.090  11.631 -0.1153  0.0916  0.2315
 3793SOL    HW123012   0.075   0.020  11.637 -0.9348 -0.4911  2.3278
 3793SOL    HW223013   4.707   0.059  11.549  0.4009 -2.5015  0.9677
 3794SOL     OW23014   2.510   4.736  15.196  0.3832  0.5023 -0.8861
 3794SOL    HW123015   2.575   0.064  15.169  0.1333  0.7774 -0.8221
 3794SOL    HW223016   2.536   4.710  15.284  2.7563 -0.5346 -1.9081
 3795SOL     OW23017   1.454   3.548   9.526  0.5949  0.9300 -0.0429
 3795SOL    HW123018   1.456   3.614   9.457 -0.6118 -0.7033 -1.6678
 3795SOL    HW223019   1.484   3.603   9.598  1.9516  0.8227 -0.5184
 3796SOL     OW23020   2.340   4.238   4.449  0.0253  0.9233 -0.5266
 3796SOL    HW123021   2.391   4.273   4.376  2.1498 -0.6126  0.2521
 3796SOL    HW223022   2.261   4.211   4.402  0.7263  0.0456 -1.2058
 3797SOL     OW23023   1.097   0.992   8.572  0.1036  0.1816  0.0107
 3797SOL    HW123024   1.115   0.902   8.547  0.4800  0.1684  0.3309
 3797SOL    HW223025   1.165   1.038   8.524  1.1333 -2.7107 -1.3111
 3798SOL     OW23026   1.968   0.811   3.134 -0.1404 -0.2515 -0.2485
 3798SOL    HW123027   2.037   0.800   3.199 -0.9913 -0.9710  0.5523
 3798SOL    HW223028   1.895   0.847   3.185  0.3221 -0.0526  0.2787
 3799SOL     OW23029   2.770   4.303  15.177  0.9531  0.0864 -0.1152
 3799SOL    HW123030   2.696   4.300  15.117  0.9666 -1.9733 -0.0362
 3799SOL    HW223031   2.812   4.224  15.144 -0.3258 -0.2455 -0.9421
 3800SOL     OW23032   2.433   3.014   2.424 -0.3245  0.2764  0.6463
 3800SOL    HW123033   2.526   3.033   2.439  0.0737 -0.7684 -0.4852
 3800SOL    HW223034   2.422   3.052   2.338 -0.0498  0.6793  0.7906
 3801SOL     OW23035   3.214   3.289   6.497 -0.1201  0.3226  0.1715
 3801SOL    HW123036   3.213   3.235   6.576 -0.0349 -1.8264 -1.3205
 3801SOL    HW223037   3.174   3.363   6.544 -1.6809 -0.9297  0.8167
 3802SOL     OW23038   0.212   4.557   5.276 -0.3140 -0.0946  0.0425
 3802SOL    HW123039   0.160   4.638   5.283 -2.6230 -1.4403 -1.9156
 3802SOL    HW223040   0.194   4.527   5.187  0.7744  0.6073 -0.4177
 3803SOL     OW23041   4.455   2.896  15.381  0.4129  0.0359 -0.0538
 3803SOL    HW123042   4.518   2.845  15.432 -1.7601 -2.4809  0.1582
 3803SOL    HW223043   4.510   2.973  15.378 -1.5698  1.3951 -1.6396
 3804SOL     OW23044   3.430   3.167   1.023 -0.3217 -0.3548 -0.2583
 3804SOL    HW123045   3.442   3.100   0.956  0.1595  0.6332 -1.1820
 3804SOL    HW223046   3.451   3.247   0.973 -0.0069 -0.8283 -0.8893
 3805SOL     OW23047   2.272   1.419   3.376  0.2048 -0.5391  0.1900
 3805SOL    HW123048   2.213   1.492   3.356 -1.2634 -1.5740  0.7298
 3805SOL    HW223049   2.286   1.380   3.289 -1.1508  2.9587 -1.6246
 3806SOL     OW23050   1.342   3.447   7.686  0.0441  0.3633 -0.0482
 3806SOL    HW123051   1.253   3.445   7.721  0.0561 -1.5802 -0.1252
 3806SOL    HW223052   1.330   3.411   7.598 -2.7112  0.2525  0.3887
 3807SOL     OW23053   4.100   3.902   4.173 -0.9012  0.0791 -0.3086
 3807SOL    HW123054   4.187   3.924   4.141 -1.1340 -0.8515 -1.5782
 3807SOL    HW223055   4.113   3.812   4.205  2.0042  1.2469  1.7863
 3808SOL     OW23056   3.917   4.161  17.375  0.1272  0.4985  0.2670
 3808SOL    HW123057   3.856   4.190  17.443 -1.7818 -1.1075 -0.7653
 3808SOL    HW223058   3.991   4.128  17.426  1.5267  4.0168  0.5551
 3809SOL     OW23059   0.232   2.245   9.575  0.3912  0.3533 -0.4790
 3809SOL    HW123060   0.173   2.198   9.633  0.1568 -1.4785 -2.1963
 3809SOL    HW223061   0.162   2.269   9.513 -0.7850 -2.6130 -0.2950
 3810SOL     OW23062   3.623   3.069   3.683  0.1929  0.5947 -0.1515
 3810SOL    HW123063   3.668   3.006   3.627  0.5704  2.2740 -1.7602
 3810SOL    HW223064   3.684   3.064   3.757 -1.4333 -3.0419  0.9425
 3811SOL     OW23065   1.168   1.270   4.640  0.0611 -0.6311  0.1256
 3811SOL    HW123066   1.095   1.243   4.695 -0.9533  0.5892 -0.6234
 3811SOL    HW223067   1.124   1.339   4.590  1.2381 -1.1872 -1.6884
 3812SOL     OW23068   4.452   1.172   8.560  0.3286  0.1781  0.1373
 3812SOL    HW123069   4.372   1.219   8.583  0.1913 -0.4460  0.8916
 3812SOL    HW223070   4.470   1.215   8.476  1.2677  0.7458  0.6306
 3813SOL     OW23071   1.225   3.195   5.059 -0.5105 -0.7163  0.1500
 3813SOL    HW123072   1.198   3.152   4.978 -0.1812  0.2435 -0.4705
 3813SOL    HW223073   1.210   3.122   5.119  3.4681 -0.7092  1.1438
 3814SOL     OW23074   1.231   3.336  10.750  0.1286  0.1587 -0.0909
 3814SOL    HW123075   1.310   3.389  10.738  0.1901  0.2283  0.6449
 3814SOL    HW223076   1.252   3.296  10.834 -0.8547  1.1675  0.6232
 3815SOL     OW23077   0.311   2.647   4.820 -0.4149  0.1221 -0.2902
 3815SOL    HW123078   0.394   2.634   4.774 -1.1032 -0.6169 -1.3354
 3815SOL    HW223079   0.264   2.680   4.743  0.1176 -0.7097 -0.9793
 3816SOL     OW23080   2.861   3.647   6.673 -0.0588 -0.2293 -0.2012
 3816SOL    HW123081   2.841   3.692   6.755  1.3721  0.3617 -0.1870
 3816SOL    HW223082   2.788   3.585   6.668 -0.4894  0.2859 -0.2999
 3817SOL     OW23083   0.989   0.917   4.963  0.1642 -0.1308  0.2405
 3817SOL    HW123084   0.977   0.863   5.042 -1.0895  0.4835  0.4527
 3817SOL    HW223085   0.910   0.903   4.912  1.1740  1.2849 -1.7472
 3818SOL     OW23086   3.779   2.419   5.200 -0.3170 -0.1958  0.4745
 3818SOL    HW123087   3.869   2.411   5.231  0.0350 -1.4054 -0.8817
 3818SOL    HW223088   3.774   2.511   5.175  1.3613  0.0935  1.2015
 3819SOL     OW23089   1.493   4.148   4.720  0.3789 -0.1179 -0.4237
 3819SOL    HW123090   1.527   4.237   4.733  1.3959 -0.8130  1.6573
 3819SOL    HW223091   1.401   4.174   4.710  0.8691  0.6894 -3.0320
 3820SOL     OW23092   0.095   0.630  13.550  0.3071 -0.1506 -0.0933
 3820SOL    HW123093   0.047   0.673  13.478 -0.5013  0.3766  0.7560
 3820SOL    HW223094   0.093   0.536  13.534  1.2195 -0.3771  1.1517
 3821SOL     OW23095   2.339   2.010   9.300 -0.7131 -0.0324  0.9078
 3821SOL    HW123096   2.252   1.971   9.312  0.4207 -2.2001  2.0241
 3821SOL    HW223097   2.320   2.037   9.210 -0.4886  1.0448  1.1854
 3822SOL     OW23098   1.926   3.486   5.279  0.4027 -0.3064 -0.2275
 3822SOL    HW123099   1.833   3.508   5.269  0.3546  0.0288  0.9780
 3822SOL    HW223100   1.973   3.537   5.213 -1.7732 -0.7173 -2.1153
 3823SOL     OW23101   2.705   3.612   7.862 -0.5802 -0.9023 -0.0196
 3823SOL    HW123102   2.704   3.538   7.922 -1.5609  0.1433  1.2620
 3823SOL    HW223103   2.792   3.649   7.870  0.5425 -3.9566  1.8829
 3824SOL     OW23104   1.752   3.346   5.547 -0.1390  0.4017 -0.4204
 3824SOL    HW123105   1.740   3.377   5.457  0.9620 -1.6090 -1.2541
 3824SOL    HW223106   1.773   3.427   5.594 -3.6271  1.2293 -0.2338
 3825SOL     OW23107   1.837   1.853  16.108  0.8014  0.3855 -0.1818
 3825SOL    HW123108   1.904   1.791  16.082  2.0498  2.0144 -0.8008
 3825SOL    HW223109   1.892   1.930  16.119  0.8857  0.0325  1.9037
 3826SOL     OW23110   3.348   0.017  13.523  0.3430 -0.2470 -0.3815
 3826SOL    HW123111   3.409   4.706  13.579  0.4926 -0.2868 -0.5798
 3826SOL    HW223112   3.339   4.682  13.461  0.3712 -2.0021  1.6644
 3827SOL     OW23113   3.229   3.717  15.056 -0.4258 -0.0833 -0.1234
 3827SOL    HW123114   3.315   3.688  15.027 -1.2860 -1.7746 -1.0070
 3827SOL    HW223115   3.200   3.653  15.122 -1.4578  0.4780 -0.0249
 3828SOL     OW23116   2.316   1.817   8.046 -0.5299 -0.1758  0.4392
 3828SOL    HW123117   2.230   1.830   8.005  0.9259 -0.4428 -2.6776
 3828SOL    HW223118   2.382   1.864   7.996 -2.0147  1.6630  0.2138
 3829SOL     OW23119   0.683   3.019   7.282 -0.1821  0.4969 -0.5800
 3829SOL    HW123120   0.641   3.013   7.196 -1.1246 -0.4638 -0.0437
 3829SOL    HW223121   0.645   2.942   7.322  2.0595 -1.1430 -1.5896
 3830SOL     OW23122   3.362   2.229   8.876 -0.0885  0.4042 -0.0401
 3830SOL    HW123123   3.297   2.158   8.874  0.4289 -0.1422  2.6718
 3830SOL    HW223124   3.314   2.284   8.938 -0.7413 -0.6251  0.3707
 3831SOL     OW23125   0.335   3.393   7.708 -0.0448 -0.3562 -0.1633
 3831SOL    HW123126   0.248   3.359   7.688 -0.8273  1.7771 -0.4452
 3831SOL    HW223127   0.381   3.315   7.739 -0.9715 -1.7844 -2.3853
 3832SOL     OW23128   0.784   1.385  16.697 -0.1133 -0.0598  0.4962
 3832SOL    HW123129   0.798   1.306  16.749 -2.2321 -0.1887  0.8624
 3832SOL    HW223130   0.826   1.447  16.756 -0.2994  0.0748  0.4855
 3833SOL     OW23131   3.375   4.366  10.203  0.0573  0.0306  0.1192
 3833SOL    HW123132   3.403   4.279  10.230 -0.7986 -0.3027 -0.0728
 3833SOL    HW223133   3.435   4.422  10.253 -1.2312  0.6095  1.0101
 3834SOL     OW23134   0.581   3.721   5.842 -0.0207 -0.2228  0.2676
 3834SOL    HW123135   0.570   3.646   5.783  0.0830 -0.8858  1.0847
 3834SOL    HW223136   0.672   3.721   5.871  0.2828 -3.4433 -0.6910
 3835SOL     OW23137   2.129   0.668   8.038 -0.2245  0.2836 -0.7093
 3835SOL    HW123138   2.197   0.731   8.016 -0.8197  1.2011  0.0360
 3835SOL    HW223139   2.077   0.647   7.960 -0.6993 -3.1858  0.5489
 3836SOL     OW23140   4.689   1.898   6.752  0.9569  0.3131  0.1071
 3836SOL    HW123141   4.690   1.835   6.681  1.3107  1.0455 -0.5425
 3836SOL    HW223142   4.645   1.971   6.708  3.0881  2.0447  0.7983
 3837SOL     OW23143   3.508   4.071   9.439  0.0269 -0.7875 -0.0407
 3837SOL    HW123144   3.478   4.158   9.465 -0.5680 -1.1213  0.3828
 3837SOL    HW223145   3.590   4.094   9.396 -1.3445  0.7184 -1.8923
 3838SOL     OW23146   0.864   0.408  15.546  0.1830 -0.2173 -0.6687
 3838SOL    HW123147   0.881   0.464  15.470 -1.9091 -2.9923 -3.2358
 3838SOL    HW223148   0.847   0.477  15.609  1.5518 -1.1667  0.7322
 3839SOL     OW23149   1.900   0.731   7.021  0.0626  0.6178  0.3117
 3839SOL    HW123150   1.852   0.805   6.986 -0.9606 -0.5735 -0.8039
 3839SOL    HW223151   1.827   0.675   7.047 -0.6092  1.3218 -0.0818
 3840SOL     OW23152   2.988   0.943   2.724 -0.0202  0.3761  0.0785
 3840SOL    HW123153   2.918   0.911   2.668 -0.0447  0.6167 -0.0259
 3840SOL    HW223154   2.937   0.916   2.800 -0.8369  1.7715  0.0108
 3841SOL     OW23155   2.740   0.335   6.440  0.1592 -0.3100 -0.4468
 3841SOL    HW123156   2.706   0.272   6.376 -0.1440 -0.8980  0.2889
 3841SOL    HW223157   2.660   0.376   6.472  0.2012 -1.2351  0.8536
 3842SOL     OW23158   4.256   3.855   9.659 -0.7604 -0.7942  0.3757
 3842SOL    HW123159   4.262   3.928   9.721  2.5103 -0.4238 -0.3657
 3842SOL    HW223160   4.342   3.815   9.670 -0.3517 -0.0608 -0.1314
 3843SOL     OW23161   4.034   0.872   8.775 -0.0582  0.2367  0.3168
 3843SOL    HW123162   3.965   0.871   8.708  0.7684 -1.0367 -0.5080
 3843SOL    HW223163   4.106   0.902   8.720 -1.0033  0.9341 -0.5578
 3844SOL     OW23164   2.290   0.191   8.345  0.4701 -0.1958  0.1931
 3844SOL    HW123165   2.343   0.209   8.268 -0.7852 -1.3214 -0.9269
 3844SOL    HW223166   2.202   0.219   8.320 -0.5271 -0.3923  3.4036
 3845SOL     OW23167   3.670   0.699  14.513 -0.5513  0.7206  0.1689
 3845SOL    HW123168   3.750   0.661  14.477 -1.5952 -0.8405 -0.4923
 3845SOL    HW223169   3.678   0.658  14.600 -1.0162  3.0857  1.3180
 3846SOL     OW23170   3.106   1.430   1.703  0.9316  0.4024 -0.7043
 3846SOL    HW123171   3.013   1.451   1.713  0.8641 -0.6710  1.0560
 3846SOL    HW223172   3.100   1.363   1.636 -0.5534  0.2267 -0.3966
 3847SOL     OW23173   4.693   2.811   6.810 -0.3698  0.2755 -0.0775
 3847SOL    HW123174   4.727   2.727   6.841  0.3436  0.4838 -0.2894
 3847SOL    HW223175   4.701   2.848   6.898  0.2481 -2.3202  0.9688
 3848SOL     OW23176   2.918   3.467  15.595 -0.0357 -0.8015  0.3328
 3848SOL    HW123177   2.897   3.379  15.566  0.3546 -0.6465 -0.4054
 3848SOL    HW223178   2.837   3.481  15.644  0.0557 -0.2654  0.3403
 3849SOL     OW23179   1.350   1.357   9.844 -0.3214 -0.0064  0.2886
 3849SOL    HW123180   1.415   1.376   9.912 -0.7297  0.6899  0.4826
 3849SOL    HW223181   1.331   1.264   9.860  0.9821 -0.2383  0.4978
 3850SOL     OW23182   1.778   2.181   2.031  0.6974 -0.2678  1.1497
 3850SOL    HW123183   1.847   2.175   2.096  0.6587  3.6557  1.5480
 3850SOL    HW223184   1.812   2.132   1.956 -0.3923  2.0164 -0.8536
 3851SOL     OW23185   1.450   4.216   8.647 -0.3434 -0.4021 -0.2655
 3851SOL    HW123186   1.370   4.164   8.658 -0.5857 -0.3198 -1.6183
 3851SOL    HW223187   1.498   4.161   8.585 -1.1734 -1.0721 -0.3268
 3852SOL     OW23188   1.056   2.205   4.530  0.0120 -0.2791 -0.1115
 3852SOL    HW123189   1.014   2.178   4.448  2.5331 -3.0366 -0.5324
 3852SOL    HW223190   1.147   2.222   4.503 -0.4831  1.6308 -0.5373
 3853SOL     OW23191   3.218   3.989   3.784 -0.1955 -0.1092  0.3913
 3853SOL    HW123192   3.272   3.916   3.816  0.6840  2.3774  4.5040
 3853SOL    HW223193   3.134   3.948   3.800 -0.8538  0.8598 -0.5753
 3854SOL     OW23194   3.164   2.169   0.666  0.2688 -0.0194  0.0485
 3854SOL    HW123195   3.155   2.237   0.599  1.8161  2.0751  1.9590
 3854SOL    HW223196   3.153   2.086   0.620  1.1735  0.8941 -1.7639
 3855SOL     OW23197   4.037   2.274   7.952 -0.3696  0.2812 -0.7901
 3855SOL    HW123198   3.955   2.323   7.961  0.1861  0.7601  1.6547
 3855SOL    HW223199   4.018   2.190   7.995 -1.0592  0.6334 -0.4012
 3856SOL     OW23200   3.105   0.272   6.294  0.1774  0.4366  0.3173
 3856SOL    HW123201   3.192   0.243   6.320  0.9943 -0.4085 -3.4474
 3856SOL    HW223202   3.113   0.367   6.294  0.3414  0.4338  2.8728
 3857SOL     OW23203   3.567   4.310   0.759  0.2474 -0.3431  0.2067
 3857SOL    HW123204   3.558   4.353   0.673  0.6859 -4.2330 -1.7881
 3857SOL    HW223205   3.577   4.387   0.815 -0.6140  1.5997 -2.3363
 3858SOL     OW23206   1.514   0.682  10.774  0.4355 -0.0858  0.1115
 3858SOL    HW123207   1.566   0.632  10.837 -1.1444 -0.4312  1.1500
 3858SOL    HW223208   1.454   0.612  10.750 -2.6339  0.8779  4.7794
 3859SOL     OW23209   2.919   2.427   5.196 -0.0557 -0.2819 -0.2442
 3859SOL    HW123210   2.943   2.480   5.273 -1.9088 -1.3238  1.0706
 3859SOL    HW223211   2.893   2.342   5.230 -1.0315  0.9340  2.0728
 3860SOL     OW23212   1.376   1.853   8.047 -0.5008  0.1216  0.7000
 3860SOL    HW123213   1.353   1.865   7.954 -2.4363 -0.1193  1.1432
 3860SOL    HW223214   1.327   1.928   8.081  0.8682  0.8036  1.1301
 3861SOL     OW23215   1.463   1.908  10.230  0.0606 -0.4262 -0.3149
 3861SOL    HW123216   1.464   1.936  10.322 -1.6157 -2.2838  0.2728
 3861SOL    HW223217   1.492   1.817  10.238 -0.7929 -0.8903 -2.7379
 3862SOL     OW23218   0.402   1.512   3.393 -0.3799 -0.1943  0.0073
 3862SOL    HW123219   0.400   1.573   3.466  0.3843 -2.6917  2.1278
 3862SOL    HW223220   0.442   1.447   3.452  1.4591  0.0814 -0.9263
 3863SOL     OW23221   1.018   0.981  14.481  0.1409 -0.3293 -0.0731
 3863SOL    HW123222   1.025   0.895  14.523  0.1076 -0.6038 -0.6254
 3863SOL    HW223223   0.924   0.990  14.467 -0.0840  3.3389  3.8022
 3864SOL     OW23224   1.615   0.945   5.227 -0.6044 -0.5470 -0.5797
 3864SOL    HW123225   1.544   0.991   5.184  0.2419 -1.3298 -2.8149
 3864SOL    HW223226   1.693   0.981   5.185 -0.0516 -1.5170 -0.3956
 3865SOL     OW23227   1.014   1.263   2.790  0.1496  0.2645  0.2576
 3865SOL    HW123228   0.982   1.213   2.714 -1.9052 -1.0922  2.0171
 3865SOL    HW223229   1.003   1.354   2.763 -1.0023 -0.0825 -0.4463
 3866SOL     OW23230   0.050   4.181   6.878  0.1890 -1.0729  0.5885
 3866SOL    HW123231   0.104   4.258   6.895 -0.5267 -0.6866  1.0725
 3866SOL    HW223232   4.698   4.214   6.877  1.0899  1.3213 -1.3346
 3867SOL     OW23233   4.059   3.786   9.467 -0.1666 -0.2052 -1.1570
 3867SOL    HW123234   4.097   3.700   9.452  3.6517  1.4811 -1.2565
 3867SOL    HW223235   4.112   3.818   9.540 -1.9624 -2.2933  1.0523
 3868SOL     OW23236   3.066   0.994   3.310 -0.1907  0.0184 -0.7021
 3868SOL    HW123237   3.068   0.927   3.242 -0.0859  0.4475 -1.1194
 3868SOL    HW223238   3.031   0.940   3.381  0.3380 -0.0989 -0.5242
 3869SOL     OW23239   3.298   3.896  10.264  0.0897 -0.2399  0.4728
 3869SOL    HW123240   3.205   3.890  10.242  0.2160  1.0535 -0.4134
 3869SOL    HW223241   3.335   3.817  10.223 -0.5014 -0.7349  0.8905
 3870SOL     OW23242   0.974   0.800   6.499  0.3716  0.3926  0.2973
 3870SOL    HW123243   0.937   0.887   6.512  0.5422  0.3437  1.0820
 3870SOL    HW223244   0.951   0.769   6.411  2.6991 -0.1166 -0.1357
 3871SOL     OW23245   0.396   1.181  13.325  0.1643  0.0832 -0.2032
 3871SOL    HW123246   0.469   1.121  13.341 -1.9013 -2.1494  0.9905
 3871SOL    HW223247   0.435   1.231  13.254 -0.5439  0.5470 -0.2703
 3872SOL     OW23248   4.683   1.572   7.183  0.5109  0.3627 -0.3139
 3872SOL    HW123249   4.660   1.651   7.133 -0.9569  0.2213  0.1184
 3872SOL    HW223250   4.684   1.510   7.110 -0.5499  2.3161 -1.9874
 3873SOL     OW23251   2.446   4.649   4.872 -0.1844  0.5355 -0.4150
 3873SOL    HW123252   2.482   4.727   4.830 -1.5186 -0.0345 -2.6009
 3873SOL    HW223253   2.509   4.591   4.829  1.2010  1.2233  0.6799
 3874SOL     OW23254   4.408   0.744   8.272  0.1237  0.2571 -0.1763
 3874SOL    HW123255   4.413   0.782   8.185 -0.5705  0.7170 -0.0182
 3874SOL    HW223256   4.475   0.676   8.269  0.1939  0.2423  1.6445
 3875SOL     OW23257   3.330   2.212   6.622  0.3425 -0.6352  0.1234
 3875SOL    HW123258   3.333   2.148   6.551 -2.7743  0.3825 -0.9494
 3875SOL    HW223259   3.386   2.168   6.686 -2.7588  0.2071  3.3977
 3876SOL     OW23260   1.300   1.093  10.926 -0.3669 -0.0253  0.5818
 3876SOL    HW123261   1.333   1.044  10.851 -0.3643  0.1682  0.4550
 3876SOL    HW223262   1.375   1.151  10.939 -0.4496  0.0567  0.6970
 3877SOL     OW23263   1.843   0.399   2.517 -0.2103 -0.3807  0.1385
 3877SOL    HW123264   1.914   0.357   2.468 -2.5381 -1.4946 -2.2511
 3877SOL    HW223265   1.816   0.459   2.447  1.2752 -1.5695 -1.4434
 3878SOL     OW23266   1.456   1.638  16.913 -1.0553  0.1640  0.4447
 3878SOL    HW123267   1.398   1.651  16.838  0.3794  1.1144 -0.4913
 3878SOL    HW223268   1.531   1.587  16.882  1.8752  3.7155  1.6356
 3879SOL     OW23269   3.099   4.554  11.383 -0.2091  0.1756 -0.3233
 3879SOL    HW123270   3.030   4.492  11.407 -0.7188  0.3853 -1.2386
 3879SOL    HW223271   3.082   4.635  11.432 -0.6978 -0.5828  0.7479
 3880SOL     OW23272   1.168   4.271   8.514  0.2195 -0.0608 -0.2544
 3880SOL    HW123273   1.128   4.257   8.428 -2.1638 -2.0882  1.1793
 3880SOL    HW223274   1.243   4.212   8.511  0.7190  0.5463  0.2689
 3881SOL     OW23275   1.734   3.098  15.218  0.3372  0.1555 -0.4128
 3881SOL    HW123276   1.751   3.034  15.287 -1.5713  0.9736  0.8082
 3881SOL    HW223277   1.653   3.135  15.254  0.5786  0.3434 -0.0605
 3882SOL     OW23278   3.668   3.533  12.712  0.4025  0.3291  0.4702
 3882SOL    HW123279   3.673   3.463  12.777  0.3779 -0.7954 -0.7398
 3882SOL    HW223280   3.697   3.609  12.761  0.8220 -0.8415  2.0466
 3883SOL     OW23281   3.821   0.788   5.698 -0.4529  0.5648  0.2666
 3883SOL    HW123282   3.835   0.872   5.740 -1.5442  0.5734  0.6041
 3883SOL    HW223283   3.803   0.730   5.771  0.2951  2.3015  1.8164
 3884SOL     OW23284   4.300   0.992   7.932  0.6232  0.5814 -0.1719
 3884SOL    HW123285   4.320   0.944   7.852  0.3615  2.1342 -1.1513
 3884SOL    HW223286   4.240   0.936   7.982  0.4533  0.9779  0.0711
 3885SOL     OW23287   3.755   4.493   5.526 -0.0706 -0.1616 -0.3369
 3885SOL    HW123288   3.684   4.489   5.463 -0.3000 -0.1629 -0.0809
 3885SOL    HW223289   3.798   4.408   5.520  0.8057  0.2449  0.0747
 3886SOL     OW23290   3.886   0.718  11.725  0.2641  0.2936  0.0493
 3886SOL    HW123291   3.918   0.787  11.783  1.4339  0.7899 -1.2127
 3886SOL    HW223292   3.967   0.706  11.676 -0.7848  0.0430 -1.6276
 3887SOL     OW23293   0.238   2.794  12.783 -0.1365 -0.5173 -0.2981
 3887SOL    HW123294   0.285   2.747  12.852  1.5565 -0.0722 -1.1348
 3887SOL    HW223295   0.153   2.803  12.826 -0.8276  0.1608 -1.8338
 3888SOL     OW23296   3.696   0.981   5.441 -0.2140  0.1402 -0.2988
 3888SOL    HW123297   3.736   0.896   5.457 -1.5820 -0.2278  1.1458
 3888SOL    HW223298   3.746   1.013   5.365 -0.8396 -0.7101 -1.0726
 3889SOL     OW23299   2.671   0.783   5.705  0.3244  0.7265 -0.4853
 3889SOL    HW123300   2.763   0.781   5.730 -0.0673  1.3601  1.0103
 3889SOL    HW223301   2.665   0.703   5.653 -0.3397  0.3463  0.1778
 3890SOL     OW23302   0.804   2.294  14.577 -0.5277 -0.2650  0.0539
 3890SOL    HW123303   0.754   2.375  14.564 -4.4707 -2.7578 -0.1109
 3890SOL    HW223304   0.836   2.306  14.666  0.5293 -2.0813 -0.0896
 3891SOL     OW23305   1.718   0.076   0.459  0.2980 -0.2562 -0.1598
 3891SOL    HW123306   1.660   0.023   0.403  1.2003 -2.7103  1.2199
 3891SOL    HW223307   1.737   0.147   0.399  0.0863  0.1903  0.2952
 3892SOL     OW23308   2.923   4.340   1.309 -0.4133  0.0505 -0.2700
 3892SOL    HW123309   2.979   4.262   1.303  1.2629  1.1468  1.2063
 3892SOL    HW223310   2.869   4.329   1.231  0.0145  4.5736 -1.1589
 3893SOL     OW23311   0.130   2.904  15.620 -0.2887  0.3276  0.5936
 3893SOL    HW123312   0.144   2.857  15.538  0.5215 -0.2387  1.0614
 3893SOL    HW223313   0.074   2.978  15.597  0.8111  0.9404 -0.1287
 3894SOL     OW23314   3.703   3.225  14.611  0.3559  0.4391  0.4295
 3894SOL    HW123315   3.686   3.236  14.517  2.0422  0.7800  0.1550
 3894SOL    HW223316   3.797   3.207  14.605 -0.2431 -1.3537 -3.6517
 3895SOL     OW23317   1.986   2.388  15.536 -0.0665 -0.5612  0.6124
 3895SOL    HW123318   2.076   2.381  15.504 -1.5692 -2.6269 -3.1099
 3895SOL    HW223319   2.000   2.462  15.596  1.3412  1.7927 -2.6408
 3896SOL     OW23320   0.709   3.336   7.644 -0.1548 -0.3547 -0.5412
 3896SOL    HW123321   0.642   3.278   7.681  0.2300 -1.9292 -2.3249
 3896SOL    HW223322   0.663   3.347   7.560 -1.5259  0.5357  0.3237
 3897SOL     OW23323   3.089   0.813  16.449 -0.4388 -0.2906  0.3626
 3897SOL    HW123324   3.088   0.869  16.526  0.7582 -1.0124  0.9068
 3897SOL    HW223325   3.057   0.873  16.382 -0.7404 -0.2472  0.5433
 3898SOL     OW23326   1.858   1.634   5.938 -0.2456  0.4900 -0.5825
 3898SOL    HW123327   1.915   1.563   5.966 -3.4221 -1.8948 -0.2772
 3898SOL    HW223328   1.773   1.592   5.929  0.4430 -1.4139  1.9561
 3899SOL     OW23329   3.971   4.474   8.928  0.4077  0.6774 -0.0843
 3899SOL    HW123330   3.887   4.512   8.953  0.0022  0.0940 -0.5499
 3899SOL    HW223331   3.955   4.384   8.958  0.5917  0.3953 -0.8208
 3900SOL     OW23332   0.844   1.683   5.182  0.4343  1.0466  0.0539
 3900SOL    HW123333   0.828   1.634   5.102 -1.2502  0.8704  0.4921
 3900SOL    HW223334   0.849   1.774   5.154  1.4734  0.3980 -1.8622
 3901SOL     OW23335   2.297   2.304   3.884  0.5569  0.0460 -0.3139
 3901SOL    HW123336   2.274   2.212   3.868 -0.0700  0.3735 -1.2426
 3901SOL    HW223337   2.330   2.328   3.798 -1.2334  2.1222 -0.4192
 3902SOL     OW23338   2.933   4.189   0.863  0.6307 -0.3591  0.1772
 3902SOL    HW123339   2.895   4.261   0.813  1.3862  0.3569  0.6336
 3902SOL    HW223340   3.016   4.226   0.893  0.9663 -0.1565 -1.0238
 3903SOL     OW23341   0.692   0.096   9.767 -0.3271  0.0978 -0.8966
 3903SOL    HW123342   0.728   0.016   9.805 -0.5052  0.9678  1.1150
 3903SOL    HW223343   0.653   0.077   9.682 -0.6102  1.5379 -1.0855
 3904SOL     OW23344   0.544   4.089  15.954 -0.5250  0.6231 -0.3068
 3904SOL    HW123345   0.533   4.058  16.043  1.0093  2.9759  0.7101
 3904SOL    HW223346   0.470   4.043  15.915  0.3677  2.6067 -4.3866
 3905SOL     OW23347   3.662   2.884   7.858 -0.1127 -0.3588 -0.7558
 3905SOL    HW123348   3.671   2.976   7.833 -1.0269  0.2637  1.1359
 3905SOL    HW223349   3.632   2.887   7.949  3.6594 -2.3455  0.5887
 3906SOL     OW23350   0.474   2.456   2.840 -0.3625  0.1613 -0.2895
 3906SOL    HW123351   0.479   2.364   2.813  0.9768  0.0673  0.2807
 3906SOL    HW223352   0.519   2.463   2.924 -4.5321 -3.1741  2.2305
 3907SOL     OW23353   1.343   3.939   3.258  0.0483 -0.0361 -0.4719
 3907SOL    HW123354   1.260   3.890   3.257 -0.4012  0.7264 -1.1402
 3907SOL    HW223355   1.338   3.985   3.341 -1.3127  1.0346 -1.1454
 3908SOL     OW23356   2.539   4.040  14.792 -0.3846  0.1403 -0.0700
 3908SOL    HW123357   2.550   4.102  14.864  1.4308 -0.7271  0.3971
 3908SOL    HW223358   2.451   4.064  14.763  0.0297 -0.8674 -2.1686
 3909SOL     OW23359   4.012   3.262  16.371  0.0923 -0.3788  0.3013
 3909SOL    HW123360   4.041   3.181  16.330 -2.6759  0.1944 -2.7471
 3909SOL    HW223361   4.055   3.333  16.323 -0.0786 -0.0522  0.6256
 3910SOL     OW23362   0.270   3.393   6.751 -0.9435 -0.4141  0.0741
 3910SOL    HW123363   0.258   3.420   6.842 -2.2479  1.5412 -0.6849
 3910SOL    HW223364   0.180   3.415   6.727 -1.3307 -3.3052 -1.0969
 3911SOL     OW23365   3.165   2.974  16.199  0.0529 -0.7673  0.0252
 3911SOL    HW123366   3.072   2.951  16.193  0.3851 -1.4432 -2.3037
 3911SOL    HW223367   3.202   2.886  16.189 -0.6686 -1.1251  0.4507
 3912SOL     OW23368   4.411   3.477   6.365 -0.0984  0.2591 -0.4885
 3912SOL    HW123369   4.338   3.431   6.323 -2.0019  2.0441  0.8405
 3912SOL    HW223370   4.471   3.478   6.291 -0.4913 -1.9207 -0.8249
 3913SOL     OW23371   1.278   4.253   2.393 -0.0124  0.6958 -0.6342
 3913SOL    HW123372   1.270   4.265   2.299  0.9502  0.0871 -0.7967
 3913SOL    HW223373   1.372   4.257   2.412  0.2779  1.1913 -2.2057
 3914SOL     OW23374   2.842   1.060   5.367 -0.1222 -0.2383  0.5458
 3914SOL    HW123375   2.870   1.072   5.276  2.2763  0.4244  1.3711
 3914SOL    HW223376   2.790   0.980   5.363 -1.4814  0.6873 -0.2742
 3915SOL     OW23377   3.072   3.605  10.859  0.0784 -0.0472  0.5721
 3915SOL    HW123378   3.118   3.590  10.941  0.3072  2.1808  0.8543
 3915SOL    HW223379   3.145   3.619  10.799  0.4631 -0.5218  0.9310
 3916SOL     OW23380   0.473   2.423   5.386  0.4904 -0.5097 -0.0568
 3916SOL    HW123381   0.569   2.424   5.390  0.3818  2.9093  2.3803
 3916SOL    HW223382   0.445   2.389   5.471  1.3696  2.0557  1.2929
 3917SOL     OW23383   2.763   3.620   4.232 -0.0225  0.7304 -0.3174
 3917SOL    HW123384   2.723   3.546   4.187 -0.1276 -0.2913  1.4819
 3917SOL    HW223385   2.717   3.618   4.316  0.6239  2.1730  0.0799
 3918SOL     OW23386   4.501   3.678   2.779 -0.5617 -0.0359  0.8052
 3918SOL    HW123387   4.420   3.728   2.766 -0.8504 -0.7552 -0.1140
 3918SOL    HW223388   4.497   3.672   2.875  0.7178 -0.1663  0.8482
 3919SOL     OW23389   0.771   0.692   4.332  0.0838 -0.3502  0.7434
 3919SOL    HW123390   0.826   0.615   4.318  0.4244 -0.0469  0.3904
 3919SOL    HW223391   0.811   0.751   4.268  0.0568  0.9747  1.9466
 3920SOL     OW23392   3.686   2.708   0.260  0.0308 -0.3032  0.0964
 3920SOL    HW123393   3.763   2.664   0.298  0.8051  1.0879  0.1604
 3920SOL    HW223394   3.734   2.755   0.192  0.7904  1.0889  1.5817
 3921SOL     OW23395   2.671   1.602  12.883 -0.2548 -0.2755  0.3579
 3921SOL    HW123396   2.651   1.620  12.975  2.4910  0.5567  0.7794
 3921SOL    HW223397   2.691   1.690  12.851  0.1019 -1.0067 -1.4691
 3922SOL     OW23398   2.266   2.132  11.473 -0.4230  0.3660 -0.0882
 3922SOL    HW123399   2.346   2.094  11.508  0.5359  1.9401 -0.5387
 3922SOL    HW223400   2.199   2.102  11.534  0.7545 -0.3596  0.8338
 3923SOL     OW23401   3.703   1.220   3.596  0.3476 -0.3815  0.1670
 3923SOL    HW123402   3.690   1.136   3.642  2.4866 -0.4463  0.6260
 3923SOL    HW223403   3.617   1.224   3.552  0.2676  3.0664  0.6250
 3924SOL     OW23404   1.339   3.730   8.676  0.1528 -0.4724  0.3339
 3924SOL    HW123405   1.365   3.717   8.585 -0.5861  0.7432 -0.0434
 3924SOL    HW223406   1.305   3.645   8.707  0.7777 -1.0142 -0.4594
 3925SOL     OW23407   4.485   3.038   8.549  0.7808  0.2680 -0.0526
 3925SOL    HW123408   4.504   2.974   8.617  0.8961  1.3161  0.9056
 3925SOL    HW223409   4.494   3.117   8.602  1.7083 -0.0782  0.3108
 3926SOL     OW23410   3.445   0.864   2.101 -0.5666 -0.2691  0.0360
 3926SOL    HW123411   3.404   0.894   2.182 -1.9877 -0.8487 -0.4658
 3926SOL    HW223412   3.455   0.950   2.061 -0.5189 -0.0614  0.4992
 3927SOL     OW23413   1.681   4.625  14.841 -0.2894  0.0876  0.4648
 3927SOL    HW123414   1.707   4.612  14.932  2.4979  3.7220  0.1767
 3927SOL    HW223415   1.743   4.695  14.821  0.7004 -0.7098  0.7271
 3928SOL     OW23416   0.071   1.884   2.317 -0.7828  0.3467 -0.1534
 3928SOL    HW123417   0.037   1.944   2.252 -0.8614  0.3344 -0.1229
 3928SOL    HW223418   0.102   1.809   2.265  1.5119  0.0488  1.6017
 3929SOL     OW23419   2.391   3.265   3.166 -0.4016  0.5971 -0.2107
 3929SOL    HW123420   2.470   3.253   3.113 -0.1463  2.4709 -0.2554
 3929SOL    HW223421   2.352   3.181   3.139  3.0705 -1.1771  0.3012
 3930SOL     OW23422   3.880   2.532  15.307  0.0132 -0.1347  0.1732
 3930SOL    HW123423   3.814   2.561  15.244 -0.3840 -1.2997  0.0611
 3930SOL    HW223424   3.956   2.534  15.248  1.0295 -2.6377  1.4208
 3931SOL     OW23425   3.592   2.757   3.791  0.2540 -0.4145  0.1704
 3931SOL    HW123426   3.563   2.821   3.856  1.2313  0.2797 -0.0631
 3931SOL    HW223427   3.655   2.715   3.849 -0.1525  1.6325  2.1019
 3932SOL     OW23428   3.531   2.975   9.958 -0.0638  0.1163  0.5382
 3932SOL    HW123429   3.621   2.960   9.928  0.9566  3.1495  2.0640
 3932SOL    HW223430   3.476   2.985   9.881  0.6942  0.8204  0.0984
 3933SOL     OW23431   3.492   3.204   9.474 -0.1700  0.0064 -0.1260
 3933SOL    HW123432   3.504   3.246   9.559 -0.4133  1.8375 -1.0097
 3933SOL    HW223433   3.581   3.169   9.465 -1.0347 -2.0903 -0.6150
 3934SOL     OW23434   4.605   3.675   5.824 -0.6079  0.2150  0.2512
 3934SOL    HW123435   4.584   3.696   5.915  3.1292 -0.4864  1.2995
 3934SOL    HW223436   4.657   3.597   5.845 -0.0387  0.3054 -0.7795
 3935SOL     OW23437   0.140   1.978  17.373  0.0331  0.1808  0.4571
 3935SOL    HW123438   0.191   1.917  17.427 -0.0547 -0.3090 -0.0091
 3935SOL    HW223439   0.167   1.958  17.283 -1.3135  2.5393 -0.4515
 3936SOL     OW23440   3.010   4.628   2.576 -0.4318  0.0748  0.0936
 3936SOL    HW123441   2.972   4.627   2.489  0.2260 -1.2851 -0.1813
 3936SOL    HW223442   3.039   4.716   2.599 -0.0976 -0.0331  0.0964
 3937SOL     OW23443   3.008   1.921   7.085 -0.1809  0.3814  0.3603
 3937SOL    HW123444   3.035   1.837   7.123 -1.6818 -0.5317 -0.6225
 3937SOL    HW223445   2.994   1.983   7.157  2.6938 -0.6640  1.7986
 3938SOL     OW23446   4.155   3.112   3.301  0.6576 -0.2755  0.1609
 3938SOL    HW123447   4.151   3.161   3.383  0.1805  1.0365 -0.6476
 3938SOL    HW223448   4.110   3.176   3.246  0.4832 -1.0770 -0.6371
 3939SOL     OW23449   2.936   2.032  14.704  0.5894 -0.1399  0.0466
 3939SOL    HW123450   2.979   2.102  14.654  1.9880 -0.3759  0.9144
 3939SOL    HW223451   3.009   1.979  14.738  0.4329 -1.5713 -1.8540
 3940SOL     OW23452   2.607   3.499   1.168 -0.0265  0.1324  0.2469
 3940SOL    HW123453   2.638   3.532   1.083  1.1601 -0.5542  0.4096
 3940SOL    HW223454   2.674   3.439   1.201 -1.2611 -2.1060 -1.3444
 3941SOL     OW23455   2.904   1.759   3.919 -0.2420  0.0502 -0.5218
 3941SOL    HW123456   2.887   1.691   3.984 -1.2645  2.1832  1.4357
 3941SOL    HW223457   2.968   1.818   3.958 -2.1892  2.1275 -0.4529
 3942SOL     OW23458   2.653   0.351  17.582 -0.6186 -0.3028  0.1070
 3942SOL    HW123459   2.617   0.274  17.627  1.1366 -1.7422 -0.9268
 3942SOL    HW223460   2.594   0.420  17.612  0.2098  0.2853  0.3792
 3943SOL     OW23461   4.151   3.147   1.295  0.2555 -0.1731  0.5279
 3943SOL    HW123462   4.072   3.169   1.345  0.7018 -4.5344  3.1084
 3943SOL    HW223463   4.219   3.200   1.337  0.5598 -1.3615  1.5269
 3944SOL     OW23464   2.535   2.791  13.766 -0.2651 -0.3659 -0.2428
 3944SOL    HW123465   2.533   2.884  13.789 -0.3353 -1.1335  2.8313
 3944SOL    HW223466   2.537   2.800  13.671  0.1590 -0.7703 -0.2733
 3945SOL     OW23467   3.848   1.908   6.001  0.2926 -0.0169  0.3478
 3945SOL    HW123468   3.896   1.932   5.922  1.2013 -0.1308  0.8635
 3945SOL    HW223469   3.878   1.976   6.062  2.0799  0.7815 -1.4277
 3946SOL     OW23470   4.053   2.230  12.064  0.5070  0.3546  0.3898
 3946SOL    HW123471   4.110   2.192  12.132 -0.5813  1.0247  1.6748
 3946SOL    HW223472   3.990   2.160  12.046 -1.0467  1.8089  0.2681
 3947SOL     OW23473   0.579   2.791  17.090 -0.0799  0.1771 -0.2327
 3947SOL    HW123474   0.624   2.728  17.146 -0.0194 -1.1724 -1.8152
 3947SOL    HW223475   0.498   2.787  17.141 -0.2837  1.6578 -0.4377
 3948SOL     OW23476   2.482   1.206   2.183  0.4733  0.5351  0.8050
 3948SOL    HW123477   2.409   1.180   2.127  0.0653  1.1012  1.0775
 3948SOL    HW223478   2.440   1.253   2.255 -1.7074 -0.3254  0.0951
 3949SOL     OW23479   0.077   0.459   5.938  0.4511 -0.2166 -0.2041
 3949SOL    HW123480   0.031   0.527   5.891 -2.8862 -1.2009  1.6483
 3949SOL    HW223481   0.141   0.426   5.875 -2.1900  0.0053 -2.9584
 3950SOL     OW23482   3.899   2.868   4.209 -0.2847  0.1131 -0.1858
 3950SOL    HW123483   3.932   2.937   4.267 -0.6010 -0.0340  0.1657
 3950SOL    HW223484   3.967   2.850   4.144  0.7383 -0.6269  1.1061
 3951SOL     OW23485   2.070   1.829   6.913  0.4259 -0.5666 -0.0914
 3951SOL    HW123486   2.067   1.747   6.962 -1.5783 -1.3586 -1.4856
 3951SOL    HW223487   2.141   1.873   6.960 -0.5462  1.7595 -0.7807
 3952SOL     OW23488   0.819   4.631   5.413 -0.5060  0.0921 -0.3435
 3952SOL    HW123489   0.769   4.568   5.466  0.2887  1.3287  1.9080
 3952SOL    HW223490   0.860   4.568   5.355  1.5735  2.1379 -1.1023
 3953SOL     OW23491   2.290   2.139   2.373 -0.1734  0.2328 -0.0826
 3953SOL    HW123492   2.342   2.093   2.438  1.8763  0.7820 -1.3548
 3953SOL    HW223493   2.311   2.107   2.285 -1.6736  1.0675 -0.7424
 3954SOL     OW23494   2.084   4.420   0.192 -0.5952  0.6132  0.6128
 3954SOL    HW123495   2.079   4.502   0.144 -2.0414  0.0037 -0.2699
 3954SOL    HW223496   2.018   4.426   0.261 -1.2568 -1.2195  0.1406
 3955SOL     OW23497   0.529   4.267   9.442 -0.0233  0.1327 -0.0616
 3955SOL    HW123498   0.497   4.219   9.365 -2.5149  1.9081 -0.1407
 3955SOL    HW223499   0.620   4.277   9.415  0.5881 -4.1115  0.3551
 3956SOL     OW23500   3.580   2.213   1.989  0.2626  0.9974 -0.3677
 3956SOL    HW123501   3.530   2.147   1.941 -1.1204  0.4772  1.7713
 3956SOL    HW223502   3.616   2.166   2.064 -0.3446  0.7863 -0.2063
 3957SOL     OW23503   1.574   2.310   1.891 -0.4883 -0.4029  0.1769
 3957SOL    HW123504   1.545   2.369   1.962  1.3159  0.1404  0.4743
 3957SOL    HW223505   1.629   2.245   1.935  1.1754  1.2749  0.6050
 3958SOL     OW23506   1.437   3.264  11.985  0.4726  0.2264 -0.0933
 3958SOL    HW123507   1.367   3.206  12.018 -0.7709  1.4327 -0.6014
 3958SOL    HW223508   1.514   3.207  11.984 -0.7160 -1.4305  2.2519
 3959SOL     OW23509   4.484   3.918   4.527 -0.0868  0.2921  0.1286
 3959SOL    HW123510   4.428   3.981   4.482 -0.1321  1.3137  1.6014
 3959SOL    HW223511   4.487   3.843   4.467 -3.8321 -1.9605  2.7728
 3960SOL     OW23512   4.602   4.588   7.581 -0.1211  0.1845 -0.2563
 3960SOL    HW123513   4.694   4.577   7.607  0.2751 -0.2023 -1.8580
 3960SOL    HW223514   4.586   4.683   7.588  0.1283  0.0917  1.8332
 3961SOL     OW23515   0.717   4.600   5.672  0.3001 -0.1033 -0.5608
 3961SOL    HW123516   0.623   4.617   5.669  0.1577 -0.6447  0.8523
 3961SOL    HW223517   0.755   4.681   5.707  1.3498  0.1898 -2.3639
 3962SOL     OW23518   3.955   2.111  11.306  0.1600  0.1605  0.1669
 3962SOL    HW123519   4.006   2.188  11.282  1.6537 -1.4928 -1.9442
 3962SOL    HW223520   4.006   2.077  11.380 -2.2980 -0.2646  1.6586
 3963SOL     OW23521   2.659   0.580   4.564  0.1697 -0.3394  0.3957
 3963SOL    HW123522   2.578   0.554   4.609  0.2137 -1.3174 -0.0878
 3963SOL    HW223523   2.641   0.662   4.519  0.0855 -0.9317 -0.6387
 3964SOL     OW23524   2.878   3.148   8.518 -0.3114 -0.1414 -0.8936
 3964SOL    HW123525   2.799   3.096   8.505  0.9595 -2.0690 -0.8857
 3964SOL    HW223526   2.921   3.123   8.600 -0.8068 -0.9271 -0.8769
 3965SOL     OW23527   1.042   3.174   3.408  0.0370 -0.9462 -0.1428
 3965SOL    HW123528   1.021   3.125   3.487  0.8188 -0.8703  0.1054
 3965SOL    HW223529   1.092   3.248   3.442  0.1059 -0.3829 -1.4408
 3966SOL     OW23530   3.990   0.584   5.563 -0.8129 -0.5930  0.5948
 3966SOL    HW123531   3.912   0.633   5.592  0.1346  0.2990  1.6213
 3966SOL    HW223532   3.964   0.538   5.484 -1.8146  1.4662 -0.2878
 3967SOL     OW23533   3.782   2.935   3.493 -0.4672  0.5892 -0.1003
 3967SOL    HW123534   3.772   3.012   3.437  1.0868  1.9413  1.4307
 3967SOL    HW223535   3.785   2.874   3.420  0.1481 -0.8410  1.1220
 3968SOL     OW23536   1.421   0.754  10.367 -0.1993  0.2506 -0.2377
 3968SOL    HW123537   1.398   0.755  10.460 -0.9885 -2.7357 -0.4054
 3968SOL    HW223538   1.502   0.703  10.367  0.1046  0.7398  0.6368
 3969SOL     OW23539   3.858   0.626   6.439 -0.0501  0.2457  0.2314
 3969SOL    HW123540   3.881   0.600   6.528 -1.3525 -1.3439  0.1068
 3969SOL    HW223541   3.840   0.538   6.406  1.6146 -0.1814  0.4642
 3970SOL     OW23542   1.159   1.809   8.634  0.4178 -0.0196 -0.3791
 3970SOL    HW123543   1.110   1.734   8.601 -2.3734  0.7111  2.0891
 3970SOL    HW223544   1.090   1.863   8.672  1.6625 -1.3482  3.7135
 3971SOL     OW23545   1.741   2.204   3.547 -0.5161 -0.5462 -0.4879
 3971SOL    HW123546   1.717   2.293   3.572  2.0898 -0.4789  1.8288
 3971SOL    HW223547   1.776   2.174   3.631 -0.6220 -0.2921 -0.3511
 3972SOL     OW23548   1.602   3.941   8.788  0.3207  0.3095  0.1747
 3972SOL    HW123549   1.603   3.982   8.874  1.1980 -1.3720  0.9639
 3972SOL    HW223550   1.589   4.014   8.728 -3.3660 -0.7277 -0.3311
 3973SOL     OW23551   0.094   3.609  12.164 -0.0082  0.0500  0.2850
 3973SOL    HW123552   0.054   3.526  12.139 -1.7197  0.5252  1.4889
 3973SOL    HW223553   0.030   3.648  12.223 -0.9231 -2.1956  0.7682
 3974SOL     OW23554   1.059   1.898   0.662  0.6624 -0.5620 -0.0267
 3974SOL    HW123555   1.075   1.934   0.575  0.9288  2.6357  1.3202
 3974SOL    HW223556   1.003   1.969   0.695 -0.4717 -1.3573 -0.2739
 3975SOL     OW23557   0.096   0.359  13.568  0.3388 -0.3285 -0.4953
 3975SOL    HW123558   0.008   0.325  13.578 -0.1842  0.6129 -1.7973
 3975SOL    HW223559   0.139   0.285  13.525  0.5211  1.0725 -2.7435
 3976SOL     OW23560   3.996   3.644   1.595  0.4472 -0.0480  0.2244
 3976SOL    HW123561   4.003   3.643   1.690 -0.5970 -3.8564  0.2888
 3976SOL    HW223562   3.904   3.621   1.577  0.7371  0.4917 -1.8982
 3977SOL     OW23563   0.406   0.043  16.870 -0.1414  0.6372 -0.2125
 3977SOL    HW123564   0.494   0.042  16.909  0.0241 -1.4298 -0.6258
 3977SOL    HW223565   0.400   0.116  16.808 -0.9151 -0.1644 -1.0951
 3978SOL     OW23566   1.422   2.976   1.925  0.5382  0.4152  0.4551
 3978SOL    HW123567   1.425   2.973   2.021  0.5877 -1.5524  0.3997
 3978SOL    HW223568   1.464   3.061   1.910 -0.8134  0.4423 -3.2282
 3979SOL     OW23569   3.261   1.678   3.959 -0.7381  0.0408  0.0205
 3979SOL    HW123570   3.247   1.747   3.895 -0.3149  0.9749  0.9373
 3979SOL    HW223571   3.261   1.735   4.036  0.4581  1.1002 -0.7614
 3980SOL     OW23572   4.393   0.939   7.547  0.1788  0.3864 -0.9820
 3980SOL    HW123573   4.468   0.992   7.572 -0.5420  1.6658 -1.5353
 3980SOL    HW223574   4.404   0.858   7.597 -1.7378 -0.6902 -2.2814
 3981SOL     OW23575   4.311   3.901  15.794  0.1097 -0.5831 -0.2218
 3981SOL    HW123576   4.404   3.913  15.777  0.0404  0.4507  0.1576
 3981SOL    HW223577   4.316   3.883  15.888 -0.3094  2.3733  0.3519
 3982SOL     OW23578   4.631   1.557   8.741 -0.9297  0.3929 -0.3093
 3982SOL    HW123579   4.571   1.586   8.672  0.4671  0.0773 -1.6636
 3982SOL    HW223580   4.570   1.505   8.794  0.1424 -1.1783 -0.5920
 3983SOL     OW23581   4.485   0.438  12.268  0.5023 -0.2956 -0.2191
 3983SOL    HW123582   4.553   0.389  12.222  0.8555  0.7705 -0.8454
 3983SOL    HW223583   4.406   0.412  12.222  1.0607 -1.1741 -0.6887
 3984SOL     OW23584   1.091   0.277   5.936 -0.0859  0.2139  0.0231
 3984SOL    HW123585   1.148   0.212   5.893 -0.2576  1.2678 -1.7782
 3984SOL    HW223586   1.043   0.229   6.003  2.2525 -2.0422  0.0961
 3985SOL     OW23587   2.619   2.559  13.887  0.6824 -0.3290 -0.4987
 3985SOL    HW123588   2.625   2.647  13.848 -1.2840 -0.5917 -1.3695
 3985SOL    HW223589   2.541   2.576  13.940  1.2556 -0.7250  0.4815
 3986SOL     OW23590   1.713   2.400   9.211 -0.2156 -0.2693 -0.3107
 3986SOL    HW123591   1.727   2.345   9.288  1.2151  0.9356  0.3055
 3986SOL    HW223592   1.625   2.368   9.192  0.0295 -1.5956  0.6968
 3987SOL     OW23593   1.783   4.337   8.477 -0.0786  0.4006  0.2255
 3987SOL    HW123594   1.708   4.316   8.532 -0.5861  1.6552  0.0116
 3987SOL    HW223595   1.772   4.425   8.442  1.3140  0.9468  1.1325
 3988SOL     OW23596   4.726   0.382   0.196  0.3336  0.0594  0.1838
 3988SOL    HW123597   4.723   0.287   0.182 -1.3212  0.1006  0.2771
 3988SOL    HW223598   0.081   0.402   0.183  0.5923 -1.9229 -1.0662
 3989SOL     OW23599   0.007   4.366   3.290 -0.5577 -0.3474  0.6036
 3989SOL    HW123600   4.707   4.393   3.374  3.2699  0.1640  2.1465
 3989SOL    HW223601   4.667   4.337   3.244  0.5060  1.0881 -2.0808
 3990SOL     OW23602   2.589   1.096  16.561 -0.1591 -0.0610 -0.0578
 3990SOL    HW123603   2.568   1.009  16.527 -1.1586  0.3641 -0.5284
 3990SOL    HW223604   2.546   1.099  16.647  0.1775  1.4243  0.0575
 3991SOL     OW23605   1.381   4.267   3.253  0.4455  0.0302  0.4467
 3991SOL    HW123606   1.314   4.198   3.251  0.0887  0.3849  0.3536
 3991SOL    HW223607   1.392   4.268   3.349 -3.7875 -2.0836  0.9417
 3992SOL     OW23608   1.100   0.357  12.510  0.2005  0.5735 -0.3477
 3992SOL    HW123609   1.112   0.321  12.422 -1.5724  1.5963 -1.0392
 3992SOL    HW223610   1.153   0.437  12.506 -0.9887  1.3049 -1.6407
 3993SOL     OW23611   2.921   0.854   2.348  0.3178 -0.1064 -0.4310
 3993SOL    HW123612   2.887   0.904   2.422 -1.7669  3.7610 -3.9589
 3993SOL    HW223613   2.930   0.925   2.285 -0.2709 -1.0170 -1.5458
 3994SOL     OW23614   0.710   4.176   8.775  0.1141  0.1213 -0.1000
 3994SOL    HW123615   0.640   4.121   8.737 -0.7549  1.4475 -0.4211
 3994SOL    HW223616   0.667   4.260   8.760  0.4889  0.0689 -1.4232
 3995SOL     OW23617   0.241   3.308   3.356  0.4009 -0.6923  0.1848
 3995SOL    HW123618   0.267   3.365   3.429  1.2495 -1.3358  0.3807
 3995SOL    HW223619   0.291   3.351   3.287 -0.8813  0.1958 -0.1970
 3996SOL     OW23620   0.146   4.311  16.994  0.1383 -0.3690  0.0625
 3996SOL    HW123621   0.211   4.381  17.005  1.2180 -1.1842 -1.1156
 3996SOL    HW223622   0.130   4.278  17.082  1.8582  3.0354  1.6363
 3997SOL     OW23623   0.057   0.128   6.761  0.5613 -0.2390 -0.0551
 3997SOL    HW123624   0.021   0.047   6.724 -1.3471 -0.0584  1.4266
 3997SOL    HW223625   0.108   0.160   6.687 -2.4396 -1.9411 -2.8741
 3998SOL     OW23626   4.328   2.836   7.589  0.2807 -0.1570  0.2912
 3998SOL    HW123627   4.371   2.768   7.538 -0.7405 -1.1652  0.7664
 3998SOL    HW223628   4.242   2.799   7.605 -0.3965  0.1522 -2.4848
 3999SOL     OW23629   4.182   2.377   1.672  0.3103  0.1237 -0.1026
 3999SOL    HW123630   4.188   2.340   1.584  2.0260 -1.5864  0.7475
 3999SOL    HW223631   4.141   2.463   1.664  2.3779  1.1480  0.3505
 4000SOL     OW23632   4.470   2.262   6.883  0.2593 -0.1900 -0.5300
 4000SOL    HW123633   4.518   2.204   6.943  2.7773  3.9495  1.4095
 4000SOL    HW223634   4.476   2.203   6.808 -0.9646  1.6775 -2.0759
 4001SOL     OW23635   2.303   1.389   9.459  0.8164 -0.0316  0.1925
 4001SOL    HW123636   2.336   1.386   9.369  1.1991 -0.9280  0.3601
 4001SOL    HW223637   2.218   1.434   9.455  0.2814 -1.1864 -1.4308
 4002SOL     OW23638   2.442   0.261  15.031 -0.8071  0.5970 -0.5456
 4002SOL    HW123639   2.419   0.339  15.081 -0.9308  0.9837 -1.2041
 4002SOL    HW223640   2.404   0.195  15.089  0.1887 -1.0026 -1.7259
 4003SOL     OW23641   3.986   2.785  12.814 -0.0842 -0.2024 -0.5617
 4003SOL    HW123642   4.039   2.706  12.820  0.2872  0.0297 -0.7986
 4003SOL    HW223643   4.058   2.844  12.795 -0.2256  0.0040 -0.4604
 4004SOL     OW23644   4.084   4.145   2.714 -0.2611 -0.4156 -0.4725
 4004SOL    HW123645   4.110   4.088   2.786 -4.4675 -0.7744  0.7468
 4004SOL    HW223646   4.025   4.207   2.756  0.5634  0.5482 -0.7390
 4005SOL     OW23647   4.326   1.635  12.052  0.7966 -0.1185 -0.1994
 4005SOL    HW123648   4.336   1.674  12.139 -0.8717  0.1320 -0.1283
 4005SOL    HW223649   4.379   1.698  12.002 -0.1179  0.5703 -0.2955
 4006SOL     OW23650   4.398   1.266  12.613 -0.1004 -0.2229  0.5274
 4006SOL    HW123651   4.431   1.216  12.538  1.3274  1.4587  0.0444
 4006SOL    HW223652   4.337   1.208  12.658  1.1721 -0.9517  1.3020
 4007SOL     OW23653   3.503   4.291   8.656 -0.5052 -0.0073  0.3002
 4007SOL    HW123654   3.409   4.306   8.666 -0.4791  0.1882  0.2368
 4007SOL    HW223655   3.531   4.257   8.741 -0.0101  0.7367  0.4329
 4008SOL     OW23656   0.809   4.561   3.567  0.2170  0.7877 -0.0372
 4008SOL    HW123657   0.719   4.556   3.536  1.1652 -1.2748 -2.4590
 4008SOL    HW223658   0.815   4.500   3.641  0.7094  1.1369  0.2127
 4009SOL     OW23659   0.799   4.706   7.492 -0.2882 -0.1330 -0.5506
 4009SOL    HW123660   0.809   4.669   7.404  1.1229 -0.8210 -0.0884
 4009SOL    HW223661   0.815   4.625   7.539 -0.0691 -0.7103 -1.6146
 4010SOL     OW23662   1.628   0.850  14.225  0.5635  0.1463 -0.3430
 4010SOL    HW123663   1.619   0.865  14.131  1.1789 -0.3136 -0.4803
 4010SOL    HW223664   1.551   0.901  14.247 -0.6753 -1.5868 -0.7053
 4011SOL     OW23665   4.164   1.278   7.559 -0.0178 -0.4573  0.3188
 4011SOL    HW123666   4.102   1.316   7.621  1.3500 -0.3365  1.6102
 4011SOL    HW223667   4.115   1.236   7.488 -1.3559 -1.1593  1.6578
 4012SOL     OW23668   2.262   3.342  17.416 -0.1485 -0.0067 -0.3254
 4012SOL    HW123669   2.244   3.249  17.427 -0.4636  0.1280  0.3282
 4012SOL    HW223670   2.353   3.350  17.442 -1.1579  0.4075  3.1411
 4013SOL     OW23671   3.339   2.026   1.812 -0.6648  0.1800 -0.3664
 4013SOL    HW123672   3.332   1.978   1.729 -1.9627  0.5407 -0.4668
 4013SOL    HW223673   3.369   2.114   1.787  1.3236  0.2903  2.3706
 4014SOL     OW23674   3.158   2.653   5.737  0.0849  0.2074  0.6208
 4014SOL    HW123675   3.116   2.576   5.699 -1.7144  1.7985 -0.6140
 4014SOL    HW223676   3.089   2.719   5.735 -2.1113 -2.1976 -2.2970
 4015SOL     OW23677   0.426   0.346   4.177  0.3003  0.1089 -0.3422
 4015SOL    HW123678   0.369   0.400   4.230  0.1690 -0.4990  0.1379
 4015SOL    HW223679   0.463   0.293   4.248  0.8079  3.0508  1.5566
 4016SOL     OW23680   0.442   0.418   2.871 -0.3127  0.2808 -0.4078
 4016SOL    HW123681   0.427   0.403   2.778  0.9696  1.2165 -0.7689
 4016SOL    HW223682   0.527   0.462   2.877 -0.0085 -0.2288 -0.9640
 4017SOL     OW23683   3.274   0.652  14.535 -0.2478  0.8423  0.4211
 4017SOL    HW123684   3.310   0.570  14.570 -1.5338 -0.5083 -1.4390
 4017SOL    HW223685   3.199   0.674  14.590 -0.4759  1.2569 -0.0553
 4018SOL     OW23686   0.677   2.669   3.458 -0.5412  0.2464  0.3595
 4018SOL    HW123687   0.741   2.662   3.388  0.1968  1.5732  0.9029
 4018SOL    HW223688   0.613   2.732   3.426  1.0236  1.6299 -0.0483
 4019SOL     OW23689   0.543   0.120   6.730  0.1233  1.0953 -0.0585
 4019SOL    HW123690   0.533   0.190   6.794  1.3178  0.5647  0.6955
 4019SOL    HW223691   0.618   0.171   6.698  0.7944 -0.4562 -0.9690
 4020SOL     OW23692   2.757   3.838   8.464  0.2300 -0.5510 -0.2432
 4020SOL    HW123693   2.774   3.781   8.389 -0.6611  1.8429 -2.2661
 4020SOL    HW223694   2.711   3.781   8.526 -0.7484  0.3647 -0.1273
 4021SOL     OW23695   3.437   4.164   2.541  0.1488  0.4012 -0.8312
 4021SOL    HW123696   3.420   4.108   2.465  0.9939 -3.3641  1.7731
 4021SOL    HW223697   3.429   4.256   2.516  2.1241  0.8652  0.3115
 4022SOL     OW23698   2.708   2.768   2.293 -0.5975  0.3337  0.1411
 4022SOL    HW123699   2.714   2.854   2.335 -0.6423  0.5424 -0.2673
 4022SOL    HW223700   2.797   2.753   2.260 -1.0454  1.5514 -1.6491
 4023SOL     OW23701   1.502   1.113   8.830  0.7077  0.3396 -0.1717
 4023SOL    HW123702   1.417   1.156   8.839  0.6882  0.2600  0.0287
 4023SOL    HW223703   1.500   1.043   8.895  2.6708 -0.9538 -1.5216
 4024SOL     OW23704   4.318   2.577   7.193  0.1988 -0.1423  0.3079
 4024SOL    HW123705   4.236   2.542   7.226 -0.1206 -0.7658 -1.1324
 4024SOL    HW223706   4.334   2.517   7.120  0.9464  0.8396 -0.3438
 4025SOL     OW23707   3.454   1.432  16.361  0.0730 -0.4162  0.0796
 4025SOL    HW123708   3.474   1.339  16.375 -0.2422 -0.5329 -0.2469
 4025SOL    HW223709   3.499   1.456  16.280  0.1394  2.0573  0.8376
 4026SOL     OW23710   2.860   4.523   1.051 -0.3616 -0.3981  0.1424
 4026SOL    HW123711   2.780   4.572   1.067  0.2007  0.8144 -0.6741
 4026SOL    HW223712   2.839   4.472   0.972  3.0114  0.6213 -1.4230
 4027SOL     OW23713   1.446   2.132   3.486  0.7638 -0.7529 -0.5036
 4027SOL    HW123714   1.530   2.143   3.532  0.4349  2.4985 -0.6849
 4027SOL    HW223715   1.440   2.215   3.440  3.2060  0.8095  1.9606
 4028SOL     OW23716   3.633   1.897   7.348 -0.3946  0.2377  0.2739
 4028SOL    HW123717   3.660   1.976   7.395  1.2238  0.9209 -1.8381
 4028SOL    HW223718   3.584   1.935   7.276 -0.4858  0.2591  0.3473
 4029SOL     OW23719   0.874   3.846  10.054 -0.0825 -0.3482 -0.6198
 4029SOL    HW123720   0.812   3.864   9.983  2.2748  1.1202 -2.3134
 4029SOL    HW223721   0.818   3.781  10.097  1.6936 -2.3786 -1.3432
 4030SOL     OW23722   4.625   1.934  10.373  0.0179 -0.2298 -0.0047
 4030SOL    HW123723   4.616   1.857  10.429  2.5447  0.4188  1.2592
 4030SOL    HW223724   4.719   1.940  10.358 -0.1689  1.5051 -0.4986
 4031SOL     OW23725   0.917   3.157   7.950 -0.5633 -0.5041 -0.1923
 4031SOL    HW123726   0.834   3.135   7.907  0.4923  0.6576 -2.7977
 4031SOL    HW223727   0.906   3.246   7.984 -1.6509  0.0832 -2.1090
 4032SOL     OW23728   1.035   2.785   2.529 -0.4547  0.3233  0.1354
 4032SOL    HW123729   0.986   2.867   2.532 -1.8103 -0.4782 -0.0331
 4032SOL    HW223730   0.961   2.731   2.556  1.7765 -1.6624  2.1812
 4033SOL     OW23731   2.766   2.980   2.893 -0.0441 -0.0527 -0.2344
 4033SOL    HW123732   2.861   2.970   2.888 -0.1932 -0.7924 -1.4314
 4033SOL    HW223733   2.751   2.911   2.958  0.4089  0.7929  0.7573
 4034SOL     OW23734   1.892   2.645   6.881  0.3784 -0.0400 -0.3493
 4034SOL    HW123735   1.901   2.612   6.970 -0.1988 -1.1615 -0.7088
 4034SOL    HW223736   1.982   2.674   6.870  0.3145 -0.1471 -1.1749
 4035SOL     OW23737   1.983   0.033   8.566  0.1363  0.5446 -0.2721
 4035SOL    HW123738   1.995   0.071   8.653 -0.2400 -1.0298  0.4722
 4035SOL    HW223739   1.978   0.112   8.512  1.0714  0.2152 -0.8336
 4036SOL     OW23740   1.215   1.610   6.472  0.2428 -0.3175 -0.0192
 4036SOL    HW123741   1.227   1.673   6.401 -2.5690  1.2265  0.8568
 4036SOL    HW223742   1.297   1.563   6.462  1.1072  1.2158 -0.0594
 4037SOL     OW23743   2.245   3.353   3.697 -0.5564 -0.2356  0.1331
 4037SOL    HW123744   2.310   3.374   3.631 -1.8294  3.8604  0.1648
 4037SOL    HW223745   2.179   3.420   3.675  2.1470  1.7770 -1.7752
 4038SOL     OW23746   2.915   0.320  17.702  0.1523  0.3482  0.6369
 4038SOL    HW123747   2.947   0.409  17.708  0.3323  0.0638  4.1068
 4038SOL    HW223748   2.828   0.343  17.670 -0.0257  1.0785  1.6267
 4039SOL     OW23749   4.658   0.073   2.209  0.0243 -0.3901  0.2441
 4039SOL    HW123750   4.712   0.124   2.269  2.3500 -0.9472 -1.3188
 4039SOL    HW223751   4.729   0.030   2.160  1.1104  1.5932  0.0880
 4040SOL     OW23752   1.486   1.705   4.559  0.1221 -0.0604  0.7714
 4040SOL    HW123753   1.422   1.776   4.553  0.0362 -0.3275 -1.7215
 4040SOL    HW223754   1.456   1.642   4.494  1.1311 -1.0849  1.2986
 4041SOL     OW23755   3.924   1.470   4.429  0.0086 -0.6584  0.1773
 4041SOL    HW123756   3.939   1.556   4.391  1.0283 -0.7120  0.4549
 4041SOL    HW223757   3.950   1.487   4.520  0.6706 -2.0512  0.2490
 4042SOL     OW23758   4.587   0.700  13.401 -0.0939  0.5652  0.2315
 4042SOL    HW123759   4.588   0.762  13.328 -1.4910  0.9590  0.5588
 4042SOL    HW223760   4.533   0.631  13.362  3.4512 -2.1483  0.1419
 4043SOL     OW23761   2.328   2.262  11.225  0.5755  0.5178  0.0719
 4043SOL    HW123762   2.294   2.213  11.300 -1.7282  0.5899 -0.9433
 4043SOL    HW223763   2.382   2.191  11.189 -1.5003 -1.9936  1.8958
 4044SOL     OW23764   0.271   2.021   6.381 -0.2215 -0.5328 -0.4388
 4044SOL    HW123765   0.226   1.964   6.318 -1.2740 -0.6768  0.4538
 4044SOL    HW223766   0.260   1.961   6.455  0.3521  0.9040  0.8163
 4045SOL     OW23767   2.071   1.591   7.064  0.5700 -0.0269  0.4693
 4045SOL    HW123768   2.054   1.614   7.155  0.8774 -0.7175  0.7035
 4045SOL    HW223769   2.097   1.499   7.071 -0.3686 -0.5448 -2.6232
 4046SOL     OW23770   0.116   3.688  13.107 -0.0563 -0.7070  0.1241
 4046SOL    HW123771   0.198   3.645  13.086  1.3806  1.2693  1.6663
 4046SOL    HW223772   0.143   3.734  13.187  0.6489 -0.3134 -0.3328
 4047SOL     OW23773   0.833   1.974   7.409  0.5260 -0.2023  0.3569
 4047SOL    HW123774   0.876   2.017   7.335 -0.1073 -3.2865 -1.8318
 4047SOL    HW223775   0.845   1.885   7.374 -0.2384  0.6509 -2.1000
 4048SOL     OW23776   0.671   1.839   6.509 -0.5234 -0.3995 -0.0206
 4048SOL    HW123777   0.746   1.780   6.499 -0.2810 -0.0699 -0.1291
 4048SOL    HW223778   0.611   1.792   6.450 -0.9177 -1.7699  1.4856
 4049SOL     OW23779   2.970   2.379   8.365 -0.4956 -0.8727 -0.0924
 4049SOL    HW123780   3.040   2.443   8.377  1.7171 -2.9740 -1.7759
 4049SOL    HW223781   2.900   2.425   8.412 -1.3668 -1.8949 -0.3936
 4050SOL     OW23782   3.213   4.264   6.160 -0.2295 -0.2235 -0.4698
 4050SOL    HW123783   3.180   4.344   6.200 -1.1188 -1.0932  0.5170
 4050SOL    HW223784   3.145   4.200   6.178 -0.1979  0.0950  0.8031
 4051SOL     OW23785   1.882   1.451   7.762 -0.5107  0.9570 -0.0298
 4051SOL    HW123786   1.926   1.378   7.720 -0.8302  1.0639 -0.5480
 4051SOL    HW223787   1.829   1.402   7.825 -0.3339 -0.5082 -1.0385
 4052SOL     OW23788   1.224   2.281   6.482 -0.0667  0.3063 -0.4094
 4052SOL    HW123789   1.311   2.249   6.506  1.2375  1.4540 -3.6383
 4052SOL    HW223790   1.247   2.373   6.487 -0.3108  0.1872  2.9111
 4053SOL     OW23791   4.282   4.316   8.645 -0.2483  0.3482 -0.3417
 4053SOL    HW123792   4.322   4.360   8.570  0.4635  0.3035  0.0096
 4053SOL    HW223793   4.353   4.303   8.707 -1.4290  0.3014  0.9983
 4054SOL     OW23794   1.481   2.744  16.052  0.0897 -0.5771 -0.6243
 4054SOL    HW123795   1.470   2.823  16.105  2.3920 -0.0600 -0.9059
 4054SOL    HW223796   1.395   2.709  16.077  0.7490 -0.9004  1.1980
 4055SOL     OW23797   4.453   2.962  12.267 -1.0017 -0.2715 -0.4818
 4055SOL    HW123798   4.403   2.977  12.186 -1.3626 -0.7532 -0.3564
 4055SOL    HW223799   4.508   3.040  12.269  0.7058 -1.4783 -0.6453
 4056SOL     OW23800   2.449   4.469   2.110  0.5197  0.1498 -0.5494
 4056SOL    HW123801   2.411   4.553   2.135  1.0838  0.1206  0.4061
 4056SOL    HW223802   2.379   4.430   2.058  0.6894 -1.3750  0.3766
 4057SOL     OW23803   3.344   4.703   2.965  0.0156 -0.9767 -0.7489
 4057SOL    HW123804   3.269   4.652   2.994  0.1434  1.1348  3.2565
 4057SOL    HW223805   3.303   0.051   2.982  0.1417 -1.2037  0.6670
 4058SOL     OW23806   1.007   0.347   5.665 -0.4341  0.5901 -0.6539
 4058SOL    HW123807   1.072   0.358   5.733 -0.9852  1.8909 -0.3369
 4058SOL    HW223808   0.934   0.400   5.697 -0.7316  0.7358 -1.5686
 4059SOL     OW23809   3.144   4.434   6.431 -0.5032 -0.0477 -0.1137
 4059SOL    HW123810   3.192   4.459   6.511  1.0031  0.2488 -1.1156
 4059SOL    HW223811   3.182   4.494   6.367 -2.0353  1.0443  0.0108
 4060SOL     OW23812   3.125   0.797  15.247 -0.1754  0.9385  0.1363
 4060SOL    HW123813   3.185   0.751  15.306 -0.2279 -2.0214 -2.1283
 4060SOL    HW223814   3.112   0.879  15.295 -0.2914  0.4222  0.9796
 4061SOL     OW23815   0.284   0.966  10.730  0.3878  0.0957  0.1096
 4061SOL    HW123816   0.214   0.994  10.788  0.4487 -1.1832  0.8181
 4061SOL    HW223817   0.237   0.904  10.674  1.3626 -0.7237  0.1902
 4062SOL     OW23818   4.540   1.636   7.867 -0.2671 -0.2254 -0.1976
 4062SOL    HW123819   4.589   1.572   7.920  0.3060 -0.5443 -1.1130
 4062SOL    HW223820   4.464   1.623   7.924 -0.2162  0.6366  0.0705
 4063SOL     OW23821   2.368   4.060   1.896  0.1493  0.7659 -0.3465
 4063SOL    HW123822   2.398   4.057   1.987  0.8110 -0.2052 -0.6047
 4063SOL    HW223823   2.361   3.966   1.882 -1.1002  0.8656 -0.3374
 4064SOL     OW23824   1.096   4.283   4.225  0.3364 -0.9202 -0.0715
 4064SOL    HW123825   1.020   4.282   4.282  0.7672 -0.0994  0.5096
 4064SOL    HW223826   1.052   4.301   4.142 -0.0806  0.4765  0.4598
 4065SOL     OW23827   3.756   3.599   0.438 -0.5468 -0.1094  0.6263
 4065SOL    HW123828   3.801   3.515   0.429  0.3459  0.2703  1.6261
 4065SOL    HW223829   3.662   3.582   0.448 -0.3152 -1.5286  0.4073
 4066SOL     OW23830   2.880   2.255   3.765 -0.0008  0.3294  0.4817
 4066SOL    HW123831   2.906   2.346   3.756 -1.7283  0.9145  1.4913
 4066SOL    HW223832   2.883   2.227   3.673 -0.7631  1.6580  0.0498
 4067SOL     OW23833   3.323   3.836  12.667  0.0872 -0.4102  0.8141
 4067SOL    HW123834   3.250   3.838  12.730 -0.7528 -0.3172 -0.1591
 4067SOL    HW223835   3.314   3.747  12.633 -2.6063  0.1436  0.0502
 4068SOL     OW23836   2.939   3.160   4.855 -0.0828  0.0767 -0.1236
 4068SOL    HW123837   2.921   3.194   4.943 -0.4508  0.9144 -0.5295
 4068SOL    HW223838   2.970   3.071   4.873 -1.1949  0.0464  1.6682
 4069SOL     OW23839   0.750   0.979   2.554  0.3085 -0.9011  0.0261
 4069SOL    HW123840   0.728   0.893   2.517 -0.2627 -0.8694  0.3069
 4069SOL    HW223841   0.681   1.035   2.518 -0.4127 -1.0984  1.1212
 4070SOL     OW23842   0.349   2.056   8.319  0.5682  0.6600  0.1989
 4070SOL    HW123843   0.413   2.092   8.257  0.8914  0.1707  0.2421
 4070SOL    HW223844   0.273   2.050   8.262  0.1117 -0.2589  0.9103
 4071SOL     OW23845   2.980   1.476   4.355  0.1786  0.0645  0.0311
 4071SOL    HW123846   3.066   1.447   4.325 -0.9166 -1.5696 -1.5872
 4071SOL    HW223847   2.979   1.427   4.437  0.5694 -2.5852 -1.5343
 4072SOL     OW23848   2.547   2.153  13.867 -0.3578  0.6612 -0.1336
 4072SOL    HW123849   2.497   2.073  13.851  2.7637 -1.6002  1.3938
 4072SOL    HW223850   2.624   2.130  13.815 -1.0667 -2.9598  0.4071
 4073SOL     OW23851   2.667   1.088   1.323  0.1173  0.1676  0.5429
 4073SOL    HW123852   2.611   1.062   1.396 -0.7990  0.9464  0.1039
 4073SOL    HW223853   2.732   1.017   1.319  0.3272  0.4088 -0.3587
 4074SOL     OW23854   2.179   3.059  16.255 -0.3831 -0.4560  0.0226
 4074SOL    HW123855   2.181   2.990  16.189  0.4195  0.0378 -0.4648
 4074SOL    HW223856   2.085   3.063  16.275 -0.5023  0.5283 -0.7387
 4075SOL     OW23857   4.319   0.759   3.294  0.0629 -0.1537  0.4298
 4075SOL    HW123858   4.257   0.724   3.231  0.9778 -0.1745 -0.4476
 4075SOL    HW223859   4.332   0.852   3.275  1.1335  0.0845  2.2496
 4076SOL     OW23860   2.113   3.380   2.030 -0.3163  0.4206 -0.1216
 4076SOL    HW123861   2.169   3.390   2.107  0.3096  1.6342 -0.7339
 4076SOL    HW223862   2.162   3.408   1.953 -2.0238 -0.2068 -1.4375
 4077SOL     OW23863   0.278   0.817   3.174 -0.1502 -0.1014 -0.0233
 4077SOL    HW123864   0.261   0.763   3.252  0.2608 -0.6178 -0.2928
 4077SOL    HW223865   0.294   0.763   3.097  0.0785  0.4822 -0.3817
 4078SOL     OW23866   3.254   2.318   3.262  0.3037 -0.4883 -0.2385
 4078SOL    HW123867   3.247   2.240   3.316 -2.6583  1.6872  2.5235
 4078SOL    HW223868   3.227   2.385   3.325  0.9409 -0.3164 -0.1475
 4079SOL     OW23869   0.195   1.282   2.293 -0.2158  0.3200 -0.6142
 4079SOL    HW123870   0.202   1.214   2.226  0.2765 -0.0217 -0.2159
 4079SOL    HW223871   0.243   1.350   2.246  0.5928  2.0349  2.6969
 4080SOL     OW23872   2.076   3.449   7.571 -0.7537 -0.2309  0.1819
 4080SOL    HW123873   2.095   3.367   7.616  0.1804 -0.2569 -0.2622
 4080SOL    HW223874   2.122   3.431   7.489 -1.3842  0.2797 -0.2899
 4081SOL     OW23875   1.440   1.393   4.759 -0.0347  0.2399  0.4730
 4081SOL    HW123876   1.375   1.389   4.689 -0.6848 -1.1218  1.1551
 4081SOL    HW223877   1.485   1.474   4.735 -0.5168 -0.1585 -1.7531
 4082SOL     OW23878   4.301   0.558   1.323 -0.1454  0.2825  0.2886
 4082SOL    HW123879   4.357   0.631   1.295  1.2794 -0.4827  1.1402
 4082SOL    HW223880   4.321   0.493   1.256  1.7096  0.5503  0.5872
 4083SOL     OW23881   3.826   2.875  15.587  0.2227 -0.6603 -0.2347
 4083SOL    HW123882   3.764   2.805  15.605  0.4358 -0.7396  0.2001
 4083SOL    HW223883   3.905   2.826  15.565 -0.7106 -2.5646  0.6604
 4084SOL     OW23884   1.199   1.452   0.576  0.2003 -0.9177  0.2311
 4084SOL    HW123885   1.237   1.364   0.578  1.6791 -0.3081 -1.3314
 4084SOL    HW223886   1.114   1.430   0.537  0.4299 -1.3161 -0.0455
 4085SOL     OW23887   3.090   1.686   6.274 -0.0340 -0.2982 -0.5736
 4085SOL    HW123888   3.020   1.698   6.338  1.8104 -0.5049  1.4383
 4085SOL    HW223889   3.050   1.643   6.198  0.9774 -1.5313 -0.4005
 4086SOL     OW23890   0.044   1.558   9.863 -0.4905  0.0173  0.4050
 4086SOL    HW123891   0.096   1.484   9.833 -2.8789 -1.0290 -1.1664
 4086SOL    HW223892   4.695   1.541   9.825  0.4338 -0.0110 -1.6248
 4087SOL     OW23893   0.284   2.657   8.349  0.3903  0.0893  0.3884
 4087SOL    HW123894   0.232   2.737   8.339  0.1800 -0.2529 -1.3939
 4087SOL    HW223895   0.323   2.671   8.435 -0.9457  0.5307  0.9275
 4088SOL     OW23896   2.596   3.895   0.453  0.2636  0.3643  0.0841
 4088SOL    HW123897   2.548   3.977   0.440  0.9296  0.8356  0.6143
 4088SOL    HW223898   2.570   3.838   0.381 -0.9948 -2.3108  2.6151
 4089SOL     OW23899   2.700   0.818  16.186 -0.0368 -0.4824 -0.3836
 4089SOL    HW123900   2.662   0.732  16.168 -3.7137  1.4167 -1.8551
 4089SOL    HW223901   2.652   0.876  16.127 -0.5824  0.6947  1.2046
 4090SOL     OW23902   4.615   3.774   7.729  0.0693  0.4956 -0.2822
 4090SOL    HW123903   4.527   3.738   7.736  0.5912 -0.7576 -0.1784
 4090SOL    HW223904   4.655   3.728   7.656  0.2571  0.5550 -0.2174
 4091SOL     OW23905   1.178   0.703  15.398 -0.4451 -0.4204 -0.0084
 4091SOL    HW123906   1.237   0.689  15.324  0.8267 -0.4715  1.0137
 4091SOL    HW223907   1.189   0.619  15.441 -1.8062 -0.1711  0.8405
 4092SOL     OW23908   4.237   3.544   9.762  0.3876  0.2325 -0.5941
 4092SOL    HW123909   4.322   3.520   9.799  0.5650  0.3075 -0.9517
 4092SOL    HW223910   4.264   3.606   9.694  0.8156  1.5732  0.8049
 4093SOL     OW23911   1.838   3.459   4.508 -0.1540  0.5700 -0.5358
 4093SOL    HW123912   1.926   3.475   4.473  0.6532 -1.6672  0.4329
 4093SOL    HW223913   1.791   3.408   4.443 -0.0646 -1.0996  0.7077
 4094SOL     OW23914   0.403   0.490  17.239 -0.4718  0.2340  0.2252
 4094SOL    HW123915   0.407   0.395  17.252 -1.4728  0.2818  0.8624
 4094SOL    HW223916   0.496   0.512  17.234  0.0743 -2.1285 -0.3154
 4095SOL     OW23917   1.760   4.566   0.175 -0.4948  0.2722 -0.2069
 4095SOL    HW123918   1.841   4.562   0.124  0.1166 -4.4737  1.1156
 4095SOL    HW223919   1.710   4.635   0.132 -0.4629  0.4676  0.0633
 4096SOL     OW23920   1.793   0.158   7.357 -0.2455  0.2918  0.0541
 4096SOL    HW123921   1.834   0.238   7.391  0.6177  0.4856 -1.4528
 4096SOL    HW223922   1.792   0.108   7.439 -1.2119  0.8567  0.3829
 4097SOL     OW23923   1.831   3.518   3.174  0.4812 -0.1386 -0.0263
 4097SOL    HW123924   1.822   3.611   3.190  0.3903 -0.0249 -0.7386
 4097SOL    HW223925   1.888   3.493   3.247  1.4501  1.3474 -0.2778
 4098SOL     OW23926   3.265   1.496   2.460 -0.0710 -0.5833  0.5002
 4098SOL    HW123927   3.186   1.481   2.512 -0.0242  0.2261  0.8031
 4098SOL    HW223928   3.273   1.413   2.414 -0.0956 -1.3987  1.9830
 4099SOL     OW23929   2.329   0.715   4.015 -0.2530 -0.4991  0.3295
 4099SOL    HW123930   2.247   0.765   4.014  0.3825  0.5052 -2.4352
 4099SOL    HW223931   2.376   0.763   3.947 -0.9158  1.6711  1.4200
 4100SOL     OW23932   3.931   0.716   7.679 -0.3605  0.1436  0.1078
 4100SOL    HW123933   3.947   0.794   7.732  1.2094  1.1378 -1.8612
 4100SOL    HW223934   3.852   0.691   7.727  1.9131 -2.7088  2.3859
 4101SOL     OW23935   4.124   3.908   6.720  0.0822 -0.0192  0.4312
 4101SOL    HW123936   4.079   3.830   6.751  0.5372 -0.5669 -0.2914
 4101SOL    HW223937   4.072   3.948   6.650  0.0251 -0.1587  0.3940
 4102SOL     OW23938   0.260   0.673   8.551 -0.5218  0.3094 -0.1566
 4102SOL    HW123939   0.339   0.726   8.542 -1.1091  1.1515 -0.3693
 4102SOL    HW223940   0.300   0.608   8.608  0.3474  0.0156 -1.1201
 4103SOL     OW23941   3.103   2.798   3.670 -0.6229  0.3789 -0.5845
 4103SOL    HW123942   3.058   2.776   3.752  0.2230  1.3453  0.1403
 4103SOL    HW223943   3.171   2.856   3.706  2.4524 -2.8952 -1.2060
 4104SOL     OW23944   2.347   3.906   4.691  0.3316  0.0969 -0.1905
 4104SOL    HW123945   2.362   3.883   4.599 -0.4871 -1.0207 -0.0382
 4104SOL    HW223946   2.348   3.819   4.731  1.7231 -0.5020 -1.4743
 4105SOL     OW23947   1.153   4.100   4.892  0.2589 -0.3065 -0.2758
 4105SOL    HW123948   1.093   4.025   4.888 -1.7873  1.3377 -0.6760
 4105SOL    HW223949   1.110   4.154   4.826 -0.6418 -2.1951 -1.2413
 4106SOL     OW23950   0.338   4.223   1.365 -0.2146  0.2562 -0.1706
 4106SOL    HW123951   0.394   4.263   1.431 -2.1427  2.0665  0.3626
 4106SOL    HW223952   0.286   4.299   1.336  1.1342  1.3382  0.2545
 4107SOL     OW23953   0.399   0.626   7.385 -0.3650  0.3994  0.8481
 4107SOL    HW123954   0.359   0.543   7.409 -0.3960 -0.6478 -2.8098
 4107SOL    HW223955   0.343   0.647   7.310  1.8860 -0.0812 -0.9720
 4108SOL     OW23956   3.449   3.409   5.795 -0.1396 -0.1686 -0.0170
 4108SOL    HW123957   3.395   3.409   5.874  0.3004  1.3635  0.2799
 4108SOL    HW223958   3.488   3.496   5.806 -1.1686  0.4917 -1.5392
 4109SOL     OW23959   4.365   3.344  16.313  0.1991  0.1640 -0.4224
 4109SOL    HW123960   4.396   3.374  16.398  1.6801 -1.7023 -0.2970
 4109SOL    HW223961   4.315   3.418  16.278  0.6057  1.2616  1.3503
 4110SOL     OW23962   2.439   4.436  15.869  0.2468 -0.3756  0.3273
 4110SOL    HW123963   2.387   4.362  15.902  0.0480  0.5516  2.0774
 4110SOL    HW223964   2.386   4.444  15.790 -0.5648  0.8462  0.9945
 4111SOL     OW23965   2.965   1.296  11.191  0.6119 -0.2186 -0.7458
 4111SOL    HW123966   3.016   1.246  11.255 -1.1222 -1.3623 -0.2557
 4111SOL    HW223967   2.923   1.233  11.131  0.0674 -1.8577  1.3669
 4112SOL     OW23968   0.818   1.314  14.547 -0.7194 -0.4809 -0.7872
 4112SOL    HW123969   0.902   1.319  14.499 -0.0479 -1.4905  0.2879
 4112SOL    HW223970   0.790   1.223  14.551 -4.0082  0.6768  1.4027
 4113SOL     OW23971   3.839   3.769   2.374  0.1282 -0.0122 -0.1297
 4113SOL    HW123972   3.894   3.701   2.414  1.3664  1.1286  0.1256
 4113SOL    HW223973   3.831   3.810   2.460  0.3333  0.8902 -0.5343
 4114SOL     OW23974   2.272   4.231   0.252 -0.0617 -0.7751 -0.1487
 4114SOL    HW123975   2.200   4.291   0.234  0.9788  0.6458  0.4736
 4114SOL    HW223976   2.268   4.169   0.178  0.7730 -0.6813 -0.2710
 4115SOL     OW23977   1.509   1.458  10.052 -0.0824  0.1297  0.4110
 4115SOL    HW123978   1.526   1.541  10.008 -0.6615 -0.2751 -0.5827
 4115SOL    HW223979   1.462   1.499  10.124  1.5676  3.6969 -0.5397
 4116SOL     OW23980   4.469   1.934   5.738  0.3883 -0.1048  0.4380
 4116SOL    HW123981   4.392   1.888   5.771 -0.1301  0.4807  0.0638
 4116SOL    HW223982   4.537   1.925   5.804 -1.1235 -1.0655  1.8465
 4117SOL     OW23983   2.235   2.290   9.753  0.1745 -0.0733  0.5493
 4117SOL    HW123984   2.193   2.270   9.669  1.9753 -1.5042 -0.0047
 4117SOL    HW223985   2.300   2.221   9.741  0.1441  0.2448 -1.4280
 4118SOL     OW23986   1.859   3.552   6.917 -0.3290  0.2037 -0.4461
 4118SOL    HW123987   1.920   3.524   6.848  1.6839 -0.1074  1.4705
 4118SOL    HW223988   1.784   3.577   6.863 -2.5143 -1.8211  1.6904
 4119SOL     OW23989   4.623   1.605   2.199 -0.3879  0.0309 -0.8154
 4119SOL    HW123990   4.662   1.527   2.239 -1.4616  1.4043  2.9522
 4119SOL    HW223991   4.699   1.634   2.148 -0.3572  1.3283 -0.0453
 4120SOL     OW23992   4.359   1.022   5.942  0.0576  0.0507 -0.0819
 4120SOL    HW123993   4.441   1.063   5.970 -1.6416  1.4304  2.9095
 4120SOL    HW223994   4.304   1.021   6.020 -0.7085 -1.1303 -0.6410
 4121SOL     OW23995   0.689   3.095   2.328  0.4059  0.0581 -0.0986
 4121SOL    HW123996   0.685   3.052   2.243  2.0926 -0.2212 -0.0414
 4121SOL    HW223997   0.595   3.097   2.347  0.0457  0.3838 -1.9334
 4122SOL     OW23998   3.555   0.640   5.147 -0.0951  0.6744 -0.8052
 4122SOL    HW123999   3.565   0.678   5.234  1.9460  2.5834 -1.8847
 4122SOL    HW224000   3.552   0.548   5.173  1.1511  0.9096  0.1961
 4123SOL     OW24001   0.009   2.031   4.566  0.0409  0.4378  0.0068
 4123SOL    HW124002   4.679   1.973   4.602  0.2673 -1.4765 -2.6697
 4123SOL    HW224003   4.732   2.115   4.609  0.1550  0.2413  0.4270
 4124SOL     OW24004   3.319   2.074   3.372  0.2313  0.5422 -0.6892
 4124SOL    HW124005   3.379   2.126   3.427  0.4610  2.3002 -2.5946
 4124SOL    HW224006   3.376   2.051   3.299  0.3933  1.8817 -0.9880
 4125SOL     OW24007   2.394   3.089  16.411  0.8330  0.0050 -0.3101
 4125SOL    HW124008   2.303   3.103  16.386  0.7816 -0.0292 -0.1394
 4125SOL    HW224009   2.406   3.017  16.349 -0.7714  0.7106 -1.4550
 4126SOL     OW24010   1.814   0.216   3.046  0.0501 -0.3622  0.7736
 4126SOL    HW124011   1.776   0.221   3.134  0.0241  2.7574  0.5716
 4126SOL    HW224012   1.779   0.288   2.994  0.5592 -1.6223 -1.3015
 4127SOL     OW24013   1.073   2.733   5.899  0.0633 -0.3343  0.0928
 4127SOL    HW124014   1.050   2.801   5.836  2.1579  1.3427  1.1410
 4127SOL    HW224015   1.004   2.733   5.965 -0.4955  1.6893 -0.5048
 4128SOL     OW24016   3.961   3.212   5.516  0.4623 -1.0219 -0.3411
 4128SOL    HW124017   3.944   3.171   5.431  1.9411 -3.3766  0.4820
 4128SOL    HW224018   3.999   3.296   5.493  1.5823 -0.4547  3.5769
 4129SOL     OW24019   2.153   3.635   8.672  0.4544 -0.5745  0.2572
 4129SOL    HW124020   2.151   3.542   8.696  0.8399 -0.8569 -0.8287
 4129SOL    HW224021   2.063   3.664   8.692  0.3563 -1.4104  1.0363
 4130SOL     OW24022   3.364   0.881  14.661  0.3960 -0.2370  0.1882
 4130SOL    HW124023   3.331   0.835  14.584  2.7536 -1.1266 -0.2870
 4130SOL    HW224024   3.284   0.920  14.697  0.6366  0.6630 -0.2747
 4131SOL     OW24025   0.204   3.102   7.838 -0.1160  0.1098 -0.1192
 4131SOL    HW124026   0.212   3.119   7.744 -0.5837  0.4825 -0.0920
 4131SOL    HW224027   0.113   3.074   7.846 -0.4502  1.1366 -0.2822
 4132SOL     OW24028   4.127   0.732   7.444 -0.3196 -0.2240  0.3332
 4132SOL    HW124029   4.145   0.639   7.454  0.4545 -0.1727 -0.5065
 4132SOL    HW224030   4.068   0.744   7.518  1.1254  0.8240  1.3092
 4133SOL     OW24031   0.074   2.581   0.767 -0.1512  0.3148  0.0976
 4133SOL    HW124032   0.014   2.516   0.730 -2.1175  0.5255  2.9505
 4133SOL    HW224033   0.150   2.580   0.708  0.5748 -2.7244  1.0793
 4134SOL     OW24034   0.430   0.105   2.483 -0.2812 -0.0836  0.0036
 4134SOL    HW124035   0.526   0.104   2.486 -0.2642 -0.8326 -0.9743
 4134SOL    HW224036   0.417   0.194   2.449  0.7985  0.6432  1.4607
 4135SOL     OW24037   1.050   4.475   2.628 -0.4141 -0.3512 -0.4830
 4135SOL    HW124038   1.140   4.492   2.599 -0.9940  1.8992 -0.9456
 4135SOL    HW224039   1.065   4.486   2.722  1.3962  0.7147 -0.8927
 4136SOL     OW24040   0.625   3.701   4.749  0.6212 -0.0666  0.4471
 4136SOL    HW124041   0.655   3.667   4.834 -1.0112  1.2783  1.5584
 4136SOL    HW224042   0.685   3.658   4.688 -3.4164 -1.7131 -2.3156
 4137SOL     OW24043   4.510   4.463   4.085 -0.2266 -0.1643 -0.5895
 4137SOL    HW124044   4.536   4.533   4.145  0.9279 -1.8699  0.9226
 4137SOL    HW224045   4.456   4.513   4.025  0.0458 -0.1223 -0.8029
 4138SOL     OW24046   4.548   2.125   2.458  0.7814 -0.5093  0.9388
 4138SOL    HW124047   4.491   2.200   2.443  2.9051  1.0083  0.3358
 4138SOL    HW224048   4.504   2.063   2.400  2.8475 -0.6102 -0.5327
 4139SOL     OW24049   2.810   3.566   5.192  0.0836 -0.4646 -0.2195
 4139SOL    HW124050   2.821   3.547   5.285 -2.7706 -0.9246  0.0023
 4139SOL    HW224051   2.761   3.486   5.172 -0.1354 -0.1892 -0.7751
 4140SOL     OW24052   3.767   0.557   3.054 -0.2044  0.1329  0.0614
 4140SOL    HW124053   3.674   0.563   3.075 -0.3802 -2.1376 -0.0827
 4140SOL    HW224054   3.807   0.605   3.126  0.4328 -0.6137  0.1974
 4141SOL     OW24055   2.072   0.413   3.568 -0.2922  0.5458 -0.3980
 4141SOL    HW124056   2.163   0.384   3.576 -0.3913  1.0550  2.9396
 4141SOL    HW224057   2.036   0.341   3.619  1.5182  0.5251  0.8375
 4142SOL     OW24058   1.925   4.165   7.867  0.5353 -0.4490  0.1753
 4142SOL    HW124059   1.991   4.103   7.898  1.3758  1.3268  1.9770
 4142SOL    HW224060   1.975   4.238   7.830 -2.5864  0.9819 -1.1904
 4143SOL     OW24061   3.014   4.644  17.380 -0.0216  0.3182 -0.9380
 4143SOL    HW124062   2.927   4.677  17.404 -0.1861 -0.7899 -0.0101
 4143SOL    HW224063   3.063   4.632  17.461 -2.6735  1.0208  0.7627
 4144SOL     OW24064   3.070   0.355  17.089 -0.3885  0.1584  0.0624
 4144SOL    HW124065   3.108   0.367  17.001  1.0332 -0.9848  0.5070
 4144SOL    HW224066   3.003   0.287  17.079  0.7023 -0.4913 -3.0501
 4145SOL     OW24067   1.588   3.939   4.857  0.2553 -0.2194  0.0289
 4145SOL    HW124068   1.660   3.905   4.804  0.1172 -0.7069  0.1505
 4145SOL    HW224069   1.557   4.013   4.806  0.9080  1.4246  1.9804
 4146SOL     OW24070   4.240   1.588   3.780  0.1451  0.7577 -0.7330
 4146SOL    HW124071   4.191   1.564   3.701 -0.3530  1.8806 -0.7607
 4146SOL    HW224072   4.332   1.569   3.763  0.2277 -0.8876  1.6112
 4147SOL     OW24073   1.803   1.846   1.513  0.4621 -0.1864 -0.2673
 4147SOL    HW124074   1.727   1.904   1.511  0.4751 -0.1881 -0.8004
 4147SOL    HW224075   1.884   1.894   1.529  1.0507 -1.2053 -0.1566
 4148SOL     OW24076   4.730   4.579  11.908  0.5005 -0.1086  0.4980
 4148SOL    HW124077   4.724   4.494  11.951 -2.0572  1.0296  2.4081
 4148SOL    HW224078   4.639   4.600  11.892 -0.0933 -3.2444 -0.1833
 4149SOL     OW24079   3.309   1.691   7.099 -0.5331  0.2308 -0.1757
 4149SOL    HW124080   3.330   1.757   7.032 -0.3076 -0.3691 -0.6981
 4149SOL    HW224081   3.392   1.648   7.117 -0.8700  0.1579  1.1496
 4150SOL     OW24082   4.644   1.533   6.791 -0.2820 -0.0728  0.3211
 4150SOL    HW124083   4.655   1.560   6.882 -3.5516 -0.6881  0.8758
 4150SOL    HW224084   4.661   1.439   6.800  1.1208  0.1449 -0.0039
 4151SOL     OW24085   4.422   3.126   8.909 -0.2067 -1.1972 -0.3629
 4151SOL    HW124086   4.465   3.184   8.846  0.4246 -0.8390  0.4046
 4151SOL    HW224087   4.331   3.139   8.882  0.0062 -3.1118 -2.0350
 4152SOL     OW24088   4.554   1.201  16.793  0.1524 -0.2895  0.1155
 4152SOL    HW124089   4.625   1.142  16.768  0.4639  0.4899 -0.8399
 4152SOL    HW224090   4.503   1.210  16.712  0.6106  1.4014  0.0062
 4153SOL     OW24091   2.182   1.534  15.575  0.5376  0.2845 -0.4230
 4153SOL    HW124092   2.118   1.525  15.646  1.8864 -0.0472  0.7625
 4153SOL    HW224093   2.247   1.596  15.609  2.0622 -1.3419 -0.3600
 4154SOL     OW24094   4.545   0.176   3.060 -0.0081  0.4122  0.0563
 4154SOL    HW124095   4.624   0.205   3.106  0.3563 -0.0064 -0.3091
 4154SOL    HW224096   4.551   0.081   3.062  1.0125  0.4730 -0.2421
 4155SOL     OW24097   1.273   4.007   2.176  0.0706 -0.1447  0.0233
 4155SOL    HW124098   1.299   3.923   2.139  0.6122  0.5034 -1.0568
 4155SOL    HW224099   1.178   3.997   2.177  0.2135 -1.6932 -1.9000
 4156SOL     OW24100   1.121   4.257  16.614 -0.5331  0.0151  0.5124
 4156SOL    HW124101   1.060   4.319  16.575 -0.2055  0.2121  0.3050
 4156SOL    HW224102   1.065   4.243  16.690 -0.9733  1.8923  0.5409
 4157SOL     OW24103   3.093   3.425   1.069  0.1366 -0.1655 -0.1973
 4157SOL    HW124104   3.137   3.500   1.109 -2.6973  1.1127  0.4856
 4157SOL    HW224105   3.015   3.472   1.039  1.2449  1.1018 -1.1132
 4158SOL     OW24106   0.291   2.582   6.501  0.2809  0.1387 -0.2946
 4158SOL    HW124107   0.293   2.488   6.486 -1.6256  0.0767 -0.0940
 4158SOL    HW224108   0.380   2.604   6.472  0.4085  0.4899  0.3701
 4159SOL     OW24109   3.276   3.323   9.615  0.0012 -0.3873  0.3854
 4159SOL    HW124110   3.331   3.400   9.601 -0.6089 -0.3998 -1.9821
 4159SOL    HW224111   3.188   3.360   9.621  1.4846  3.0389  0.8590
 4160SOL     OW24112   1.715   0.478   2.949 -0.4118 -0.5506 -0.5548
 4160SOL    HW124113   1.723   0.517   2.862 -2.8350  1.3679  0.0588
 4160SOL    HW224114   1.621   0.473   2.970 -0.2611  1.8396  0.6997
 4161SOL     OW24115   1.408   0.502   8.711 -0.3341  0.4828 -0.1121
 4161SOL    HW124116   1.410   0.598   8.722  1.5326  0.3282  0.9666
 4161SOL    HW224117   1.498   0.479   8.689  0.1397  1.2328  0.9855
 4162SOL     OW24118   1.333   0.707   8.257  0.1667 -0.0381  0.3082
 4162SOL    HW124119   1.291   0.754   8.184 -0.5777 -0.5365  0.4244
 4162SOL    HW224120   1.420   0.748   8.258  0.4458 -0.5890 -1.2706
 4163SOL     OW24121   3.545   3.830   1.353 -0.1523 -0.2477 -0.0702
 4163SOL    HW124122   3.605   3.891   1.394 -0.2182  1.3865 -2.3676
 4163SOL    HW224123   3.497   3.887   1.292 -0.8823 -1.1201 -0.3169
 4164SOL     OW24124   0.282   3.872   4.381 -0.0841 -0.0255  0.4662
 4164SOL    HW124125   0.212   3.830   4.331 -1.5543  1.5253  1.2250
 4164SOL    HW224126   0.241   3.958   4.392  0.4122 -0.0077  2.1411
 4165SOL     OW24127   0.296   1.383   8.096 -0.2330 -0.3639  0.2944
 4165SOL    HW124128   0.337   1.440   8.031  0.9623 -0.3865  1.0350
 4165SOL    HW224129   0.324   1.439   8.169  1.6306 -1.1376  0.1539
 4166SOL     OW24130   1.444   1.073   5.923 -0.6032 -0.7057  0.4254
 4166SOL    HW124131   1.482   1.089   5.836  0.5352  0.3484  1.1193
 4166SOL    HW224132   1.451   1.157   5.968 -1.2940 -0.9370  0.9520
 4167SOL     OW24133   3.934   0.684   4.382 -0.4876  0.1742 -0.1414
 4167SOL    HW124134   3.899   0.603   4.420  0.9198  0.0288  0.8571
 4167SOL    HW224135   4.028   0.663   4.381 -0.9599 -1.9865  0.7775
 4168SOL     OW24136   2.568   2.645   3.995 -0.3184  0.5614  0.3969
 4168SOL    HW124137   2.598   2.574   3.938 -0.0601  2.0947 -1.3787
 4168SOL    HW224138   2.473   2.646   3.985 -0.2550  1.0532 -0.1379
 4169SOL     OW24139   3.490   2.655   2.603  0.5818 -0.1024  0.7486
 4169SOL    HW124140   3.535   2.661   2.519 -0.1152  1.2002  0.4664
 4169SOL    HW224141   3.466   2.747   2.612  0.0119 -0.2273  0.5423
 4170SOL     OW24142   4.372   3.982  14.958 -0.4235  0.3869  0.0214
 4170SOL    HW124143   4.282   4.005  14.980 -0.3552  0.6346  0.0437
 4170SOL    HW224144   4.366   3.986  14.862 -1.4171  2.0133  0.1419
 4171SOL     OW24145   2.451   3.344  10.667 -0.5564 -0.1012 -0.3186
 4171SOL    HW124146   2.365   3.317  10.636  0.4236 -3.6548  0.0710
 4171SOL    HW224147   2.498   3.373  10.589  0.6143 -0.6041  0.1887
 4172SOL     OW24148   0.677   1.165  10.594 -0.0832  0.1013  0.0561
 4172SOL    HW124149   0.757   1.204  10.630  0.4683 -1.1563  0.2131
 4172SOL    HW224150   0.704   1.096  10.533 -0.6283 -0.5974  0.6143
 4173SOL     OW24151   0.238   0.407   7.458 -0.2527  0.3378  0.0562
 4173SOL    HW124152   0.205   0.319   7.444  1.6894 -0.5802  1.3553
 4173SOL    HW224153   0.153   0.436   7.492 -0.2983  0.1038  0.1361
 4174SOL     OW24154   3.590   1.864   3.973 -0.2383  0.2573 -0.3612
 4174SOL    HW124155   3.677   1.890   3.940  0.8087  0.0078  2.2205
 4174SOL    HW224156   3.543   1.838   3.894 -1.1625 -1.7994  0.8849
 4175SOL     OW24157   4.030   4.426   9.365  0.6217  0.5643  0.4159
 4175SOL    HW124158   4.079   4.380   9.434  0.6795  0.7712  0.5109
 4175SOL    HW224159   4.093   4.401   9.297  0.2391  0.5456  0.0666
 4176SOL     OW24160   4.285   0.233  16.979 -0.5763  0.3284  0.2522
 4176SOL    HW124161   4.229   0.206  17.052 -0.2034  0.0566  0.4449
 4176SOL    HW224162   4.342   0.156  16.975 -1.7146 -0.4247 -1.1499
 4177SOL     OW24163   3.811   1.193   6.894 -0.0649 -0.1836 -0.6531
 4177SOL    HW124164   3.798   1.098   6.887 -0.7186  0.0575 -2.6943
 4177SOL    HW224165   3.898   1.204   6.857  0.5997 -0.8156  0.7002
 4178SOL     OW24166   0.655   2.684  13.712 -0.7051  0.2085  0.2301
 4178SOL    HW124167   0.741   2.665  13.749 -1.1015 -2.0552  0.0117
 4178SOL    HW224168   0.602   2.702  13.789 -0.9581 -1.8784  0.5441
 4179SOL     OW24169   2.653   3.097  15.325 -0.5532 -0.6700 -0.1924
 4179SOL    HW124170   2.565   3.129  15.348 -1.2139 -3.0778  0.6377
 4179SOL    HW224171   2.631   3.089  15.232 -2.2594  0.4329  0.1098
 4180SOL     OW24172   4.661   4.608   0.002 -0.0527  0.1097  0.4313
 4180SOL    HW124173   4.583   4.645  17.709 -0.6395 -2.7907 -1.0962
 4180SOL    HW224174   4.621   4.529   0.040 -2.0240  0.7556 -0.3017
 4181SOL     OW24175   3.091   1.247   4.533  0.6281  0.2260 -0.4968
 4181SOL    HW124176   3.096   1.166   4.482 -1.1152 -0.5744  0.6257
 4181SOL    HW224177   3.021   1.235   4.597  0.1389  0.1034 -1.0523
 4182SOL     OW24178   2.688   0.412  14.579  0.4353  0.6643 -0.1171
 4182SOL    HW124179   2.662   0.396  14.670  1.7422 -1.4416 -0.1044
 4182SOL    HW224180   2.679   0.507  14.574 -1.5167  0.3278 -3.0800
 4183SOL     OW24181   2.144   4.500   3.042  0.9702 -0.4591 -0.1006
 4183SOL    HW124182   2.107   4.557   2.974 -0.5006 -0.1424  0.9565
 4183SOL    HW224183   2.237   4.517   3.025  0.7561  0.5723 -0.2303
 4184SOL     OW24184   3.980   1.765   9.224  0.2563  0.0467  0.3245
 4184SOL    HW124185   3.968   1.674   9.197  2.3471 -0.3572  0.7386
 4184SOL    HW224186   3.924   1.801   9.156 -0.0087 -0.7604  0.1217
 4185SOL     OW24187   4.412   2.796   4.259  1.0804 -0.1960 -0.2079
 4185SOL    HW124188   4.434   2.804   4.167  1.1200 -0.6695 -0.2422
 4185SOL    HW224189   4.427   2.703   4.278 -1.4060 -0.3457  1.0478
 4186SOL     OW24190   3.174   1.581  16.021  0.4349 -0.0541  0.0579
 4186SOL    HW124191   3.191   1.552  16.110 -0.4913  2.7405  1.1593
 4186SOL    HW224192   3.222   1.664  16.020  0.2161  0.0312 -3.5751
 4187SOL     OW24193   0.705   2.143   4.022  0.8037 -0.3067  0.1485
 4187SOL    HW124194   0.770   2.076   4.043  1.7947  0.9548  1.1385
 4187SOL    HW224195   0.755   2.218   3.990  0.2660 -0.2172 -0.4685
 4188SOL     OW24196   4.069   2.767   7.624  0.5426 -0.2855 -0.6261
 4188SOL    HW124197   4.037   2.834   7.563 -1.8654 -1.8069 -1.0583
 4188SOL    HW224198   4.039   2.808   7.705 -2.0436 -2.5871 -0.3960
 4189SOL     OW24199   3.634   4.556   7.445 -0.1403 -0.1031  0.4562
 4189SOL    HW124200   3.721   4.519   7.440 -0.1321  0.0386 -0.5440
 4189SOL    HW224201   3.655   4.642   7.408 -1.0126  0.2053  0.6723
 4190SOL     OW24202   4.392   4.219   1.210 -0.4241  0.0485  0.0889
 4190SOL    HW124203   4.383   4.249   1.300  0.6801  0.2896  0.1181
 4190SOL    HW224204   4.469   4.163   1.217 -0.4289 -0.0160 -0.3367
 4191SOL     OW24205   3.919   0.515   6.716  0.1158  0.0030  0.2452
 4191SOL    HW124206   3.844   0.497   6.773  0.5880 -1.7954  0.3025
 4191SOL    HW224207   3.958   0.431   6.689 -0.6153 -0.1679 -0.2787
 4192SOL     OW24208   1.785   4.649   7.234  0.1947 -0.4814 -0.4611
 4192SOL    HW124209   1.790   4.721   7.297  2.1647  0.3442 -1.5751
 4192SOL    HW224210   1.804   4.578   7.296  1.8430 -1.3651 -1.9770
 4193SOL     OW24211   1.652   0.216   7.897  0.0785  0.5619 -0.6449
 4193SOL    HW124212   1.697   0.295   7.868 -1.5575  1.6958 -0.0837
 4193SOL    HW224213   1.606   0.241   7.977 -0.9886  1.4484 -1.5282
 4194SOL     OW24214   3.904   3.751   5.418  0.3277 -0.0960 -0.3267
 4194SOL    HW124215   3.813   3.729   5.398  0.3945 -1.6213  1.0602
 4194SOL    HW224216   3.890   3.816   5.486 -0.8851  0.3409 -0.9886
 4195SOL     OW24217   2.197   2.237   5.146 -0.0572  0.1789  0.1741
 4195SOL    HW124218   2.138   2.269   5.214  1.2997  1.9077  0.5135
 4195SOL    HW224219   2.249   2.184   5.205  1.6254 -2.4507 -3.6542
 4196SOL     OW24220   3.001   2.375   0.792 -0.2196  0.3482  0.3493
 4196SOL    HW124221   2.921   2.329   0.819  1.2122  0.0531  3.9565
 4196SOL    HW224222   3.047   2.301   0.753 -0.4450  1.0452 -1.2333
 4197SOL     OW24223   0.090   2.764   6.493  0.0342 -0.3693  0.0142
 4197SOL    HW124224   0.079   2.783   6.586  2.8129 -3.1544  0.9232
 4197SOL    HW224225   0.169   2.712   6.475  0.0969  0.0902 -1.0664
 4198SOL     OW24226   0.745   1.330   3.018  0.2087 -0.5655 -0.8723
 4198SOL    HW124227   0.668   1.338   2.961  1.5726  0.8752 -2.5065
 4198SOL    HW224228   0.695   1.329   3.100  0.8660  2.4972 -0.4114
 4199SOL     OW24229   1.377   3.263  16.868 -0.5246 -0.6828 -0.0203
 4199SOL    HW124230   1.314   3.197  16.840  0.0124 -1.2691  0.1491
 4199SOL    HW224231   1.379   3.316  16.788  2.3085  1.0269  1.1593
 4200SOL     OW24232   0.958   2.921  10.227  0.2313  0.2021 -0.6212
 4200SOL    HW124233   0.886   2.949  10.284  0.5112 -2.1571  0.9149
 4200SOL    HW224234   0.994   2.856  10.288  2.1800  1.2814 -0.6585
 4201SOL     OW24235   2.835   4.404   3.915 -0.4694 -0.4559  0.8257
 4201SOL    HW124236   2.850   4.414   4.009  0.4838 -3.2348  0.9722
 4201SOL    HW224237   2.744   4.373   3.919 -0.8455  0.1970 -2.9325
 4202SOL     OW24238   4.429   2.650   4.946  0.2133  0.7612  0.3005
 4202SOL    HW124239   4.505   2.706   4.931 -0.8130  2.1380  0.2377
 4202SOL    HW224240   4.461   2.566   4.914 -2.2606 -0.7617  1.7362
 4203SOL     OW24241   3.355   1.429   8.179 -0.3385  0.1689  0.2273
 4203SOL    HW124242   3.295   1.491   8.136 -0.6256 -1.5188 -1.7880
 4203SOL    HW224243   3.431   1.486   8.186 -0.7010  0.4902  1.5615
 4204SOL     OW24244   2.931   0.966  10.884  0.1092 -0.3528 -0.5236
 4204SOL    HW124245   2.984   0.945  10.960  1.3243  1.6448 -0.8071
 4204SOL    HW224246   2.882   1.045  10.909  1.2302  0.0978  0.2053
 4205SOL     OW24247   4.410   2.179   5.640 -0.8652  0.0046 -0.2234
 4205SOL    HW124248   4.439   2.093   5.670 -0.9669  0.3304  0.8043
 4205SOL    HW224249   4.396   2.221   5.725  2.6042 -1.0577  0.9042
 4206SOL     OW24250   3.443   2.372  10.370 -0.0540 -0.0179  0.1107
 4206SOL    HW124251   3.371   2.429  10.343  0.6156  0.5721 -0.4252
 4206SOL    HW224252   3.426   2.287  10.330 -2.3917 -0.0284  1.1525
 4207SOL     OW24253   1.715   0.158   7.047  0.3233  0.2821  0.0735
 4207SOL    HW124254   1.626   0.177   7.075  0.7517 -0.7685  2.1196
 4207SOL    HW224255   1.729   0.074   7.089 -2.3880 -0.4833 -0.5402
 4208SOL     OW24256   3.760   2.112   9.165 -0.2480 -0.4812  0.0441
 4208SOL    HW124257   3.709   2.192   9.151  0.0948 -0.1644  0.6155
 4208SOL    HW224258   3.844   2.142   9.129 -0.2121 -0.0622  0.4687
 4209SOL     OW24259   2.636   3.542   6.259  1.1346  0.1512 -0.0156
 4209SOL    HW124260   2.553   3.519   6.218  1.0608 -0.2481  0.3509
 4209SOL    HW224261   2.592   3.607   6.314  0.5993 -0.3553  0.1608
 4210SOL     OW24262   0.251   0.082   7.488  0.2670  0.9965  0.5654
 4210SOL    HW124263   0.345   0.075   7.504  0.3664  1.3628  0.1509
 4210SOL    HW224264   0.232   0.030   7.410  2.9241 -0.6426  0.9920
 4211SOL     OW24265   0.690   4.490   4.486  0.0780 -0.0767 -0.3768
 4211SOL    HW124266   0.773   4.462   4.447 -0.9713 -0.9579 -2.0044
 4211SOL    HW224267   0.659   4.539   4.410 -2.0010 -4.2792 -2.2508
 4212SOL     OW24268   4.242   2.915   6.131 -0.0617  0.3365 -0.3416
 4212SOL    HW124269   4.233   2.981   6.200 -1.0102  1.1381 -1.2206
 4212SOL    HW224270   4.304   2.960   6.074 -1.5919 -0.5606 -2.6970
 4213SOL     OW24271   0.948   1.125  17.458 -0.8215  0.0954 -0.2928
 4213SOL    HW124272   1.032   1.152  17.419 -0.9432 -0.2634 -0.8042
 4213SOL    HW224273   0.970   1.038  17.491 -2.5277 -0.6470 -1.1052
 4214SOL     OW24274   0.462   1.140  15.918  0.0126  0.5657 -0.2390
 4214SOL    HW124275   0.552   1.165  15.939  1.1606 -2.9361 -0.9228
 4214SOL    HW224276   0.420   1.178  15.995 -0.3559 -0.9954  0.3350
 4215SOL     OW24277   0.119   3.842  16.566  0.2062  0.4672  0.0278
 4215SOL    HW124278   0.167   3.870  16.488  2.2873  2.0442  1.8931
 4215SOL    HW224279   0.029   3.850  16.534 -0.2782  0.3839  1.3713
 4216SOL     OW24280   0.583   0.279   5.979 -0.1958  0.0167  0.1737
 4216SOL    HW124281   0.618   0.215   5.917 -0.8786 -0.9822  0.8219
 4216SOL    HW224282   0.661   0.287   6.034 -1.1327 -1.7241  1.7572
 4217SOL     OW24283   4.386   1.897  10.235 -0.0208  0.2314 -0.1565
 4217SOL    HW124284   4.433   1.816  10.218 -0.2789  0.4114 -1.7171
 4217SOL    HW224285   4.402   1.917  10.327 -2.8111 -1.7955  0.7769
 4218SOL     OW24286   3.012   1.280   4.922  0.4780 -0.6219  0.6025
 4218SOL    HW124287   3.002   1.238   4.836 -3.8142 -1.7489  1.6774
 4218SOL    HW224288   3.098   1.247   4.949  0.9126 -0.9588 -1.1515
 4219SOL     OW24289   4.334   1.013   9.417  0.2959 -0.0375 -0.0008
 4219SOL    HW124290   4.251   0.967   9.408 -0.2278  1.2335 -1.5760
 4219SOL    HW224291   4.301   1.098   9.446 -0.5963  0.5362 -2.7119
 4220SOL     OW24292   4.097   4.544  16.904  0.2335  0.0338 -0.0463
 4220SOL    HW124293   4.041   4.621  16.889 -3.4996 -3.0341 -1.8341
 4220SOL    HW224294   4.187   4.576  16.904 -0.1865  1.2171 -2.4712
 4221SOL     OW24295   3.413   3.423   4.102  0.4130 -0.3035  0.1964
 4221SOL    HW124296   3.353   3.491   4.134 -1.9155 -2.6686  0.8488
 4221SOL    HW224297   3.351   3.351   4.090 -0.6795  0.4158  1.4529
 4222SOL     OW24298   4.620   1.222   8.847  0.3369  0.5998 -0.0579
 4222SOL    HW124299   4.549   1.164   8.878  0.3369  0.3089 -0.6127
 4222SOL    HW224300   4.605   1.213   8.753 -2.7657 -3.1982  0.7832
 4223SOL     OW24301   1.870   2.788   1.877  0.5688  0.2916 -0.2394
 4223SOL    HW124302   1.776   2.787   1.859  0.7295 -1.9364 -1.0302
 4223SOL    HW224303   1.911   2.820   1.797  1.1180  2.0067  0.7321
 4224SOL     OW24304   1.256   2.452  14.518 -0.1959 -0.2321  0.0433
 4224SOL    HW124305   1.263   2.435  14.612 -3.0884 -1.9649 -0.0425
 4224SOL    HW224306   1.241   2.547  14.516  0.2258 -0.1736 -0.2584
 4225SOL     OW24307   1.317   4.460   4.356 -0.0355  0.1078 -0.1311
 4225SOL    HW124308   1.269   4.499   4.284  0.2598  0.8723  0.0908
 4225SOL    HW224309   1.286   4.369   4.358  1.9767 -0.5509  1.8851
 4226SOL     OW24310   1.046   2.889   5.681  0.2933 -0.4294 -0.1865
 4226SOL    HW124311   1.004   2.944   5.615  0.5440 -2.8982 -2.4427
 4226SOL    HW224312   1.135   2.921   5.667  0.0501 -0.2704 -1.3993
 4227SOL     OW24313   2.842   2.778   3.319 -0.2976 -0.0139 -0.0216
 4227SOL    HW124314   2.860   2.759   3.411  1.7503 -1.9970 -0.8376
 4227SOL    HW224315   2.746   2.777   3.321 -0.2432 -0.7007  2.1532
 4228SOL     OW24316   0.318   4.436   8.648  0.1641  0.1345  0.6726
 4228SOL    HW124317   0.316   4.369   8.716  0.4306  2.7612  3.2230
 4228SOL    HW224318   0.284   4.504   8.706 -2.5044 -1.7061  1.2654
 4229SOL     OW24319   3.378   0.611   5.504  0.2638 -0.1409  0.4991
 4229SOL    HW124320   3.472   0.590   5.501  0.5152  1.2156 -0.9306
 4229SOL    HW224321   3.381   0.678   5.572  1.7722 -0.9356  1.2249
 4230SOL     OW24322   2.568   1.056  10.747 -0.2780  0.3927  0.2958
 4230SOL    HW124323   2.476   1.042  10.723 -0.1908  0.0589  0.1586
 4230SOL    HW224324   2.562   1.075  10.840  0.2619 -2.1592  0.8398
 4231SOL     OW24325   0.107   1.669   1.687 -0.0888 -0.7508  0.1996
 4231SOL    HW124326   0.104   1.749   1.740  0.3433 -0.8826  0.4163
 4231SOL    HW224327   0.032   1.689   1.631 -0.0649 -0.9333  0.1019
 4232SOL     OW24328   0.904   3.408   8.062 -0.7010  0.2257  0.2957
 4232SOL    HW124329   0.952   3.470   8.007 -0.4056 -0.9355 -0.7568
 4232SOL    HW224330   0.812   3.426   8.042 -0.3769  0.7388 -0.7719
 4233SOL     OW24331   4.288   0.907  15.446 -0.2214 -0.0236 -0.2684
 4233SOL    HW124332   4.210   0.959  15.428 -1.8185 -2.4628 -0.3983
 4233SOL    HW224333   4.322   0.918  15.357 -0.9050 -1.0979 -0.6636
 4234SOL     OW24334   2.364   2.678  16.453 -0.3054 -0.5882  0.0555
 4234SOL    HW124335   2.311   2.732  16.511  1.4002 -0.1537  1.2100
 4234SOL    HW224336   2.440   2.735  16.465 -2.5163  2.0576  1.3166
 4235SOL     OW24337   4.476   4.447  12.682 -0.1702 -0.0081  0.0311
 4235SOL    HW124338   4.550   4.387  12.674 -1.3679 -1.3057 -1.2232
 4235SOL    HW224339   4.447   4.454  12.591  2.2235 -0.2908 -0.7490
 4236SOL     OW24340   2.451   2.327   0.470 -0.8100 -0.1963  0.6430
 4236SOL    HW124341   2.530   2.281   0.499  0.2482  1.4008  0.2858
 4236SOL    HW224342   2.404   2.322   0.553  0.7362 -0.5846  1.4973
 4237SOL     OW24343   2.866   3.769   1.166 -0.0530 -0.0406 -0.0501
 4237SOL    HW124344   2.888   3.862   1.177  0.5837 -0.4606  2.2049
 4237SOL    HW224345   2.845   3.753   1.258 -0.3348  2.0134  0.2448
 4238SOL     OW24346   2.659   3.616   4.895  0.0146 -0.0672  0.4135
 4238SOL    HW124347   2.673   3.707   4.870  0.8381  0.4234  2.6088
 4238SOL    HW224348   2.740   3.601   4.943 -0.3628  0.1397  1.1193
 4239SOL     OW24349   2.551   2.937   4.112  0.0945 -0.0910 -0.5607
 4239SOL    HW124350   2.592   2.856   4.079 -1.2320 -1.1398  0.3701
 4239SOL    HW224351   2.467   2.922   4.069  1.2583 -1.6093 -2.3759
 4240SOL     OW24352   1.507   2.264  15.445 -0.3919  0.5642  0.4974
 4240SOL    HW124353   1.598   2.234  15.452 -0.8440 -1.2108 -1.1476
 4240SOL    HW224354   1.518   2.354  15.415  0.9844  0.5687  1.0242
 4241SOL     OW24355   1.502   3.742   1.928  0.3586  0.2353 -0.2841
 4241SOL    HW124356   1.460   3.765   2.012 -0.6691 -1.6799 -0.2518
 4241SOL    HW224357   1.568   3.678   1.956 -0.6545 -0.1907  1.1355
 4242SOL     OW24358   4.312   4.151  12.683  0.1166  0.3154 -0.3951
 4242SOL    HW124359   4.368   4.127  12.609  0.5022  0.7953 -0.2627
 4242SOL    HW224360   4.224   4.148  12.644 -0.8207  1.3742  1.6320
 4243SOL     OW24361   4.513   2.013   6.971 -0.0848  0.1000 -0.4523
 4243SOL    HW124362   4.521   1.943   7.036 -0.3865 -0.5279 -1.0857
 4243SOL    HW224363   4.562   1.968   6.901 -0.7880  1.2031 -1.6456
 4244SOL     OW24364   4.733   1.554   3.948  0.2207  0.1477  0.1210
 4244SOL    HW124365   0.073   1.582   3.899 -0.2178 -0.2667 -0.7969
 4244SOL    HW224366   0.024   1.464   3.966  0.1878 -0.0247 -0.7180
 4245SOL     OW24367   1.847   1.825  16.966  0.2574  1.0226  0.6090
 4245SOL    HW124368   1.797   1.888  16.913  0.9743  0.3077 -0.9069
 4245SOL    HW224369   1.796   1.832  17.046  2.1919 -1.0947  2.0135
 4246SOL     OW24370   3.319   3.038   3.104  0.3554  0.3248  0.2162
 4246SOL    HW124371   3.228   3.029   3.131  0.3862  2.4601  1.0639
 4246SOL    HW224372   3.328   3.122   3.058 -1.5112  1.5782  2.1445
 4247SOL     OW24373   1.184   0.379   5.184  0.0925  0.5493 -0.7408
 4247SOL    HW124374   1.149   0.407   5.269 -1.8330  2.1859 -2.0674
 4247SOL    HW224375   1.242   0.310   5.214  1.5935  1.3985 -1.6810
 4248SOL     OW24376   4.733   3.213   3.020  0.4027 -0.3750 -0.6667
 4248SOL    HW124377   0.089   3.216   3.042  0.7541 -0.5847 -2.1753
 4248SOL    HW224378   4.699   3.288   3.069  1.2926 -0.8022  0.6074
 4249SOL     OW24379   1.664   0.893   6.466 -0.5323  0.0632 -0.0046
 4249SOL    HW124380   1.743   0.876   6.416 -0.4107  0.8000 -0.0698
 4249SOL    HW224381   1.614   0.814   6.444  1.1341 -1.1544  0.5787
 4250SOL     OW24382   2.683   4.187   6.881 -0.3689  0.0436 -0.6126
 4250SOL    HW124383   2.617   4.161   6.946 -3.0120  1.2420 -2.8356
 4250SOL    HW224384   2.624   4.181   6.806  1.2077  0.4887 -1.8803
 4251SOL     OW24385   4.594   3.610   0.196  0.3134  0.6155  0.0760
 4251SOL    HW124386   4.580   3.702   0.175 -1.1035  0.7683  1.6718
 4251SOL    HW224387   4.664   3.584   0.136  0.5345  1.3947  0.0045
 4252SOL     OW24388   3.204   4.135   7.702  0.5307 -0.4226  0.9961
 4252SOL    HW124389   3.287   4.110   7.742  0.9694 -0.6323 -0.0409
 4252SOL    HW224390   3.146   4.087   7.762 -1.4335 -0.6940 -1.1162
 4253SOL     OW24391   2.903   2.449  13.917  0.1445  0.0307  0.6233
 4253SOL    HW124392   2.809   2.446  13.900 -0.1951  0.0277  2.4998
 4253SOL    HW224393   2.925   2.539  13.893 -1.2123  0.4297  0.8447
 4254SOL     OW24394   0.847   4.604   3.270  0.5037 -0.4520  0.5072
 4254SOL    HW124395   0.908   4.531   3.258 -1.2641 -2.0471  1.2670
 4254SOL    HW224396   0.768   4.550   3.266  2.1685 -2.7894 -0.1723
 4255SOL     OW24397   0.160   1.472  11.469 -0.0824  0.2185  0.1558
 4255SOL    HW124398   0.119   1.492  11.553  0.5233  1.4397  0.1537
 4255SOL    HW224399   0.247   1.479  11.507  0.9173  2.1909 -2.4919
 4256SOL     OW24400   4.361   1.363   2.584 -0.4821 -0.6332  0.1777
 4256SOL    HW124401   4.383   1.291   2.525  2.6511 -0.6319  1.3657
 4256SOL    HW224402   4.268   1.378   2.568 -0.2145  0.7419 -0.0959
 4257SOL     OW24403   0.604   1.719   2.871  0.3908  0.0668  0.0121
 4257SOL    HW124404   0.627   1.747   2.960 -1.8885 -1.7663  1.1799
 4257SOL    HW224405   0.528   1.775   2.860 -2.4004 -3.5902  0.5687
 4258SOL     OW24406   1.125   3.348   7.054 -0.2383 -0.1214  0.0457
 4258SOL    HW124407   1.101   3.261   7.088 -2.0181 -0.4235 -1.9550
 4258SOL    HW224408   1.145   3.318   6.965 -1.3627  0.3592 -0.3794
 4259SOL     OW24409   3.031   1.706   8.488 -0.2043  0.3798 -0.1135
 4259SOL    HW124410   2.991   1.646   8.551  4.4317 -0.7443  1.8188
 4259SOL    HW224411   3.088   1.649   8.436  0.4084 -0.4808  1.5077
 4260SOL     OW24412   3.894   2.252   1.556  0.0868 -0.1638  0.3519
 4260SOL    HW124413   3.932   2.314   1.619  1.1649  2.5403 -2.9880
 4260SOL    HW224414   3.812   2.290   1.526  0.1995  0.2703  0.5998
 4261SOL     OW24415   2.042   2.340   7.835  0.4721 -0.0708  0.1755
 4261SOL    HW124416   1.974   2.327   7.900 -0.0690 -1.3585 -0.6313
 4261SOL    HW224417   2.114   2.381   7.883  0.2019 -0.9821  1.3484
 4262SOL     OW24418   3.580   2.865   8.450 -0.3945  0.1787 -0.0224
 4262SOL    HW124419   3.614   2.867   8.539  1.4239  0.1356 -0.7187
 4262SOL    HW224420   3.509   2.929   8.453  0.9385  1.7034 -0.5686
 4263SOL     OW24421   1.312   0.630   9.220 -0.3157 -0.0200 -0.0616
 4263SOL    HW124422   1.232   0.586   9.250  0.0517  0.1138  1.1292
 4263SOL    HW224423   1.292   0.641   9.127 -1.3867 -2.2727 -0.0889
 4264SOL     OW24424   4.049   0.134   6.909  0.0627  0.6785 -0.2334
 4264SOL    HW124425   4.052   0.047   6.948 -0.3298  0.5476 -0.4872
 4264SOL    HW224426   3.958   0.150   6.884  0.2229 -1.7813 -2.4693
 4265SOL     OW24427   0.444   2.183  15.789  0.5488 -0.3450  0.0158
 4265SOL    HW124428   0.427   2.163  15.881  0.2369 -0.9416 -0.1701
 4265SOL    HW224429   0.532   2.219  15.792  0.3895 -0.0049  0.7876
 4266SOL     OW24430   1.441   2.685   6.655 -0.3131  0.4415  0.2982
 4266SOL    HW124431   1.479   2.744   6.719  0.2250 -0.9409  1.2325
 4266SOL    HW224432   1.509   2.698   6.589 -0.9689 -0.7382 -0.6326
 4267SOL     OW24433   2.820   1.358   6.116  0.2202  0.0673 -0.2937
 4267SOL    HW124434   2.756   1.381   6.184  0.8392 -3.0447  1.3618
 4267SOL    HW224435   2.771   1.282   6.084 -1.1051  0.3412  1.0642
 4268SOL     OW24436   1.872   3.377   8.710 -0.0741  0.3551 -0.0402
 4268SOL    HW124437   1.951   3.398   8.759  0.1503  0.7671 -0.5845
 4268SOL    HW224438   1.810   3.365   8.783 -1.0884  0.5826 -0.8676
 4269SOL     OW24439   3.992   1.901  12.635  0.9918  0.3938 -0.5210
 4269SOL    HW124440   4.088   1.907  12.637  0.8395  1.8040  2.5384
 4269SOL    HW224441   3.967   1.845  12.562 -2.3326  0.9939  0.1532
 4270SOL     OW24442   1.356   0.268   2.803  0.8141 -0.4898  0.1015
 4270SOL    HW124443   1.306   0.335   2.849  1.3957 -1.4638  2.1641
 4270SOL    HW224444   1.341   0.292   2.712  0.2104  0.2346  0.3901
 4271SOL     OW24445   0.584   0.876  12.099 -0.2581 -0.6486 -0.0899
 4271SOL    HW124446   0.621   0.822  12.029  1.1718 -0.4115  0.4745
 4271SOL    HW224447   0.619   0.965  12.103  1.1068 -1.3237  2.9231
 4272SOL     OW24448   0.034   1.555   8.396 -0.6841 -0.4176 -0.1672
 4272SOL    HW124449   0.091   1.632   8.396 -1.3840  0.0995  0.8153
 4272SOL    HW224450   4.691   1.590   8.435  0.4178  1.6197  0.2737
 4273SOL     OW24451   3.145   4.087   4.280 -0.2344  0.0362  0.2893
 4273SOL    HW124452   3.123   4.080   4.187 -0.5956 -4.3242  0.7104
 4273SOL    HW224453   3.222   4.030   4.287 -1.1128 -1.5762 -3.3470
 4274SOL     OW24454   3.541   3.964   8.954 -0.1403  0.1463 -0.3323
 4274SOL    HW124455   3.551   3.980   8.860  2.0357  0.9905  0.0539
 4274SOL    HW224456   3.551   4.048   8.999 -2.0386 -0.5385  1.3974
 4275SOL     OW24457   3.808   2.401   3.787 -0.1043 -0.0063  0.2358
 4275SOL    HW124458   3.798   2.386   3.693 -0.5766  1.3389  0.0691
 4275SOL    HW224459   3.755   2.325   3.813  1.5870 -1.5978 -1.0121
 4276SOL     OW24460   3.678   4.392  17.138  0.4712 -0.5951  0.8122
 4276SOL    HW124461   3.706   4.309  17.099  0.7220 -0.1421  0.0186
 4276SOL    HW224462   3.642   4.366  17.223 -1.8689 -1.6596 -0.5071
 4277SOL     OW24463   1.646   4.085   4.187  0.4168  0.3621  0.7454
 4277SOL    HW124464   1.586   4.012   4.175  2.3858 -1.2777  0.8869
 4277SOL    HW224465   1.608   4.157   4.136 -0.8833  0.0850  1.3248
 4278SOL     OW24466   3.502   1.484   3.736  0.5197  0.1314  0.6591
 4278SOL    HW124467   3.578   1.516   3.688  0.0018 -1.3428 -1.1325
 4278SOL    HW224468   3.524   1.494   3.829  0.2074 -0.2225  0.7697
 4279SOL     OW24469   3.014   0.386   8.184 -0.6988 -0.5707 -0.3768
 4279SOL    HW124470   2.927   0.417   8.158 -0.4883 -0.0439 -0.4486
 4279SOL    HW224471   3.003   0.291   8.192 -0.6787 -0.5059  0.4482
 4280SOL     OW24472   4.591   0.543   4.359 -0.0526  0.0041  0.2505
 4280SOL    HW124473   4.551   0.563   4.444 -0.3557 -0.6481  0.2647
 4280SOL    HW224474   4.532   0.594   4.304 -1.2435 -3.1862 -1.4278
 4281SOL     OW24475   0.845   2.449   6.449  0.0666 -0.1846  0.3072
 4281SOL    HW124476   0.907   2.434   6.378  1.8013 -1.2660  2.0565
 4281SOL    HW224477   0.887   2.422   6.530  0.9623  1.6384  0.4469
 4282SOL     OW24478   3.218   3.001   2.347  0.0062  0.3567  0.2548
 4282SOL    HW124479   3.259   2.916   2.365  1.5868  1.0294 -0.1282
 4282SOL    HW224480   3.271   3.070   2.386 -2.7859  0.9602  2.9431
 4283SOL     OW24481   2.437   0.254   7.337 -0.0700  0.0546  0.1712
 4283SOL    HW124482   2.467   0.251   7.428 -0.7605  2.3112  0.4622
 4283SOL    HW224483   2.348   0.288   7.350  0.0322  0.1445  0.6549
 4284SOL     OW24484   4.377   1.562   7.056 -0.1626 -0.0791 -0.1798
 4284SOL    HW124485   4.284   1.564   7.032 -0.2440  3.3988  0.4265
 4284SOL    HW224486   4.408   1.479   7.019 -1.2479 -0.7661  0.4574
 4285SOL     OW24487   1.215   1.667   3.126  0.3154 -0.1210  0.3274
 4285SOL    HW124488   1.228   1.655   3.220  2.1653  1.5058  0.2728
 4285SOL    HW224489   1.299   1.707   3.102 -1.1064  2.0111 -1.0794
 4286SOL     OW24490   3.037   4.128  14.006 -0.6882 -0.2077  0.2436
 4286SOL    HW124491   2.943   4.133  13.992 -0.7234  1.8732  1.2739
 4286SOL    HW224492   3.063   4.217  13.982  1.2239 -2.1936 -5.1690
 4287SOL     OW24493   4.035   0.009   5.753  0.2524  0.6347  0.1521
 4287SOL    HW124494   4.012   4.658   5.781  0.3185 -0.5245 -3.5337
 4287SOL    HW224495   3.950   0.044   5.726 -0.6573  0.0188  2.1750
 4288SOL     OW24496   1.261   1.444  15.608 -0.1639  0.2141 -0.2144
 4288SOL    HW124497   1.333   1.505  15.623 -0.2600  0.4737 -0.8284
 4288SOL    HW224498   1.315   1.367  15.590  0.0203  0.3689 -0.3261
 4289SOL     OW24499   0.389   0.994   4.943  0.2714  0.3475 -0.5214
 4289SOL    HW124500   0.405   0.899   4.942 -1.0286  0.1197 -0.0954
 4289SOL    HW224501   0.446   1.021   4.871  1.0292  3.0167  1.0964
 4290SOL     OW24502   1.107   4.471  15.446  0.2100  0.0493 -0.1227
 4290SOL    HW124503   1.036   4.511  15.495  0.5591 -0.3269  0.6921
 4290SOL    HW224504   1.056   4.430  15.375 -0.6076  0.8096  0.0270
 4291SOL     OW24505   1.923   3.648   3.986 -0.3163  0.2187  0.3932
 4291SOL    HW124506   1.946   3.680   4.074  0.6285  0.9069 -0.1054
 4291SOL    HW224507   1.873   3.567   4.000 -2.3561  1.4636  0.2507
 4292SOL     OW24508   2.663   0.744  10.799 -0.1959  0.1457  0.0913
 4292SOL    HW124509   2.615   0.729  10.718 -1.3626  0.2970  0.7508
 4292SOL    HW224510   2.610   0.697  10.864  1.1092 -2.0439 -0.4451
 4293SOL     OW24511   3.627   2.593  11.820  0.0737  0.4098 -0.3860
 4293SOL    HW124512   3.687   2.665  11.840  0.6946  0.2381 -1.6138
 4293SOL    HW224513   3.613   2.569  11.911  0.7747 -0.9541 -0.6350
 4294SOL     OW24514   3.895   3.828   8.820  0.3608 -0.6288  0.7573
 4294SOL    HW124515   3.877   3.738   8.847  0.2634  0.2228  3.4385
 4294SOL    HW224516   3.976   3.820   8.769  0.7519 -0.9178  1.4282
 4295SOL     OW24517   4.101   0.766  12.084 -0.0518 -0.0966  0.1623
 4295SOL    HW124518   4.088   0.838  12.146  1.0625  0.0670  0.2051
 4295SOL    HW224519   4.088   0.800  11.995 -1.4304 -0.1589  0.3414
 4296SOL     OW24520   2.379   2.109   9.027  0.0329  0.3104 -0.0121
 4296SOL    HW124521   2.377   2.106   8.931 -2.5944  3.8511 -0.0944
 4296SOL    HW224522   2.453   2.051   9.045 -1.8825 -2.2873 -0.6270
 4297SOL     OW24523   3.336   0.085   6.106 -0.5774 -0.6324  0.1890
 4297SOL    HW124524   3.262   0.144   6.117 -0.2390 -0.3652  1.0653
 4297SOL    HW224525   3.307   4.735   6.132  0.4022 -1.1738 -0.5015
 4298SOL     OW24526   0.302   1.483   8.624  0.1839  0.3181 -0.3706
 4298SOL    HW124527   0.259   1.555   8.671  1.5243  1.3932 -0.7857
 4298SOL    HW224528   0.385   1.496   8.669  1.9245 -3.5980 -2.5274
 4299SOL     OW24529   1.164   0.254   7.911  0.5612 -0.3107 -0.2191
 4299SOL    HW124530   1.116   0.326   7.952 -0.4702  0.3218 -2.5203
 4299SOL    HW224531   1.136   0.189   7.976  3.5871  0.7331  2.1120
 4300SOL     OW24532   1.629   3.172  14.351  0.0345  0.3686  0.2879
 4300SOL    HW124533   1.705   3.162  14.408 -0.5342 -1.1048  0.7955
 4300SOL    HW224534   1.572   3.216  14.414  0.6790  2.6304 -0.7265
 4301SOL     OW24535   4.377   0.540   5.850 -0.2833  0.6509  0.1074
 4301SOL    HW124536   4.283   0.525   5.843 -0.4102  1.4223  0.1808
 4301SOL    HW224537   4.374   0.633   5.829  1.3773  1.0321  1.6372
 4302SOL     OW24538   3.526   0.596   4.734 -0.0095 -0.1659 -0.0823
 4302SOL    HW124539   3.524   0.691   4.733  4.4446 -0.0928 -0.2453
 4302SOL    HW224540   3.525   0.570   4.642  2.7646 -0.4383 -0.0363
 4303SOL     OW24541   3.313   4.590   8.220  0.1781  0.4680  0.1367
 4303SOL    HW124542   3.377   4.518   8.219  0.7965  1.0204  0.2501
 4303SOL    HW224543   3.352   4.651   8.282 -0.7161  0.1709  0.9874
 4304SOL     OW24544   1.450   1.611   9.507 -0.2447 -0.3813 -0.1803
 4304SOL    HW124545   1.390   1.623   9.580  0.9350  0.6550  0.6290
 4304SOL    HW224546   1.395   1.563   9.445  1.9049 -2.5874 -0.3671
 4305SOL     OW24547   2.017   0.101   1.486 -0.7549  0.2715  0.4345
 4305SOL    HW124548   1.985   0.159   1.417  1.8722 -0.5870 -1.5123
 4305SOL    HW224549   1.971   0.142   1.559  1.0507  0.0310  1.6914
 4306SOL     OW24550   3.540   1.585  14.688 -0.2911  0.1204  0.1673
 4306SOL    HW124551   3.614   1.542  14.643  0.8019 -0.1347  2.2057
 4306SOL    HW224552   3.563   1.678  14.693 -1.3845  0.3993 -0.1697
 4307SOL     OW24553   3.196   0.474   4.547 -0.0780 -0.3120 -0.1939
 4307SOL    HW124554   3.198   0.566   4.519  1.6561 -0.5018 -0.6837
 4307SOL    HW224555   3.176   0.490   4.639  1.0946 -1.1775  0.2044
 4308SOL     OW24556   2.602   1.255   4.689 -0.0519 -0.3903  0.1247
 4308SOL    HW124557   2.519   1.212   4.670  0.0626 -0.3958 -0.3702
 4308SOL    HW224558   2.578   1.342   4.721  1.3814 -0.5623  1.6289
 4309SOL     OW24559   0.186   2.928   8.557 -0.0401 -0.1735 -0.2691
 4309SOL    HW124560   0.204   2.955   8.467  1.0428  0.0760  0.0206
 4309SOL    HW224561   0.272   2.888   8.574  0.2562 -0.4011 -2.3023
 4310SOL     OW24562   0.466   2.241   3.558 -0.1708  0.7473 -0.5451
 4310SOL    HW124563   0.528   2.282   3.618  0.7147  0.6826 -1.4302
 4310SOL    HW224564   0.514   2.244   3.476  2.3632 -0.9531  0.8887
 4311SOL     OW24565   4.180   2.113   5.003 -0.0311  0.1304 -0.1053
 4311SOL    HW124566   4.108   2.103   5.065 -1.4186  0.0549 -1.7180
 4311SOL    HW224567   4.174   2.035   4.947  1.3493 -0.6998  0.8975
 4312SOL     OW24568   2.182   3.296  10.649 -0.7915 -0.6501  0.0233
 4312SOL    HW124569   2.134   3.214  10.639  1.2133 -1.8615  0.2209
 4312SOL    HW224570   2.159   3.305  10.742 -2.3363 -2.1857 -0.2043
 4313SOL     OW24571   2.810   0.689   8.448 -0.2598  1.0179 -0.1187
 4313SOL    HW124572   2.882   0.626   8.437 -1.3265 -0.4929  1.6212
 4313SOL    HW224573   2.791   0.701   8.355  0.1615  0.9666 -0.2137
 4314SOL     OW24574   4.055   4.707   7.513 -0.3327  0.8091  0.2880
 4314SOL    HW124575   4.015   4.624   7.486  0.3052  0.8396 -0.7524
 4314SOL    HW224576   4.005   4.730   7.591 -1.5724 -0.9817  0.0255
 4315SOL     OW24577   2.126   2.710   5.954  0.0360  0.3132 -1.0496
 4315SOL    HW124578   2.136   2.641   5.889 -1.7050 -0.1076 -0.8748
 4315SOL    HW224579   2.035   2.695   5.981 -0.2921  2.8826 -0.6935
 4316SOL     OW24580   3.602   1.789  17.694  0.1664  0.3738 -0.1033
 4316SOL    HW124581   3.694   1.765  17.691  0.0168 -0.0121 -1.7185
 4316SOL    HW224582   3.561   1.704  17.677  0.8918  0.4656 -2.3920
 4317SOL     OW24583   1.178   1.465  11.142  0.1267  0.3623  0.0053
 4317SOL    HW124584   1.095   1.418  11.130  1.1273 -1.9051  1.8882
 4317SOL    HW224585   1.159   1.536  11.203  0.0766 -1.0247  1.6295
 4318SOL     OW24586   1.748   1.156   9.652 -0.3759  0.4789 -0.1583
 4318SOL    HW124587   1.730   1.223   9.586  1.5314  0.4686 -0.7020
 4318SOL    HW224588   1.799   1.208   9.715 -1.0071  1.0804 -0.1398
 4319SOL     OW24589   3.516   1.142   2.063 -0.2751 -0.0374  0.4681
 4319SOL    HW124590   3.606   1.127   2.033 -1.0195 -0.7309 -1.3927
 4319SOL    HW224591   3.514   1.238   2.063  0.7907  0.0009 -3.0021
 4320SOL     OW24592   1.187   4.676   6.945  0.1150 -0.0209 -0.0558
 4320SOL    HW124593   1.245   0.013   6.930  0.3100 -0.1774 -0.0875
 4320SOL    HW224594   1.161   4.683   7.037 -0.2939  1.4610 -0.2827
 4321SOL     OW24595   3.043   1.857  17.126 -0.6566  0.0177  0.3035
 4321SOL    HW124596   3.100   1.792  17.084  1.8320  2.1091  0.4151
 4321SOL    HW224597   3.096   1.931  17.095 -1.0443 -0.0127 -0.4298
 4322SOL     OW24598   2.148   3.971   4.104 -0.1579  0.1090 -0.7519
 4322SOL    HW124599   2.162   3.910   4.177 -1.5048  0.0550 -0.5288
 4322SOL    HW224600   2.058   3.999   4.123  0.1762  0.7577 -0.1346
 4323SOL     OW24601   1.788   2.159   8.782 -0.0458 -0.2263  0.1892
 4323SOL    HW124602   1.768   2.179   8.690  1.2669  0.8567  0.1399
 4323SOL    HW224603   1.873   2.200   8.795 -0.2019 -0.4207  1.7767
 4324SOL     OW24604   1.189   0.055   6.522 -0.7345  0.2634  0.1805
 4324SOL    HW124605   1.104   0.040   6.481 -0.9584 -0.1882  0.7916
 4324SOL    HW224606   1.165   0.091   6.608 -1.7947  2.2335 -0.9432
 4325SOL     OW24607   2.456   3.543   2.563 -0.1671  0.0487  0.3799
 4325SOL    HW124608   2.445   3.479   2.632  0.7800 -0.7792 -0.2403
 4325SOL    HW224609   2.374   3.532   2.514  0.3583  1.2753 -0.7817
 4326SOL     OW24610   0.988   0.456   8.599  0.0119 -0.1810 -0.2452
 4326SOL    HW124611   1.029   0.464   8.685 -0.7599 -1.0453  0.2030
 4326SOL    HW224612   1.057   0.431   8.537  3.4063  2.3933  2.4555
 4327SOL     OW24613   1.552   3.529  15.833  0.2138 -0.1702  0.2308
 4327SOL    HW124614   1.609   3.578  15.892  0.8762  1.1371 -1.4867
 4327SOL    HW224615   1.605   3.534  15.753  0.2385  0.2667  0.2756
 4328SOL     OW24616   1.430   1.908   2.593 -0.6203  0.6022 -0.0144
 4328SOL    HW124617   1.380   1.851   2.650 -0.0296 -0.6914 -0.7883
 4328SOL    HW224618   1.504   1.849   2.578 -0.2735  0.8345  0.7748
 4329SOL     OW24619   3.602   3.952  10.743 -0.1995 -0.4455 -0.8950
 4329SOL    HW124620   3.538   3.970  10.674 -0.5640  2.7592  0.2606
 4329SOL    HW224621   3.637   3.869  10.711  1.7964  1.9374 -4.8532
 4330SOL     OW24622   4.047   4.409   4.207  0.0559 -0.2581 -0.2310
 4330SOL    HW124623   4.141   4.391   4.218 -0.1862  0.1758  2.5905
 4330SOL    HW224624   4.011   4.364   4.283 -0.2153 -1.2073 -0.9349
 4331SOL     OW24625   1.361   0.410   7.579 -0.2281 -0.6450  0.5775
 4331SOL    HW124626   1.324   0.403   7.491 -0.0334  1.5299  0.3179
 4331SOL    HW224627   1.454   0.391   7.569 -0.3028 -0.9609  0.4817
 4332SOL     OW24628   0.868   2.258   5.838 -0.2958 -0.8584 -0.0713
 4332SOL    HW124629   0.920   2.339   5.830 -0.2500 -0.6712  2.0253
 4332SOL    HW224630   0.808   2.268   5.912  0.4223  0.0212  0.4099
 4333SOL     OW24631   1.630   4.676   5.120  0.6490  0.5351  0.2077
 4333SOL    HW124632   1.696   4.734   5.159  0.1329 -0.7808  3.0044
 4333SOL    HW224633   1.662   4.595   5.160 -2.2026  1.2439  3.8328
 4334SOL     OW24634   0.588   3.580   6.626  0.0714  0.4025  0.1587
 4334SOL    HW124635   0.535   3.629   6.689 -0.6184  0.9798 -0.8657
 4334SOL    HW224636   0.563   3.625   6.545 -1.0732  0.4379  0.5335
 4335SOL     OW24637   1.302   4.131   0.519  0.5663 -0.0048  0.1196
 4335SOL    HW124638   1.291   4.097   0.608 -0.2589  0.5818  0.2447
 4335SOL    HW224639   1.219   4.103   0.480  0.4906 -1.1280  1.0919
 4336SOL     OW24640   2.776   1.864   8.076 -0.0637  0.2971 -0.3129
 4336SOL    HW124641   2.776   1.913   7.993  1.0172 -0.0310 -0.4957
 4336SOL    HW224642   2.781   1.774   8.045  1.5971  0.2890  0.0021
 4337SOL     OW24643   2.118   4.225   7.426 -0.0804  0.0819  0.3012
 4337SOL    HW124644   2.056   4.153   7.430  0.8558 -0.6774  1.0546
 4337SOL    HW224645   2.193   4.177   7.462 -1.4967 -1.8418  0.6751
 4338SOL     OW24646   1.689   1.050  11.003 -0.0368 -0.8528 -0.2291
 4338SOL    HW124647   1.740   1.111  10.949 -0.2378 -1.7655 -1.4467
 4338SOL    HW224648   1.634   1.110  11.053  1.8414  0.9278 -0.2598
 4339SOL     OW24649   3.321   0.482   9.478 -0.0488 -0.3781  0.2057
 4339SOL    HW124650   3.382   0.549   9.508 -2.4613  1.1236  1.7671
 4339SOL    HW224651   3.322   0.421   9.552 -0.1776  0.0825  0.5899
 4340SOL     OW24652   2.538   0.754   7.832 -0.6349  0.1041  0.2055
 4340SOL    HW124653   2.602   0.820   7.857  0.0966 -0.3329 -0.4787
 4340SOL    HW224654   2.591   0.694   7.779 -0.4174  0.4623  0.0157
 4341SOL     OW24655   3.087   3.023   5.782 -0.5014  0.3531 -0.1748
 4341SOL    HW124656   3.040   2.940   5.788 -0.6915  0.4494 -0.3418
 4341SOL    HW224657   3.108   3.032   5.875  1.6216 -3.4180 -0.3118
 4342SOL     OW24658   3.203   3.410  17.497  0.5785 -0.2350 -0.0855
 4342SOL    HW124659   3.111   3.406  17.472 -0.3165 -1.8352  3.4514
 4342SOL    HW224660   3.252   3.378  17.422 -2.2450 -0.9953 -1.5838
 4343SOL     OW24661   4.502   1.204   3.792 -0.7126 -0.0121  0.2924
 4343SOL    HW124662   4.493   1.239   3.703 -0.4601 -1.3853 -0.2715
 4343SOL    HW224663   4.595   1.181   3.799 -0.2750  1.2435 -1.4185
 4344SOL     OW24664   2.414   3.330   7.167  0.2336  0.1470 -0.2415
 4344SOL    HW124665   2.414   3.284   7.083  0.0526  1.1248 -0.7730
 4344SOL    HW224666   2.417   3.247   7.215  1.1707  0.9535  1.0749
 4345SOL     OW24667   0.385   0.122   1.616 -0.0513 -0.1713 -0.0376
 4345SOL    HW124668   0.458   0.183   1.622  0.5728 -0.9104 -0.2348
 4345SOL    HW224669   0.347   0.148   1.531 -1.2403  0.4061  0.6698
 4346SOL     OW24670   1.358   3.934   2.440  0.4794 -0.2106 -0.1858
 4346SOL    HW124671   1.310   3.996   2.386 -2.6495 -0.9486  1.7474
 4346SOL    HW224672   1.434   3.922   2.382  2.7939  0.1820  2.7479
 4347SOL     OW24673   4.271   3.974   8.649 -0.0229 -0.2429  0.4197
 4347SOL    HW124674   4.321   4.015   8.579 -0.3695 -1.0965 -0.3196
 4347SOL    HW224675   4.233   3.896   8.608  0.2347 -0.2615  0.2154
 4348SOL     OW24676   1.995   2.864   6.490  0.3877 -0.5263 -0.2897
 4348SOL    HW124677   1.974   2.892   6.579  0.0908  1.0696 -0.8606
 4348SOL    HW224678   2.090   2.872   6.490  0.5374 -2.2390 -1.0056
 4349SOL     OW24679   3.616   3.706   9.002  0.0154  0.7566  0.0596
 4349SOL    HW124680   3.647   3.715   9.092 -0.0404 -0.5948  0.2187
 4349SOL    HW224681   3.590   3.796   8.980 -2.3999  0.7487  2.8325
 4350SOL     OW24682   3.109   4.061   2.902  0.0668  0.1467 -0.0296
 4350SOL    HW124683   3.154   3.976   2.904 -1.9134 -0.9363 -1.0455
 4350SOL    HW224684   3.101   4.081   2.808 -1.4386  1.0675  0.2991
 4351SOL     OW24685   2.047   2.700  10.174  0.6674  0.3597 -0.2506
 4351SOL    HW124686   1.960   2.740  10.177  0.5726  0.0846  0.8453
 4351SOL    HW224687   2.076   2.722  10.086  3.6584 -1.6601  0.2357
 4352SOL     OW24688   2.417   1.653   3.405  0.5802 -0.0702  0.5171
 4352SOL    HW124689   2.397   1.560   3.411  1.4647 -0.1326  2.7176
 4352SOL    HW224690   2.372   1.697   3.477  2.3692  2.8509 -0.1216
 4353SOL     OW24691   3.155   4.691  12.517  0.4778  0.4994 -0.4196
 4353SOL    HW124692   3.216   4.690  12.591  1.9540 -0.3670 -1.6494
 4353SOL    HW224693   3.215   4.690  12.443 -1.3011  1.4686 -1.8781
 4354SOL     OW24694   3.476   1.473  13.942  0.2686  0.7193 -0.4238
 4354SOL    HW124695   3.405   1.456  13.880  0.1297  0.2684 -0.1370
 4354SOL    HW224696   3.447   1.543  14.001  0.8524  0.5567  0.0567
 4355SOL     OW24697   3.888   4.444   4.005  0.0519  0.1819  0.0087
 4355SOL    HW124698   3.911   4.374   3.944 -0.4663 -1.8942  2.2537
 4355SOL    HW224699   3.946   4.433   4.080  0.6055  4.2034  0.1928
 4356SOL     OW24700   4.666   0.357   6.848  0.0017  0.4875 -0.1702
 4356SOL    HW124701   4.602   0.291   6.873 -1.2079  1.6508 -0.2306
 4356SOL    HW224702   4.732   0.289   6.835  0.8671  0.9847  1.5496
 4357SOL     OW24703   2.393   3.338   7.639 -0.4558 -0.5992 -0.1538
 4357SOL    HW124704   2.368   3.423   7.674  1.1243 -1.2846  2.5921
 4357SOL    HW224705   2.452   3.355   7.565 -1.3703 -0.5958 -0.8866
 4358SOL     OW24706   2.360   3.914   7.423 -0.1856 -0.0517 -0.0115
 4358SOL    HW124707   2.409   3.994   7.447  0.4838 -0.4338 -0.1113
 4358SOL    HW224708   2.283   3.923   7.479  0.6315  1.7786  0.8544
 4359SOL     OW24709   2.800   0.948   4.584 -0.5175  0.4050  0.1885
 4359SOL    HW124710   2.795   1.038   4.616  0.5308  1.2249 -1.9004
 4359SOL    HW224711   2.713   0.934   4.547 -0.6512 -1.0922  1.0930
 4360SOL     OW24712   2.767   1.907   1.969  0.0311  0.4328 -0.1521
 4360SOL    HW124713   2.751   1.866   1.884  0.6389 -0.7699  0.3073
 4360SOL    HW224714   2.847   1.954   1.945  1.0755 -1.3422 -0.1553
 4361SOL     OW24715   3.641   3.597  11.303 -0.1561 -0.4668  0.1127
 4361SOL    HW124716   3.682   3.641  11.378  0.1274  0.1514 -0.4082
 4361SOL    HW224717   3.623   3.677  11.253  0.3627  1.0282  2.3129
 4362SOL     OW24718   3.011   0.256  16.558 -0.1757 -0.6266  0.2414
 4362SOL    HW124719   3.061   0.325  16.514 -2.4391  0.5662 -0.5145
 4362SOL    HW224720   2.936   0.244  16.498  0.0729  0.4504 -0.2850
 4363SOL     OW24721   2.462   3.835  17.567 -0.5578  0.2276  0.7026
 4363SOL    HW124722   2.410   3.774  17.619 -0.1630 -2.9237 -2.5908
 4363SOL    HW224723   2.404   3.910  17.556  0.4204  0.3355 -3.7272
 4364SOL     OW24724   4.123   1.589   6.988  0.0575  0.7322  0.2929
 4364SOL    HW124725   4.119   1.573   6.893  0.6216 -1.0773  0.5902
 4364SOL    HW224726   4.069   1.668   6.998 -1.3852  0.1954 -3.1550
 4365SOL     OW24727   1.189   3.343   8.149  0.2359  0.1196 -0.2930
 4365SOL    HW124728   1.112   3.287   8.162  2.0787 -1.7668  2.4082
 4365SOL    HW224729   1.149   3.426   8.174  2.6083  0.2303  3.1249
 4366SOL     OW24730   3.471   3.278   1.863  0.5217 -0.2247 -0.0547
 4366SOL    HW124731   3.406   3.314   1.923  0.1968  0.7740 -1.0256
 4366SOL    HW224732   3.442   3.297   1.774 -0.9965 -0.9058  0.2984
 4367SOL     OW24733   4.308   3.224   1.574 -0.4888  0.1690 -0.2851
 4367SOL    HW124734   4.401   3.221   1.598 -1.1693 -0.3927  2.3375
 4367SOL    HW224735   4.277   3.257   1.658  0.1130  0.6381 -0.2456
 4368SOL     OW24736   0.712   0.159   4.267 -0.5287 -0.0850  0.1191
 4368SOL    HW124737   0.757   0.155   4.351 -0.4531 -2.1505 -0.0037
 4368SOL    HW224738   0.751   0.236   4.227 -2.1829  0.3672 -0.6238
 4369SOL     OW24739   0.073   1.631   3.426  0.2738 -0.1444  0.4196
 4369SOL    HW124740   0.041   1.688   3.495 -1.7548 -2.2351  1.2020
 4369SOL    HW224741   0.131   1.689   3.377  1.3344 -0.5763  1.1512
 4370SOL     OW24742   3.221   3.674   5.260 -0.2086  0.9052  0.0363
 4370SOL    HW124743   3.227   3.584   5.226  1.0744  1.1362 -0.3691
 4370SOL    HW224744   3.299   3.713   5.220  0.2661 -1.3031 -1.1754
 4371SOL     OW24745   2.960   1.518   0.180  0.4161 -0.0343 -0.5452
 4371SOL    HW124746   2.925   1.475   0.258  1.0770  1.8985  0.8134
 4371SOL    HW224747   2.886   1.512   0.119 -0.3164 -0.2998  0.3824
 4372SOL     OW24748   2.543   0.890  17.725 -0.4050  0.3820  0.4635
 4372SOL    HW124749   2.615   0.832  17.701 -0.1348  1.2191 -0.7944
 4372SOL    HW224750   2.465   0.856  17.682  1.8358 -1.8827 -1.7700
 4373SOL     OW24751   2.445   3.847  16.364  0.4365  0.5561 -0.1821
 4373SOL    HW124752   2.497   3.783  16.317  0.3326 -0.6292  1.3326
 4373SOL    HW224753   2.462   3.832  16.457 -1.6107 -0.2421  0.0746
 4374SOL     OW24754   3.531   0.045   1.160 -0.2127 -0.0539 -1.0896
 4374SOL    HW124755   3.530   4.694   1.195 -0.3769  0.4079  0.0643
 4374SOL    HW224756   3.436   0.055   1.153 -0.1401  0.8438 -0.8422
 4375SOL     OW24757   0.344   2.167  14.154 -0.2238  0.0134 -0.5796
 4375SOL    HW124758   0.265   2.220  14.160 -0.7530 -0.7050 -1.1682
 4375SOL    HW224759   0.353   2.116  14.235 -3.6595  1.3501  0.6238
 4376SOL     OW24760   0.501   0.875  11.078  0.0140 -0.3272  0.2832
 4376SOL    HW124761   0.547   0.793  11.061  0.1137  0.2393 -2.1597
 4376SOL    HW224762   0.551   0.946  11.037  1.5891 -1.1672  0.7714
 4377SOL     OW24763   3.296   3.429   2.003  0.1955 -0.6531  0.3462
 4377SOL    HW124764   3.231   3.380   2.053 -2.5888  1.9687 -0.6976
 4377SOL    HW224765   3.228   3.464   1.945 -1.1270 -2.8491  0.6007
 4378SOL     OW24766   1.359   1.301  11.285  0.1953  0.2416  0.2409
 4378SOL    HW124767   1.438   1.343  11.317 -0.4227  0.0831  2.0077
 4378SOL    HW224768   1.302   1.378  11.276 -0.2153 -0.1375 -0.4690
 4379SOL     OW24769   1.199   4.007   5.656 -0.3369  0.1255 -0.1103
 4379SOL    HW124770   1.243   4.037   5.735 -0.1026  1.2769 -0.6892
 4379SOL    HW224771   1.116   4.055   5.657 -0.6529 -0.4203  0.5093
 4380SOL     OW24772   1.379   0.710   2.235  0.0844  0.9172 -0.3444
 4380SOL    HW124773   1.356   0.786   2.289  3.4792  1.3558  0.5026
 4380SOL    HW224774   1.400   0.745   2.148  1.9811 -0.1066 -0.2932
 4381SOL     OW24775   1.248   0.163   3.861  0.1635  0.2298  0.5156
 4381SOL    HW124776   1.334   0.206   3.861 -0.1332  0.8117  1.8060
 4381SOL    HW224777   1.271   0.076   3.827 -2.7426 -0.2335 -0.3290
 4382SOL     OW24778   3.157   1.653   4.592 -0.0492 -0.0093 -0.0894
 4382SOL    HW124779   3.199   1.637   4.508  0.4633  1.5840 -0.1205
 4382SOL    HW224780   3.075   1.698   4.571 -0.8522 -1.5957 -0.3928
 4383SOL     OW24781   2.096   0.369   8.237 -0.5021  0.6935 -0.0471
 4383SOL    HW124782   2.014   0.414   8.216  0.2808  1.8101 -0.6958
 4383SOL    HW224783   2.105   0.311   8.161  0.3600 -0.2244  0.7439
 4384SOL     OW24784   3.056   3.584   7.084 -0.0741 -0.2444 -0.0754
 4384SOL    HW124785   3.032   3.511   7.141 -0.9868  0.7308  0.8000
 4384SOL    HW224786   3.077   3.639   7.160  0.5508  2.0230 -1.8739
 4385SOL     OW24787   1.860   1.471  11.275 -0.2866 -0.5272 -0.1518
 4385SOL    HW124788   1.941   1.465  11.326 -0.0822 -1.5919 -0.6078
 4385SOL    HW224789   1.873   1.553  11.228  1.6544 -0.4385  0.5306
 4386SOL     OW24790   0.720   0.103  16.672 -0.4199 -0.4882  0.4170
 4386SOL    HW124791   0.684   0.022  16.636  0.3371 -0.0258 -1.3597
 4386SOL    HW224792   0.700   0.095  16.765  2.0243  1.7235  1.1228
 4387SOL     OW24793   2.551   2.743   3.276  0.1952  0.2555  0.1529
 4387SOL    HW124794   2.492   2.807   3.316  1.0387  0.1350  1.5877
 4387SOL    HW224795   2.494   2.679   3.234 -0.8878 -0.0735  2.0889
 4388SOL     OW24796   2.159   4.337   0.697 -0.2637 -0.1110 -0.2582
 4388SOL    HW124797   2.105   4.387   0.758 -0.4789 -2.0672  1.1785
 4388SOL    HW224798   2.089   4.285   0.656  0.7036 -0.9442 -0.8415
 4389SOL     OW24799   1.201   0.858  10.242  0.0964 -0.2138 -0.5879
 4389SOL    HW124800   1.281   0.819  10.278  2.1036  3.9041 -0.6481
 4389SOL    HW224801   1.202   0.827  10.152  0.9280  1.1138 -1.0306
 4390SOL     OW24802   3.838   4.542  12.512  0.1972  0.1408 -0.5313
 4390SOL    HW124803   3.771   4.483  12.546  1.2206  0.1185  1.4097
 4390SOL    HW224804   3.786   4.613  12.475 -2.1219 -1.5013 -0.4692
 4391SOL     OW24805   4.732   0.776   2.361 -0.4447  0.3623 -0.1235
 4391SOL    HW124806   0.070   0.828   2.333  0.3653 -1.2394 -0.9167
 4391SOL    HW224807   4.675   0.846   2.394 -1.0674 -0.3737  0.3450
 4392SOL     OW24808   4.569   2.006   9.224  0.2242  0.0471  0.3010
 4392SOL    HW124809   4.633   1.939   9.248  1.2214  1.2607  1.0038
 4392SOL    HW224810   4.548   1.979   9.135  1.3001  1.1110 -0.2666
 4393SOL     OW24811   0.912   1.614  16.767  0.6329  0.1782 -0.2556
 4393SOL    HW124812   0.963   1.561  16.706  0.0840 -0.0882 -0.4833
 4393SOL    HW224813   0.903   1.695  16.717 -0.1540  0.0612 -0.2998
 4394SOL     OW24814   4.572   3.332   4.861 -0.0821  0.7775 -0.5797
 4394SOL    HW124815   4.566   3.385   4.781 -0.4884 -1.0612 -1.7455
 4394SOL    HW224816   4.481   3.309   4.878  0.0272  0.1078 -0.9399
 4395SOL     OW24817   1.088   1.847   9.567 -0.2134 -0.2272  0.0222
 4395SOL    HW124818   1.017   1.908   9.545 -1.7183 -1.8658  0.3908
 4395SOL    HW224819   1.094   1.864   9.661 -3.2682 -1.7027  0.4869
 4396SOL     OW24820   2.276   4.064   6.462  0.4375  0.0305 -0.5756
 4396SOL    HW124821   2.252   3.981   6.420 -0.9077 -0.1485  0.5146
 4396SOL    HW224822   2.370   4.046   6.468  0.5727  0.5647 -1.1082
 4397SOL     OW24823   0.760   2.471   0.211  0.3997 -0.0168  0.6414
 4397SOL    HW124824   0.746   2.527   0.287  2.9191  2.0585 -0.3974
 4397SOL    HW224825   0.808   2.397   0.249  1.8078 -0.2518 -1.5708
 4398SOL     OW24826   4.672   0.964   3.203 -0.5415 -0.0947  0.1721
 4398SOL    HW124827   4.663   1.052   3.238 -0.4153 -0.2755  0.6529
 4398SOL    HW224828   4.661   0.978   3.109  0.6657 -0.8539 -0.0887
 4399SOL     OW24829   2.514   4.335   2.700  0.1099  0.0309 -0.4410
 4399SOL    HW124830   2.495   4.410   2.645  2.4532  1.6963  1.0266
 4399SOL    HW224831   2.440   4.278   2.681 -1.0789  1.0568  1.1307
 4400SOL     OW24832   1.698   4.143  17.488  0.5874  0.1615  0.1991
 4400SOL    HW124833   1.784   4.123  17.526 -0.0670 -2.6388  0.1625
 4400SOL    HW224834   1.642   4.088  17.542 -0.7706  0.9438 -0.4083
 4401SOL     OW24835   1.856   2.745   6.274 -0.5183 -0.3689  0.7717
 4401SOL    HW124836   1.930   2.754   6.333 -0.3386  1.5353  0.2273
 4401SOL    HW224837   1.840   2.835   6.247 -0.4088  0.1133  2.2754
 4402SOL     OW24838   2.677   1.621   7.919 -0.1401 -0.0357 -0.5874
 4402SOL    HW124839   2.674   1.709   7.882 -3.0350  1.5631  3.5156
 4402SOL    HW224840   2.663   1.567   7.841 -0.2301 -1.5722  0.4970
 4403SOL     OW24841   3.282   2.894   8.253 -0.1792  0.7862 -0.6714
 4403SOL    HW124842   3.189   2.915   8.264  0.1994  1.7238  0.7774
 4403SOL    HW224843   3.321   2.972   8.293 -0.0187  2.8357 -4.8150
 4404SOL     OW24844   4.494   0.065  17.005  0.1352 -0.5860 -0.3344
 4404SOL    HW124845   4.558   0.120  16.959  0.8506  0.6610  2.1314
 4404SOL    HW224846   4.548   0.012  17.063 -0.8664  0.8586  1.9205
 4405SOL     OW24847   2.291   3.831  16.127  0.6267 -0.0181  0.4765
 4405SOL    HW124848   2.368   3.836  16.184  1.7778 -1.2508 -0.9349
 4405SOL    HW224849   2.265   3.739  16.134 -0.8134  0.3353 -0.3463
 4406SOL     OW24850   0.337   0.889  17.090 -0.4190  0.5958  0.0514
 4406SOL    HW124851   0.296   0.941  17.022 -3.0185 -1.0848  0.3525
 4406SOL    HW224852   0.403   0.949  17.125  0.3298  0.8275 -1.7850
 4407SOL     OW24853   2.470   1.499   4.744  0.0451 -0.7129 -0.2328
 4407SOL    HW124854   2.426   1.495   4.829  1.0512  1.4444  0.3819
 4407SOL    HW224855   2.417   1.559   4.692  1.3948  1.6985  1.1770
 4408SOL     OW24856   2.241   3.906  16.933 -0.4063  0.7402  0.6794
 4408SOL    HW124857   2.169   3.960  16.967 -0.8471 -1.4256  3.1739
 4408SOL    HW224858   2.297   3.900  17.010  0.7182  0.0260 -0.2006
 4409SOL     OW24859   2.241   1.909   2.716 -0.2927  0.0784  0.4530
 4409SOL    HW124860   2.334   1.902   2.694 -0.4892 -0.4086 -0.1825
 4409SOL    HW224861   2.247   1.946   2.805 -0.0043 -2.2585  1.4194
 4410SOL     OW24862   2.300   0.380  14.651  0.1980  0.4417  0.2017
 4410SOL    HW124863   2.340   0.439  14.588 -1.1280  0.2740 -0.8111
 4410SOL    HW224864   2.355   0.303  14.637 -0.8329  0.0132 -1.5449
 4411SOL     OW24865   3.357   1.082   3.240  0.0011  0.1759 -0.2064
 4411SOL    HW124866   3.262   1.067   3.240 -0.0406  0.4738 -1.3345
 4411SOL    HW224867   3.383   0.995   3.210  1.2038  1.1397 -1.9642
 4412SOL     OW24868   2.352   3.218   8.124  0.2400  0.0137  0.2411
 4412SOL    HW124869   2.326   3.197   8.034  2.2396  1.7057 -0.7161
 4412SOL    HW224870   2.273   3.193   8.171 -0.6937  0.1782 -1.2204
 4413SOL     OW24871   3.223   2.932   1.636 -0.3011  0.0795 -0.1529
 4413SOL    HW124872   3.242   2.854   1.585  0.2005  0.1130 -0.0177
 4413SOL    HW224873   3.258   3.002   1.580 -0.0547 -0.9853 -1.3302
 4414SOL     OW24874   0.106   2.158   7.329  0.0824  0.2971 -0.0402
 4414SOL    HW124875   0.187   2.208   7.328  0.4504 -0.2796  0.9758
 4414SOL    HW224876   0.048   2.227   7.295 -0.4544  0.2603  0.7997
 4415SOL     OW24877   1.970   0.903   7.887 -0.3248 -0.1749 -0.4721
 4415SOL    HW124878   2.054   0.946   7.870 -0.3784 -0.8706 -2.5221
 4415SOL    HW224879   1.973   0.824   7.832  2.4593 -0.1816 -0.2941
 4416SOL     OW24880   4.099   3.130  11.609 -0.1453 -0.7622 -0.2539
 4416SOL    HW124881   4.011   3.114  11.573 -0.7200 -1.3777  1.4086
 4416SOL    HW224882   4.061   3.194  11.670  0.8976 -0.1759 -0.2204
 4417SOL     OW24883   4.661   3.498   4.432  0.4724  0.3431 -0.6490
 4417SOL    HW124884   0.013   3.505   4.398  0.4851  1.0701 -0.4635
 4417SOL    HW224885   4.642   3.404   4.436 -1.4336  0.7573  0.0641
 4418SOL     OW24886   1.178   3.571   5.024 -0.5430  0.0677 -0.1916
 4418SOL    HW124887   1.194   3.585   4.931  2.3555 -0.7241  0.1986
 4418SOL    HW224888   1.242   3.629   5.065  0.0187 -0.5490 -0.2028
 4419SOL     OW24889   2.769   2.735   8.923  0.0644  0.1945 -0.2026
 4419SOL    HW124890   2.742   2.825   8.907 -1.9983 -0.0138  1.9821
 4419SOL    HW224891   2.830   2.745   8.996 -1.0067  1.3326  0.5371
 4420SOL     OW24892   0.372   1.125   8.947  0.4302  0.4002 -0.1788
 4420SOL    HW124893   0.331   1.211   8.944 -1.0222 -0.2288  1.7674
 4420SOL    HW224894   0.295   1.073   8.972  1.6731 -1.1862  0.3122
 4421SOL     OW24895   3.563   1.977   5.953  0.1931  0.0162 -0.0649
 4421SOL    HW124896   3.632   1.914   5.972  0.6019  1.1038  2.0706
 4421SOL    HW224897   3.614   2.052   5.924  0.0506  0.5871  1.1290
 4422SOL     OW24898   3.702   1.209   5.606 -0.0967  0.0177 -0.1515
 4422SOL    HW124899   3.745   1.287   5.570 -0.9245  0.3507 -0.4211
 4422SOL    HW224900   3.707   1.148   5.533 -2.4251 -0.4311  0.0793
 4423SOL     OW24901   4.619   0.500   5.289  0.7742 -0.0626  0.2445
 4423SOL    HW124902   4.547   0.560   5.268  0.7139  0.0689  0.8370
 4423SOL    HW224903   4.662   0.492   5.204 -0.2267 -0.7657 -0.1966
 4424SOL     OW24904   4.422   4.076  17.741 -0.2146 -0.1339  0.2626
 4424SOL    HW124905   4.374   4.157  17.727 -1.8913 -1.1595  0.0242
 4424SOL    HW224906   4.506   4.111  17.713  0.9206 -2.4618  0.6898
 4425SOL     OW24907   4.296   2.405   2.571  0.0111 -0.1329 -0.2269
 4425SOL    HW124908   4.205   2.377   2.563 -0.1125 -0.0476  0.8340
 4425SOL    HW224909   4.331   2.372   2.488  2.3318  0.8190  0.3554
 4426SOL     OW24910   0.322   1.760  11.256  0.3521  0.3061  0.2375
 4426SOL    HW124911   0.348   1.677  11.217  0.7835  0.4305  0.2558
 4426SOL    HW224912   0.320   1.824  11.184  0.7239  1.0113  0.8561
 4427SOL     OW24913   0.215   4.238  17.639  0.8246 -0.2630  0.0193
 4427SOL    HW124914   0.275   4.186  17.586  0.8339  0.8526 -1.0620
 4427SOL    HW224915   0.254   4.323  17.616 -1.6869  0.9048  0.0958
 4428SOL     OW24916   1.122   2.669  10.183  0.1896 -0.4530 -0.0088
 4428SOL    HW124917   1.039   2.629  10.158 -0.6547  1.6244 -0.5844
 4428SOL    HW224918   1.103   2.671  10.277  0.3546  0.5509  0.0054
 4429SOL     OW24919   0.152   1.651   4.227 -0.2414  0.1770 -0.0826
 4429SOL    HW124920   0.134   1.745   4.238 -1.9650 -0.4558  2.6141
 4429SOL    HW224921   0.212   1.655   4.153  0.8014  0.7042  0.7985
 4430SOL     OW24922   1.176   1.649  16.474 -0.1467  0.0286 -0.2270
 4430SOL    HW124923   1.165   1.565  16.517 -2.1132 -0.9963 -2.7338
 4430SOL    HW224924   1.115   1.636  16.401  1.5788 -0.4520 -1.5904
 4431SOL     OW24925   0.771   0.782   5.452 -0.1636  0.1537 -0.5504
 4431SOL    HW124926   0.854   0.744   5.425 -0.0637  0.1425 -0.2281
 4431SOL    HW224927   0.740   0.831   5.376 -0.1797 -2.5851 -2.3309
 4432SOL     OW24928   0.080   1.024  14.474 -0.3379 -0.2784  0.3543
 4432SOL    HW124929   0.105   0.977  14.394 -0.9545  2.7329 -1.5787
 4432SOL    HW224930   0.004   0.973  14.503 -0.0284 -1.3335 -0.6738
 4433SOL     OW24931   4.110   2.545   9.002 -0.4128 -0.1862  0.0127
 4433SOL    HW124932   4.205   2.536   8.992 -0.6186 -1.4711 -0.8925
 4433SOL    HW224933   4.096   2.630   8.962  0.3338 -0.2177 -0.3085
 4434SOL     OW24934   1.131   3.761   6.758  0.1162  0.4784 -0.4026
 4434SOL    HW124935   1.171   3.674   6.762 -1.8349 -0.4437 -1.1235
 4434SOL    HW224936   1.100   3.780   6.846 -0.4299 -3.9043  0.3495
 4435SOL     OW24937   1.765   3.080   5.941 -0.3272  0.1516  0.8139
 4435SOL    HW124938   1.752   2.989   5.966  1.8314 -0.6998 -1.0865
 4435SOL    HW224939   1.698   3.095   5.874  1.4172  0.3532 -0.9182
 4436SOL     OW24940   4.429   1.479   8.898 -0.1738 -0.3257  0.0401
 4436SOL    HW124941   4.357   1.435   8.942 -0.0798 -0.6794 -0.1618
 4436SOL    HW224942   4.385   1.533   8.832  0.1101  1.1339  1.0513
 4437SOL     OW24943   1.093   0.175  13.293 -0.8361  0.3653 -0.2237
 4437SOL    HW124944   1.041   0.168  13.213 -0.4138 -1.3309 -0.3321
 4437SOL    HW224945   1.067   0.097  13.341 -0.6282 -0.6061 -1.6886
 4438SOL     OW24946   1.332   3.786   6.228 -0.3413 -1.0100 -0.1502
 4438SOL    HW124947   1.373   3.851   6.286 -1.1451 -0.6722  0.0444
 4438SOL    HW224948   1.401   3.737   6.183  2.0608 -0.1043  2.5490
 4439SOL     OW24949   1.507   3.795   1.337 -0.5456  0.3492  0.1485
 4439SOL    HW124950   1.422   3.802   1.294 -0.4852 -3.3086 -0.5822
 4439SOL    HW224951   1.536   3.704   1.326  0.7826  0.9142 -1.1153
 4440SOL     OW24952   1.190   1.526   1.994 -0.2027 -0.2351 -0.3215
 4440SOL    HW124953   1.143   1.569   1.922  0.4594 -1.1000 -1.2737
 4440SOL    HW224954   1.113   1.497   2.043 -1.0031  1.3409 -0.6486
 4441SOL     OW24955   1.238   1.797   6.820 -0.0450 -0.2813  0.0016
 4441SOL    HW124956   1.196   1.821   6.737  0.6741 -0.2427 -0.3525
 4441SOL    HW224957   1.318   1.848   6.808  0.6081 -1.5544 -1.1179
 4442SOL     OW24958   4.267   2.925  10.618 -0.3130  0.1184 -0.0095
 4442SOL    HW124959   4.204   2.862  10.581 -0.6417  0.7239 -0.4885
 4442SOL    HW224960   4.345   2.869  10.614 -0.1114  0.4798 -1.1661
 4443SOL     OW24961   0.602   0.653   5.879  0.4496 -0.6264 -0.1389
 4443SOL    HW124962   0.525   0.709   5.872  0.6903 -0.3864 -0.8549
 4443SOL    HW224963   0.641   0.675   5.964  1.5094 -0.5207 -0.6542
 4444SOL     OW24964   2.526   0.849  16.458 -0.2149 -0.7021 -0.1511
 4444SOL    HW124965   2.508   0.831  16.550 -0.4453 -0.0887 -0.0727
 4444SOL    HW224966   2.567   0.768  16.426 -3.0956 -1.7431 -1.2122
 4445SOL     OW24967   4.679   1.537  14.996 -0.3398  0.1483 -0.0714
 4445SOL    HW124968   4.718   1.560  15.080  1.3919  1.5662 -1.2721
 4445SOL    HW224969   4.722   1.452  14.983 -0.7733  0.1607 -1.6700
 4446SOL     OW24970   0.182   0.038   2.567 -0.5308  0.3674  0.2966
 4446SOL    HW124971   0.271   0.071   2.555 -0.8961  0.6859 -1.5156
 4446SOL    HW224972   0.184   0.019   2.661 -2.6636  2.7962  0.8173
 4447SOL     OW24973   3.600   4.471   6.898 -0.1351  0.0145 -0.4402
 4447SOL    HW124974   3.527   4.452   6.838 -1.6057  0.0964  1.3266
 4447SOL    HW224975   3.545   4.493   6.973  0.2233  1.2966 -0.5638
 4448SOL     OW24976   2.166   1.956   5.601 -0.2637  0.3314  0.3479
 4448SOL    HW124977   2.169   1.896   5.527  0.1025 -0.3890  0.9393
 4448SOL    HW224978   2.135   1.894   5.668 -0.1183  0.8875  0.9302
 4449SOL     OW24979   4.483   1.073   4.409 -0.0022 -0.2418  0.4041
 4449SOL    HW124980   4.458   1.092   4.318  0.8079 -0.6337  0.1056
 4449SOL    HW224981   4.544   1.145   4.427  0.5951 -0.7823  0.5173
 4450SOL     OW24982   3.608   1.517  16.164 -0.7626  0.4284 -0.4323
 4450SOL    HW124983   3.681   1.456  16.154 -2.8298 -2.0616 -0.2676
 4450SOL    HW224984   3.659   1.596  16.183  1.1460 -0.7820 -0.4545
 4451SOL     OW24985   2.670   2.285   5.794  0.7818  0.3775 -0.5901
 4451SOL    HW124986   2.736   2.256   5.858 -0.1695 -2.5213 -0.9454
 4451SOL    HW224987   2.685   2.217   5.729  0.0808 -2.2532  1.9836
 4452SOL     OW24988   0.000   2.060   6.447  0.0920 -0.0609 -0.0020
 4452SOL    HW124989   0.094   2.048   6.432 -0.0268  0.0551 -0.8632
 4452SOL    HW224990   4.694   1.992   6.396  1.5374 -0.4196 -0.7315
 4453SOL     OW24991   0.853   2.070   3.396  0.1024 -0.2936  0.4669
 4453SOL    HW124992   0.908   1.992   3.395 -2.5241 -2.1826  0.7898
 4453SOL    HW224993   0.920   2.137   3.382 -0.1217 -0.4438 -1.2921
 4454SOL     OW24994   0.579   2.792   9.361  0.5000 -0.4139  0.0753
 4454SOL    HW124995   0.629   2.791   9.443  1.2901  0.5544 -0.3994
 4454SOL    HW224996   0.499   2.829   9.398 -0.1031 -1.1662 -0.4712
 4455SOL     OW24997   0.158   2.429   4.457  0.2464 -0.2163 -0.3783
 4455SOL    HW124998   0.097   2.481   4.508 -1.0535 -3.4069  1.2927
 4455SOL    HW224999   0.223   2.407   4.523  0.7256 -0.0523 -0.7933
 4456SOL     OW25000   2.567   0.096  17.343 -0.2294  0.2310 -0.0718
 4456SOL    HW125001   2.472   0.093  17.334 -0.3402 -0.8257  1.5807
 4456SOL    HW225002   2.581   0.033  17.413 -2.3150  0.0032  0.1409
 4457SOL     OW25003   0.245   3.052  13.440  0.0208 -0.3133 -0.4298
 4457SOL    HW125004   0.196   2.976  13.407  0.4734 -1.2758  1.1112
 4457SOL    HW225005   0.199   3.134  13.424 -1.3730 -1.3658 -1.8422
 4458SOL     OW25006   1.217   0.730   6.244  0.4709 -1.0606 -0.5864
 4458SOL    HW125007   1.190   0.755   6.156 -0.9214 -0.1655  0.0894
 4458SOL    HW225008   1.143   0.675   6.270 -0.6816  0.1335 -1.3008
 4459SOL     OW25009   0.636   1.453   4.606 -0.3092  0.7897 -0.1777
 4459SOL    HW125010   0.648   1.405   4.687  1.3456  2.0619  0.3459
 4459SOL    HW225011   0.553   1.500   4.617 -0.5960  0.0900  0.5941
 4460SOL     OW25012   0.492   0.101  12.284  0.2115  0.0917 -0.3509
 4460SOL    HW125013   0.424   0.109  12.217 -0.4647  0.9131  0.4418
 4460SOL    HW225014   0.541   0.033  12.237  0.1793  1.1045 -1.8378
 4461SOL     OW25015   3.210   3.059   8.687  0.0585  0.3578  0.4277
 4461SOL    HW125016   3.245   3.085   8.772 -0.5914  0.4879  0.6529
 4461SOL    HW225017   3.118   3.056   8.713  0.0727 -2.4295  0.1762
 4462SOL     OW25018   2.159   2.439   4.365 -0.4092 -0.0609  0.5743
 4462SOL    HW125019   2.099   2.369   4.338  1.6614 -1.2449 -0.9948
 4462SOL    HW225020   2.228   2.412   4.305 -1.2705 -0.1031 -0.4071
 4463SOL     OW25021   1.109   2.288   2.517 -0.1143  0.1495 -0.0367
 4463SOL    HW125022   1.140   2.206   2.553  0.4054  0.2542 -0.2508
 4463SOL    HW225023   1.037   2.321   2.572  2.3186  3.1524  1.3434
 4464SOL     OW25024   3.315   3.580   8.650 -0.1839 -0.4818  0.2055
 4464SOL    HW125025   3.241   3.523   8.668 -1.6432  0.7387 -1.9693
 4464SOL    HW225026   3.264   3.649   8.607  0.0982 -0.3628  0.0542
 4465SOL     OW25027   1.108   2.301  14.133 -0.3706 -0.0479  0.4918
 4465SOL    HW125028   1.087   2.318  14.225  0.5792  2.1634  0.3059
 4465SOL    HW225029   1.135   2.210  14.145  1.3623 -0.0083 -3.1638
 4466SOL     OW25030   0.755   3.600  16.016  0.4418 -0.0023  0.5676
 4466SOL    HW125031   0.848   3.621  16.026  0.4923  0.2439 -0.4424
 4466SOL    HW225032   0.747   3.560  16.103  1.8951 -1.8743 -0.1470
 4467SOL     OW25033   0.661   0.277  14.134 -0.2063 -0.1132  0.2182
 4467SOL    HW125034   0.710   0.239  14.061 -0.9679 -0.2901 -0.1950
 4467SOL    HW225035   0.730   0.315  14.189 -0.9211 -0.7909  1.5781
 4468SOL     OW25036   2.277   4.121  14.809 -0.7095 -0.3928 -0.8970
 4468SOL    HW125037   2.277   4.216  14.800 -0.8045 -0.4800 -1.7637
 4468SOL    HW225038   2.285   4.134  14.904  2.4452  1.5856 -1.4219
 4469SOL     OW25039   4.521   4.042   4.152  0.2083  0.1153  0.0201
 4469SOL    HW125040   4.439   4.066   4.110  1.4488 -0.4711 -2.6840
 4469SOL    HW225041   4.546   3.975   4.089 -1.3936 -0.5930  0.1174
 4470SOL     OW25042   4.153   4.169   8.458  0.2103  0.8056 -0.0273
 4470SOL    HW125043   4.063   4.202   8.457 -0.5333 -1.2713 -0.0786
 4470SOL    HW225044   4.191   4.200   8.541 -0.1503  1.1369  0.0173
 4471SOL     OW25045   1.758   2.123  10.881  0.4476  0.1309 -0.1351
 4471SOL    HW125046   1.697   2.050  10.872  1.3002 -0.5705 -0.2091
 4471SOL    HW225047   1.831   2.098  10.825 -0.1763  0.1237 -0.9325
 4472SOL     OW25048   2.481   0.416   6.524 -0.2326  0.2312  0.1257
 4472SOL    HW125049   2.429   0.382   6.597  0.3679  0.1082  0.4911
 4472SOL    HW225050   2.447   0.506   6.528  0.4522  0.4619  0.5698
 4473SOL     OW25051   4.318   4.663   6.817  0.3583  0.1820 -0.4476
 4473SOL    HW125052   4.241   4.610   6.796 -1.7228  2.4621  1.5684
 4473SOL    HW225053   4.377   4.590   6.839  1.5374  0.9231 -1.1469
 4474SOL     OW25054   1.994   4.130   6.505 -0.2291 -0.0292  0.2980
 4474SOL    HW125055   2.040   4.147   6.587  1.5183  0.4767 -0.7832
 4474SOL    HW225056   2.059   4.070   6.469  0.3333  0.6127  0.2547
 4475SOL     OW25057   3.390   3.289   2.968 -0.0409  0.0250  0.3198
 4475SOL    HW125058   3.398   3.369   3.019  1.6993  1.3076 -1.9530
 4475SOL    HW225059   3.339   3.311   2.890  0.9591 -2.8576 -1.1814
 4476SOL     OW25060   4.532   0.489   1.927  0.0398  0.0973  0.3093
 4476SOL    HW125061   4.627   0.486   1.931  0.0485 -0.4499 -0.3014
 4476SOL    HW225062   4.506   0.545   2.000 -0.8660  0.2861 -0.1501
 4477SOL     OW25063   2.645   2.264   6.270 -0.2845 -0.5096 -0.5319
 4477SOL    HW125064   2.570   2.221   6.228  0.1652  0.4910 -2.3757
 4477SOL    HW225065   2.617   2.242   6.359  0.8494  0.6823  0.1061
 4478SOL     OW25066   1.659   0.031  17.723 -0.2917  0.0898  0.2344
 4478SOL    HW125067   1.744   0.063  17.693 -0.2357  1.8666  2.2908
 4478SOL    HW225068   1.602   0.107  17.708  1.4734  1.3367 -0.0727
 4479SOL     OW25069   2.238   3.200   2.862  0.2242 -0.7230 -0.1737
 4479SOL    HW125070   2.199   3.112   2.865 -1.2283  0.0428  4.2316
 4479SOL    HW225071   2.266   3.205   2.771  2.0471  2.2951  0.5641
 4480SOL     OW25072   3.559   3.246   8.035  0.3869 -0.4077  0.1353
 4480SOL    HW125073   3.512   3.329   8.029 -3.2805 -2.4338  0.9474
 4480SOL    HW225074   3.535   3.213   8.122  1.7031 -0.2141  0.5740
 4481SOL     OW25075   4.683   2.997   7.024 -0.0799 -0.2647  0.1112
 4481SOL    HW125076   4.618   3.065   7.007 -1.7115 -1.3723  1.9621
 4481SOL    HW225077   0.015   3.032   6.967  0.9978 -1.3608  0.7505
 4482SOL     OW25078   2.090   1.929   7.906 -0.0113 -0.3527 -0.2337
 4482SOL    HW125079   2.061   1.841   7.882  0.1086  0.0525 -1.8812
 4482SOL    HW225080   2.130   1.956   7.823  2.6327  3.1496  2.1948
 4483SOL     OW25081   1.238   3.640   4.748  0.0604  0.2093  0.1168
 4483SOL    HW125082   1.194   3.702   4.691 -0.3302 -1.1276 -1.0382
 4483SOL    HW225083   1.327   3.673   4.737 -0.2892  0.5622 -1.5683
 4484SOL     OW25084   1.903   1.936   2.256  0.4700  0.3892 -0.1604
 4484SOL    HW125085   1.939   2.025   2.258 -0.2004  0.6880 -1.3292
 4484SOL    HW225086   1.949   1.904   2.333 -0.0076 -1.4399 -0.6250
 4485SOL     OW25087   4.121   0.800   3.685 -0.3012  0.0019  0.2571
 4485SOL    HW125088   4.115   0.764   3.773 -1.6331 -0.8662 -0.1844
 4485SOL    HW225089   4.203   0.847   3.696 -0.2288 -0.1889  0.5264
 4486SOL     OW25090   0.851   4.629   4.805 -0.1860  0.8923  0.7666
 4486SOL    HW125091   0.887   4.568   4.870 -1.5947 -1.4540 -0.6704
 4486SOL    HW225092   0.932   4.647   4.757  0.2228  0.2261  1.2087
 4487SOL     OW25093   3.380   1.137   2.956 -0.7293 -0.2711  0.3891
 4487SOL    HW125094   3.409   1.117   3.044  1.1186 -1.1609 -0.4226
 4487SOL    HW225095   3.285   1.124   2.959 -0.9020  1.3974  1.9222
 4488SOL     OW25096   4.180   3.083   8.129 -0.4838 -0.3755 -0.2777
 4488SOL    HW125097   4.185   3.079   8.034  1.3650 -2.0097 -0.0966
 4488SOL    HW225098   4.165   3.176   8.145  0.1721 -0.4822  0.9634
 4489SOL     OW25099   1.703   1.315   4.966  0.3209 -0.3388  0.2146
 4489SOL    HW125100   1.616   1.336   4.999 -0.8815 -2.5556 -1.5387
 4489SOL    HW225101   1.690   1.282   4.877  0.7214  0.6575 -0.2159
 4490SOL     OW25102   4.224   0.487   6.483 -0.1021 -0.0269  0.6818
 4490SOL    HW125103   4.173   0.445   6.553  0.2066  0.5794  1.2682
 4490SOL    HW225104   4.286   0.418   6.458  0.8337  0.2544  2.2455
 4491SOL     OW25105   1.252   2.567   9.029 -0.0502  0.2569  0.1822
 4491SOL    HW125106   1.258   2.639   9.091 -3.3883  1.1349 -0.5426
 4491SOL    HW225107   1.204   2.508   9.087  1.6763 -0.0951  1.2729
 4492SOL     OW25108   1.081   4.471   4.576  0.2634  0.7001 -0.1097
 4492SOL    HW125109   1.088   4.566   4.569  0.4872  0.7809  1.2153
 4492SOL    HW225110   1.023   4.445   4.505  1.1834 -1.6582  0.0115
 4493SOL     OW25111   1.230   3.919  14.479 -0.0095  0.4301 -0.2705
 4493SOL    HW125112   1.201   3.978  14.549 -0.0062  0.0329  0.0621
 4493SOL    HW225113   1.215   3.981  14.408 -0.7736  1.1461  0.5158
 4494SOL     OW25114   1.946   2.262   2.978 -0.5061 -0.1746  0.3876
 4494SOL    HW125115   1.964   2.284   3.070 -0.4322 -1.0062  0.5723
 4494SOL    HW225116   1.854   2.242   2.994 -0.1447 -2.0759  0.0948
 4495SOL     OW25117   2.880   0.738   1.078 -0.5352  0.0481 -0.8917
 4495SOL    HW125118   2.916   0.809   1.131 -1.5821 -0.9066  1.0883
 4495SOL    HW225119   2.827   0.688   1.139 -0.9810  1.3127 -0.2344
 4496SOL     OW25120   4.638   1.694   6.559  0.0226 -0.1439 -0.2708
 4496SOL    HW125121   4.654   1.612   6.605  3.2404  1.3815  1.3069
 4496SOL    HW225122   4.612   1.652   6.477 -1.4815 -0.0591  0.1631
 4497SOL     OW25123   0.105   0.895   2.937  0.0897 -0.1693  0.3767
 4497SOL    HW125124   0.016   0.928   2.951 -0.2483 -0.6120 -0.7651
 4497SOL    HW225125   0.107   0.842   3.017 -2.7333 -0.7059  0.0907
 4498SOL     OW25126   0.567   2.478  14.603  0.1998  0.0502  0.0248
 4498SOL    HW125127   0.493   2.500  14.547  0.7622  0.1082 -0.6950
 4498SOL    HW225128   0.533   2.392  14.629 -2.4566  1.4948  1.3871
 4499SOL     OW25129   3.969   2.211  13.937 -0.9183 -0.3054 -0.1026
 4499SOL    HW125130   3.948   2.255  13.855  1.2350 -0.3453 -0.6734
 4499SOL    HW225131   4.062   2.232  13.948 -1.4552  2.5993 -1.1704
 4500SOL     OW25132   3.099   0.435   9.280  0.1410 -0.0285 -0.0325
 4500SOL    HW125133   3.160   0.433   9.354 -1.1532  1.7450  1.0762
 4500SOL    HW225134   3.158   0.477   9.218  1.1878  1.4875  2.0026
 4501SOL     OW25135   3.237   0.925   2.258  0.1235  0.4417 -0.2743
 4501SOL    HW125136   3.206   0.968   2.179  0.9695 -3.1698 -2.5893
 4501SOL    HW225137   3.154   0.908   2.303 -0.6635  3.3716 -0.6607
 4502SOL     OW25138   3.241   0.788  14.278 -0.4145 -0.6824 -0.1823
 4502SOL    HW125139   3.208   0.875  14.300 -0.9433 -0.2931 -2.4984
 4502SOL    HW225140   3.227   0.741  14.361 -0.5758  1.9177  1.2729
 4503SOL     OW25141   0.926   3.913   4.833 -0.2490 -0.3794 -0.3535
 4503SOL    HW125142   0.839   3.943   4.859 -0.3310 -0.5707 -0.4165
 4503SOL    HW225143   0.915   3.820   4.854 -1.2677 -0.6286 -2.0704
 4504SOL     OW25144   1.942   0.354   7.003 -0.1608 -0.1034  0.1028
 4504SOL    HW125145   1.874   0.287   6.995 -1.1748  0.7791  1.3514
 4504SOL    HW225146   1.887   0.432   6.993 -0.3409 -0.2099  0.2689
 4505SOL     OW25147   0.711   3.704   4.327  0.1809  0.0682 -0.1999
 4505SOL    HW125148   0.638   3.663   4.282 -0.8829  0.0014  1.6222
 4505SOL    HW225149   0.676   3.792   4.343  1.7600  0.4916  0.8831
 4506SOL     OW25150   2.847   2.207  13.618  0.3582 -0.0722  0.4395
 4506SOL    HW125151   2.792   2.272  13.662 -1.5285 -1.4866  0.2005
 4506SOL    HW225152   2.831   2.122  13.659  0.4325 -0.1450  0.3173
 4507SOL     OW25153   0.132   1.177   8.065 -0.0168  0.3498  0.3399
 4507SOL    HW125154   0.183   1.251   8.098 -0.6783  0.5049  1.0382
 4507SOL    HW225155   0.190   1.103   8.083 -2.2765 -1.0720  1.7477
 4508SOL     OW25156   3.449   3.692   7.743 -0.3719  0.0240  0.1252
 4508SOL    HW125157   3.545   3.700   7.739 -0.1367 -2.3901  0.9424
 4508SOL    HW225158   3.434   3.640   7.664 -0.6804  0.1672  0.0916
 4509SOL     OW25159   4.443   2.188  16.915 -0.3549  0.1029  0.1052
 4509SOL    HW125160   4.401   2.265  16.953  0.8127  2.1725 -2.8735
 4509SOL    HW225161   4.464   2.218  16.827  1.8809 -0.5713  0.4137
 4510SOL     OW25162   3.504   2.370   8.686 -0.2311  0.0251  0.4625
 4510SOL    HW125163   3.579   2.403   8.736  0.9299  1.4060 -2.2235
 4510SOL    HW225164   3.474   2.304   8.749  0.0891  0.3062  0.9135
 4511SOL     OW25165   2.902   3.606   6.280  0.3397  0.1705  0.5650
 4511SOL    HW125166   2.807   3.600   6.272  0.4195 -1.1629  0.5970
 4511SOL    HW225167   2.927   3.515   6.262 -0.7351 -0.0323  0.0977
 4512SOL     OW25168   2.555   3.999   6.458 -0.0194  0.0483  0.0249
 4512SOL    HW125169   2.549   3.928   6.394 -3.3628 -1.8767  2.4834
 4512SOL    HW225170   2.562   3.949   6.540  1.7780  2.8054  1.5275
 4513SOL     OW25171   3.444   3.182  11.246 -0.9092  0.6159 -1.0861
 4513SOL    HW125172   3.445   3.130  11.165 -0.1164 -0.0368 -0.6569
 4513SOL    HW225173   3.506   3.128  11.297 -1.0878  0.3278 -1.1728
 4514SOL     OW25174   1.307   1.278   8.774  0.4562 -0.9124  0.4666
 4514SOL    HW125175   1.229   1.293   8.829 -1.2019 -1.1817 -1.8290
 4514SOL    HW225176   1.281   1.313   8.689  1.4741 -3.1590 -0.7496
 4515SOL     OW25177   1.617   2.452   5.137  0.0345 -0.0819  0.1262
 4515SOL    HW125178   1.629   2.461   5.232  3.3887  1.1464 -0.4280
 4515SOL    HW225179   1.695   2.498   5.107  0.3900 -0.1180  0.9835
 4516SOL     OW25180   0.984   4.357   3.232 -0.2744  0.1568  0.3704
 4516SOL    HW125181   0.978   4.266   3.261 -0.6365 -0.3023 -1.1197
 4516SOL    HW225182   0.971   4.340   3.138  1.0620  2.2639 -0.1893
 4517SOL     OW25183   3.190   0.337   6.003  0.3600  0.1634 -0.0558
 4517SOL    HW125184   3.184   0.432   6.018 -1.7019  0.2630 -1.3525
 4517SOL    HW225185   3.156   0.316   5.916 -0.9648 -1.8557  0.9522
 4518SOL     OW25186   0.668   3.653   3.346 -0.0649 -0.2256 -0.5508
 4518SOL    HW125187   0.669   3.745   3.373 -3.2432 -1.1330  2.6120
 4518SOL    HW225188   0.660   3.646   3.251  0.2449 -0.3137 -0.5708
 4519SOL     OW25189   0.765   2.965   6.100 -0.1319 -0.2069  0.0683
 4519SOL    HW125190   0.809   2.880   6.093 -1.7201 -1.0924  0.6465
 4519SOL    HW225191   0.743   2.960   6.193 -1.5535  1.7535 -0.1664
 4520SOL     OW25192   1.986   3.114   0.462 -0.1316 -0.2987 -0.3412
 4520SOL    HW125193   2.020   3.088   0.376  0.5372  0.3881 -0.2878
 4520SOL    HW225194   2.019   3.204   0.459  0.1495 -0.3864  0.2696
 4521SOL     OW25195   0.238   2.564   7.860 -0.1628 -0.0277  0.2413
 4521SOL    HW125196   0.281   2.639   7.901  2.5003 -0.3079 -2.0804
 4521SOL    HW225197   0.297   2.495   7.889 -0.0836  0.1681  0.5507
 4522SOL     OW25198   1.463   2.805   9.390 -0.0855  0.0649 -0.4275
 4522SOL    HW125199   1.387   2.784   9.336  0.3793 -0.1994 -0.9932
 4522SOL    HW225200   1.421   2.859   9.457 -1.1488  0.2584 -1.2507
 4523SOL     OW25201   3.510   3.173  15.371  0.1690 -0.3870 -0.3852
 4523SOL    HW125202   3.505   3.176  15.276 -0.4807 -0.9482 -0.3673
 4523SOL    HW225203   3.545   3.085  15.381  0.3085 -0.1056  1.7547
 4524SOL     OW25204   4.033   0.967   3.509  0.2784  0.0967 -0.3343
 4524SOL    HW125205   4.004   1.044   3.558 -0.3882 -0.4628  0.1442
 4524SOL    HW225206   4.077   0.909   3.571 -2.7091 -1.6414  0.1481
 4525SOL     OW25207   1.537   1.943   4.825 -0.0596  0.0304  0.1893
 4525SOL    HW125208   1.506   2.033   4.833  0.2211 -0.0466  2.3557
 4525SOL    HW225209   1.579   1.933   4.740 -0.0977 -1.8672  0.3830
 4526SOL     OW25210   3.382   2.029   0.737  0.0781 -0.2396  0.4888
 4526SOL    HW125211   3.313   2.092   0.715  1.1004  0.3877 -0.8953
 4526SOL    HW225212   3.441   2.086   0.787 -0.0369 -1.4753  2.0329
 4527SOL     OW25213   3.735   2.713   7.312  0.4253  0.1537 -0.1391
 4527SOL    HW125214   3.698   2.796   7.341 -2.3778 -1.2458  0.2773
 4527SOL    HW225215   3.824   2.742   7.289  0.1197  1.2891  0.1128
 4528SOL     OW25216   1.397   1.235  15.493 -0.1265 -0.6118 -0.2774
 4528SOL    HW125217   1.448   1.298  15.442 -0.5992  0.2199  0.2817
 4528SOL    HW225218   1.403   1.157  15.437  0.4084 -1.1517  0.5175
 4529SOL     OW25219   0.080   1.022   1.060  0.3374 -0.1997 -0.1788
 4529SOL    HW125220   0.012   1.061   1.005  2.1103  2.5580 -0.4022
 4529SOL    HW225221   0.156   1.069   1.025 -0.0414 -0.6247 -1.5645
 4530SOL     OW25222   1.424   0.839  15.537 -0.2298 -0.5812  0.1183
 4530SOL    HW125223   1.367   0.763  15.527  0.1013 -0.9547  1.0774
 4530SOL    HW225224   1.429   0.872  15.448 -1.0858  1.0978  0.7100
 4531SOL     OW25225   3.386   1.931   4.718 -0.4568  0.8448 -0.4168
 4531SOL    HW125226   3.368   1.853   4.665  0.0539  1.1483 -1.0412
 4531SOL    HW225227   3.306   1.937   4.770 -0.2517 -1.4731  0.1788
 4532SOL     OW25228   3.532   0.329   1.541  0.0217 -0.3756 -0.0402
 4532SOL    HW125229   3.559   0.299   1.454  0.1291  1.8579 -0.7666
 4532SOL    HW225230   3.461   0.387   1.514  0.1639 -1.3544 -2.5231
 4533SOL     OW25231   4.292   1.421  11.136 -0.0897  0.8745 -0.6260
 4533SOL    HW125232   4.231   1.405  11.207 -0.6023 -0.7938 -1.4456
 4533SOL    HW225233   4.356   1.350  11.141  0.6261  1.4846 -1.0307
 4534SOL     OW25234   3.130   1.851  14.407 -0.1004 -0.3921  0.0190
 4534SOL    HW125235   3.063   1.783  14.411  0.2491 -0.6806  0.8598
 4534SOL    HW225236   3.088   1.899  14.335 -2.1408  0.3099  1.6720
 4535SOL     OW25237   1.694   3.158   0.471 -0.2275  0.5994  0.2261
 4535SOL    HW125238   1.648   3.154   0.555  0.7850  0.6907  0.7797
 4535SOL    HW225239   1.785   3.171   0.496  0.2590  0.2139 -1.3035
 4536SOL     OW25240   4.125   3.764   5.664 -0.5942 -0.3195  0.1465
 4536SOL    HW125241   4.214   3.727   5.666  0.1870  1.6461  1.7201
 4536SOL    HW225242   4.069   3.689   5.683 -1.3751  0.0188 -0.8290
 4537SOL     OW25243   4.445   4.408   7.451  0.4176 -0.0187  0.4473
 4537SOL    HW125244   4.502   4.472   7.492  0.5634  0.4782 -0.5137
 4537SOL    HW225245   4.418   4.362   7.530  1.0650  0.2532  0.8232
 4538SOL     OW25246   3.904   3.594   8.494 -0.4058 -0.2211  0.2146
 4538SOL    HW125247   3.903   3.504   8.525  0.2165 -0.9823 -2.0141
 4538SOL    HW225248   3.831   3.592   8.432  0.2597  1.3971 -0.6279
 4539SOL     OW25249   1.518   3.258  15.604  0.2804 -0.1526  0.2132
 4539SOL    HW125250   1.540   3.213  15.686 -0.8999 -0.5655  0.2902
 4539SOL    HW225251   1.568   3.338  15.624  1.1679 -0.3683 -1.1561
 4540SOL     OW25252   1.788   1.679   4.854  0.1257 -0.2481  0.4166
 4540SOL    HW125253   1.786   1.605   4.793  1.8518  0.4972 -0.5393
 4540SOL    HW225254   1.709   1.733   4.850  2.2723  3.0873  3.2719
 4541SOL     OW25255   0.067   4.256   0.442 -0.2657 -0.2991  0.2990
 4541SOL    HW125256   0.098   4.215   0.522 -2.6289 -0.4147  1.1358
 4541SOL    HW225257   0.032   4.340   0.470 -0.5543 -0.1473 -0.5003
 4542SOL     OW25258   2.214   1.021  13.196 -0.3488 -0.6785 -0.1141
 4542SOL    HW125259   2.251   1.002  13.110 -2.3854 -1.3110 -0.8488
 4542SOL    HW225260   2.120   1.022  13.178 -0.6041  1.6144  1.3124
 4543SOL     OW25261   2.836   1.320   9.492  0.0256 -0.1262  0.5222
 4543SOL    HW125262   2.745   1.336   9.465  0.0682 -0.9526 -0.1125
 4543SOL    HW225263   2.875   1.267   9.423  0.4019 -1.3740  1.7013
 4544SOL     OW25264   0.677   2.642   6.030  0.7125 -0.5874  0.0302
 4544SOL    HW125265   0.752   2.702   6.022  1.0101 -1.1167 -1.2884
 4544SOL    HW225266   0.702   2.596   6.110 -1.3084 -0.8456  0.5121
 4545SOL     OW25267   2.072   2.271  11.950 -0.0497 -0.1500  0.1763
 4545SOL    HW125268   2.021   2.349  11.970 -0.3609 -0.6304  1.2271
 4545SOL    HW225269   2.127   2.299  11.876  0.2839  1.8917  1.2100
 4546SOL     OW25270   3.805   3.008   3.904  0.5136  0.5138  1.0645
 4546SOL    HW125271   3.856   2.934   3.872  0.0543  0.9892 -0.7693
 4546SOL    HW225272   3.872   3.074   3.922  0.9830  0.2282  0.3471
 4547SOL     OW25273   0.120   0.744   4.401  0.2972 -0.2389 -0.1652
 4547SOL    HW125274   0.159   0.749   4.488  0.8327  2.6697 -0.5588
 4547SOL    HW225275   0.030   0.742   4.433  0.2369 -2.3002 -0.4965
 4548SOL     OW25276   3.210   0.782   8.241 -0.8124  0.2680  0.3408
 4548SOL    HW125277   3.175   0.862   8.281 -0.4027 -0.1604  1.5325
 4548SOL    HW225278   3.153   0.719   8.284 -0.0097 -0.6237  0.0847
 4549SOL     OW25279   3.455   1.552   3.265  0.3186  0.4990  0.0418
 4549SOL    HW125280   3.396   1.488   3.224  0.0491  1.1416 -0.5704
 4549SOL    HW225281   3.512   1.569   3.190 -1.0700 -1.2228 -1.4338
 4550SOL     OW25282   4.111   3.825   9.981 -0.0723 -0.0547 -0.1552
 4550SOL    HW125283   4.174   3.816  10.053 -0.8460  2.2457  0.8097
 4550SOL    HW225284   4.111   3.732   9.956 -1.6259  0.1460 -0.8946
 4551SOL     OW25285   3.791   2.055   3.252  0.5441 -0.2220  0.4431
 4551SOL    HW125286   3.855   2.081   3.318 -1.6954  1.6691  1.8551
 4551SOL    HW225287   3.741   2.134   3.237  1.4118  0.2169 -0.1126
 4552SOL     OW25288   1.940   4.554   5.054  0.1494  0.2258 -0.6491
 4552SOL    HW125289   1.931   4.493   5.128 -3.2058 -1.3566 -2.3498
 4552SOL    HW225290   1.851   4.564   5.020 -0.4423 -0.8534  0.5487
 4553SOL     OW25291   1.736   4.582   4.851 -0.5106 -0.0256 -0.3281
 4553SOL    HW125292   1.718   4.670   4.884  0.2026 -0.9859  2.6746
 4553SOL    HW225293   1.658   4.567   4.797  0.7333 -0.2083 -2.0607
 4554SOL     OW25294   1.625   0.395  13.793 -0.2600  0.2257 -0.0596
 4554SOL    HW125295   1.648   0.450  13.717 -1.8656 -1.0070 -1.4352
 4554SOL    HW225296   1.530   0.398  13.805 -0.1455  2.0994  0.4052
 4555SOL     OW25297   1.909   3.458   8.287 -0.0335  0.0744 -0.2369
 4555SOL    HW125298   1.826   3.416   8.307 -0.2846  0.6261 -0.1326
 4555SOL    HW225299   1.899   3.472   8.193 -1.4650  0.5022 -0.0126
 4556SOL     OW25300   0.066   1.704  10.100  0.5968  0.1475  0.2650
 4556SOL    HW125301   0.060   1.627  10.043  0.7525  1.2689 -1.2629
 4556SOL    HW225302   0.158   1.725  10.086  0.9527 -1.5665 -0.0001
 4557SOL     OW25303   1.677   0.554   5.529  0.4394 -0.0493 -0.3611
 4557SOL    HW125304   1.583   0.557   5.546  0.3670 -0.1128 -0.7485
 4557SOL    HW225305   1.670   0.597   5.444 -1.0138 -2.4047 -1.4351
 4558SOL     OW25306   4.203   2.224   7.518 -0.2822  0.5582 -0.7515
 4558SOL    HW125307   4.140   2.290   7.546  0.3652  0.0696  1.8864
 4558SOL    HW225308   4.201   2.160   7.589 -0.2603  1.3789 -0.0213
 4559SOL     OW25309   3.214   4.040   0.682 -0.6018 -1.1268 -0.0359
 4559SOL    HW125310   3.160   3.999   0.750  0.4239 -0.1282  1.4050
 4559SOL    HW225311   3.145   4.060   0.619  2.8242 -0.3785 -3.5955
 4560SOL     OW25312   2.064   2.698   5.532  0.3817 -0.3465  0.1508
 4560SOL    HW125313   2.066   2.750   5.452 -0.4660 -1.1499 -0.3962
 4560SOL    HW225314   2.139   2.738   5.576  0.9297 -1.7372  0.5157
 4561SOL     OW25315   3.998   0.233  16.893  0.3087 -0.1896  0.2548
 4561SOL    HW125316   3.973   0.309  16.946  1.3805  0.0674  0.3933
 4561SOL    HW225317   4.089   0.221  16.922  0.4618 -2.5569 -1.2533
 4562SOL     OW25318   1.139   4.412   6.417 -0.3995  0.0306  0.4537
 4562SOL    HW125319   1.192   4.333   6.404 -2.2977 -1.2037  0.1067
 4562SOL    HW225320   1.128   4.411   6.512 -0.3736 -0.7098  0.4488
 4563SOL     OW25321   3.055   4.357  17.325  0.0027  0.1968 -0.5407
 4563SOL    HW125322   2.987   4.354  17.257  0.3816  1.8939 -0.9907
 4563SOL    HW225323   3.043   4.449  17.350 -2.7277 -0.8991  2.2967
 4564SOL     OW25324   3.535   0.616   4.463 -0.2757 -0.8536  0.0530
 4564SOL    HW125325   3.603   0.682   4.453 -2.1201  0.7638 -1.9403
 4564SOL    HW225326   3.489   0.620   4.379 -0.9304 -0.3725  0.4322
 4565SOL     OW25327   2.914   1.484   3.182 -0.0473 -0.4091 -0.5470
 4565SOL    HW125328   2.979   1.554   3.183  0.0478 -0.4991 -0.3893
 4565SOL    HW225329   2.969   1.406   3.186  0.0886 -0.4063 -2.9212
 4566SOL     OW25330   2.496   3.192  10.062 -0.0233  0.0435 -0.2811
 4566SOL    HW125331   2.406   3.180  10.091 -0.8858  1.7898 -2.2176
 4566SOL    HW225332   2.500   3.287  10.062 -0.7860  0.0877 -1.9638
 4567SOL     OW25333   3.362   4.603   5.438 -0.4290  0.3499 -0.1292
 4567SOL    HW125334   3.449   4.593   5.398 -0.3699 -0.9290  0.3045
 4567SOL    HW225335   3.367   4.519   5.484  0.9554 -0.3398 -1.4946
 4568SOL     OW25336   2.680   1.467   6.684  0.0895  0.5779  0.5705
 4568SOL    HW125337   2.722   1.434   6.763  0.0724 -0.0466  0.3159
 4568SOL    HW225338   2.668   1.558   6.710  1.6098  0.4183  1.8768
 4569SOL     OW25339   3.161   1.230   3.573 -0.2522 -0.4075  0.1411
 4569SOL    HW125340   3.198   1.276   3.648  1.1416  1.2521 -1.5413
 4569SOL    HW225341   3.111   1.300   3.531  1.6298  0.9210  0.1100
 4570SOL     OW25342   2.559   2.423   1.632  0.1743 -0.0766 -0.2224
 4570SOL    HW125343   2.533   2.471   1.711  1.5629 -0.4179  0.4247
 4570SOL    HW225344   2.652   2.445   1.635  0.3089 -1.0620  3.0289
 4571SOL     OW25345   1.277   1.444   2.744 -0.0156 -0.1589 -0.1174
 4571SOL    HW125346   1.298   1.363   2.698 -0.7298 -0.3232 -0.1517
 4571SOL    HW225347   1.250   1.417   2.832  1.6871  0.4830  0.5959
 4572SOL     OW25348   1.425   4.072   8.098  0.0969  0.4001  0.0417
 4572SOL    HW125349   1.512   4.102   8.122 -0.0054  0.5114  0.2744
 4572SOL    HW225350   1.381   4.072   8.183 -0.0481  0.1525 -0.0318
 4573SOL     OW25351   4.546   4.063   7.755 -0.0440  0.0886 -0.0068
 4573SOL    HW125352   4.577   3.972   7.757 -0.7442 -0.1527 -0.0183
 4573SOL    HW225353   4.515   4.084   7.843  0.3026 -0.5307  0.2610
 4574SOL     OW25354   2.505   3.882   4.347 -0.3888 -0.4213  0.0958
 4574SOL    HW125355   2.535   3.862   4.258  1.6465  1.1965  0.4211
 4574SOL    HW225356   2.557   3.963   4.352 -0.9133 -0.0265 -0.7095
 4575SOL     OW25357   3.715   4.352   2.164 -0.6491 -0.1804  0.1930
 4575SOL    HW125358   3.707   4.377   2.256 -0.3579  0.4120  0.0590
 4575SOL    HW225359   3.635   4.384   2.122 -1.7353 -2.2345  0.7332
 4576SOL     OW25360   1.120   3.583   8.261  0.3909 -0.7240 -0.4538
 4576SOL    HW125361   1.107   3.656   8.200  0.3960 -0.4185 -0.0861
 4576SOL    HW225362   1.041   3.597   8.312 -0.5308 -0.9812 -1.7923
 4577SOL     OW25363   3.890   2.896  14.863  0.1452 -0.4773 -0.4001
 4577SOL    HW125364   3.840   2.880  14.783  0.1791 -0.2666 -0.4615
 4577SOL    HW225365   3.821   2.912  14.928 -0.1348  2.8715 -1.5424
 4578SOL     OW25366   1.087   2.081   0.351  0.1742 -0.4267  0.0943
 4578SOL    HW125367   1.085   2.059   0.258 -1.0796  0.2947 -0.0512
 4578SOL    HW225368   1.174   2.114   0.371  0.4938 -0.4152 -1.2697
 4579SOL     OW25369   3.352   2.510  17.145 -0.4692 -0.2948  0.2969
 4579SOL    HW125370   3.342   2.423  17.109 -1.0780  0.8561 -2.2730
 4579SOL    HW225371   3.266   2.550  17.132 -1.4968 -2.3670  0.8325
 4580SOL     OW25372   1.574   3.004   8.011 -0.2790  0.3860 -0.3111
 4580SOL    HW125373   1.495   3.040   8.051 -1.4182  0.1185 -2.3224
 4580SOL    HW225374   1.637   3.017   8.082  1.4795  1.4856 -2.0946
 4581SOL     OW25375   1.527   1.336  15.015 -0.0593  0.5711  0.5088
 4581SOL    HW125376   1.468   1.376  14.950  0.2855 -1.0548 -0.8204
 4581SOL    HW225377   1.592   1.405  15.028  0.5886 -0.1166  0.8980
 4582SOL     OW25378   3.471   2.968   6.481 -0.9420  0.4814  0.3127
 4582SOL    HW125379   3.406   2.976   6.552 -0.0802  1.7411  0.9721
 4582SOL    HW225380   3.522   2.897   6.521 -1.3912 -0.4101 -0.7145
 4583SOL     OW25381   2.336   3.421   1.255  0.9500  0.0761  0.7478
 4583SOL    HW125382   2.327   3.327   1.265  1.4093 -0.1563 -1.1441
 4583SOL    HW225383   2.425   3.423   1.222  0.9894 -0.5183  0.8235
 4584SOL     OW25384   2.893   0.023   1.716 -0.6296  0.1252 -0.4506
 4584SOL    HW125385   2.845   0.100   1.686  0.7314  2.1626  2.5471
 4584SOL    HW225386   2.981   0.062   1.713 -0.2281 -0.9337 -2.6931
 4585SOL     OW25387   3.926   3.945  12.220 -0.0844  0.0600  0.2560
 4585SOL    HW125388   3.930   3.877  12.153 -1.2355 -0.1943  0.4474
 4585SOL    HW225389   3.833   3.962  12.232 -0.2587  0.0053 -1.0653
 4586SOL     OW25390   0.050   2.754  17.697  0.3607 -0.0225 -0.4651
 4586SOL    HW125391   0.073   2.823  17.635  1.6813  0.6778  0.7863
 4586SOL    HW225392   4.704   2.784  17.734 -0.0691 -2.2290  0.3407
 4587SOL     OW25393   3.119   2.939   4.875  0.0803 -0.4301 -0.5534
 4587SOL    HW125394   3.210   2.964   4.896  0.0572 -2.1250  1.6137
 4587SOL    HW225395   3.115   2.849   4.909 -1.8543  0.5588  1.8243
 4588SOL     OW25396   3.044   0.567   0.562 -0.4081 -0.3758  0.4458
 4588SOL    HW125397   3.084   0.594   0.644  0.7214  0.9587 -0.5453
 4588SOL    HW225398   3.029   0.476   0.588 -0.5452 -0.6709 -0.6454
 4589SOL     OW25399   0.649   1.908   0.604 -0.2716  0.5369  0.0372
 4589SOL    HW125400   0.736   1.934   0.573 -0.8720  0.8517 -1.3571
 4589SOL    HW225401   0.620   1.979   0.661 -1.0270 -0.1057  0.4596
 4590SOL     OW25402   3.912   0.315  10.704  0.2765  0.0949 -0.0155
 4590SOL    HW125403   3.945   0.328  10.793 -0.5533  0.8242  0.1877
 4590SOL    HW225404   3.948   0.230  10.682 -0.7709 -0.7684  1.5981
 4591SOL     OW25405   1.864   0.487   8.197 -0.4320  0.4617 -0.3960
 4591SOL    HW125406   1.800   0.448   8.137 -0.9049 -2.3159  1.8761
 4591SOL    HW225407   1.860   0.578   8.169  0.6668  0.5686 -0.2241
 4592SOL     OW25408   1.113   4.597   6.239 -0.1075 -0.0709 -0.4507
 4592SOL    HW125409   1.128   4.531   6.307  1.1394 -1.8623 -2.4732
 4592SOL    HW225410   1.018   4.605   6.240 -0.0384  1.2824 -4.0767
 4593SOL     OW25411   2.875   1.085   5.092  0.1038 -0.1610  0.4328
 4593SOL    HW125412   2.917   1.151   5.037  2.4479 -2.1517 -0.1833
 4593SOL    HW225413   2.936   1.011   5.085  0.6035  0.0249  2.7782
 4594SOL     OW25414   3.046   3.610  10.221 -0.7587 -0.3769 -0.0810
 4594SOL    HW125415   3.089   3.619  10.305 -0.1868  1.2628 -0.5496
 4594SOL    HW225416   3.048   3.519  10.192  3.1438 -1.3101  3.2395
 4595SOL     OW25417   0.235   3.000  14.065 -0.0110  0.1824 -0.5842
 4595SOL    HW125418   0.218   3.085  14.105 -1.7039 -0.7589  0.7303
 4595SOL    HW225419   0.163   2.995  14.002 -0.2366  1.1942 -0.4114
 4596SOL     OW25420   1.538   2.828   8.820 -0.0285  0.5789 -0.0198
 4596SOL    HW125421   1.492   2.810   8.738  0.1138 -0.2411  0.0806
 4596SOL    HW225422   1.500   2.758   8.874  0.5641  1.0626  1.0198
 4597SOL     OW25423   3.778   0.259   2.391 -0.0615 -0.7762 -0.2034
 4597SOL    HW125424   3.798   0.352   2.393  1.5327 -1.1752  2.9775
 4597SOL    HW225425   3.841   0.225   2.455  0.9552  0.1239 -0.7438
 4598SOL     OW25426   1.057   1.354   3.855 -0.4869  0.4879  0.3784
 4598SOL    HW125427   0.993   1.359   3.926 -2.2388  0.9519 -1.2723
 4598SOL    HW225428   1.085   1.446   3.859  0.3519  0.1786  1.7943
 4599SOL     OW25429   2.325   1.240   6.385  0.6572 -0.4490 -0.6423
 4599SOL    HW125430   2.359   1.290   6.459  0.7102 -1.1443 -0.2031
 4599SOL    HW225431   2.256   1.187   6.425  1.3044 -0.0083  1.0238
 4600SOL     OW25432   0.636   1.766   1.661 -0.0504 -0.1461 -0.0549
 4600SOL    HW125433   0.648   1.771   1.755  0.1433 -1.4556 -0.0141
 4600SOL    HW225434   0.598   1.678   1.654 -0.6406  0.0127  1.2499
 4601SOL     OW25435   1.945   1.255   2.720  0.3215 -0.0813  0.2568
 4601SOL    HW125436   1.962   1.291   2.807 -1.0862  1.7028 -0.2069
 4601SOL    HW225437   1.931   1.339   2.678 -1.2987 -1.2010 -1.4284
 4602SOL     OW25438   1.751   1.085  16.888 -0.5373  0.3849 -0.5570
 4602SOL    HW125439   1.772   1.150  16.821  1.0538  0.7511  0.3086
 4602SOL    HW225440   1.656   1.077  16.877 -0.6514  1.1178 -0.0702
 4603SOL     OW25441   2.361   0.248   7.612 -0.6551 -0.4997  0.2860
 4603SOL    HW125442   2.352   0.157   7.640  3.2467 -1.4140 -1.5123
 4603SOL    HW225443   2.317   0.294   7.684  2.8584  0.3037  1.9062
 4604SOL     OW25444   3.772   4.587  11.037  0.1805  0.2476 -0.0095
 4604SOL    HW125445   3.727   4.553  10.960  0.0406  0.1114  0.1321
 4604SOL    HW225446   3.820   4.657  10.992  1.7945 -1.3461 -0.7379
 4605SOL     OW25447   0.016   4.571   0.793 -0.2342 -0.5713 -0.2433
 4605SOL    HW125448   0.044   4.480   0.788  0.6142 -0.3568  0.5283
 4605SOL    HW225449   4.675   4.561   0.848  0.3218  1.5572  0.9535
 4606SOL     OW25450   4.505   3.796   8.449 -0.1748 -0.0913 -0.2723
 4606SOL    HW125451   4.451   3.733   8.402 -1.9565 -0.4436  2.2209
 4606SOL    HW225452   4.460   3.877   8.424  0.2810 -0.7835 -3.2291
 4607SOL     OW25453   4.161   2.541   2.995  0.3245  0.0189 -0.1351
 4607SOL    HW125454   4.151   2.541   3.090 -0.8030 -0.4047 -0.2609
 4607SOL    HW225455   4.173   2.448   2.978 -2.1336 -0.3754  0.2955
 4608SOL     OW25456   0.954   2.778   3.937  0.3675  0.0914 -0.0154
 4608SOL    HW125457   0.941   2.873   3.937 -1.3057 -0.1334  1.4200
 4608SOL    HW225458   0.920   2.763   3.849 -0.3534  0.9537  0.1169
 4609SOL     OW25459   1.805   4.505   6.562  0.0128  0.1061 -0.1066
 4609SOL    HW125460   1.818   4.593   6.527 -0.8713 -0.1951 -1.1923
 4609SOL    HW225461   1.853   4.455   6.496  0.4327 -1.2851  1.2666
 4610SOL     OW25462   2.728   4.101   3.511 -0.1262  0.3728  0.2889
 4610SOL    HW125463   2.746   4.101   3.605  1.0211  0.0437  0.0703
 4610SOL    HW225464   2.806   4.150   3.487  1.4560 -1.5036  1.5824
 4611SOL     OW25465   1.822   2.916   7.431 -0.4097  0.3924 -0.2354
 4611SOL    HW125466   1.906   2.896   7.389 -1.2368 -3.5877  0.0596
 4611SOL    HW225467   1.795   2.990   7.378 -0.3073  0.8929  0.4064
 4612SOL     OW25468   4.318   2.947   2.103 -0.5304  0.2977 -0.2978
 4612SOL    HW125469   4.257   3.011   2.067  1.5410  1.7099 -1.3049
 4612SOL    HW225470   4.299   2.876   2.042 -0.2301  0.9519 -1.1620
 4613SOL     OW25471   3.652   0.769   2.242 -0.4387  0.3999 -0.0408
 4613SOL    HW125472   3.719   0.836   2.231  2.4458 -2.6113 -0.9165
 4613SOL    HW225473   3.580   0.815   2.199 -0.1600  0.4780 -0.4323
 4614SOL     OW25474   2.332   0.141   4.219  0.4433 -0.0867 -0.2893
 4614SOL    HW125475   2.333   0.098   4.133 -0.1862 -0.1112 -0.2861
 4614SOL    HW225476   2.412   0.106   4.258  0.8067  1.5352  0.4264
 4615SOL     OW25477   1.646   0.403  10.493 -0.3959 -0.1018 -0.1715
 4615SOL    HW125478   1.651   0.496  10.514  0.8279 -0.4378  0.9890
 4615SOL    HW225479   1.559   0.375  10.521 -0.8452  0.3158 -1.1544
 4616SOL     OW25480   3.879   0.574   2.685 -0.0239  0.2414  0.5922
 4616SOL    HW125481   3.868   0.656   2.637 -1.2118 -0.0064  0.4407
 4616SOL    HW225482   3.794   0.541   2.656 -0.0113  0.9955 -0.3092
 4617SOL     OW25483   0.491   1.278   7.272 -0.7589  0.3095 -0.3367
 4617SOL    HW125484   0.445   1.245   7.349 -1.0643 -0.3214 -0.7893
 4617SOL    HW225485   0.491   1.372   7.289 -2.1861 -0.0519  1.7601
 4618SOL     OW25486   1.705   2.294   7.589  0.0707 -0.0707  0.2542
 4618SOL    HW125487   1.651   2.292   7.510  1.4095 -0.4660 -0.6507
 4618SOL    HW225488   1.644   2.289   7.662  0.3917 -1.4432  0.4291
 4619SOL     OW25489   3.095   0.449  14.964  0.1376  0.2638 -0.2934
 4619SOL    HW125490   3.165   0.397  14.923  0.8515  1.2902 -0.3716
 4619SOL    HW225491   3.147   0.484  15.036 -0.9225 -1.7558  1.4497
 4620SOL     OW25492   4.272   0.389  12.105  0.0022 -0.0680 -0.8258
 4620SOL    HW125493   4.194   0.426  12.145  1.2086  0.8961  0.6362
 4620SOL    HW225494   4.248   0.379  12.012  0.2829 -2.6087 -0.6377
 4621SOL     OW25495   0.322   3.888   8.879 -0.7067 -0.6573  0.6717
 4621SOL    HW125496   0.331   3.885   8.784  2.7351  4.5953  0.7871
 4621SOL    HW225497   0.228   3.899   8.895 -0.7902  0.0461 -0.2888
 4622SOL     OW25498   2.338   3.439   9.588  0.0402 -0.1773 -0.3742
 4622SOL    HW125499   2.250   3.471   9.571  0.4774  0.4672 -1.4150
 4622SOL    HW225500   2.347   3.480   9.675 -2.9304 -1.3687  0.4753
 4623SOL     OW25501   4.638   2.766  11.676  0.4954  0.7517  0.0168
 4623SOL    HW125502   4.677   2.818  11.606  1.5687 -1.4334 -1.0135
 4623SOL    HW225503   4.698   2.766  11.751 -1.0326 -0.6111  1.2451
 4624SOL     OW25504   2.546   4.264  15.579  0.1342 -0.1941  0.6896
 4624SOL    HW125505   2.504   4.305  15.655  0.3165  2.3264 -0.5531
 4624SOL    HW225506   2.635   4.253  15.613  0.1662 -0.1352  0.6240
 4625SOL     OW25507   1.623   0.780   2.713 -0.1501  0.0489  0.1456
 4625SOL    HW125508   1.620   0.799   2.619  1.2429  0.2340  0.1261
 4625SOL    HW225509   1.701   0.724   2.707  0.1343  0.4674 -0.0915
 4626SOL     OW25510   1.136   3.418   1.260  0.3430 -0.4644 -0.2392
 4626SOL    HW125511   1.175   3.333   1.280 -0.7862 -0.8904  0.1404
 4626SOL    HW225512   1.156   3.416   1.167  2.0525 -2.0775  0.1743
 4627SOL     OW25513   4.109   2.230   8.953  0.2235  0.2312  0.0757
 4627SOL    HW125514   4.040   2.212   8.889  1.4556  2.0244 -1.7413
 4627SOL    HW225515   4.065   2.272   9.027  1.7813  0.5133  0.8409
 4628SOL     OW25516   1.361   0.084   8.888  0.1500 -0.3874 -0.1206
 4628SOL    HW125517   1.417   0.119   8.819 -0.6947  1.4568  0.1220
 4628SOL    HW225518   1.415   0.106   8.964  1.0484 -2.2260 -0.2385
 4629SOL     OW25519   0.490   0.365   9.055 -0.2604  0.1633 -0.0651
 4629SOL    HW125520   0.557   0.377   8.987  1.1004 -0.9054  1.0956
 4629SOL    HW225521   0.546   0.409   9.119 -1.1659  2.9252 -1.1803
 4630SOL     OW25522   1.091   0.892  15.577  0.2596 -0.6532  0.7459
 4630SOL    HW125523   1.089   0.822  15.512 -0.3009 -0.9749  1.1107
 4630SOL    HW225524   1.147   0.852  15.642  0.5046 -0.9834  0.3282
 4631SOL     OW25525   3.930   4.196   2.092  0.3247  0.3341 -0.1156
 4631SOL    HW125526   3.965   4.255   2.158  2.1524 -1.2450  0.3208
 4631SOL    HW225527   3.847   4.244   2.094 -0.7975 -1.6575  0.6981
 4632SOL     OW25528   1.281   4.049   6.994 -0.1859  0.6433 -0.2616
 4632SOL    HW125529   1.374   4.031   6.988 -0.0665  1.4716 -0.8662
 4632SOL    HW225530   1.277   4.119   7.060 -0.3996 -1.0640  1.5378
 4633SOL     OW25531   2.227   1.092   0.648 -0.3580  0.0332 -0.5726
 4633SOL    HW125532   2.154   1.153   0.633 -1.0911  0.0716  3.2527
 4633SOL    HW225533   2.282   1.142   0.708  1.0031 -3.7868  1.3661
 4634SOL     OW25534   3.012   3.011  12.488 -0.0376  0.0524 -0.5353
 4634SOL    HW125535   3.047   2.966  12.412 -1.9875  1.1874 -2.0925
 4634SOL    HW225536   3.017   2.949  12.562  0.6824 -0.6700 -1.1917
 4635SOL     OW25537   2.796   4.530   7.504  0.4117 -0.3108 -0.2542
 4635SOL    HW125538   2.834   4.507   7.589 -2.2017 -0.4524  0.8864
 4635SOL    HW225539   2.871   4.583   7.479 -0.3335  0.6455 -0.4809
 4636SOL     OW25540   2.987   2.047   6.215  0.2269 -0.1037 -0.4454
 4636SOL    HW125541   3.035   1.976   6.171  0.5680 -0.2846  0.2138
 4636SOL    HW225542   2.919   1.993   6.256 -0.1092  0.5894 -0.0978
 4637SOL     OW25543   2.948   4.362  11.633 -0.0212 -0.3875 -0.5227
 4637SOL    HW125544   2.934   4.282  11.581 -0.3626  0.1839 -1.3059
 4637SOL    HW225545   2.905   4.430  11.582  1.0101 -0.9357 -2.1607
 4638SOL     OW25546   0.825   0.676   3.370  0.1998  0.2293 -0.4700
 4638SOL    HW125547   0.903   0.732   3.365  0.1285  0.1269 -2.7204
 4638SOL    HW225548   0.781   0.717   3.296  1.5494  0.2886 -1.2329
 4639SOL     OW25549   0.297   4.662   2.278 -0.2518  0.5277  0.0242
 4639SOL    HW125550   0.339   4.717   2.345  1.5790 -0.9375  0.0550
 4639SOL    HW225551   0.285   4.723   2.205 -2.1811 -0.1280 -0.2221
 4640SOL     OW25552   0.822   1.116  12.472  0.6494 -0.3524  0.3268
 4640SOL    HW125553   0.852   1.196  12.430 -0.6582 -1.1360 -2.0918
 4640SOL    HW225554   0.889   1.083  12.532  1.6330  1.4397  0.2012
 4641SOL     OW25555   1.548   1.453   4.089 -0.1860 -0.3050 -0.3769
 4641SOL    HW125556   1.532   1.358   4.093  0.2495 -0.4250 -1.4904
 4641SOL    HW225557   1.605   1.461   4.167 -0.0190 -1.0078 -0.4206
 4642SOL     OW25558   0.900   2.140  15.300 -0.2361 -0.5163  0.8241
 4642SOL    HW125559   0.892   2.065  15.358  0.2521 -1.1619  0.0525
 4642SOL    HW225560   0.960   2.197  15.348  0.3746 -0.1793 -0.3327
 4643SOL     OW25561   2.983   2.052  14.296  0.1049  0.3524 -0.4518
 4643SOL    HW125562   2.895   2.055  14.332 -0.1066 -0.5298 -0.8871
 4643SOL    HW225563   2.957   2.028  14.207 -1.1998 -1.7060  0.4813
 4644SOL     OW25564   2.042   0.197   3.924 -0.2725 -0.0167  0.1548
 4644SOL    HW125565   2.020   0.264   3.989  1.6258 -0.4736  1.3074
 4644SOL    HW225566   1.968   0.142   3.947  0.0848 -0.2823  0.6878
 4645SOL     OW25567   0.038   3.563   1.694 -0.1770  0.1551 -0.6469
 4645SOL    HW125568   0.128   3.568   1.726 -0.2796 -0.0330 -0.3222
 4645SOL    HW225569   4.724   3.553   1.775  0.7144  1.2396  0.0492
 4646SOL     OW25570   3.114   1.925   3.517 -0.4810  0.9581 -0.2691
 4646SOL    HW125571   3.170   1.979   3.461 -1.6992  1.3396 -1.1136
 4646SOL    HW225572   3.143   1.839   3.486 -0.1636  0.6696  0.8422
 4647SOL     OW25573   3.329   1.349   4.466  0.3007 -0.1366 -0.2248
 4647SOL    HW125574   3.245   1.320   4.501  0.5943  0.6343  1.0973
 4647SOL    HW225575   3.313   1.429   4.416 -1.5431  1.0664  2.2973
 4648SOL     OW25576   2.374   2.564  16.222  0.0056 -0.3501 -0.1661
 4648SOL    HW125577   2.367   2.640  16.165  0.0214 -0.1628  0.0847
 4648SOL    HW225578   2.366   2.600  16.310 -0.6725 -1.0343  0.0592
 4649SOL     OW25579   1.177   2.270  11.651  0.4550 -0.1930  0.3740
 4649SOL    HW125580   1.230   2.235  11.580  0.3103 -0.4132  0.3760
 4649SOL    HW225581   1.157   2.190  11.698 -0.2308  0.2635  0.8692
 4650SOL     OW25582   3.318   4.711   4.744 -0.0411 -0.4389 -0.0625
 4650SOL    HW125583   3.316   0.051   4.688 -1.2781  0.7570  1.6139
 4650SOL    HW225584   3.232   4.674   4.727  1.9502 -3.6667 -3.0347
 4651SOL     OW25585   1.163   3.311   5.546  0.3090  0.4006 -0.3825
 4651SOL    HW125586   1.158   3.296   5.641  2.3527 -1.4345 -0.5558
 4651SOL    HW225587   1.097   3.246   5.524 -0.4332  0.3144  2.0826
 4652SOL     OW25588   1.037   2.194   5.129 -0.3531  0.2327  0.1522
 4652SOL    HW125589   0.973   2.162   5.192  1.3880  1.0165  2.3168
 4652SOL    HW225590   1.092   2.117   5.110 -0.0461  0.3222  0.6881
 4653SOL     OW25591   3.111   0.133   8.180 -0.5393  0.1670 -0.7641
 4653SOL    HW125592   3.197   0.150   8.218 -1.6408 -0.0019  1.8201
 4653SOL    HW225593   3.122   0.072   8.107  1.4175 -0.3415 -0.0455
 4654SOL     OW25594   0.627   2.302   4.667 -0.5803 -0.0917 -0.6408
 4654SOL    HW125595   0.702   2.265   4.621 -1.2749 -2.0116 -0.2640
 4654SOL    HW225596   0.665   2.320   4.753 -1.7533  0.9987 -0.3571
 4655SOL     OW25597   0.486   0.102   3.186  0.5119 -0.3818 -0.6090
 4655SOL    HW125598   0.431   0.048   3.130  3.3444 -1.2385 -2.5750
 4655SOL    HW225599   0.511   0.034   3.248  0.4611 -0.7824 -1.0321
 4656SOL     OW25600   4.542   3.523   9.581  0.2196 -0.2576 -0.3540
 4656SOL    HW125601   4.560   3.617   9.587  1.9058 -0.6759  1.0509
 4656SOL    HW225602   4.629   3.487   9.566  0.8593  0.5066  1.4788
 4657SOL     OW25603   2.261   3.724   6.684  1.0375  0.0698 -0.0529
 4657SOL    HW125604   2.178   3.677   6.685 -0.2359  2.3219 -1.7489
 4657SOL    HW225605   2.265   3.769   6.768 -0.8420 -2.0226  1.1584
 4658SOL     OW25606   4.449   3.176   2.686 -0.2321  0.0486  0.0835
 4658SOL    HW125607   4.533   3.139   2.711  0.1042  0.8159  0.1023
 4658SOL    HW225608   4.432   3.107   2.622 -0.4418  1.4003 -1.3031
 4659SOL     OW25609   0.433   2.829   8.582  1.0638  0.1676 -0.4925
 4659SOL    HW125610   0.502   2.805   8.644  0.7810  1.3330  0.2819
 4659SOL    HW225611   0.497   2.829   8.512  3.1033 -1.0660  1.3809
 4660SOL     OW25612   3.332   3.500   2.805 -0.2921  0.3322  1.3679
 4660SOL    HW125613   3.399   3.563   2.830 -1.4110  2.3959 -0.8503
 4660SOL    HW225614   3.257   3.524   2.860  0.6663 -0.9021  3.2002
 4661SOL     OW25615   3.477   0.176   5.045  0.6970 -0.0606  0.4257
 4661SOL    HW125616   3.462   0.250   4.986 -1.1112  1.1652  2.4226
 4661SOL    HW225617   3.572   0.180   5.056  0.4981  1.8484  1.4936
 4662SOL     OW25618   4.240   1.588   7.341  0.3150  0.6070 -0.4942
 4662SOL    HW125619   4.288   1.567   7.420 -0.9641  1.2613  0.4538
 4662SOL    HW225620   4.303   1.561   7.274 -0.4982 -0.4542 -0.8355
 4663SOL     OW25621   4.236   2.852   3.430 -0.4000  0.5294 -0.2565
 4663SOL    HW125622   4.186   2.927   3.399  0.7361  1.2739 -0.2864
 4663SOL    HW225623   4.310   2.855   3.370 -0.2054 -3.3595 -0.2090
 4664SOL     OW25624   3.787   3.201   4.236  0.4557  0.3817 -0.5578
 4664SOL    HW125625   3.781   3.209   4.141 -0.1895  2.6876 -0.3160
 4664SOL    HW225626   3.803   3.291   4.264  0.4411  0.3068 -0.3077
 4665SOL     OW25627   0.546   3.685   5.025  0.3502 -0.7743  0.6038
 4665SOL    HW125628   0.537   3.591   5.042 -0.1035 -0.4518  2.1188
 4665SOL    HW225629   0.640   3.682   5.043  0.2311  0.4383  1.4156
 4666SOL     OW25630   2.452   2.162   6.083  0.5580 -0.1348  0.0605
 4666SOL    HW125631   2.361   2.174   6.112  0.0615  0.4541 -1.7509
 4666SOL    HW225632   2.448   2.187   5.991  1.2092 -1.5750 -0.3446
 4667SOL     OW25633   0.125   1.366   1.990 -0.1512  0.3772 -0.3730
 4667SOL    HW125634   0.203   1.415   1.967 -0.0108 -0.6447 -2.0932
 4667SOL    HW225635   0.055   1.429   1.973 -0.3455  0.6437  1.3767
 4668SOL     OW25636   3.983   2.444  16.939  0.0565  0.2024  0.4796
 4668SOL    HW125637   4.041   2.516  16.913  0.1936 -0.2980 -0.5930
 4668SOL    HW225638   4.008   2.388  16.866 -0.3047  0.4602  0.1559
 4669SOL     OW25639   3.875   1.539   9.123 -0.2174 -1.1147 -0.2117
 4669SOL    HW125640   3.792   1.541   9.077  0.0811  0.1796 -0.6875
 4669SOL    HW225641   3.895   1.447   9.142  0.8217 -0.6289  1.0845
 4670SOL     OW25642   3.291   1.516   7.394 -0.0671 -0.4182  0.5623
 4670SOL    HW125643   3.278   1.438   7.340 -0.4051 -0.7945  1.1829
 4670SOL    HW225644   3.386   1.527   7.388 -0.5623  2.9370 -1.4148
 4671SOL     OW25645   4.088   2.323  17.248 -0.0731  0.3377  0.1483
 4671SOL    HW125646   4.099   2.359  17.160 -1.2424 -0.7437 -0.4380
 4671SOL    HW225647   4.031   2.392  17.282  1.6336  2.9272 -2.1971
 4672SOL     OW25648   0.432   1.445  12.331  0.0065 -0.5599 -0.0692
 4672SOL    HW125649   0.444   1.414  12.420  3.2719 -1.0830 -0.7072
 4672SOL    HW225650   0.463   1.367  12.285  0.3322 -0.2465 -0.3793
 4673SOL     OW25651   2.076   2.894   7.774 -0.0348  0.3743  0.5464
 4673SOL    HW125652   1.983   2.890   7.751  0.2131 -0.8943 -0.2446
 4673SOL    HW225653   2.123   2.944   7.708 -1.5261 -0.4513 -1.1540
 4674SOL     OW25654   0.667   1.227   3.294  0.1963 -0.4522  0.2897
 4674SOL    HW125655   0.667   1.132   3.305 -2.0314 -0.3952  0.6967
 4674SOL    HW225656   0.577   1.243   3.265  0.0875 -0.0933  0.8361
 4675SOL     OW25657   3.806   4.110   0.959 -0.0892  0.1159 -0.5597
 4675SOL    HW125658   3.752   4.167   1.014  1.6221  1.4873 -0.3155
 4675SOL    HW225659   3.735   4.048   0.945  1.1043 -0.8147 -2.4683
 4676SOL     OW25660   2.029   2.794   8.949 -0.3973  0.2711 -0.4149
 4676SOL    HW125661   1.945   2.781   8.994 -0.9269  0.5233 -1.3456
 4676SOL    HW225662   2.087   2.800   9.025 -0.2398 -0.9101 -0.4323
 4677SOL     OW25663   1.537   1.498   3.343  0.5191 -0.5262 -0.0640
 4677SOL    HW125664   1.583   1.581   3.331  1.8392 -1.4366 -1.2644
 4677SOL    HW225665   1.588   1.473   3.420  2.4549  0.2023 -1.1159
 4678SOL     OW25666   3.220   1.512   6.446  0.2070  0.3323 -0.1636
 4678SOL    HW125667   3.166   1.560   6.383 -0.4871 -0.5221 -0.2312
 4678SOL    HW225668   3.182   1.425   6.460 -0.3180  0.3927 -1.1633
 4679SOL     OW25669   4.063   4.250  12.183  0.4173  0.1925  0.6236
 4679SOL    HW125670   3.977   4.219  12.154 -0.0094  1.6164  0.3761
 4679SOL    HW225671   4.108   4.238  12.099  1.6939  0.0603  1.3221
 4680SOL     OW25672   3.059   2.210   4.150  0.1627 -0.1314 -0.1448
 4680SOL    HW125673   3.085   2.152   4.221  1.1482  0.2768 -0.1725
 4680SOL    HW225674   3.080   2.157   4.073 -2.4291 -0.5686 -0.5660
 4681SOL     OW25675   2.453   1.777   7.245 -0.2156 -0.5078  0.0224
 4681SOL    HW125676   2.400   1.700   7.267 -0.3639 -0.5503 -0.4891
 4681SOL    HW225677   2.532   1.735   7.279 -0.5622 -1.1254  0.0539
 4682SOL     OW25678   3.282   3.968   5.878  0.3801  0.4304  0.3901
 4682SOL    HW125679   3.294   3.904   5.948 -3.6053  0.5378  1.1602
 4682SOL    HW225680   3.339   4.033   5.918  0.4731 -0.2357  1.3521
 4683SOL     OW25681   1.918   2.826   3.818  0.4018  0.4500  0.4038
 4683SOL    HW125682   1.998   2.837   3.766  0.4050 -0.8075  0.1321
 4683SOL    HW225683   1.907   2.731   3.829 -1.3711  0.6605  0.3720
 4684SOL     OW25684   2.523   1.087   8.474 -0.2761  0.0538  0.1891
 4684SOL    HW125685   2.488   1.176   8.468  1.1246  0.6558  1.2909
 4684SOL    HW225686   2.484   1.054   8.555 -0.2425  1.7428  0.9068
 4685SOL     OW25687   0.720   0.146   2.489 -0.5014 -0.3012  0.0890
 4685SOL    HW125688   0.812   0.130   2.470 -1.1757 -0.3788 -3.1041
 4685SOL    HW225689   0.715   0.199   2.568  2.1907 -2.1618  1.5048
 4686SOL     OW25690   3.182   3.312   4.542 -0.1870 -0.7247  0.0028
 4686SOL    HW125691   3.263   3.361   4.530  0.7176 -1.8018  1.7236
 4686SOL    HW225692   3.201   3.269   4.626 -0.1304  1.2361  0.9867
 4687SOL     OW25693   4.716   2.846   3.474  0.0065 -0.5097 -0.0367
 4687SOL    HW125694   4.689   2.800   3.553  0.3486 -0.3843  0.1527
 4687SOL    HW225695   4.631   2.842   3.431 -0.3854 -0.6132  0.7558
 4688SOL     OW25696   2.830   3.138   4.189  0.3429  0.2436 -0.0160
 4688SOL    HW125697   2.848   3.062   4.244 -2.6320 -1.4822 -1.4502
 4688SOL    HW225698   2.753   3.106   4.142 -0.2130 -1.8524  2.3175
 4689SOL     OW25699   1.914   2.914   0.613 -0.7688  0.4303 -0.8475
 4689SOL    HW125700   2.009   2.907   0.610 -0.9237 -2.2483  0.1962
 4689SOL    HW225701   1.911   3.001   0.572 -2.0117 -0.2633 -2.2518
 4690SOL     OW25702   1.575   1.434   8.182  0.3994 -0.2957 -0.0359
 4690SOL    HW125703   1.537   1.519   8.160 -0.6907 -0.6348  0.5698
 4690SOL    HW225704   1.660   1.469   8.212 -0.3908 -0.4937  2.4151
 4691SOL     OW25705   3.631   0.499   2.596 -0.7865  0.1689  0.0562
 4691SOL    HW125706   3.604   0.476   2.507 -0.1861  1.4281 -0.4541
 4691SOL    HW225707   3.569   0.572   2.597 -0.4330  0.4387  1.8144
 4692SOL     OW25708   2.942   4.016   5.025  0.0445 -0.0910  0.2478
 4692SOL    HW125709   2.932   4.004   5.119 -0.3211 -0.2319  0.1909
 4692SOL    HW225710   2.854   3.989   5.001 -0.2030  0.7957  0.1602
 4693SOL     OW25711   1.950   3.659  15.046  0.4779 -0.1482 -0.6344
 4693SOL    HW125712   2.012   3.596  15.082 -0.3344 -1.6036 -1.8033
 4693SOL    HW225713   1.937   3.625  14.958 -2.5658  0.1828 -0.3102
 4694SOL     OW25714   4.400   3.616   7.510 -0.2096 -0.2291 -1.1327
 4694SOL    HW125715   4.423   3.681   7.444  0.0751  1.5474  0.7140
 4694SOL    HW225716   4.402   3.528   7.473  1.7954 -1.3680  1.7075
 4695SOL     OW25717   0.860   4.374   8.875 -0.0369  0.0312  0.1311
 4695SOL    HW125718   0.939   4.393   8.824 -0.4009 -2.7900 -1.4429
 4695SOL    HW225719   0.839   4.288   8.839  1.9784 -0.1613 -0.5540
 4696SOL     OW25720   3.055   0.606   2.993 -0.0036 -0.0196 -0.4949
 4696SOL    HW125721   3.070   0.599   2.899  0.7313 -0.3948 -0.3533
 4696SOL    HW225722   3.088   0.520   3.021 -0.1698  0.9412  2.5858
 4697SOL     OW25723   1.358   1.642  17.432  0.3192 -0.4266  0.1806
 4697SOL    HW125724   1.400   1.617  17.350 -0.4421 -0.8040 -0.0986
 4697SOL    HW225725   1.353   1.558  17.479  0.6176  0.7870  2.3632
 4698SOL     OW25726   2.383   1.168   5.129  0.2079 -0.2105 -0.5187
 4698SOL    HW125727   2.461   1.145   5.078  0.2017 -0.3687 -0.4559
 4698SOL    HW225728   2.416   1.165   5.219 -0.3846 -0.7039 -0.3236
 4699SOL     OW25729   0.694   2.032  16.347  0.3582 -0.1586  0.2433
 4699SOL    HW125730   0.668   2.108  16.400 -1.9954  0.4278 -1.7071
 4699SOL    HW225731   0.610   1.985  16.346 -0.7756  1.8299  0.9870
 4700SOL     OW25732   0.710   2.758   4.465 -0.5468 -0.1727 -0.3071
 4700SOL    HW125733   0.796   2.724   4.491  0.1563  0.5976 -1.5508
 4700SOL    HW225734   0.695   2.706   4.386 -0.9595 -1.2244  0.4803
 4701SOL     OW25735   1.193   4.534   8.423  0.2206 -0.3433 -0.1615
 4701SOL    HW125736   1.123   4.524   8.358  0.3834 -1.5729 -0.1413
 4701SOL    HW225737   1.195   4.450   8.469 -3.1934 -0.3186  0.0758
 4702SOL     OW25738   0.579   1.079   9.319  0.6574  0.3986  0.2942
 4702SOL    HW125739   0.552   1.170   9.330 -2.0656 -0.2695 -0.9667
 4702SOL    HW225740   0.525   1.040   9.387  0.9484 -0.9412 -0.2386
 4703SOL     OW25741   3.123   4.024   5.428 -0.3131  0.2304 -0.4080
 4703SOL    HW125742   3.080   4.095   5.476 -0.1611  0.1544 -0.1575
 4703SOL    HW225743   3.158   3.975   5.503 -0.9261  0.3142 -0.0646
 4704SOL     OW25744   2.706   3.008   3.529 -0.0006  0.0304 -0.2376
 4704SOL    HW125745   2.742   2.929   3.570  0.1780  0.4645  0.4335
 4704SOL    HW225746   2.774   3.072   3.545  1.0401 -1.3908  0.9793
 4705SOL     OW25747   3.666   1.940  15.114  0.9879 -0.0635  0.7424
 4705SOL    HW125748   3.748   1.921  15.069  1.2658  1.9653  0.3596
 4705SOL    HW225749   3.615   1.965  15.036  1.5445  1.5051  0.8727
 4706SOL     OW25750   4.150   2.237   9.396 -0.2578 -0.1125  0.3774
 4706SOL    HW125751   4.090   2.288   9.342  0.6771 -0.1895 -0.7355
 4706SOL    HW225752   4.122   2.148   9.377 -1.2398  0.6652 -1.7781
 4707SOL     OW25753   3.826   2.435   7.813  0.6694  0.1743  0.2368
 4707SOL    HW125754   3.830   2.459   7.721  0.3101 -0.4260  0.0617
 4707SOL    HW225755   3.837   2.517   7.861 -0.4290  0.9109 -0.7772
 4708SOL     OW25756   1.374   1.158   6.248  0.3773  0.2371  0.0739
 4708SOL    HW125757   1.385   1.065   6.267 -0.8914  0.0049 -0.3310
 4708SOL    HW225758   1.281   1.170   6.226  0.7409 -1.1995 -2.3284
 4709SOL     OW25759   1.191   1.501  14.232  0.2060 -0.1709 -0.2114
 4709SOL    HW125760   1.200   1.435  14.164 -0.2551  0.3018 -0.7296
 4709SOL    HW225761   1.193   1.578  14.177 -2.3484 -0.2896 -0.4836
 4710SOL     OW25762   2.547   2.943   8.009  0.0745 -0.0498  0.3667
 4710SOL    HW125763   2.454   2.923   8.016 -0.2264  1.3793  0.4861
 4710SOL    HW225764   2.567   2.903   8.094  0.3120 -0.4968  0.0993
 4711SOL     OW25765   1.185   1.098  10.368 -0.0014  0.5138 -0.0371
 4711SOL    HW125766   1.218   1.157  10.300  1.7810 -3.0335 -2.2651
 4711SOL    HW225767   1.186   1.015  10.320  0.4839 -0.4289  1.6057
 4712SOL     OW25768   2.879   3.427   0.468  0.4585 -0.1035  0.1663
 4712SOL    HW125769   2.821   3.457   0.397 -0.2065  1.8993  1.5480
 4712SOL    HW225770   2.928   3.509   0.465 -1.4053  0.9341 -2.1059
 4713SOL     OW25771   0.067   1.712   8.087 -0.5293  0.4351 -0.6333
 4713SOL    HW125772   0.091   1.714   7.994  1.2803  4.1700 -0.0903
 4713SOL    HW225773   0.031   1.801   8.094  1.4207  0.9499  2.7874
 4714SOL     OW25774   1.707   3.765   7.089  0.1942 -0.0895  0.3415
 4714SOL    HW125775   1.733   3.684   7.134  1.2418 -0.8325 -1.5994
 4714SOL    HW225776   1.715   3.742   6.997 -2.1439  1.4300 -0.2163
 4715SOL     OW25777   2.324   0.688   7.621  0.0089  0.0223 -0.1202
 4715SOL    HW125778   2.342   0.782   7.615  0.8354 -0.0528  1.2848
 4715SOL    HW225779   2.413   0.655   7.631  0.5923  2.0260  1.2742
 4716SOL     OW25780   3.876   1.258   2.366 -0.3384  0.5575 -0.1937
 4716SOL    HW125781   3.787   1.286   2.343 -0.0456  0.1003 -1.8368
 4716SOL    HW225782   3.893   1.325   2.432 -2.1404  0.0995  0.7497
 4717SOL     OW25783   1.961   0.200   8.809  0.6166  0.5335  0.2605
 4717SOL    HW125784   1.985   0.150   8.886  1.4755 -0.5031 -0.6797
 4717SOL    HW225785   1.868   0.178   8.800  1.6808 -3.6144 -0.4706
 4718SOL     OW25786   2.510   4.416  14.078  0.0170 -0.0802  0.5792
 4718SOL    HW125787   2.534   4.484  14.014 -0.1490 -1.1513 -0.6221
 4718SOL    HW225788   2.562   4.446  14.152  1.2307  0.4563 -0.4787
 4719SOL     OW25789   2.379   3.214   6.093 -0.0985  0.5869 -0.5913
 4719SOL    HW125790   2.297   3.263   6.091 -0.1251  0.6387  2.0082
 4719SOL    HW225791   2.351   3.122   6.090  1.0088  0.2341 -0.1476
 4720SOL     OW25792   3.157   3.218   3.630 -0.6298  0.0703 -0.2919
 4720SOL    HW125793   3.101   3.143   3.609  0.4654 -0.6520 -0.6561
 4720SOL    HW225794   3.238   3.184   3.592 -0.5208 -2.4720  2.2517
 4721SOL     OW25795   3.135   0.426  13.051  0.0708 -0.1996 -0.3581
 4721SOL    HW125796   3.104   0.422  13.142 -1.2173 -4.0050 -0.9805
 4721SOL    HW225797   3.132   0.521  13.043  0.6894 -0.2089 -0.6969
 4722SOL     OW25798   4.208   0.195   4.619  0.1555  0.2106 -0.0501
 4722SOL    HW125799   4.158   0.207   4.538 -2.6990  0.4276  1.7372
 4722SOL    HW225800   4.235   0.280   4.653 -2.0054  0.3209  1.4142
 4723SOL     OW25801   3.874   3.831   7.859 -0.0080  0.0620  0.2621
 4723SOL    HW125802   3.905   3.896   7.922  1.0435 -1.2505  1.1000
 4723SOL    HW225803   3.900   3.744   7.890 -0.8418  0.0641  0.9501
 4724SOL     OW25804   1.328   2.548   7.008 -0.3875 -0.0659  0.1701
 4724SOL    HW125805   1.348   2.634   7.046 -0.5939  0.4204 -0.8004
 4724SOL    HW225806   1.234   2.561   6.995 -0.7195 -2.4870  0.1938
 4725SOL     OW25807   0.674   2.940  15.491 -0.2513 -0.3026 -0.1841
 4725SOL    HW125808   0.729   2.980  15.559 -1.0678 -0.7454  0.7395
 4725SOL    HW225809   0.741   2.889  15.446  0.0405 -1.6696  1.7815
 4726SOL     OW25810   0.157   0.548   8.183 -0.3119  0.1346 -0.1114
 4726SOL    HW125811   0.248   0.534   8.211 -0.4287  0.5596  0.4883
 4726SOL    HW225812   0.154   0.511   8.095 -1.1114  1.0365 -0.4532
 4727SOL     OW25813   4.373   1.506   8.032  0.0578 -0.6986 -0.1333
 4727SOL    HW125814   4.398   1.452   8.107 -2.7995 -0.7061  0.8128
 4727SOL    HW225815   4.391   1.442   7.963  0.9230  0.4237 -0.9394
 4728SOL     OW25816   0.487   4.151   2.942  0.2417 -0.2054  0.1276
 4728SOL    HW125817   0.491   4.246   2.928  1.9831 -0.2767  0.1115
 4728SOL    HW225818   0.484   4.124   2.850 -2.1107  1.7630 -0.3693
 4729SOL     OW25819   1.104   1.780   2.334  0.2869 -0.1230  0.3179
 4729SOL    HW125820   1.182   1.781   2.277 -0.4520 -0.5205 -0.7043
 4729SOL    HW225821   1.123   1.699   2.382 -0.3827  0.1889  1.1114
 4730SOL     OW25822   3.460   0.313   2.349  0.4097  0.0603  0.0411
 4730SOL    HW125823   3.530   0.378   2.351  0.3190  0.2599 -5.1454
 4730SOL    HW225824   3.497   0.251   2.286  0.3456 -0.7926  0.8375
 4731SOL     OW25825   4.238   1.068   0.571  0.5496  0.0040  1.0455
 4731SOL    HW125826   4.223   1.144   0.513  2.1046 -1.7802 -1.6727
 4731SOL    HW225827   4.152   1.028   0.583 -0.3932  1.6880  0.0031
 4732SOL     OW25828   0.114   3.652  11.131  1.1430  0.3886 -0.1132
 4732SOL    HW125829   0.081   3.651  11.221  0.4314  1.1963 -0.3593
 4732SOL    HW225830   0.036   3.690  11.088  0.8902  0.8661  0.7644
 4733SOL     OW25831   1.049   3.360   5.170  0.3068  0.1507  0.4063
 4733SOL    HW125832   1.137   3.325   5.154  0.5101  1.1764 -0.8021
 4733SOL    HW225833   1.062   3.454   5.157  1.7385  0.0976  1.4780
 4734SOL     OW25834   1.779   4.155   1.753  0.0995 -0.7605 -0.3808
 4734SOL    HW125835   1.684   4.142   1.757  0.3513 -2.2948  0.4524
 4734SOL    HW225836   1.791   4.112   1.668 -0.2273  1.3683 -1.5151
 4735SOL     OW25837   1.411   3.348   9.223 -0.5087 -0.0950 -0.3910
 4735SOL    HW125838   1.459   3.327   9.142 -0.7199 -0.4961 -0.4153
 4735SOL    HW225839   1.399   3.442   9.212 -2.3112 -0.2111  0.7186
 4736SOL     OW25840   1.481   3.834   7.246 -0.3081 -0.0676 -0.1963
 4736SOL    HW125841   1.531   3.819   7.326  1.0380  0.5425 -0.9110
 4736SOL    HW225842   1.551   3.802   7.188  0.3104 -0.1127  0.5828
 4737SOL     OW25843   3.011   4.621   4.688  0.1647 -0.5922  0.0121
 4737SOL    HW125844   2.980   4.562   4.619 -0.2383 -0.2198 -0.1225
 4737SOL    HW225845   2.952   4.693   4.664 -0.2221 -0.9379 -0.0785
 4738SOL     OW25846   3.398   4.687  12.400 -0.0657  0.1550  0.2848
 4738SOL    HW125847   3.403   0.007  12.477  0.0286  0.8323 -0.2228
 4738SOL    HW225848   3.420   0.015  12.334 -0.5807 -0.6649 -0.6868
 4739SOL     OW25849   0.450   1.201   7.653  0.1042 -0.0331 -0.1766
 4739SOL    HW125850   0.496   1.188   7.736 -1.9331  0.3791  1.0228
 4739SOL    HW225851   0.495   1.280   7.623 -2.1081  1.1782 -0.3690
 4740SOL     OW25852   1.124   0.799   3.215 -0.3438 -0.0570 -0.4638
 4740SOL    HW125853   1.158   0.763   3.133  1.4810 -0.9010  0.6633
 4740SOL    HW225854   1.167   0.884   3.226  3.0583 -1.6844 -1.4634
 4741SOL     OW25855   0.954   1.226   4.278  0.1785  0.1232  0.1175
 4741SOL    HW125856   1.001   1.298   4.321 -0.6436 -0.1368  1.4671
 4741SOL    HW225857   0.877   1.226   4.335  0.2634 -1.3151  0.2348
 4742SOL     OW25858   2.858   2.477   7.648  0.0468  0.7995 -0.1331
 4742SOL    HW125859   2.947   2.484   7.614 -0.0690 -0.3805 -0.6884
 4742SOL    HW225860   2.831   2.569   7.653  0.7743  1.0938 -1.6400
 4743SOL     OW25861   0.842   4.401  17.074 -0.2675  0.5245  0.1057
 4743SOL    HW125862   0.846   4.314  17.115  2.4644 -0.3409 -1.9837
 4743SOL    HW225863   0.829   4.462  17.147  4.2036 -0.8886  2.1096
 4744SOL     OW25864   0.371   1.627   5.819 -0.3168  0.6670  0.6875
 4744SOL    HW125865   0.451   1.619   5.766 -0.4135  3.6408  0.1043
 4744SOL    HW225866   0.401   1.692   5.883  1.0150  2.4177 -1.6867
 4745SOL     OW25867   1.954   0.562   6.461  0.3868 -0.1535 -0.1450
 4745SOL    HW125868   1.879   0.504   6.478  0.5623 -0.2049  0.4467
 4745SOL    HW225869   1.997   0.513   6.391  0.1041 -2.1965  1.1016
 4746SOL     OW25870   2.424   2.749   1.419 -0.1599 -0.2309 -0.0213
 4746SOL    HW125871   2.377   2.702   1.488 -2.2654  0.7692 -0.7846
 4746SOL    HW225872   2.463   2.824   1.463  1.8090 -1.1060 -0.2296
 4747SOL     OW25873   0.237   3.906   0.560 -0.1213 -0.6611 -0.2868
 4747SOL    HW125874   0.251   3.853   0.639  0.2950  0.8743  0.6604
 4747SOL    HW225875   0.218   3.987   0.608  1.8714 -0.8855  0.8963
 4748SOL     OW25876   0.267   3.645   6.414 -0.4837 -0.8165  0.1470
 4748SOL    HW125877   0.239   3.689   6.494 -0.7511  1.2563 -1.0657
 4748SOL    HW225878   0.357   3.678   6.407 -0.1241 -1.8326 -0.0572
 4749SOL     OW25879   3.701   2.450  17.231  0.4832 -0.0807 -0.1608
 4749SOL    HW125880   3.767   2.451  17.300  0.8567 -1.1893 -0.5065
 4749SOL    HW225881   3.649   2.372  17.251 -2.0685  1.5522 -0.4101
 4750SOL     OW25882   0.810   0.068   7.758  0.0878  0.3520  0.2811
 4750SOL    HW125883   0.844   0.157   7.759  1.5991 -0.2284  1.0760
 4750SOL    HW225884   0.809   0.041   7.667 -0.0102  0.1912  0.3289
 4751SOL     OW25885   1.953   3.318  17.529 -0.0442 -0.1239 -0.1381
 4751SOL    HW125886   1.860   3.313  17.506 -0.1240 -0.8017  0.3505
 4751SOL    HW225887   1.985   3.278  17.448  0.3748  0.1736 -0.1179
 4752SOL     OW25888   4.652   3.973   5.430 -0.2604  0.5743 -0.3519
 4752SOL    HW125889   4.691   3.924   5.503  0.1901  1.0769 -0.2528
 4752SOL    HW225890   4.726   3.995   5.373  2.0788 -1.1395  2.0466
 4753SOL     OW25891   0.365   2.689  17.241  0.3734 -0.0219  0.7688
 4753SOL    HW125892   0.328   2.747  17.307  0.6160 -0.3586  1.1982
 4753SOL    HW225893   0.284   2.693  17.190 -0.9634 -0.3473  2.8698
 4754SOL     OW25894   0.233   3.296   7.344 -0.1261 -0.2340  0.3418
 4754SOL    HW125895   0.322   3.299   7.309 -0.5345 -0.9394 -0.7387
 4754SOL    HW225896   0.185   3.293   7.261  1.5773 -1.2119 -0.5940
 4755SOL     OW25897   0.171   2.231   1.834  0.7797  0.2337 -0.2700
 4755SOL    HW125898   0.219   2.214   1.915 -0.2466  2.1238  0.7345
 4755SOL    HW225899   0.225   2.181   1.772  0.5602  0.8218 -0.9262
 4756SOL     OW25900   0.249   3.565   8.647 -0.1157  0.0224  0.4458
 4756SOL    HW125901   0.179   3.593   8.707  0.3976 -0.0133  1.0638
 4756SOL    HW225902   0.197   3.557   8.567 -2.7726 -0.5396  2.1973
 4757SOL     OW25903   1.440   1.997  16.739 -0.0481 -0.1314  0.1142
 4757SOL    HW125904   1.394   2.056  16.679  0.5302 -1.1917 -1.3759
 4757SOL    HW225905   1.386   1.918  16.747 -3.4151  1.9931 -1.6490
 4758SOL     OW25906   0.452   1.588   7.329  0.1513  0.3932  0.6037
 4758SOL    HW125907   0.370   1.617   7.290  0.7480 -0.2156 -1.0906
 4758SOL    HW225908   0.516   1.642   7.281 -0.4511  0.2249 -0.3877
 4759SOL     OW25909   0.105   0.718   1.464 -0.2019  0.2022  0.0987
 4759SOL    HW125910   0.108   0.798   1.515 -1.5445  0.4399 -0.1943
 4759SOL    HW225911   0.022   0.677   1.489 -0.0415 -0.3041 -0.1947
 4760SOL     OW25912   2.421   0.652   2.510  0.1654  0.6578 -0.4202
 4760SOL    HW125913   2.443   0.723   2.449  1.4081  0.4323 -0.2328
 4760SOL    HW225914   2.341   0.688   2.547  0.4312  1.0771 -0.2476
 4761SOL     OW25915   1.597   1.950   3.208  0.3154  0.1811 -0.0620
 4761SOL    HW125916   1.685   1.978   3.231  1.8214 -2.8865 -2.0555
 4761SOL    HW225917   1.568   2.035   3.174  1.8449  1.6911  2.4329
 4762SOL     OW25918   1.081   1.296  14.411 -0.7445 -0.6182  1.1055
 4762SOL    HW125919   1.151   1.315  14.472  1.9197  1.4110 -2.5601
 4762SOL    HW225920   1.082   1.379  14.364 -0.8786  0.2041  2.5911
 4763SOL     OW25921   0.020   3.471   6.677 -0.3033  0.8986  0.2432
 4763SOL    HW125922   4.683   3.410   6.677 -0.0519  0.6163  2.1866
 4763SOL    HW225923   4.714   3.548   6.639 -1.4297  0.4568  0.6285
 4764SOL     OW25924   0.054   0.141   7.656 -0.4608 -0.1726 -0.9613
 4764SOL    HW125925   0.133   0.133   7.603  0.9648 -0.2507  1.1828
 4764SOL    HW225926   0.093   0.180   7.734  2.7083 -3.3524 -0.9766
 4765SOL     OW25927   3.133   2.677  14.152 -0.5071  0.0923 -0.0498
 4765SOL    HW125928   3.139   2.741  14.222 -1.9325 -0.0762  0.2140
 4765SOL    HW225929   3.148   2.735  14.077 -4.0771 -1.5445 -2.0479
 4766SOL     OW25930   2.525   4.601   4.471 -0.4268 -0.3923  0.3538
 4766SOL    HW125931   2.523   4.536   4.401 -1.6151 -1.0007  0.9458
 4766SOL    HW225932   2.540   4.681   4.422  1.5457 -1.1177 -0.2101
 4767SOL     OW25933   2.299   3.631  16.928 -0.4362 -0.1697 -0.5382
 4767SOL    HW125934   2.278   3.724  16.928 -1.7033 -0.4552 -0.3018
 4767SOL    HW225935   2.308   3.604  17.020  1.4330 -1.8608 -1.2147
 4768SOL     OW25936   3.385   0.794   5.026  0.2279 -0.1589  0.0618
 4768SOL    HW125937   3.473   0.763   5.047  0.2624 -0.6676 -0.8411
 4768SOL    HW225938   3.337   0.766   5.105 -1.0400  1.6571 -0.0453
 4769SOL     OW25939   1.387   1.768  12.421  0.0746  0.7955  0.2764
 4769SOL    HW125940   1.371   1.789  12.329  0.9560 -0.1915 -0.0987
 4769SOL    HW225941   1.483   1.770  12.426  0.0720  2.9689 -0.3379
 4770SOL     OW25942   4.442   2.910   6.811 -0.1708 -0.1661  0.6926
 4770SOL    HW125943   4.532   2.876   6.814 -0.4166 -0.7541  1.2921
 4770SOL    HW225944   4.409   2.885   6.897 -0.6033 -0.5679  0.4110
 4771SOL     OW25945   2.091   3.589   2.308  0.3639  0.3155 -0.3781
 4771SOL    HW125946   2.105   3.557   2.397 -0.7245  1.9513  0.3787
 4771SOL    HW225947   2.174   3.627   2.278 -0.2591  1.8311 -0.2067
 4772SOL     OW25948   0.552   4.672   2.754  0.2568  0.4129  0.1799
 4772SOL    HW125949   0.500   4.643   2.679  3.8165 -1.6812 -1.4665
 4772SOL    HW225950   0.637   4.654   2.714 -1.0506 -3.7398 -0.6994
 4773SOL     OW25951   1.823   3.625   7.771  0.0917  0.5529  0.4552
 4773SOL    HW125952   1.879   3.691   7.813 -2.0035  0.7918  2.8291
 4773SOL    HW225953   1.803   3.567   7.845 -0.9551 -1.2634 -1.2583
 4774SOL     OW25954   4.661   2.726  15.459  0.2831 -0.6337 -0.7770
 4774SOL    HW125955   4.655   2.637  15.424 -3.7646  0.3480 -2.6285
 4774SOL    HW225956   0.012   2.742  15.426 -0.3003 -1.5151 -2.7678
 4775SOL     OW25957   3.099   3.977   8.159  0.5086 -0.0842 -0.7559
 4775SOL    HW125958   3.065   3.980   8.248  1.4139  0.7856 -0.4397
 4775SOL    HW225959   3.037   4.031   8.110  1.7008  2.3490  0.3859
 4776SOL     OW25960   2.852   0.243  12.034 -0.0381  0.1123 -0.1253
 4776SOL    HW125961   2.776   0.246  12.092  0.2536  1.9279  0.1581
 4776SOL    HW225962   2.871   0.149  12.035  0.3289  0.2121  1.4408
 4777SOL     OW25963   2.561   0.251   5.821 -0.0737 -0.2383  0.1613
 4777SOL    HW125964   2.491   0.303   5.860 -0.7348 -1.1887  0.2249
 4777SOL    HW225965   2.639   0.280   5.869  0.6068  0.3138 -1.2695
 4778SOL     OW25966   2.188   0.823   0.254 -0.0662 -0.5277  0.5599
 4778SOL    HW125967   2.195   0.916   0.272 -0.7173 -0.4033  0.1834
 4778SOL    HW225968   2.280   0.801   0.267  0.1194 -0.0223  0.0850
 4779SOL     OW25969   4.312   0.356   5.634  0.3533 -0.5031  0.0141
 4779SOL    HW125970   4.224   0.355   5.670  0.7220  3.4042  1.0910
 4779SOL    HW225971   4.324   0.450   5.623 -0.1333 -0.6380 -1.6001
 4780SOL     OW25972   1.719   0.914   4.445 -0.2213 -0.1877 -0.3784
 4780SOL    HW125973   1.654   0.851   4.475 -0.8726  0.8349  0.3400
 4780SOL    HW225974   1.805   0.884   4.472 -0.3894 -1.0933 -0.8416
 4781SOL     OW25975   1.015   0.295  13.044  0.5811  0.1237  0.1032
 4781SOL    HW125976   1.061   0.274  12.962  1.8121  2.3454  0.2172
 4781SOL    HW225977   1.091   0.309  13.101  0.9429  0.3827 -0.4424
 4782SOL     OW25978   0.141   2.296  15.318 -0.3700  0.1134  0.4407
 4782SOL    HW125979   0.215   2.244  15.285 -0.4441  0.1220  0.2598
 4782SOL    HW225980   0.088   2.220  15.343 -2.4840  1.4620  0.0583
 4783SOL     OW25981   3.921   2.790   5.278 -0.0353 -0.0901 -0.1590
 4783SOL    HW125982   4.004   2.753   5.308 -0.4263 -0.9030 -0.0781
 4783SOL    HW225983   3.878   2.811   5.361 -1.4831  1.0599 -1.2259
 4784SOL     OW25984   4.160   4.537   0.823 -0.5737  0.2044  0.3511
 4784SOL    HW125985   4.218   4.557   0.897 -0.1280  0.7223 -0.1436
 4784SOL    HW225986   4.093   4.480   0.862 -0.4212 -0.1159  0.1493
 4785SOL     OW25987   2.617   1.466   3.567  0.0340  0.4786  0.2441
 4785SOL    HW125988   2.677   1.527   3.610  1.3158 -0.7618  0.2198
 4785SOL    HW225989   2.611   1.502   3.479  0.1047 -2.3250 -0.9017
 4786SOL     OW25990   3.248   4.331  15.073  0.5803  0.7717 -0.3334
 4786SOL    HW125991   3.263   4.377  14.990  0.9910  0.0790 -0.6431
 4786SOL    HW225992   3.159   4.364  15.090  0.3917 -0.5604  1.2999
 4787SOL     OW25993   4.652   0.258  14.569  0.2745  0.1345  0.1439
 4787SOL    HW125994   4.678   0.345  14.600 -0.7468  0.4751  0.0283
 4787SOL    HW225995   4.593   0.228  14.638  0.7593 -1.8719 -0.3154
 4788SOL     OW25996   2.886   1.521   7.493 -0.7455  0.5698 -0.6291
 4788SOL    HW125997   2.970   1.523   7.539 -0.4345 -1.4971 -1.0958
 4788SOL    HW225998   2.840   1.454   7.543  1.7034 -1.2530 -0.8080
 4789SOL     OW25999   1.062   2.227   3.331 -0.1064  0.0552  0.4123
 4789SOL    HW126000   1.140   2.179   3.302 -0.5741  1.4784 -3.1384
 4789SOL    HW226001   1.088   2.312   3.294 -2.6140  1.1446  1.1675
 4790SOL     OW26002   1.146   0.985   7.454  1.0573  0.3186 -0.2068
 4790SOL    HW126003   1.238   1.012   7.453  1.7120 -1.8180  1.3219
 4790SOL    HW226004   1.134   0.927   7.529 -1.7893  1.7882  0.4816
 4791SOL     OW26005   3.685   4.241   0.114 -0.0555 -0.1488  0.1723
 4791SOL    HW126006   3.723   4.221   0.200  0.1377  0.7692  0.2984
 4791SOL    HW226007   3.605   4.191   0.127 -0.3842  0.6767  1.3299
 4792SOL     OW26008   3.097   2.141   2.916 -0.6109 -0.5227  0.2021
 4792SOL    HW126009   3.124   2.148   2.825 -0.3992 -0.0433  0.3040
 4792SOL    HW226010   3.002   2.146   2.912 -0.4682  1.4373 -0.5413
 4793SOL     OW26011   2.426   0.413   3.520  0.7254  0.5506 -0.9229
 4793SOL    HW126012   2.420   0.318   3.514  3.0081  0.2376  1.6616
 4793SOL    HW226013   2.521   0.422   3.523  0.7761 -0.1764 -0.3222
 4794SOL     OW26014   1.526   2.364   4.576 -0.1322  0.0351  0.2705
 4794SOL    HW126015   1.574   2.399   4.500 -0.2595  1.3557  0.8160
 4794SOL    HW226016   1.470   2.441   4.580 -0.0330  0.1032  0.3503
 4795SOL     OW26017   4.723   1.073   5.446  0.1466 -0.0533  0.0961
 4795SOL    HW126018   4.716   1.110   5.534 -0.6641 -0.5558  0.2394
 4795SOL    HW226019   4.702   1.147   5.389 -0.0312 -1.1301 -1.2497
 4796SOL     OW26020   1.859   0.464  13.915  0.3456 -0.2753  0.3217
 4796SOL    HW126021   1.774   0.427  13.892  0.5432 -1.0013  0.7851
 4796SOL    HW226022   1.901   0.379  13.909 -1.1892 -1.0513  0.6391
 4797SOL     OW26023   4.120   3.700  16.180  1.1356  0.4973 -0.2103
 4797SOL    HW126024   4.039   3.749  16.196  1.3974  0.7097  0.4455
 4797SOL    HW226025   4.155   3.768  16.124  0.5432  1.2717  0.3587
 4798SOL     OW26026   2.184   1.052  17.633  0.1863 -0.0625  0.2400
 4798SOL    HW126027   2.091   1.033  17.618  0.4241 -1.0214 -0.0141
 4798SOL    HW226028   2.228   0.970  17.611  0.0496 -0.3453  1.0201
 4799SOL     OW26029   4.158   0.668   3.102 -0.0428  0.4969 -0.0537
 4799SOL    HW126030   4.085   0.686   3.042  0.0332 -1.1076 -0.6207
 4799SOL    HW226031   4.109   0.605   3.154 -0.3004  1.1871  0.5393
 4800SOL     OW26032   0.671   0.547   1.504 -0.9395  0.2549 -0.3043
 4800SOL    HW126033   0.617   0.622   1.479 -0.5103  0.1125 -1.6527
 4800SOL    HW226034   0.757   0.586   1.495  0.0328 -1.9721 -0.5817
 4801SOL     OW26035   1.445   2.876   8.341 -0.1516  0.6926  0.3099
 4801SOL    HW126036   1.510   2.941   8.312 -0.3597  0.9807  0.4880
 4801SOL    HW226037   1.454   2.823   8.261 -1.2599 -0.7396  1.1447
 4802SOL     OW26038   0.129   1.870  14.853 -0.0921  0.1374  0.1790
 4802SOL    HW126039   0.153   1.789  14.897 -0.9864 -0.7268 -0.9238
 4802SOL    HW226040   0.126   1.935  14.923  0.8891 -0.5299  0.8345
 4803SOL     OW26041   2.155   0.576   0.690  0.3882  0.2215  0.1172
 4803SOL    HW126042   2.120   0.497   0.650 -0.9552  1.2696 -0.7753
 4803SOL    HW226043   2.148   0.628   0.611 -0.4839  0.0983  0.1122
 4804SOL     OW26044   2.728   3.630  10.671 -0.0277 -0.2727 -0.2847
 4804SOL    HW126045   2.767   3.625  10.583  1.0605  4.5770 -0.0581
 4804SOL    HW226046   2.655   3.691  10.665 -1.4738 -1.7311  2.3939
 4805SOL     OW26047   1.699   0.977  12.516 -0.7272 -0.2109  0.1907
 4805SOL    HW126048   1.746   0.897  12.541  1.3810  0.5617 -1.2155
 4805SOL    HW226049   1.623   0.942  12.471  0.0741 -0.4031 -1.0172
 4806SOL     OW26050   4.499   0.795   2.544 -0.5266  0.4580 -0.4049
 4806SOL    HW126051   4.481   0.816   2.636 -0.3376  0.2739 -0.3245
 4806SOL    HW226052   4.412   0.814   2.510  0.1904  1.8149 -1.4574
 4807SOL     OW26053   4.277   4.488   2.939  0.3214  0.1472 -0.5342
 4807SOL    HW126054   4.342   4.430   2.899 -0.6548 -1.4632  0.2456
 4807SOL    HW226055   4.322   4.573   2.936  0.4899  0.1157  1.0256
 4808SOL     OW26056   3.229   2.623   8.216 -0.0692 -0.3728  0.3960
 4808SOL    HW126057   3.254   2.715   8.219 -2.5781  0.3110  0.3378
 4808SOL    HW226058   3.266   2.588   8.297  0.8794 -0.2646  0.0099
 4809SOL     OW26059   1.070   0.911  15.000 -0.3751  0.0074 -0.0769
 4809SOL    HW126060   1.047   1.001  14.977 -0.6290  0.3015  1.3315
 4809SOL    HW226061   1.152   0.896  14.952 -0.2361  0.4137  0.0305
 4810SOL     OW26062   2.704   1.494   1.959 -0.0761  0.8143  0.4459
 4810SOL    HW126063   2.629   1.459   1.909  2.3806 -2.7701 -0.7599
 4810SOL    HW226064   2.660   1.559   2.014  0.7456  0.3308  1.6717
 4811SOL     OW26065   1.316   2.919   9.626  0.0187  0.0808  0.2437
 4811SOL    HW126066   1.223   2.939   9.613 -0.1785  0.0750  1.6308
 4811SOL    HW226067   1.337   2.926   9.719 -2.1282 -0.1221  0.7505
 4812SOL     OW26068   1.587   4.425   8.284 -0.6847  0.2326  0.3395
 4812SOL    HW126069   1.518   4.443   8.221  1.0024 -0.3161 -1.6570
 4812SOL    HW226070   1.612   4.515   8.303  1.5909  0.0133 -1.6334
 4813SOL     OW26071   1.184   1.605   8.896  0.2881  0.3794 -0.6631
 4813SOL    HW126072   1.243   1.607   8.972 -1.1814 -2.7647  0.5560
 4813SOL    HW226073   1.134   1.686   8.900  0.0128  0.2442 -1.4703
 4814SOL     OW26074   3.704   1.562   5.886  0.1921  0.0032  0.3065
 4814SOL    HW126075   3.704   1.609   5.802 -0.3418  1.0224  0.8880
 4814SOL    HW226076   3.642   1.614   5.935 -1.0389  0.7737 -2.0628
 4815SOL     OW26077   2.760   3.412  16.839 -0.6257  0.1257 -0.2836
 4815SOL    HW126078   2.682   3.460  16.869 -0.2519 -0.1288  1.1219
 4815SOL    HW226079   2.738   3.399  16.747  0.3235  0.6771 -0.5984
 4816SOL     OW26080   3.945   0.035   6.291  0.5246 -0.2118  0.0282
 4816SOL    HW126081   3.939   4.677   6.276 -1.1874 -0.0286 -0.4405
 4816SOL    HW226082   3.995   0.027   6.372  2.3653  0.9919 -1.0010
 4817SOL     OW26083   0.852   3.529   9.278  0.5471  0.1341  0.7202
 4817SOL    HW126084   0.872   3.523   9.371  0.9262  2.8374  0.8274
 4817SOL    HW226085   0.860   3.624   9.264 -0.5397  0.2129  0.6215
 4818SOL     OW26086   2.391   4.561   7.943 -0.3423 -0.0572  0.6383
 4818SOL    HW126087   2.358   4.471   7.953 -0.3615  0.2454  3.2845
 4818SOL    HW226088   2.351   4.597   8.023 -0.5681 -1.4863  1.1735
 4819SOL     OW26089   0.003   2.596   2.605 -0.4693  0.3934 -0.3769
 4819SOL    HW126090   0.002   2.501   2.620  1.8592  0.6152  1.1013
 4819SOL    HW226091   0.086   2.598   2.558 -1.0209 -1.4790 -1.4576
 4820SOL     OW26092   2.438   0.012   6.437  0.1853 -0.6682 -0.0110
 4820SOL    HW126093   2.477   0.078   6.379 -2.8688 -0.2058 -1.5707
 4820SOL    HW226094   2.398   0.058   6.511  0.1407  0.2647 -0.6102
 4821SOL     OW26095   2.014   2.189   2.202  0.0989  0.6479  0.2743
 4821SOL    HW126096   2.009   2.271   2.251  1.3924  0.4186  0.8086
 4821SOL    HW226097   2.107   2.165   2.197 -0.0393  0.0725  0.4234
 4822SOL     OW26098   3.018   0.568   4.961  0.2626  0.4325 -0.9309
 4822SOL    HW126099   2.942   0.545   4.909 -0.6184 -3.6563  2.1397
 4822SOL    HW226100   3.080   0.569   4.888  1.5080  0.3612  0.1148
 4823SOL     OW26101   0.703   3.936   5.182 -0.3924 -0.2310 -0.2049
 4823SOL    HW126102   0.714   4.005   5.248  0.2055  0.6577 -1.2242
 4823SOL    HW226103   0.625   3.890   5.212 -0.2130  0.5440  1.4391
 4824SOL     OW26104   2.581   4.131   0.727  0.3246  0.1802 -0.2987
 4824SOL    HW126105   2.504   4.180   0.701 -1.1584 -0.0902  3.6300
 4824SOL    HW226106   2.651   4.196   0.722 -0.0853  0.6714  0.4790
 4825SOL     OW26107   0.656   3.380  12.076  0.6084  0.1269 -0.2950
 4825SOL    HW126108   0.643   3.468  12.111 -0.7991 -0.4610  0.6657
 4825SOL    HW226109   0.640   3.332  12.157  1.5622 -0.7162 -0.5979
 4826SOL     OW26110   1.951   3.963   3.339  0.4784  0.2175  0.0587
 4826SOL    HW126111   1.901   4.031   3.384 -1.4443 -0.4513 -1.0888
 4826SOL    HW226112   2.002   3.928   3.412  1.2286  0.4602 -0.3390
 4827SOL     OW26113   4.623   3.187   7.649  0.6148  0.1465 -0.3425
 4827SOL    HW126114   4.652   3.204   7.559 -1.8311  1.4980 -0.8687
 4827SOL    HW226115   4.617   3.092   7.660 -0.3806  0.2427 -0.0801
 4828SOL     OW26116   1.492   3.334  16.347  0.1598 -0.3233  0.1009
 4828SOL    HW126117   1.560   3.399  16.365 -1.3100  1.8031 -2.1275
 4828SOL    HW226118   1.434   3.367  16.279 -0.2716  0.3706  0.8121
 4829SOL     OW26119   1.783   2.924  10.282 -0.6480  0.6739 -0.1330
 4829SOL    HW126120   1.706   2.979  10.297 -1.8631 -1.3887  1.1658
 4829SOL    HW226121   1.852   2.979  10.321 -0.4463  1.9267 -2.2777
 4830SOL     OW26122   3.368   0.383   7.072 -0.5431 -0.4233 -0.1715
 4830SOL    HW126123   3.425   0.440   7.123  2.3344 -1.0376 -2.7190
 4830SOL    HW226124   3.407   0.300   7.099  1.1484  0.5068  0.2247
 4831SOL     OW26125   3.248   3.890   7.468 -0.5293 -0.2690 -0.1028
 4831SOL    HW126126   3.340   3.914   7.471 -0.4205 -0.6390 -0.3857
 4831SOL    HW226127   3.220   3.945   7.395 -2.7170 -2.3069 -0.8410
 4832SOL     OW26128   0.157   1.597   3.741 -0.6716  0.5973 -0.1545
 4832SOL    HW126129   0.142   1.533   3.672  0.2602  0.2984 -0.0774
 4832SOL    HW226130   0.229   1.645   3.699  0.1127 -0.3845  0.0777
 4833SOL     OW26131   2.459   4.522   1.722 -0.2788  0.1692  0.2194
 4833SOL    HW126132   2.364   4.515   1.711 -0.4944 -0.0868  2.2246
 4833SOL    HW226133   2.486   4.432   1.701 -1.1385 -0.3303  1.2521
 4834SOL     OW26134   0.551   1.329  13.153 -0.1421  0.0435 -1.2419
 4834SOL    HW126135   0.599   1.316  13.071  1.0822 -0.8276 -0.3930
 4834SOL    HW226136   0.627   1.325  13.211 -1.1952 -0.7696  0.0753
 4835SOL     OW26137   0.375   2.508   2.162 -0.2010  0.4275  0.1733
 4835SOL    HW126138   0.400   2.562   2.088 -0.6639  2.2001  1.3180
 4835SOL    HW226139   0.435   2.539   2.230  2.4732 -2.4649 -0.8886
 4836SOL     OW26140   1.562   4.502   2.603  0.1373 -0.1659  0.0192
 4836SOL    HW126141   1.549   4.450   2.682 -2.1732  0.9904  0.4032
 4836SOL    HW226142   1.591   4.580   2.649  0.9710 -0.9083  0.7327
 4837SOL     OW26143   2.272   2.676   7.798  0.1367 -0.1616  0.1270
 4837SOL    HW126144   2.202   2.735   7.823 -1.9551 -1.9364 -1.5316
 4837SOL    HW226145   2.335   2.737   7.760 -0.7116  0.3351 -0.4790
 4838SOL     OW26146   1.766   2.496  16.687  0.0025  0.3450 -0.0089
 4838SOL    HW126147   1.698   2.470  16.624  0.5199  0.1193 -0.4675
 4838SOL    HW226148   1.848   2.465  16.651 -0.2598 -0.6689  0.2594
 4839SOL     OW26149   0.988   4.231   3.983  0.2347 -0.0414 -0.1256
 4839SOL    HW126150   0.924   4.161   3.995  2.9635 -2.2203  1.7720
 4839SOL    HW226151   1.067   4.192   3.945 -0.6315 -1.4089 -0.5120
 4840SOL     OW26152   2.591   3.768  10.254 -0.2530  0.0736 -0.1058
 4840SOL    HW126153   2.651   3.701  10.221  1.7097  2.1614 -0.8314
 4840SOL    HW226154   2.511   3.724  10.280  0.5922 -2.0143 -1.0716
 4841SOL     OW26155   1.647   1.348   9.475  0.8381 -0.4249 -0.7082
 4841SOL    HW126156   1.560   1.387   9.476  0.4117 -1.3226 -3.0743
 4841SOL    HW226157   1.636   1.295   9.396 -0.9657  2.0999 -2.1234
 4842SOL     OW26158   4.657   1.447   6.445  0.2571 -0.0665 -0.5656
 4842SOL    HW126159   4.586   1.395   6.482  2.2324 -1.2022  1.6293
 4842SOL    HW226160   4.641   1.446   6.350  1.0369  0.3493 -0.7013
 4843SOL     OW26161   2.325   3.722  10.062  0.7631  0.0218 -0.6701
 4843SOL    HW126162   2.291   3.786  10.124 -1.1256 -1.9303  0.3211
 4843SOL    HW226163   2.353   3.653  10.122  1.2757  0.4957 -0.3640
 4844SOL     OW26164   3.434   1.150   9.076 -0.4667 -0.1134  0.6601
 4844SOL    HW126165   3.417   1.079   9.015 -1.8231 -2.6283  3.9306
 4844SOL    HW226166   3.441   1.219   9.011 -0.1576 -1.6164 -0.8779
 4845SOL     OW26167   2.020   3.798   7.196 -0.2706 -0.1124  0.2585
 4845SOL    HW126168   2.010   3.708   7.228 -0.1751  0.2160  1.2255
 4845SOL    HW226169   2.105   3.797   7.152  0.5503  1.8898  1.7773
 4846SOL     OW26170   2.407   2.704   6.127 -0.1216  0.2365  0.1693
 4846SOL    HW126171   2.443   2.779   6.174  1.4977 -1.5766  1.8570
 4846SOL    HW226172   2.441   2.731   6.042  1.0381 -2.7964 -0.3348
 4847SOL     OW26173   3.968   2.723   9.239 -0.1570 -0.2771  0.9274
 4847SOL    HW126174   4.032   2.672   9.289  0.1487 -0.2899  0.5201
 4847SOL    HW226175   3.901   2.659   9.215 -0.1895 -0.6133  1.8881
 4848SOL     OW26176   0.148   2.359   5.704  0.6181 -0.3788 -0.5169
 4848SOL    HW126177   0.080   2.320   5.758 -0.0484 -0.5884 -1.5158
 4848SOL    HW226178   0.149   2.301   5.628  1.7140  1.5507 -1.9808
 4849SOL     OW26179   0.793   2.149   0.635 -0.0498 -0.0245 -0.0484
 4849SOL    HW126180   0.878   2.189   0.653 -0.5833  1.1931 -0.2307
 4849SOL    HW226181   0.742   2.184   0.708  0.2251  2.0167 -0.8269
 4850SOL     OW26182   0.621   4.156   5.475  0.1319  0.0532  0.1911
 4850SOL    HW126183   0.539   4.124   5.514  0.5146  0.6811  1.5160
 4850SOL    HW226184   0.674   4.077   5.486  0.8889  0.1706 -2.7476
 4851SOL     OW26185   3.808   2.574   1.592 -0.5293  0.3935 -0.1644
 4851SOL    HW126186   3.765   2.536   1.515  0.4967 -1.7679  0.3389
 4851SOL    HW226187   3.868   2.638   1.554 -0.7185 -0.5090 -1.9889
 4852SOL     OW26188   2.063   0.140   3.645  0.1981 -0.6666 -0.0565
 4852SOL    HW126189   2.045   0.152   3.738 -1.9735  0.8592 -0.6909
 4852SOL    HW226190   2.021   0.055   3.628  0.6616 -0.2764 -3.0962
 4853SOL     OW26191   1.877   1.650  12.330  0.1630  0.2992  0.0027
 4853SOL    HW126192   1.904   1.592  12.259  2.3470  1.0412  0.2355
 4853SOL    HW226193   1.956   1.663  12.383  1.0941  1.3722 -1.6549
 4854SOL     OW26194   1.024   4.631   5.809 -0.3612  0.1090  0.5306
 4854SOL    HW126195   1.026   4.723   5.785  2.1352  0.5958  2.5729
 4854SOL    HW226196   1.110   4.624   5.851 -0.8713 -1.4279  1.3322
 4855SOL     OW26197   0.820   3.635   4.945 -0.4460  0.3442 -0.0808
 4855SOL    HW126198   0.877   3.560   4.931  0.6673  1.6949 -2.7678
 4855SOL    HW226199   0.847   3.651   5.036  0.8329 -0.1167 -0.3733
 4856SOL     OW26200   3.406   3.478  11.164  0.5251  0.0620  0.0784
 4856SOL    HW126201   3.470   3.504  11.230  2.2469 -2.6868 -0.5105
 4856SOL    HW226202   3.364   3.397  11.195  0.2478  0.0998 -0.2091
 4857SOL     OW26203   3.266   0.024   2.394 -0.0539 -0.7362 -0.5389
 4857SOL    HW126204   3.298   0.048   2.481 -0.2050 -0.7450 -0.4817
 4857SOL    HW226205   3.232   0.104   2.353  0.0001 -1.5338 -2.1531
 4858SOL     OW26206   4.550   4.181   0.338  0.6207 -0.4697 -0.0879
 4858SOL    HW126207   4.640   4.187   0.370  0.6742 -0.7981 -0.1802
 4858SOL    HW226208   4.512   4.183   0.426  1.3201  1.1083  0.1862
 4859SOL     OW26209   0.709   3.787   2.364 -0.1752 -0.1912 -0.3077
 4859SOL    HW126210   0.782   3.848   2.380 -2.0496  2.1015 -0.4918
 4859SOL    HW226211   0.647   3.831   2.422  1.0046  1.8546 -0.5706
 4860SOL     OW26212   0.205   4.552   1.580 -0.0135 -0.0231  0.2412
 4860SOL    HW126213   0.300   4.557   1.581 -0.0400  0.1961  1.5374
 4860SOL    HW226214   0.186   4.646   1.579  0.0528  0.0060  2.4114
 4861SOL     OW26215   4.432   2.670  11.890  0.3535  0.1426 -0.2768
 4861SOL    HW126216   4.349   2.629  11.866  0.8016  0.1497 -1.8512
 4861SOL    HW226217   4.471   2.693  11.806  1.3166  0.3613  0.2208
 4862SOL     OW26218   3.683   3.443   4.963 -0.2566  0.0105 -0.2747
 4862SOL    HW126219   3.733   3.518   4.931 -0.1414  0.3266  0.6362
 4862SOL    HW226220   3.599   3.478   4.935 -0.3671  1.5165  1.9075
 4863SOL     OW26221   2.912   4.531   3.586 -0.1563  0.3946 -0.4084
 4863SOL    HW126222   2.978   4.470   3.619 -1.3927 -1.4944 -1.3927
 4863SOL    HW226223   2.891   4.487   3.503 -0.5353 -1.5299  0.7077
 4864SOL     OW26224   4.095   4.425   4.618  0.5467  0.0784 -0.1680
 4864SOL    HW126225   4.175   4.399   4.572  2.5937  1.1621  2.7991
 4864SOL    HW226226   4.112   4.515   4.645 -0.1609  0.2080 -0.1554
 4865SOL     OW26227   2.086   2.237   8.832  0.5593 -0.0914 -0.3394
 4865SOL    HW126228   2.076   2.332   8.828  0.9725 -0.1180 -2.0416
 4865SOL    HW226229   2.054   2.219   8.920  1.7669 -0.4133  0.0418
 4866SOL     OW26230   3.676   2.465   0.887  0.0620 -0.2129 -0.1238
 4866SOL    HW126231   3.712   2.452   0.975 -1.3263 -0.9118  0.3594
 4866SOL    HW226232   3.667   2.372   0.865  0.8466 -0.1695 -0.6227
 4867SOL     OW26233   0.068   3.486  11.809  0.0954 -0.4639  0.2071
 4867SOL    HW126234   4.736   3.445  11.861 -0.7695  3.2047  1.9441
 4867SOL    HW226235   0.088   3.409  11.756  0.7266  1.8711 -3.0067
 4868SOL     OW26236   2.050   4.387  13.579  0.6055 -0.5170  0.3341
 4868SOL    HW126237   1.987   4.327  13.539 -3.2406  1.7471  2.9177
 4868SOL    HW226238   2.055   4.358  13.670 -2.2242 -0.3817  0.5434
 4869SOL     OW26239   1.958   3.437   9.892 -0.0689 -0.1456  0.2004
 4869SOL    HW126240   1.871   3.408   9.921  0.5971  1.4947  3.8998
 4869SOL    HW226241   2.000   3.486   9.963  3.1026 -0.8584 -1.2022
 4870SOL     OW26242   1.032   1.098   9.779 -0.1430 -0.0328  0.2538
 4870SOL    HW126243   1.112   1.084   9.829 -1.2217 -1.0970  1.6923
 4870SOL    HW226244   0.972   1.029   9.810  1.6833 -1.6633  0.1786
 4871SOL     OW26245   1.745   2.123   7.883 -0.2647  0.1129  0.3026
 4871SOL    HW126246   1.704   2.085   7.961 -0.0360 -1.8499 -0.5486
 4871SOL    HW226247   1.683   2.194   7.864 -1.4046 -1.5267 -2.1413
 4872SOL     OW26248   4.690   2.103  15.380  0.0114  0.5860  0.2581
 4872SOL    HW126249   4.633   2.102  15.457  2.5909 -0.9983  2.1690
 4872SOL    HW226250   4.625   2.061  15.324  0.1862  0.7912 -0.1025
 4873SOL     OW26251   3.130   1.775   6.801 -0.2610  0.3675 -0.3155
 4873SOL    HW126252   3.120   1.870   6.803  2.7588  0.6255  3.1076
 4873SOL    HW226253   3.036   1.756   6.794 -0.2308 -0.3197  1.0091
 4874SOL     OW26254   0.410   0.129   5.677  0.3090  0.2517  0.3320
 4874SOL    HW126255   0.496   0.145   5.638  0.9507 -1.3560  1.0825
 4874SOL    HW226256   0.394   0.034   5.672  2.0881 -0.0515  0.2680
 4875SOL     OW26257   2.989   0.505  13.306  0.4843  0.3740 -0.0005
 4875SOL    HW126258   2.934   0.428  13.290  0.4620  0.8126 -2.0559
 4875SOL    HW226259   2.973   0.515  13.400 -0.3060  2.4558 -0.3600
 4876SOL     OW26260   4.595   2.519   6.414 -0.0922 -0.2567 -0.0047
 4876SOL    HW126261   4.605   2.603   6.371  0.8712 -1.7935 -2.7789
 4876SOL    HW226262   4.631   2.536   6.501  1.3976  0.1752 -0.7159
 4877SOL     OW26263   0.336   4.678  11.485 -0.2907  0.3257 -0.5898
 4877SOL    HW126264   0.263   4.637  11.531 -0.1128  0.7196  0.0327
 4877SOL    HW226265   0.397   4.714  11.549 -0.1080 -0.6549 -0.2098
 4878SOL     OW26266   3.184   3.599  11.325  0.1952 -0.3017 -0.1757
 4878SOL    HW126267   3.250   3.539  11.360 -0.2848  0.0367  1.3121
 4878SOL    HW226268   3.228   3.635  11.249 -0.0237  3.4735  1.5117
 4879SOL     OW26269   4.664   3.710   8.089  0.0967  0.2675 -0.6779
 4879SOL    HW126270   4.621   3.744   8.011 -0.0718 -0.6167 -0.9722
 4879SOL    HW226271   4.706   3.782   8.136 -1.2919  0.0311  0.9234
 4880SOL     OW26272   0.835   2.943   9.275 -0.1749 -0.5173 -0.6300
 4880SOL    HW126273   0.783   3.014   9.311 -1.5857 -0.6565 -2.3606
 4880SOL    HW226274   0.782   2.867   9.298  2.0076 -3.3516 -5.0030
 4881SOL     OW26275   3.496   1.801   0.885 -0.4434  0.0334  0.0634
 4881SOL    HW126276   3.416   1.821   0.933 -1.2520 -0.9065 -0.9089
 4881SOL    HW226277   3.490   1.858   0.808  1.4027 -0.7044 -0.6267
 4882SOL     OW26278   2.182   0.442   6.812  0.1839 -0.1528  0.0834
 4882SOL    HW126279   2.155   0.519   6.762 -1.9168 -0.3710  0.8853
 4882SOL    HW226280   2.127   0.443   6.890 -0.5455  5.3680 -0.5123
 4883SOL     OW26281   1.946   1.562  14.913  0.0442  0.0854 -0.0583
 4883SOL    HW126282   1.947   1.622  14.987 -0.9164  1.4300 -1.1487
 4883SOL    HW226283   1.969   1.623  14.843 -1.1151  0.8682  0.2542
 4884SOL     OW26284   0.396   3.000  13.692 -0.1741 -0.1833  0.9593
 4884SOL    HW126285   0.349   3.004  13.609  0.8239 -2.1537  0.3122
 4884SOL    HW226286   0.439   2.914  13.685 -2.0182 -1.1460  1.5186
 4885SOL     OW26287   0.703   0.189   6.252 -0.8792  0.2464  0.4346
 4885SOL    HW126288   0.673   0.235   6.330 -0.5696  1.1956 -0.0054
 4885SOL    HW226289   0.636   0.121   6.251 -1.9427  1.3353 -1.4025
 4886SOL     OW26290   0.655   3.705  15.800  0.1461  0.1822 -0.0603
 4886SOL    HW126291   0.677   3.701  15.894 -2.0126 -3.3430  0.2714
 4886SOL    HW226292   0.579   3.648  15.795 -1.2315  1.7689  2.5166
 4887SOL     OW26293   3.183   0.903   1.219  0.1592  0.4683 -0.1930
 4887SOL    HW126294   3.278   0.892   1.222  0.5388  3.7711 -0.1313
 4887SOL    HW226295   3.165   0.880   1.128  2.6090 -0.2976 -0.4601
 4888SOL     OW26296   1.084   1.903  16.805 -0.0068 -0.3124  0.5830
 4888SOL    HW126297   0.998   1.939  16.784  0.3808 -0.1422 -0.7311
 4888SOL    HW226298   1.069   1.874  16.895 -2.0217 -2.0153 -0.3040
 4889SOL     OW26299   2.300   3.684   2.155  0.3714 -0.3967  0.4340
 4889SOL    HW126300   2.279   3.741   2.081 -1.3634  0.4332  1.5598
 4889SOL    HW226301   2.316   3.604   2.104 -1.4676  0.3508 -1.3248
 4890SOL     OW26302   1.982   4.533   0.838 -0.8116  0.7795 -0.4327
 4890SOL    HW126303   1.910   4.535   0.901 -3.1686 -3.1468 -2.9719
 4890SOL    HW226304   1.950   4.598   0.776  0.6808  1.1339 -0.8194
 4891SOL     OW26305   2.871   3.595   8.731  0.9894 -0.0455  0.3147
 4891SOL    HW126306   2.818   3.578   8.653  0.8321  2.4180 -0.1106
 4891SOL    HW226307   2.840   3.678   8.768 -1.3412 -1.8236  2.3569
 4892SOL     OW26308   2.011   1.911   9.868  1.2719  0.1714 -0.2490
 4892SOL    HW126309   1.961   1.853   9.925  1.9676  0.9322  1.1319
 4892SOL    HW226310   2.085   1.928   9.926  0.7040 -2.7274  1.3257
 4893SOL     OW26311   3.537   2.621   5.022  0.0250  0.2000  0.5059
 4893SOL    HW126312   3.616   2.628   5.075  0.1218 -0.3041  0.4236
 4893SOL    HW226313   3.573   2.635   4.934 -0.4717 -1.0742  0.0980
 4894SOL     OW26314   2.398   3.473   2.025 -0.4014  0.3886  0.5977
 4894SOL    HW126315   2.447   3.481   1.944  1.9891 -1.7072  1.8414
 4894SOL    HW226316   2.468   3.457   2.088 -0.5287 -1.6825  0.2185
 4895SOL     OW26317   4.085   0.392   5.764 -0.4435 -0.3108  0.1545
 4895SOL    HW126318   4.074   0.476   5.719  0.9857 -1.9451 -3.2348
 4895SOL    HW226319   4.046   0.404   5.851  0.2649 -0.9005  0.5614
 4896SOL     OW26320   0.558   4.689   6.211 -0.1355  0.1343 -0.2935
 4896SOL    HW126321   0.479   4.708   6.261  0.7769 -0.3328  1.3274
 4896SOL    HW226322   0.518   4.657   6.130  1.5796 -0.9034 -0.7519
 4897SOL     OW26323   1.007   1.426   1.239 -0.3624  0.9405  0.1525
 4897SOL    HW126324   0.957   1.351   1.208  0.6289  0.3278  0.0310
 4897SOL    HW226325   1.069   1.395   1.306 -1.5912 -0.3414  0.6919
 4898SOL     OW26326   2.159   0.845   7.051 -0.4550  0.3029 -0.3431
 4898SOL    HW126327   2.223   0.775   7.064 -1.8326 -0.7698  0.6462
 4898SOL    HW226328   2.077   0.797   7.042 -1.1566  1.3912  0.1151
 4899SOL     OW26329   4.614   3.488   1.900  0.2536  0.1705  0.4837
 4899SOL    HW126330   4.657   3.430   1.963 -0.6191 -0.9894  0.0233
 4899SOL    HW226331   4.575   3.557   1.952 -0.9506 -0.6127  0.6231
 4900SOL     OW26332   2.033   2.595  15.725 -0.4360  0.3659  0.0752
 4900SOL    HW126333   2.057   2.682  15.756 -0.6175 -0.0537  1.3608
 4900SOL    HW226334   2.065   2.545  15.800 -2.0796  1.1397  1.2942
 4901SOL     OW26335   1.708   3.108   4.722  0.2324  0.8031 -0.0961
 4901SOL    HW126336   1.720   3.201   4.741 -2.1193  0.9305  0.8166
 4901SOL    HW226337   1.782   3.071   4.769  1.7765  3.0847 -0.7408
 4902SOL     OW26338   4.677   3.940   6.932 -0.6544  0.5921 -0.1603
 4902SOL    HW126339   0.010   4.004   6.920  0.9375 -0.8413  1.3808
 4902SOL    HW226340   4.665   3.903   6.845  0.2555  1.3820 -0.6237
 4903SOL     OW26341   1.152   2.563  16.763  0.3082  0.5250 -0.8012
 4903SOL    HW126342   1.217   2.550  16.831  0.0509  1.8311 -0.2924
 4903SOL    HW226343   1.066   2.561  16.806  1.5220  1.1145  1.6635
 4904SOL     OW26344   2.934   0.330  14.702  0.0239  0.2029  0.2140
 4904SOL    HW126345   2.975   0.415  14.720  3.4465 -1.5309  0.4901
 4904SOL    HW226346   2.860   0.352  14.645 -0.7040  0.7261  1.3562
 4905SOL     OW26347   2.981   2.709   8.029  0.3828  0.0317  0.5043
 4905SOL    HW126348   3.061   2.707   8.081  0.4115  0.2681  0.4706
 4905SOL    HW226349   3.010   2.640   7.970  0.6735 -0.0301  0.7187
 4906SOL     OW26350   0.514   4.047   8.663  0.2983  0.0127  0.0914
 4906SOL    HW126351   0.426   4.079   8.646  0.4922 -0.9345 -2.7049
 4906SOL    HW226352   0.502   3.962   8.620 -1.3947  0.4670 -0.3357
 4907SOL     OW26353   3.604   2.094   5.574  0.1406  0.1248  0.0737
 4907SOL    HW126354   3.595   2.186   5.552 -0.8134  0.2726  1.1128
 4907SOL    HW226355   3.533   2.049   5.527  1.5421  0.0824 -2.0090
 4908SOL     OW26356   4.100   1.557   7.985 -0.0403 -0.6046  0.1387
 4908SOL    HW126357   4.191   1.527   7.987 -0.1806 -1.0912 -0.7348
 4908SOL    HW226358   4.048   1.478   8.002  1.5827 -1.7922 -0.3625
 4909SOL     OW26359   3.826   1.564   3.294  0.4536 -0.9474 -0.9397
 4909SOL    HW126360   3.889   1.623   3.335 -0.8369 -0.4859  0.4002
 4909SOL    HW226361   3.782   1.629   3.239 -0.8023 -0.4202  0.6857
 4910SOL     OW26362   0.496   2.939  12.441 -0.0621  0.5645  0.4519
 4910SOL    HW126363   0.435   2.992  12.391  0.2665 -1.0093 -1.5991
 4910SOL    HW226364   0.459   2.952  12.529 -0.1899  1.0918  0.3186
 4911SOL     OW26365   4.535   2.098   6.641 -0.4434 -0.2176 -0.2374
 4911SOL    HW126366   4.483   2.163   6.593 -1.0841  1.2779  2.4842
 4911SOL    HW226367   4.612   2.097   6.584 -0.0038  0.9035  0.3462
 4912SOL     OW26368   2.389   4.503   0.277  0.2626 -0.0067  0.1808
 4912SOL    HW126369   2.308   4.458   0.299 -0.3427  0.3653 -1.2828
 4912SOL    HW226370   2.451   4.452   0.226  0.2897  0.4990 -0.2965
 4913SOL     OW26371   1.584   0.129   8.549 -0.2250  0.4608 -0.4938
 4913SOL    HW126372   1.516   0.065   8.567 -0.7549  0.9102 -0.8808
 4913SOL    HW226373   1.640   0.080   8.489  1.0990 -1.5233  2.4227
 4914SOL     OW26374   2.791   3.939   0.641 -0.1457 -0.4050  0.0647
 4914SOL    HW126375   2.714   3.987   0.672 -1.8566 -1.5898 -2.3570
 4914SOL    HW226376   2.763   3.917   0.552 -1.3482  3.1423 -0.4384
 4915SOL     OW26377   1.680   1.444   4.325 -0.1501 -0.4540  0.1731
 4915SOL    HW126378   1.695   1.349   4.334 -0.1496 -0.5475 -0.8365
 4915SOL    HW226379   1.655   1.461   4.416  1.1046  0.6293  0.3114
 4916SOL     OW26380   1.216   3.089  13.709  0.5737 -0.6735  0.3022
 4916SOL    HW126381   1.309   3.065  13.703  0.8254  0.5506 -0.6113
 4916SOL    HW226382   1.210   3.168  13.655  2.6014 -0.1497  0.8329
 4917SOL     OW26383   4.447   4.675   4.815 -0.3234 -0.7147 -0.1940
 4917SOL    HW126384   4.477   0.004   4.878 -0.4981 -0.8998  0.0877
 4917SOL    HW226385   4.475   4.596   4.861  1.6692  0.2392  0.2373
 4918SOL     OW26386   3.068   4.555   7.523  0.0230  0.2122 -0.6575
 4918SOL    HW126387   3.127   4.631   7.517  0.1479  0.2115  0.5328
 4918SOL    HW226388   3.109   4.512   7.598 -4.0603 -0.8178  0.9877
 4919SOL     OW26389   2.969   1.150   8.610 -0.0983  0.2540 -0.3390
 4919SOL    HW126390   2.961   1.084   8.679 -0.2655  0.9802  0.3342
 4919SOL    HW226391   2.880   1.185   8.612 -0.1587  0.0250  0.9873
 4920SOL     OW26392   2.854   1.895   3.541 -0.4482  0.3142  0.1210
 4920SOL    HW126393   2.846   1.800   3.553 -0.7545  0.3538  0.2139
 4920SOL    HW226394   2.950   1.905   3.542 -0.2682 -1.1420 -3.1577
 4921SOL     OW26395   4.303   1.798   7.701  0.2471 -0.8509 -0.8976
 4921SOL    HW126396   4.397   1.806   7.716  0.3509  0.1310 -2.0835
 4921SOL    HW226397   4.274   1.834   7.785  1.7298  1.2840 -1.3085
 4922SOL     OW26398   4.287   2.229  14.866 -0.6021  0.6975  0.4302
 4922SOL    HW126399   4.329   2.194  14.787 -1.4218  3.1482 -1.0628
 4922SOL    HW226400   4.275   2.323  14.857  1.8680  0.9825  0.1289
 4923SOL     OW26401   1.340   0.594   4.382 -0.1248  0.1835  0.0957
 4923SOL    HW126402   1.379   0.603   4.295 -0.1243 -2.2548 -0.1448
 4923SOL    HW226403   1.246   0.581   4.369 -0.0583 -0.8435  0.6433
 4924SOL     OW26404   1.749   0.574   3.245 -0.2479  0.1998 -0.8551
 4924SOL    HW126405   1.745   0.510   3.174 -0.7920  1.6178 -2.1166
 4924SOL    HW226406   1.841   0.559   3.265 -0.0127  1.2331 -1.1518
 4925SOL     OW26407   3.858   2.087   3.956 -0.3443  0.0107  0.6335
 4925SOL    HW126408   3.780   2.137   3.932 -1.6973 -3.1433 -1.5290
 4925SOL    HW226409   3.855   2.092   4.051 -0.5527  3.8304  0.4286
 4926SOL     OW26410   3.812   4.679  17.657 -0.0517  0.6308 -0.2510
 4926SOL    HW126411   3.755   4.631  17.597  1.4097 -0.0495 -1.0895
 4926SOL    HW226412   3.903   4.671  17.628 -0.4897 -1.2057 -1.1420
 4927SOL     OW26413   2.153   1.656   4.984  0.5464  0.0742 -0.0244
 4927SOL    HW126414   2.130   1.651   4.891  0.0214  0.1439  0.1025
 4927SOL    HW226415   2.112   1.576   5.016  1.7332 -0.2342  0.7442
 4928SOL     OW26416   0.667   2.592   2.318 -0.0728 -0.5123  0.3750
 4928SOL    HW126417   0.701   2.530   2.382  0.8279  0.4674  0.8512
 4928SOL    HW226418   0.743   2.622   2.268 -1.0176  0.2943 -0.5832
 4929SOL     OW26419   1.944   3.145   1.368  0.0073  0.2337 -0.3063
 4929SOL    HW126420   1.863   3.161   1.417 -0.7479  1.2194 -1.8518
 4929SOL    HW226421   1.914   3.120   1.281  1.1018 -0.9727 -0.3274
 4930SOL     OW26422   1.127   0.564   7.069 -0.1569  0.7276  0.2770
 4930SOL    HW126423   1.077   0.512   7.132  0.1509  1.4565  1.1213
 4930SOL    HW226424   1.125   0.642   7.125  3.6722  0.8177  0.2617
 4931SOL     OW26425   0.364   2.251   7.377  0.0883 -0.3149  0.3484
 4931SOL    HW126426   0.321   2.331   7.407 -2.2105 -0.7703 -1.7562
 4931SOL    HW226427   0.458   2.271   7.371 -0.1369 -0.0035 -1.9906
 4932SOL     OW26428   0.483   4.025  14.909 -0.1915 -0.3156  0.2620
 4932SOL    HW126429   0.420   4.095  14.893 -1.7356 -1.8621 -0.4462
 4932SOL    HW226430   0.483   3.977  14.826  0.8667 -2.0416  1.2569
 4933SOL     OW26431   2.245   3.912   8.607 -0.7106 -0.2611 -0.1290
 4933SOL    HW126432   2.204   3.845   8.661  1.1609 -1.2448  0.0749
 4933SOL    HW226433   2.321   3.926   8.663  0.0338 -0.7211 -1.0215
 4934SOL     OW26434   1.201   3.563   2.151  0.3878 -0.1903 -0.3386
 4934SOL    HW126435   1.119   3.611   2.142  1.4964  1.5879 -0.9854
 4934SOL    HW226436   1.178   3.492   2.211 -1.1103  2.3736  2.1268
 4935SOL     OW26437   2.850   0.507  16.283  0.3818  0.3050  0.0230
 4935SOL    HW126438   2.850   0.548  16.369 -3.6857  3.4376 -1.4561
 4935SOL    HW226439   2.760   0.473  16.278  0.9510 -1.0841 -0.9439
 4936SOL     OW26440   2.978   2.785   9.082 -0.4217  0.4459 -0.9026
 4936SOL    HW126441   3.010   2.721   9.145 -1.6290  1.3630  0.6422
 4936SOL    HW226442   3.027   2.862   9.110 -0.1960  0.2098 -0.6468
 4937SOL     OW26443   1.031   2.085   7.784  0.0303  0.1139  0.0113
 4937SOL    HW126444   1.031   2.171   7.742  0.3417 -0.5521 -1.3429
 4937SOL    HW226445   0.943   2.051   7.771  0.6133 -1.5967  0.4524
 4938SOL     OW26446   3.003   2.300   8.629  0.4556 -0.2008 -0.1185
 4938SOL    HW126447   2.916   2.314   8.592  0.6995  0.3134 -0.5152
 4938SOL    HW226448   3.058   2.255   8.564 -1.7659 -3.3615  0.2140
 4939SOL     OW26449   0.666   1.369   8.394 -0.0035  0.0842 -0.2770
 4939SOL    HW126450   0.741   1.363   8.454 -1.7716  2.4356  2.1559
 4939SOL    HW226451   0.664   1.292   8.337  0.7125  0.3410 -0.6407
 4940SOL     OW26452   0.563   3.339   1.693  0.5212 -0.1050 -0.5859
 4940SOL    HW126453   0.550   3.391   1.773 -1.4344 -0.0735 -0.9284
 4940SOL    HW226454   0.651   3.367   1.667  1.0313  0.7684  2.0657
 4941SOL     OW26455   0.253   2.032   7.736  0.1966 -0.5717  0.6244
 4941SOL    HW126456   0.166   2.043   7.697  0.8034 -0.0522 -0.5741
 4941SOL    HW226457   0.281   2.122   7.748  0.4587 -0.5054 -0.4771
 4942SOL     OW26458   1.574   1.906  16.145  0.1488  0.1168  0.7933
 4942SOL    HW126459   1.532   1.823  16.123  1.9178 -0.4312 -0.5814
 4942SOL    HW226460   1.665   1.876  16.148  0.7341  1.7200 -1.2443
 4943SOL     OW26461   0.414   4.437   8.140 -0.4464  0.4723  0.3603
 4943SOL    HW126462   0.325   4.435   8.104  0.7974 -0.1110 -2.7514
 4943SOL    HW226463   0.442   4.528   8.126 -0.6488  0.0878 -2.6529
 4944SOL     OW26464   0.770   3.595   6.957  0.2593 -0.2582  0.2662
 4944SOL    HW126465   0.783   3.543   6.877  0.7891  1.3140 -0.6748
 4944SOL    HW226466   0.822   3.550   7.024  0.4488 -0.3814  0.0390
 4945SOL     OW26467   3.116   3.542  15.271  0.1103 -0.1357 -0.2819
 4945SOL    HW126468   3.042   3.481  15.263 -1.2501  1.4508  0.2525
 4945SOL    HW226469   3.189   3.480  15.261 -0.4310 -0.6526 -1.0214
 4946SOL     OW26470   3.160   2.632   1.557 -0.0776 -0.8429  0.1047
 4946SOL    HW126471   3.164   2.623   1.652  1.6609 -0.2769  0.0801
 4946SOL    HW226472   3.206   2.553   1.530 -0.2361 -1.1937  0.8660
 4947SOL     OW26473   2.781   3.425  17.605 -0.5099 -0.3863  0.2301
 4947SOL    HW126474   2.840   3.355  17.576  1.2379  0.9844  0.5160
 4947SOL    HW226475   2.717   3.385  17.665 -1.4734  1.3759  0.3534
 4948SOL     OW26476   3.180   4.127  17.431  0.2884  0.2779 -0.1280
 4948SOL    HW126477   3.130   4.196  17.388  0.3070  1.0393  1.0854
 4948SOL    HW226478   3.262   4.175  17.447  0.1260  0.5725 -0.1914
 4949SOL     OW26479   1.170   2.846   2.876  0.0908  0.7779  0.4331
 4949SOL    HW126480   1.121   2.775   2.918  0.5558  0.6331  0.7456
 4949SOL    HW226481   1.115   2.872   2.803 -0.8555  0.2986  0.9856
 4950SOL     OW26482   2.106   0.460   6.240  0.4907  0.1958  0.0106
 4950SOL    HW126483   2.190   0.415   6.234 -0.5525 -1.6340 -0.6458
 4950SOL    HW226484   2.047   0.385   6.244 -1.9366  2.1097  0.8184
 4951SOL     OW26485   0.873   0.097  10.020  0.3325  0.0184 -1.0387
 4951SOL    HW126486   0.783   0.094  10.053  1.4824  0.7347  2.1611
 4951SOL    HW226487   0.867   0.033   9.949 -1.6382 -0.8150 -0.1250
 4952SOL     OW26488   0.104   2.137   5.136 -0.4837  0.7323 -0.6036
 4952SOL    HW126489   0.187   2.182   5.121  0.7435 -0.6528  2.0646
 4952SOL    HW226490   0.052   2.192   5.195  0.2095  1.2332 -0.4632
 4953SOL     OW26491   0.186   0.284  14.786 -0.0659  0.2034  0.1212
 4953SOL    HW126492   0.206   0.204  14.836 -0.7961  0.6291  1.1091
 4953SOL    HW226493   0.260   0.290  14.726 -0.8727 -1.6979 -1.0797
 4954SOL     OW26494   0.195   1.701  15.060 -0.4757  0.1285  0.5684
 4954SOL    HW126495   0.289   1.703  15.075 -0.2579  3.0809 -1.1244
 4954SOL    HW226496   0.169   1.634  15.124  1.4146 -3.2539 -2.1615
 4955SOL     OW26497   2.796   4.624   6.205  0.2328  0.1079  0.2522
 4955SOL    HW126498   2.867   4.629   6.141  0.3319  1.0862  0.4261
 4955SOL    HW226499   2.843   4.651   6.285 -1.9809 -1.2541  2.0040
 4956SOL     OW26500   0.421   0.286  14.663 -0.1348 -0.6489  0.2516
 4956SOL    HW126501   0.490   0.290  14.729 -0.8463  0.2255  0.9238
 4956SOL    HW226502   0.439   0.359  14.603  1.5274 -1.1951  0.0734
 4957SOL     OW26503   0.980   2.346  12.830  0.0530 -0.5100 -0.0630
 4957SOL    HW126504   1.065   2.322  12.793 -0.8800 -1.7352 -1.4212
 4957SOL    HW226505   0.935   2.272  12.790 -0.1730 -0.6406  0.4378
 4958SOL     OW26506   1.105   1.562   7.161  0.0155  0.2007 -0.0568
 4958SOL    HW126507   1.138   1.523   7.242 -0.5447 -1.9801 -0.8752
 4958SOL    HW226508   1.147   1.501   7.100 -1.6455  1.7165 -2.7042
 4959SOL     OW26509   0.454   0.589  16.341 -0.4488 -0.0966  0.1909
 4959SOL    HW126510   0.454   0.496  16.318  1.4035 -0.4205  1.6049
 4959SOL    HW226511   0.443   0.624  16.252  2.9327  2.5317  0.8503
 4960SOL     OW26512   2.652   3.099   4.474 -0.0363  0.4852  0.5060
 4960SOL    HW126513   2.736   3.114   4.517  0.7400  0.4928 -1.0231
 4960SOL    HW226514   2.648   3.005   4.458 -1.4703  0.5152  0.6893
 4961SOL     OW26515   1.222   1.859   8.363  0.0035 -0.7079 -0.3052
 4961SOL    HW126516   1.317   1.859   8.376 -0.0530 -0.5777  0.1034
 4961SOL    HW226517   1.204   1.883   8.454  0.0778 -1.1577 -0.1709
 4962SOL     OW26518   1.745   4.492   1.062  0.4199 -0.3362 -0.4994
 4962SOL    HW126519   1.656   4.526   1.064  0.3935 -0.6582  3.4178
 4962SOL    HW226520   1.757   4.457   1.150 -0.6582 -1.9256 -0.9852
 4963SOL     OW26521   1.934   1.966   4.348  0.3976 -0.0120 -0.1548
 4963SOL    HW126522   1.869   1.911   4.303 -2.1420  0.9765  2.2925
 4963SOL    HW226523   1.952   1.920   4.430  0.2713 -0.3040 -0.2910
 4964SOL     OW26524   1.973   4.583   1.557  0.1913  0.4314 -0.3360
 4964SOL    HW126525   2.062   4.558   1.532  0.5481  1.4093 -0.0247
 4964SOL    HW226526   1.973   4.670   1.517  1.2899  0.0299 -1.2343
 4965SOL     OW26527   0.284   3.634   6.013 -0.0240  0.2674 -0.4106
 4965SOL    HW126528   0.364   3.586   6.032 -0.5988 -0.5037  0.0839
 4965SOL    HW226529   0.314   3.725   6.011  0.4541  0.1381  1.6445
 4966SOL     OW26530   3.120   4.516   2.995 -0.1519 -0.7100  0.7909
 4966SOL    HW126531   3.152   4.429   2.971 -0.1155 -0.0301 -1.6888
 4966SOL    HW226532   3.041   4.527   2.941  1.4043  0.8267 -1.1744
 4967SOL     OW26533   2.285   0.926   8.440  0.1462  0.5359  0.3983
 4967SOL    HW126534   2.249   0.842   8.413 -2.5656  2.2106 -1.1825
 4967SOL    HW226535   2.222   0.992   8.412  0.2757  0.2033 -0.7009
 4968SOL     OW26536   0.883   4.120  10.149  0.4609  0.1299 -0.4045
 4968SOL    HW126537   0.877   4.027  10.126 -0.4813 -0.0058  0.3855
 4968SOL    HW226538   0.823   4.119  10.224  0.9827 -1.4875 -0.0174
 4969SOL     OW26539   0.916   1.518   0.164  0.0138  0.4895  0.2215
 4969SOL    HW126540   0.944   1.609   0.177  1.1166  0.5490 -2.6639
 4969SOL    HW226541   0.822   1.531   0.148 -0.4485 -0.8294  1.9197
 4970SOL     OW26542   3.015   3.336   8.957  0.0668  0.1847  0.1194
 4970SOL    HW126543   2.934   3.356   9.003 -0.4643 -0.8528 -0.3839
 4970SOL    HW226544   3.046   3.256   8.999 -0.9759 -0.3607 -0.1472
 4971SOL     OW26545   2.474   2.516   3.467  0.7482 -0.5959 -0.0466
 4971SOL    HW126546   2.522   2.550   3.392 -0.4157  0.2916 -0.3853
 4971SOL    HW226547   2.385   2.551   3.469  0.9195 -0.2973  3.2901
 4972SOL     OW26548   3.289   3.693  10.712 -0.1146 -0.6587  0.4649
 4972SOL    HW126549   3.312   3.777  10.752  2.7177 -0.5813 -1.2506
 4972SOL    HW226550   3.343   3.630  10.759  0.9078 -0.0581  0.1023
 4973SOL     OW26551   3.887   0.511   2.404  0.1702 -0.2817 -0.2419
 4973SOL    HW126552   3.891   0.562   2.485  3.2721  0.5541 -0.9234
 4973SOL    HW226553   3.973   0.508   2.364  0.1809 -0.8353 -0.1841
 4974SOL     OW26554   0.916   1.314   5.572 -0.5598 -0.5719 -0.2546
 4974SOL    HW126555   1.000   1.360   5.573  0.2871 -2.0267 -2.7810
 4974SOL    HW226556   0.914   1.273   5.485 -1.3527 -0.3837 -0.3305
 4975SOL     OW26557   1.187   4.044   4.465  0.1889 -0.8789 -0.2264
 4975SOL    HW126558   1.278   4.047   4.496 -0.5519  0.6356  1.7896
 4975SOL    HW226559   1.194   4.024   4.371 -0.8420 -0.8233 -0.3168
 4976SOL     OW26560   1.075   1.976   9.838 -0.0987  0.1165 -0.3600
 4976SOL    HW126561   1.039   1.949   9.922  0.6045  0.2065 -0.0265
 4976SOL    HW226562   1.163   1.999   9.870  0.4597 -0.5076 -1.4590
 4977SOL     OW26563   2.544   0.509   0.221 -0.0359 -0.3248  0.0866
 4977SOL    HW126564   2.496   0.565   0.282 -1.5558 -1.5907  0.0473
 4977SOL    HW226565   2.623   0.492   0.271 -0.2118 -1.4270 -0.0111
 4978SOL     OW26566   0.247   4.293   8.426 -0.1247 -0.4032 -0.8496
 4978SOL    HW126567   0.259   4.198   8.425 -1.0529 -0.5068 -2.2148
 4978SOL    HW226568   0.247   4.309   8.520  2.3765  1.9362 -1.2381
 4979SOL     OW26569   1.545   0.520   1.908  0.1982 -0.1034  0.2354
 4979SOL    HW126570   1.610   0.591   1.912  1.8192 -1.5887 -0.1232
 4979SOL    HW226571   1.595   0.444   1.936  0.2321  0.4011  1.5472
 4980SOL     OW26572   4.174   1.061  11.705  0.8567  0.6384  0.2542
 4980SOL    HW126573   4.164   1.135  11.646  0.5212  0.4165  0.0329
 4980SOL    HW226574   4.220   1.105  11.776  1.0477  2.8403 -1.2569
 4981SOL     OW26575   0.604   3.822  11.090  0.3657  0.1757  0.1140
 4981SOL    HW126576   0.684   3.783  11.124  0.8478 -0.0834 -1.2996
 4981SOL    HW226577   0.645   3.889  11.036  2.3869 -0.0894  1.3192
 4982SOL     OW26578   2.860   0.168  17.056  0.2809  0.3414  0.8133
 4982SOL    HW126579   2.843   0.076  17.079 -2.4093  0.4649 -0.6511
 4982SOL    HW226580   2.866   0.163  16.961 -1.2369 -0.7522  0.7688
 4983SOL     OW26581   4.411   1.984  14.090  0.1075  0.1034  0.0240
 4983SOL    HW126582   4.481   1.995  14.026  0.4258 -0.7544  0.2364
 4983SOL    HW226583   4.344   1.934  14.044  1.1947 -2.4133  1.2032
 4984SOL     OW26584   3.026   0.568   5.694 -0.3302 -0.5672 -0.6882
 4984SOL    HW126585   3.069   0.484   5.712  0.3556  0.5277  2.7955
 4984SOL    HW226586   3.075   0.600   5.619 -0.2029 -0.9342 -0.7598
 4985SOL     OW26587   4.693   1.838   3.585  0.6521 -0.4476  0.5412
 4985SOL    HW126588   4.623   1.892   3.549  0.1701 -0.5208  1.3522
 4985SOL    HW226589   4.719   1.893   3.658 -0.4130  1.0152 -0.1773
 4986SOL     OW26590   0.420   1.324   5.522  0.4175  0.4042  0.3075
 4986SOL    HW126591   0.328   1.349   5.532 -0.0367 -0.8724 -0.6960
 4986SOL    HW226592   0.454   1.391   5.463 -0.9805 -0.3100 -1.3268
 4987SOL     OW26593   4.302   1.810  17.438 -0.2879 -0.4419  0.2178
 4987SOL    HW126594   4.377   1.761  17.472 -1.0203 -1.5009  0.3324
 4987SOL    HW226595   4.316   1.806  17.344 -1.6042 -0.7465  0.0390
 4988SOL     OW26596   0.095   2.604   9.127 -0.1682  0.1828  0.4749
 4988SOL    HW126597   0.062   2.545   9.195  0.7468  1.7522  2.2764
 4988SOL    HW226598   0.016   2.637   9.084 -0.6421 -0.1963  1.0650
 4989SOL     OW26599   1.837   2.354   6.727 -0.1588 -0.5089  0.4249
 4989SOL    HW126600   1.849   2.335   6.634 -3.0242 -0.9806  0.1399
 4989SOL    HW226601   1.823   2.449   6.723 -1.2131 -0.6334  1.2178
 4990SOL     OW26602   0.189   3.774   6.645  0.5879 -0.1992  0.2087
 4990SOL    HW126603   0.116   3.750   6.703 -0.4323  0.4094 -0.8305
 4990SOL    HW226604   0.190   3.868   6.663 -1.1196  0.2462 -2.0851
 4991SOL     OW26605   1.359   3.754  15.605  0.2348  0.4368  0.0827
 4991SOL    HW126606   1.440   3.706  15.621 -0.4845 -0.7229  0.2375
 4991SOL    HW226607   1.288   3.691  15.613  0.6345 -0.1294 -0.7477
 4992SOL     OW26608   0.430   1.593   4.309 -0.1417  0.1303 -0.0015
 4992SOL    HW126609   0.490   1.526   4.277  1.1593  0.5223  1.5628
 4992SOL    HW226610   0.356   1.539   4.335  2.0190 -1.1983  3.4971
 4993SOL     OW26611   2.763   4.693   2.101  0.1714  0.2079 -0.2073
 4993SOL    HW126612   2.833   0.021   2.101 -0.4048  0.8256  0.4452
 4993SOL    HW226613   2.772   4.655   2.013  0.9867 -0.4577  0.1757
 4994SOL     OW26614   4.587   1.105   6.077  0.0134 -0.3506 -0.2526
 4994SOL    HW126615   4.580   1.090   6.171 -4.2221  3.2386  0.0544
 4994SOL    HW226616   4.678   1.083   6.057  0.2958 -1.7697  2.6159
 4995SOL     OW26617   4.273   3.564   4.440  0.6352  0.2097  0.3024
 4995SOL    HW126618   4.281   3.640   4.383  1.4648  0.0345  0.1790
 4995SOL    HW226619   4.269   3.495   4.373 -1.1181  1.2475 -0.6542
 4996SOL     OW26620   1.129   1.348   6.847  0.1614  0.3492  0.5574
 4996SOL    HW126621   1.168   1.260   6.855 -0.1507  0.3519  2.0130
 4996SOL    HW226622   1.206   1.403   6.834  0.0144  0.5556  0.5595
 4997SOL     OW26623   1.991   2.277   5.315  0.2723  0.1148  0.3482
 4997SOL    HW126624   1.973   2.224   5.393  0.3024  1.0501  0.9971
 4997SOL    HW226625   1.940   2.230   5.249  0.0454  0.9983 -0.1075
 4998SOL     OW26626   1.202   0.750   8.974 -0.3424 -0.1655 -0.1287
 4998SOL    HW126627   1.151   0.797   9.041  0.1745 -0.5223  0.5122
 4998SOL    HW226628   1.231   0.827   8.925  0.7339  0.2061  1.0738
 4999SOL     OW26629   2.293   2.446   4.962 -0.0429  0.3777 -0.0435
 4999SOL    HW126630   2.372   2.397   4.941 -0.0223 -0.7965  2.7609
 4999SOL    HW226631   2.252   2.392   5.030  0.7760 -0.1443  0.0357
 5000SOL     OW26632   2.251   1.894   3.001 -0.2050 -0.6233  0.1229
 5000SOL    HW126633   2.321   1.871   3.063 -0.5697  0.2529  0.8654
 5000SOL    HW226634   2.185   1.906   3.069  0.9548 -2.0019  1.5040
 5001SOL     OW26635   2.255   1.044   8.992  0.8276  0.0357 -0.1968
 5001SOL    HW126636   2.161   1.063   8.993  1.1747  1.4940  4.0371
 5001SOL    HW226637   2.277   1.034   8.899  2.2278 -2.2347  0.3685
 5002SOL     OW26638   4.352   0.107   8.051  0.1317 -0.4744 -0.3867
 5002SOL    HW126639   4.336   0.097   7.957 -1.6538  1.3996 -0.2842
 5002SOL    HW226640   4.435   0.154   8.044  0.7404 -1.5334 -0.3393
 5003SOL     OW26641   3.755   3.454   6.565  0.3647  0.1054 -0.1646
 5003SOL    HW126642   3.735   3.496   6.481 -2.0559  0.2959  0.5159
 5003SOL    HW226643   3.741   3.530   6.622  0.5492 -0.2429  0.3441
 5004SOL     OW26644   0.279   2.855  15.848  0.0290 -0.3063  0.4416
 5004SOL    HW126645   0.245   2.873  15.760 -1.6701  0.3229  1.2357
 5004SOL    HW226646   0.278   2.759  15.853  1.4586 -0.3578 -0.2166
 5005SOL     OW26647   0.036   3.876   7.433  0.1745 -0.3694  0.0171
 5005SOL    HW126648   0.015   3.890   7.340  1.8310  2.0108 -0.0066
 5005SOL    HW226649   4.715   3.937   7.478  0.3728  1.0100 -1.5590
 5006SOL     OW26650   0.331   4.231  14.812 -0.4207  0.0693  0.4493
 5006SOL    HW126651   0.283   4.311  14.790 -1.6891 -1.0248 -0.7704
 5006SOL    HW226652   0.399   4.229  14.746 -2.3458 -1.3249 -1.5050
 5007SOL     OW26653   1.426   0.997   3.844  0.3677 -0.0194 -0.3979
 5007SOL    HW126654   1.413   0.982   3.751  0.1915  0.1832 -0.4040
 5007SOL    HW226655   1.375   0.928   3.886 -0.6481  0.4580 -0.8681
 5008SOL     OW26656   4.074   0.226  14.310  0.1257  0.1705  0.0885
 5008SOL    HW126657   4.045   0.255  14.224  0.6465  0.1757 -0.0804
 5008SOL    HW226658   4.057   0.132  14.303 -2.1407  0.5829 -0.0569
 5009SOL     OW26659   2.657   2.060   8.243  0.4167 -0.1391 -0.4612
 5009SOL    HW126660   2.700   1.988   8.196  1.8204  0.4444 -0.0601
 5009SOL    HW226661   2.715   2.132   8.219 -0.6144  0.3630 -1.4070
 5010SOL     OW26662   4.331   4.070   7.355  0.1722 -0.2172  0.2576
 5010SOL    HW126663   4.350   4.147   7.302 -2.0373  0.7889  0.9360
 5010SOL    HW226664   4.238   4.052   7.338 -0.4120  0.4848  2.7205
 5011SOL     OW26665   4.129   1.271  12.195  0.3489  0.7224 -0.2685
 5011SOL    HW126666   4.203   1.293  12.251 -1.4754 -0.1657  2.4949
 5011SOL    HW226667   4.069   1.236  12.261 -0.0931 -0.8450 -1.5024
 5012SOL     OW26668   3.911   4.497   5.785 -0.3233 -0.1648 -0.3525
 5012SOL    HW126669   4.005   4.479   5.795 -0.3405 -0.9261 -1.5625
 5012SOL    HW226670   3.878   4.420   5.739 -0.4311  0.6019 -1.5641
 5013SOL     OW26671   3.733   2.316   6.915  0.1120 -0.2771  0.5081
 5013SOL    HW126672   3.745   2.407   6.886  0.3511  0.3801  2.6634
 5013SOL    HW226673   3.738   2.322   7.010  0.9640 -0.1996  0.4540
 5014SOL     OW26674   1.006   1.569  14.436 -0.3648 -0.2486  0.4061
 5014SOL    HW126675   1.087   1.573  14.385  0.5639 -0.7955  1.8310
 5014SOL    HW226676   0.980   1.657  14.463  0.5034  0.1517 -0.0282
 5015SOL     OW26677   3.001   4.099   4.727  0.3033  0.0490 -0.2677
 5015SOL    HW126678   3.021   4.030   4.790 -1.4347  0.3894  0.6449
 5015SOL    HW226679   3.014   4.181   4.774 -1.1971  0.1502 -0.0347
 5016SOL     OW26680   4.069   3.989   7.310 -0.5043 -0.1799 -0.1310
 5016SOL    HW126681   4.083   3.927   7.239 -0.3502  0.3341 -0.5525
 5016SOL    HW226682   4.012   3.932   7.361 -0.8007  1.0308  0.8803
 5017SOL     OW26683   4.616   3.447   6.191  0.0522 -0.2798  0.5278
 5017SOL    HW126684   4.679   3.514   6.216 -0.8657  1.2027 -1.0787
 5017SOL    HW226685   4.650   3.414   6.108 -2.0099 -0.9080 -0.0728
 5018SOL     OW26686   4.629   0.023  14.771  0.2300  0.2260 -0.7629
 5018SOL    HW126687   4.706   4.723  14.815  0.3978  0.3543 -0.9449
 5018SOL    HW226688   4.607   0.097  14.827  0.8278 -0.6227  0.6051
 5019SOL     OW26689   1.625   4.077   8.498 -0.4242 -0.1755 -0.5916
 5019SOL    HW126690   1.601   3.985   8.503 -0.3084 -0.0934  1.8609
 5019SOL    HW226691   1.636   4.096   8.405 -3.7278  0.2683 -0.8769
 5020SOL     OW26692   4.143   1.946  14.385  0.0161 -0.9223  0.1679
 5020SOL    HW126693   4.110   2.018  14.439  1.4168  0.6760 -1.0813
 5020SOL    HW226694   4.115   1.982  14.300  0.2517 -0.1133  0.4324
 5021SOL     OW26695   1.476   4.574   5.955 -0.0714 -0.0853 -0.0169
 5021SOL    HW126696   1.458   4.601   5.865 -1.2954  1.9187  0.8271
 5021SOL    HW226697   1.559   4.619   5.971 -0.0953  0.2311 -0.7735
 5022SOL     OW26698   0.656   0.323   3.440  0.1608  0.0951 -0.1524
 5022SOL    HW126699   0.599   0.345   3.366  0.1255  1.1994  0.1958
 5022SOL    HW226700   0.742   0.345   3.404  1.4374 -0.0095  2.8807
 5023SOL     OW26701   1.150   1.050   6.885 -0.1231 -0.2639 -0.8865
 5023SOL    HW126702   1.080   1.017   6.941 -0.6828  0.5010 -1.1365
 5023SOL    HW226703   1.120   1.019   6.800  0.1180  1.4518 -1.5848
 5024SOL     OW26704   4.029   1.722   7.609 -0.0831  0.1466 -0.1138
 5024SOL    HW126705   4.114   1.758   7.637  1.0011 -0.4972 -2.5336
 5024SOL    HW226706   4.043   1.707   7.515  4.3921 -2.4952  0.9870
 5025SOL     OW26707   1.868   3.750   2.425  0.1975 -0.5419  0.4142
 5025SOL    HW126708   1.938   3.711   2.374 -0.3911  0.2411 -1.0334
 5025SOL    HW226709   1.858   3.682   2.491 -1.3915 -0.7659 -0.0398
 5026SOL     OW26710   3.616   1.316   5.859  0.6245 -0.1924 -0.2827
 5026SOL    HW126711   3.610   1.412   5.859  1.2384 -0.1552 -0.0859
 5026SOL    HW226712   3.651   1.312   5.770  1.2815 -1.4918  0.0365
 5027SOL     OW26713   4.078   2.972  16.272  0.1425  0.9737 -0.2221
 5027SOL    HW126714   4.076   2.887  16.317  0.1494  0.0688 -1.9346
 5027SOL    HW226715   4.078   2.947  16.179  1.7117 -1.4950  0.4259
 5028SOL     OW26716   2.408   2.323   3.621 -0.4270  0.2931 -0.0409
 5028SOL    HW126717   2.475   2.256   3.606  1.5546  2.0935  0.9702
 5028SOL    HW226718   2.448   2.392   3.570 -1.4871 -0.2805 -1.6528
 5029SOL     OW26719   2.488   4.409   4.260 -0.1677  0.2943  0.3062
 5029SOL    HW126720   2.396   4.416   4.237 -0.1214  1.1534  0.3792
 5029SOL    HW226721   2.518   4.378   4.175 -0.3688  1.1862 -0.0873
 5030SOL     OW26722   3.145   4.156   6.455  0.6943  0.1066 -0.3029
 5030SOL    HW126723   3.086   4.130   6.385 -0.8390  0.7954  0.7220
 5030SOL    HW226724   3.147   4.252   6.452  0.7682  0.1000 -0.4703
 5031SOL     OW26725   2.827   0.976  15.516  0.7482  0.0598  0.5700
 5031SOL    HW126726   2.746   0.983  15.465  1.0246  0.8296  0.2319
 5031SOL    HW226727   2.809   1.033  15.590 -0.8875 -2.4973  2.1335
 5032SOL     OW26728   3.451   4.052   4.659 -0.5023 -0.2172  0.0943
 5032SOL    HW126729   3.391   4.019   4.592  1.2144 -0.8243 -1.1597
 5032SOL    HW226730   3.519   4.084   4.600  0.5591 -0.5699  1.1188
 5033SOL     OW26731   1.077   2.932   7.999  0.1151 -0.2906 -0.4595
 5033SOL    HW126732   1.034   3.014   8.021 -1.7023 -1.2082 -0.6383
 5033SOL    HW226733   1.044   2.883   8.074  1.1928  0.2166  0.3368
 5034SOL     OW26734   1.945   0.421   4.772 -0.2663  0.3576  0.6799
 5034SOL    HW126735   1.996   0.346   4.742 -0.1124  1.2478 -1.3271
 5034SOL    HW226736   1.898   0.447   4.693 -2.7291 -2.6842  1.1478
 5035SOL     OW26737   4.286   4.496   2.435 -0.1101  0.3425  0.1344
 5035SOL    HW126738   4.329   4.536   2.511  0.0239 -1.2972  0.9320
 5035SOL    HW226739   4.257   4.414   2.476 -1.0526 -1.1960 -3.6429
 5036SOL     OW26740   0.238   0.434   3.262  0.6231  0.5055 -0.3392
 5036SOL    HW126741   0.251   0.498   3.332  0.5924  0.9411 -0.7267
 5036SOL    HW226742   0.145   0.433   3.241  1.0109 -1.8096 -1.8836
 5037SOL     OW26743   2.852   3.626   3.007  0.2598  0.0926 -0.1213
 5037SOL    HW126744   2.832   3.703   3.060 -1.2552 -1.9643  2.3514
 5037SOL    HW226745   2.805   3.557   3.054  0.6166  0.4017  0.7022
 5038SOL     OW26746   3.310   1.671   6.643 -0.0059 -0.5273 -0.1804
 5038SOL    HW126747   3.240   1.719   6.686  0.9025 -0.4867  1.2586
 5038SOL    HW226748   3.264   1.611   6.584  0.9405 -0.6308 -0.8053
 5039SOL     OW26749   4.161   0.234  17.597  0.2827 -0.5963 -0.0419
 5039SOL    HW126750   4.162   0.247  17.692 -1.4549 -3.2732  0.3287
 5039SOL    HW226751   4.068   0.245  17.578  0.1921 -0.5393  0.4331
 5040SOL     OW26752   2.327   2.620   6.951 -0.3999 -0.1827 -0.1343
 5040SOL    HW126753   2.402   2.676   6.973 -1.6361  1.1524  0.7013
 5040SOL    HW226754   2.362   2.551   7.007 -0.6764 -0.5925 -0.4700
 5041SOL     OW26755   4.614   3.918  15.155 -0.0624  0.0699 -0.3121
 5041SOL    HW126756   4.538   3.924  15.098 -1.2105  0.0821  1.2117
 5041SOL    HW226757   4.633   4.012  15.165 -0.5295  0.1234  0.0726
 5042SOL     OW26758   3.015   3.914   2.462 -0.2678 -0.3703  0.0204
 5042SOL    HW126759   3.040   3.960   2.543  2.8499 -1.4328 -0.3451
 5042SOL    HW226760   2.952   3.849   2.493 -3.0927  1.5384 -1.6995
 5043SOL     OW26761   1.377   0.920  14.621 -0.0049  0.0173 -0.4369
 5043SOL    HW126762   1.331   0.992  14.579 -2.1008 -2.2953 -2.1006
 5043SOL    HW226763   1.454   0.909  14.564  1.0892  0.1944  1.0196
 5044SOL     OW26764   2.491   1.904   5.602 -0.2164  0.3653  0.2003
 5044SOL    HW126765   2.572   1.862   5.574  0.0382  0.5989  0.5875
 5044SOL    HW226766   2.428   1.834   5.583 -0.5149  0.7912 -0.3979
 5045SOL     OW26767   2.195   2.084   7.357  0.0945 -0.4557  0.0677
 5045SOL    HW126768   2.277   2.130   7.372 -0.3374  0.0530  0.8446
 5045SOL    HW226769   2.211   2.043   7.272 -0.4740  0.0374 -0.2814
 5046SOL     OW26770   1.062   2.647   6.358  0.6898  0.5872  0.0123
 5046SOL    HW126771   1.091   2.698   6.433 -0.9905  2.8876 -0.8942
 5046SOL    HW226772   1.124   2.575   6.370 -0.3111 -0.2130  0.4127
 5047SOL     OW26773   2.246   0.311  12.676  0.0069  0.1741  0.1993
 5047SOL    HW126774   2.302   0.252  12.626  0.8569  2.1664 -1.2014
 5047SOL    HW226775   2.159   0.274  12.665 -0.4831  0.7985  1.9023
 5048SOL     OW26776   3.053   3.637   4.929 -0.5914  0.3639  0.1850
 5048SOL    HW126777   3.062   3.632   5.024  1.0609  5.0529  0.2579
 5048SOL    HW226778   3.044   3.543   4.909 -0.8450  0.4914 -0.3126
 5049SOL     OW26779   0.756   0.254   2.727 -0.2043 -0.3541 -0.2530
 5049SOL    HW126780   0.842   0.296   2.730 -0.6894  0.5417  1.1380
 5049SOL    HW226781   0.737   0.216   2.813  1.6999 -3.3211 -1.1458
 5050SOL     OW26782   3.814   2.890   0.633 -0.0317 -1.1452  0.3587
 5050SOL    HW126783   3.753   2.826   0.670 -1.8982 -0.0322 -0.7699
 5050SOL    HW226784   3.869   2.920   0.705 -1.3232  1.0587  0.4253
 5051SOL     OW26785   4.693   4.592   8.012  0.2604 -0.7192 -0.3545
 5051SOL    HW126786   4.720   4.676   7.975 -0.7396 -0.8477 -1.3850
 5051SOL    HW226787   4.614   4.574   7.961 -0.7140  0.5476  0.7199
 5052SOL     OW26788   0.849   0.662  11.672  0.0863  0.0073 -0.3267
 5052SOL    HW126789   0.794   0.675  11.595 -0.0451  0.9238 -0.0723
 5052SOL    HW226790   0.904   0.739  11.672 -0.3071  0.2938  0.5344
 5053SOL     OW26791   3.162   4.602   8.010  0.1499  0.3836  0.5911
 5053SOL    HW126792   3.077   4.587   8.051  0.4151 -1.3894  0.5099
 5053SOL    HW226793   3.213   4.620   8.090 -1.7595 -1.1522  2.1523
 5054SOL     OW26794   3.395   1.725   7.792  0.0809 -0.8323  0.2233
 5054SOL    HW126795   3.322   1.772   7.752 -0.2845 -0.8667  0.8477
 5054SOL    HW226796   3.474   1.762   7.751 -1.0438  1.1007 -0.1813
 5055SOL     OW26797   3.383   1.417   7.803  0.5818  0.0479  0.3181
 5055SOL    HW126798   3.375   1.510   7.783 -0.8745 -0.0593  0.3505
 5055SOL    HW226799   3.470   1.400   7.769  0.3840  0.9121 -0.6107
 5056SOL     OW26800   3.955   3.105   5.967 -0.0361  0.1262 -0.5299
 5056SOL    HW126801   3.916   3.021   5.992 -0.5759  1.0337  1.6872
 5056SOL    HW226802   3.883   3.147   5.921 -0.0491 -0.3280 -0.9255
 5057SOL     OW26803   3.729   4.527   3.811 -0.0667  0.0598 -0.0393
 5057SOL    HW126804   3.790   4.518   3.884 -2.9257 -0.1553  2.3279
 5057SOL    HW226805   3.662   4.569   3.864  1.4377  2.6114 -0.1596
 5058SOL     OW26806   3.000   3.915   0.818  0.4530  0.8224  0.6595
 5058SOL    HW126807   2.946   3.918   0.739  1.2538  0.3245  0.0919
 5058SOL    HW226808   2.963   3.996   0.854 -1.1164  1.4389 -2.3372
 5059SOL     OW26809   0.407   1.638   3.868 -0.0586 -0.0708 -0.4251
 5059SOL    HW126810   0.334   1.686   3.908 -0.2314 -0.8325  0.1675
 5059SOL    HW226811   0.372   1.550   3.854  1.8499 -0.4372 -2.8670
 5060SOL     OW26812   0.523   3.239   0.501  0.0667  0.3423  0.8439
 5060SOL    HW126813   0.523   3.153   0.543 -2.3157  0.7776  1.7265
 5060SOL    HW226814   0.469   3.219   0.424  0.8718  3.3464 -0.5160
 5061SOL     OW26815   0.866   1.296   6.538 -0.6955 -0.4477 -0.3374
 5061SOL    HW126816   0.856   1.365   6.603  1.2072 -0.7066  0.2364
 5061SOL    HW226817   0.961   1.306   6.535 -0.7717  0.8682  1.3671
 5062SOL     OW26818   4.440   1.133   0.712 -0.2222 -0.0964  0.0386
 5062SOL    HW126819   4.449   1.216   0.664 -1.1043 -0.2789 -0.4385
 5062SOL    HW226820   4.372   1.097   0.655 -1.8691  0.7353  1.4714
 5063SOL     OW26821   2.246   4.702   5.564  0.5061 -0.0301  0.2158
 5063SOL    HW126822   2.320   4.642   5.567  1.0946  0.5905 -1.8102
 5063SOL    HW226823   2.219   4.694   5.472 -0.1934  0.4638  0.3779
 5064SOL     OW26824   4.003   3.717   7.484  0.2174  0.5328 -0.2993
 5064SOL    HW126825   4.076   3.753   7.534  0.6164 -0.3911 -0.2040
 5064SOL    HW226826   3.997   3.636   7.535 -0.8689  0.7181 -0.1258
 5065SOL     OW26827   3.614   4.362   1.384  0.5722  0.2878  0.2753
 5065SOL    HW126828   3.687   4.333   1.439  0.7552  3.3323  1.6337
 5065SOL    HW226829   3.548   4.295   1.404  0.5213  0.7349  1.6486
 5066SOL     OW26830   0.961   1.697   4.180 -0.0822 -0.6051 -0.0081
 5066SOL    HW126831   0.897   1.641   4.225  0.4942 -2.1950 -1.1445
 5066SOL    HW226832   1.027   1.716   4.246  0.7571  1.6351 -1.4765
 5067SOL     OW26833   4.312   0.794   5.794  0.1797 -0.1488 -0.2361
 5067SOL    HW126834   4.318   0.883   5.829  1.8644 -0.3190 -0.1158
 5067SOL    HW226835   4.235   0.809   5.738 -0.0082 -0.8101 -0.1601
 5068SOL     OW26836   0.414   2.978   4.367 -0.2011 -0.7141  0.0112
 5068SOL    HW126837   0.417   2.940   4.454 -0.4906  1.3939  0.9267
 5068SOL    HW226838   0.400   3.071   4.386 -0.7668 -0.7439 -0.2473
 5069SOL     OW26839   4.664   3.442   5.160 -0.1267 -0.0084  0.2210
 5069SOL    HW126840   4.603   3.501   5.203  0.5457 -0.0677  1.2619
 5069SOL    HW226841   4.706   3.501   5.097 -0.1061 -1.2802 -0.9665
 5070SOL     OW26842   0.136   4.097   2.702 -0.5702  0.0786  0.4916
 5070SOL    HW126843   0.111   4.187   2.723  3.9844  1.5714 -0.5367
 5070SOL    HW226844   0.231   4.096   2.717 -0.4164 -0.2315 -0.5544
 5071SOL     OW26845   2.042   1.052   0.980 -0.1132 -0.2591  0.0850
 5071SOL    HW126846   2.023   0.958   0.982 -0.7971 -0.1100  0.2722
 5071SOL    HW226847   2.092   1.066   1.060  0.6965 -0.5631 -0.3633
 5072SOL     OW26848   1.407   1.089   7.514  0.2394  0.3292  0.2187
 5072SOL    HW126849   1.383   1.148   7.585 -1.2781 -0.8918  0.7177
 5072SOL    HW226850   1.448   1.147   7.449  3.4669 -2.1491  0.0862
 5073SOL     OW26851   1.759   3.718   6.422 -0.7176  0.4397  0.0173
 5073SOL    HW126852   1.674   3.681   6.446 -1.0968  1.0813 -0.3111
 5073SOL    HW226853   1.748   3.734   6.328  0.8349 -1.0283 -0.4032
 5074SOL     OW26854   2.298   1.193   4.387 -0.2062 -0.7599 -0.4843
 5074SOL    HW126855   2.282   1.288   4.387 -0.9523 -0.8822 -0.4494
 5074SOL    HW226856   2.389   1.180   4.363  0.2022 -1.9858  1.8053
 5075SOL     OW26857   2.197   0.189   8.045 -0.5801  0.5128  0.5482
 5075SOL    HW126858   2.287   0.180   8.075 -0.6816 -0.7065  0.4871
 5075SOL    HW226859   2.162   0.107   8.079  0.6516 -0.8400 -1.4894
 5076SOL     OW26860   3.659   0.807   6.465 -0.3801 -0.5015 -0.1790
 5076SOL    HW126861   3.732   0.751   6.439  0.3787 -0.0364  0.9527
 5076SOL    HW226862   3.652   0.852   6.381  0.1363  0.0841  0.0905
 5077SOL     OW26863   0.001   0.925   3.624 -0.5524  0.0977  0.3211
 5077SOL    HW126864   0.050   0.854   3.665 -0.7312 -0.3468 -0.2331
 5077SOL    HW226865   4.661   0.879   3.589  0.4230 -0.1161 -1.5243
 5078SOL     OW26866   4.680   2.484  15.357  0.0503  0.0775  0.4492
 5078SOL    HW126867   0.006   2.413  15.343 -0.0208 -0.2045  1.6147
 5078SOL    HW226868   4.595   2.449  15.330  0.2824 -0.3436  0.2604
 5079SOL     OW26869   1.672   3.045   3.486  0.4376 -0.5691  0.2740
 5079SOL    HW126870   1.659   3.082   3.399 -0.3491 -0.2875  0.5164
 5079SOL    HW226871   1.752   3.089   3.515  0.3762  0.7586 -1.5836
 5080SOL     OW26872   3.574   2.278   4.375 -0.2499 -0.2987  0.2294
 5080SOL    HW126873   3.576   2.237   4.461 -0.4338 -0.3452  0.2104
 5080SOL    HW226874   3.535   2.359   4.407  0.0312 -0.6311  1.4209
 5081SOL     OW26875   1.976   0.778   1.480 -0.0150  0.4001  0.2580
 5081SOL    HW126876   2.053   0.756   1.531 -0.7125  1.2412  1.6774
 5081SOL    HW226877   1.919   0.810   1.551 -1.7529 -0.2505 -0.8283
 5082SOL     OW26878   1.392   0.951   3.581 -0.0819 -0.2871 -0.5079
 5082SOL    HW126879   1.440   0.990   3.508 -0.7110  0.0785 -0.7270
 5082SOL    HW226880   1.301   0.975   3.564 -0.0333  1.3715  1.6169
 5083SOL     OW26881   1.798   3.134  17.098  0.3149 -0.0885  0.0165
 5083SOL    HW126882   1.866   3.184  17.052 -0.0506 -1.4354 -1.9868
 5083SOL    HW226883   1.723   3.187  17.072  1.1562  0.5279 -1.1522
 5084SOL     OW26884   3.063   4.208   6.749 -0.5219  0.2724  0.6484
 5084SOL    HW126885   3.040   4.197   6.657 -1.4990  0.5199  0.8600
 5084SOL    HW226886   3.044   4.301   6.757 -1.3156  0.0611  1.2259
 5085SOL     OW26887   1.603   4.648  14.440 -0.1176  0.0266 -0.3464
 5085SOL    HW126888   1.511   4.633  14.417 -0.4276  0.8844  0.3434
 5085SOL    HW226889   1.630   4.717  14.379 -0.6814 -0.2865 -0.9494
 5086SOL     OW26890   4.072   0.993   5.372 -0.3936 -0.0751  0.1419
 5086SOL    HW126891   4.141   0.970   5.310 -0.2258  1.2793 -0.1830
 5086SOL    HW226892   4.003   1.017   5.311 -0.3737  1.8003  0.8619
 5087SOL     OW26893   1.604   2.713   4.996 -0.0900  0.5895  0.5912
 5087SOL    HW126894   1.679   2.656   5.015 -1.1285 -1.4533 -1.4257
 5087SOL    HW226895   1.569   2.723   5.085 -0.7724 -1.1165  0.5279
 5088SOL     OW26896   4.332   0.101   6.231 -0.5600 -0.0452  0.9266
 5088SOL    HW126897   4.377   0.086   6.147  0.1225  0.6461  1.1718
 5088SOL    HW226898   4.244   0.117   6.197 -0.2656  2.3328  1.2677
 5089SOL     OW26899   0.224   2.346   2.314  0.1344 -0.0966 -0.2713
 5089SOL    HW126900   0.133   2.341   2.284  0.0213 -0.2838  0.0995
 5089SOL    HW226901   0.265   2.387   2.238 -0.8502  2.0791  0.3432
 5090SOL     OW26902   3.968   1.192   3.627 -0.1856 -0.0928  0.1785
 5090SOL    HW126903   3.999   1.247   3.699 -0.0758  1.4417 -1.0510
 5090SOL    HW226904   3.890   1.244   3.608  0.0012  0.1615  0.1178
 5091SOL     OW26905   4.160   2.145   9.831  0.2613 -0.3360 -0.6778
 5091SOL    HW126906   4.169   2.069   9.887  0.2839  1.4326  1.6967
 5091SOL    HW226907   4.196   2.129   9.743  4.2778  1.9229  0.5549
 5092SOL     OW26908   4.384   3.295   7.712  0.5283 -0.4252 -0.1856
 5092SOL    HW126909   4.453   3.239   7.676  0.6315  0.3359 -1.1790
 5092SOL    HW226910   4.439   3.358   7.758 -1.3781 -0.7332  2.4850
 5093SOL     OW26911   4.717   1.350   7.014 -0.0193  0.4320  0.1753
 5093SOL    HW126912   4.668   1.320   7.091 -1.8134 -0.7709 -1.4653
 5093SOL    HW226913   0.070   1.327   7.037 -1.1607 -2.2389  1.9922
 5094SOL     OW26914   1.996   0.918   8.600  0.5158  0.1115 -0.2944
 5094SOL    HW126915   1.995   0.979   8.527 -0.9567 -0.8967 -1.1289
 5094SOL    HW226916   1.942   0.969   8.661  0.9166  0.0732  0.0972
 5095SOL     OW26917   2.589   3.025   5.082 -0.5291 -0.2683  0.3934
 5095SOL    HW126918   2.648   2.953   5.059 -0.6395 -0.3160  0.2542
 5095SOL    HW226919   2.517   2.977   5.123 -2.9557  0.1306 -3.3864
 5096SOL     OW26920   4.226   2.769   5.344  0.1447  0.3133 -0.3126
 5096SOL    HW126921   4.240   2.800   5.434 -0.3020  1.7514 -0.7371
 5096SOL    HW226922   4.238   2.847   5.290  1.1394 -0.2797 -0.9504
 5097SOL     OW26923   3.680   1.366   8.305 -0.4719  0.7825 -0.3391
 5097SOL    HW126924   3.650   1.435   8.246  1.0831  1.2062 -0.6307
 5097SOL    HW226925   3.754   1.412   8.345  0.0272 -1.0942  0.9241
 5098SOL     OW26926   4.702   4.282   4.110  0.2990 -1.2463 -0.2253
 5098SOL    HW126927   4.649   4.205   4.132 -0.2873 -0.3404  1.4573
 5098SOL    HW226928   4.630   4.342   4.092  0.8780 -0.6250 -0.4655
 5099SOL     OW26929   0.523   3.178   7.775 -0.3670 -0.1022 -0.4383
 5099SOL    HW126930   0.521   3.097   7.724  1.6698 -0.4639  0.0855
 5099SOL    HW226931   0.540   3.162   7.868  2.9079 -1.0662 -1.2025
 5100SOL     OW26932   3.344   3.978   7.146  0.3200 -0.1415 -0.3399
 5100SOL    HW126933   3.278   4.008   7.084  1.3481 -1.9249 -2.2947
 5100SOL    HW226934   3.319   3.886   7.154 -3.4785  1.1620  3.2839
 5101SOL     OW26935   1.746   3.790   3.551  0.8463 -0.1406 -0.4209
 5101SOL    HW126936   1.800   3.721   3.591  2.0442  0.6295 -0.7095
 5101SOL    HW226937   1.754   3.767   3.458  2.1167 -2.4786  0.2665
 5102SOL     OW26938   2.646   1.918  11.902  0.3518  0.3409  0.6352
 5102SOL    HW126939   2.575   1.933  11.964 -0.7394 -1.0596 -0.2780
 5102SOL    HW226940   2.718   1.968  11.941  0.7266  1.7742 -1.9139
 5103SOL     OW26941   3.818   1.997   9.608 -0.5667  0.8448 -0.1999
 5103SOL    HW126942   3.829   1.902   9.618  1.4366  1.0636 -0.3192
 5103SOL    HW226943   3.757   2.011   9.536 -0.1592  0.5619 -0.6027
 5104SOL     OW26944   4.672   2.154   5.368  0.2446  0.3633  0.3428
 5104SOL    HW126945   4.640   2.091   5.433 -0.6141  0.5003  0.0426
 5104SOL    HW226946   4.635   2.233   5.407 -1.5752 -0.9407  1.2612
 5105SOL     OW26947   3.353   2.482   5.832 -0.0151 -0.0436 -0.2028
 5105SOL    HW126948   3.276   2.533   5.808  0.5874  0.8795 -0.1612
 5105SOL    HW226949   3.368   2.432   5.752 -0.5256  2.4182 -1.8478
 5106SOL     OW26950   3.810   4.692  12.144 -0.0873  0.4661  0.1910
 5106SOL    HW126951   3.854   4.646  12.216 -0.8502 -2.0365 -0.9648
 5106SOL    HW226952   3.720   4.661  12.151 -0.7481  2.1516 -0.8135
 5107SOL     OW26953   0.306   1.843   5.324  0.5242  0.2145 -0.7148
 5107SOL    HW126954   0.356   1.923   5.306  0.0757  0.5552 -0.4608
 5107SOL    HW226955   0.255   1.877   5.397 -0.0196  1.1327 -1.5239
 5108SOL     OW26956   4.606   0.280   2.791  0.2406  0.1805 -0.1754
 5108SOL    HW126957   4.613   0.363   2.838  1.8304  1.2602 -2.3226
 5108SOL    HW226958   4.591   0.228   2.871  0.9913 -0.5926 -0.5358
 5109SOL     OW26959   2.730   2.035   3.372  0.4398 -0.3552 -0.5074
 5109SOL    HW126960   2.777   1.970   3.425  0.7744  3.2261  3.6888
 5109SOL    HW226961   2.798   2.091   3.336 -0.1730  1.1299  0.6460
 5110SOL     OW26962   1.402   2.847   4.070 -0.2540  0.5131 -0.0629
 5110SOL    HW126963   1.332   2.793   4.035  0.2694 -0.0741 -0.1999
 5110SOL    HW226964   1.359   2.930   4.091  0.7853  0.8951  0.5267
 5111SOL     OW26965   3.500   3.563   0.629 -0.3647  0.3543  0.1477
 5111SOL    HW126966   3.487   3.553   0.534 -0.9632  1.6915  0.0796
 5111SOL    HW226967   3.421   3.606   0.662  0.6985  1.0199  1.8212
 5112SOL     OW26968   0.077   2.161  11.172  0.1872  1.0092 -0.0676
 5112SOL    HW126969   0.014   2.213  11.223 -2.1688 -1.1133 -0.7841
 5112SOL    HW226970   0.086   2.083  11.226 -2.5316  1.1531  0.6391
 5113SOL     OW26971   0.473   4.047   7.535  0.0972  0.3273  0.0281
 5113SOL    HW126972   0.402   4.002   7.488 -2.0409  1.3559  2.3163
 5113SOL    HW226973   0.457   4.033   7.628 -0.2626 -2.4119 -0.4374
 5114SOL     OW26974   3.505   4.130   5.959  0.1057 -0.4971  0.4059
 5114SOL    HW126975   3.497   4.177   5.875 -0.9607  0.0054  0.7892
 5114SOL    HW226976   3.598   4.113   5.947  0.4637  1.6647  0.0890
 5115SOL     OW26977   4.304   3.092   1.076 -0.2810 -0.5371  0.1426
 5115SOL    HW126978   4.260   3.153   1.135 -0.5083  1.1256 -1.7507
 5115SOL    HW226979   4.265   3.007   1.097 -0.4088  0.1991  2.8261
 5116SOL     OW26980   0.030   3.819  10.895  0.4179 -0.0076 -0.6571
 5116SOL    HW126981   0.052   3.741  10.844  0.0208 -1.1711  0.9240
 5116SOL    HW226982   0.110   3.872  10.894 -1.1776  2.3476 -1.7360
 5117SOL     OW26983   3.246   1.557   5.272 -0.4737 -0.8347  0.2191
 5117SOL    HW126984   3.223   1.591   5.359  2.5965  0.4257  0.5469
 5117SOL    HW226985   3.281   1.472   5.296 -1.0977 -0.8593  1.0697
 5118SOL     OW26986   1.325   1.789  15.497  0.4113  0.1854 -0.1778
 5118SOL    HW126987   1.398   1.818  15.443 -0.1589 -1.2047 -1.7132
 5118SOL    HW226988   1.362   1.720  15.552  0.3072 -1.3409 -2.0332
 5119SOL     OW26989   3.867   0.712   3.562  0.4475  0.3147  0.1241
 5119SOL    HW126990   3.810   0.682   3.632 -0.4569  2.3031  0.2196
 5119SOL    HW226991   3.927   0.772   3.607 -0.9530  1.7110  0.1215
 5120SOL     OW26992   3.287   2.933  15.704  0.2307 -0.4903 -0.1834
 5120SOL    HW126993   3.222   2.908  15.770 -0.2841 -1.4085 -1.0427
 5120SOL    HW226994   3.373   2.911  15.740  0.7749  0.5681 -0.8445
 5121SOL     OW26995   0.900   0.486   2.021  0.1826  0.3605 -0.3822
 5121SOL    HW126996   0.868   0.423   2.086 -0.5671  0.9765 -0.1408
 5121SOL    HW226997   0.927   0.552   2.085 -1.1100  0.9328 -0.4267
 5122SOL     OW26998   4.306   0.291  11.862 -0.0942 -0.0347 -0.5964
 5122SOL    HW126999   4.300   0.262  11.771  0.6985  0.5833 -0.8474
 5122SOL    HW227000   4.398   0.308  11.879 -0.1632  0.4006 -0.6773
 5123SOL     OW27001   0.600   1.431   7.626 -0.1076  0.4456  0.5309
 5123SOL    HW127002   0.658   1.477   7.686  2.5960 -0.1818 -1.6248
 5123SOL    HW227003   0.657   1.425   7.550 -0.9046 -0.3239 -0.0099
 5124SOL     OW27004   4.163   1.254   7.913 -0.1553 -0.1615 -0.1722
 5124SOL    HW127005   4.252   1.283   7.894  0.1164 -1.3233 -0.7157
 5124SOL    HW227006   4.161   1.164   7.881  0.3547  0.6073 -2.3676
 5125SOL     OW27007   3.634   3.641   5.789  0.5240 -0.2295  0.0321
 5125SOL    HW127008   3.699   3.601   5.732 -0.0026 -2.0161  0.6727
 5125SOL    HW227009   3.575   3.688   5.729  1.5775  1.4371  0.3061
 5126SOL     OW27010   2.391   3.194  15.400 -0.2413  0.7533 -0.3177
 5126SOL    HW127011   2.303   3.230  15.393 -0.4405  0.5666  1.1309
 5126SOL    HW227012   2.426   3.253  15.467  1.2692  0.8411 -1.1946
 5127SOL     OW27013   0.547   3.273  16.975  0.2936  0.1996  0.6008
 5127SOL    HW127014   0.535   3.178  16.971  2.9884 -0.1300  0.7188
 5127SOL    HW227015   0.633   3.296  16.941 -0.1024 -0.8795 -1.1429
 5128SOL     OW27016   4.679   1.024   2.444 -0.4842  0.6128 -0.2200
 5128SOL    HW127017   0.014   1.086   2.441  0.7219 -0.7898 -0.4175
 5128SOL    HW227018   4.685   1.004   2.538  2.7540  0.4436 -0.4814
 5129SOL     OW27019   2.098   4.191   6.777 -0.0303 -0.0616 -0.3275
 5129SOL    HW127020   2.168   4.143   6.822 -1.3407 -1.2619  0.4473
 5129SOL    HW227021   2.077   4.257   6.843  0.0226  0.1757 -0.5479
 5130SOL     OW27022   2.505   0.445   1.735  0.1216  0.6909  0.1196
 5130SOL    HW127023   2.423   0.400   1.715 -0.3796  2.3565 -1.5982
 5130SOL    HW227024   2.505   0.473   1.826 -2.0451 -0.6664  0.5639
 5131SOL     OW27025   4.031   1.399   2.156  0.5660 -0.1957  0.1822
 5131SOL    HW127026   3.970   1.471   2.138  0.4876 -0.1896  0.4735
 5131SOL    HW227027   3.996   1.352   2.231 -2.7741  1.8869 -0.0578
 5132SOL     OW27028   1.278   0.076   6.119  0.0060 -0.5591  0.3011
 5132SOL    HW127029   1.268   0.059   6.026  1.0453 -2.3522  0.5166
 5132SOL    HW227030   1.199   0.030   6.148 -0.3559 -0.5221 -0.6242
 5133SOL     OW27031   3.102   4.725   0.115 -0.1260  0.0325 -0.0619
 5133SOL    HW127032   3.103   4.733   0.019 -0.5269  1.8120  0.0842
 5133SOL    HW227033   3.043   0.059   0.139  1.0990  1.1023 -0.2316
 5134SOL     OW27034   2.170   1.018   7.665  0.0170 -0.5571  0.0683
 5134SOL    HW127035   2.129   0.956   7.606 -0.6769 -0.0366  0.0005
 5134SOL    HW227036   2.263   1.002   7.649  0.0777 -0.4539  0.3187
 5135SOL     OW27037   1.825   2.677   8.490  0.1080  0.2312  0.0954
 5135SOL    HW127038   1.807   2.625   8.568  0.0807  1.2639  0.7784
 5135SOL    HW227039   1.838   2.763   8.529  1.2774 -0.9066  2.1576
 5136SOL     OW27040   3.876   3.324   1.989  0.0486 -0.2714  1.0424
 5136SOL    HW127041   3.889   3.349   2.081  1.4112  1.2287  0.4407
 5136SOL    HW227042   3.952   3.272   1.966 -0.0413  1.0555 -2.2471
 5137SOL     OW27043   4.426   3.653  17.678  0.3346 -0.1989  0.0603
 5137SOL    HW127044   4.509   3.668  17.723 -0.4694  2.0066  0.8134
 5137SOL    HW227045   4.438   3.571  17.630 -0.8086 -0.5091  0.3090
 5138SOL     OW27046   0.213   2.817   4.608 -0.6474 -0.6657  0.2906
 5138SOL    HW127047   0.196   2.880   4.678  2.0632  0.5283 -0.1339
 5138SOL    HW227048   0.142   2.842   4.548 -1.2619  1.1915  1.7795
 5139SOL     OW27049   1.895   3.096   5.279  0.2358  0.5367 -0.1365
 5139SOL    HW127050   1.922   3.163   5.342  0.5564  0.4619 -0.1942
 5139SOL    HW227051   1.836   3.154   5.230 -1.5930 -1.9359 -0.8307
 5140SOL     OW27052   4.459   1.465   9.906 -0.0856 -0.1483  0.4043
 5140SOL    HW127053   4.447   1.549   9.950  2.6354  0.6532 -0.4172
 5140SOL    HW227054   4.392   1.412   9.950  1.4604 -0.6484  2.1581
 5141SOL     OW27055   4.103   3.337   9.865 -0.6340 -0.6297 -0.3530
 5141SOL    HW127056   4.152   3.395   9.806 -0.8056  0.6649  0.7814
 5141SOL    HW227057   4.119   3.249   9.832 -1.5886 -1.8918  2.5494
 5142SOL     OW27058   4.184   0.525   1.610  0.4407  0.7135  0.2697
 5142SOL    HW127059   4.240   0.461   1.566  1.4444  0.2398  2.2250
 5142SOL    HW227060   4.112   0.467   1.636 -1.3576  2.9320  0.2111
 5143SOL     OW27061   4.002   3.272   3.145  0.2833  0.0777 -0.7378
 5143SOL    HW127062   3.924   3.325   3.165  0.4200 -0.9012  2.4298
 5143SOL    HW227063   4.020   3.296   3.054  0.9831  0.3265 -0.5327
 5144SOL     OW27064   2.173   1.888  15.475 -0.0581  0.2713 -0.2412
 5144SOL    HW127065   2.194   1.841  15.556 -0.0361 -0.0398 -0.4278
 5144SOL    HW227066   2.103   1.950  15.497 -0.7612 -1.2234  1.7676
 5145SOL     OW27067   2.524   3.351  16.506  0.0184  0.5089  0.5623
 5145SOL    HW127068   2.498   3.262  16.483  0.1406  0.5853  0.1303
 5145SOL    HW227069   2.482   3.369  16.591 -2.2959  1.0129 -0.6721
 5146SOL     OW27070   2.783   0.067   2.548 -0.0396  0.6265 -0.4835
 5146SOL    HW127071   2.824   0.051   2.633  0.2285 -0.0582 -0.7393
 5146SOL    HW227072   2.771   4.724   2.497 -1.0915  0.3620  0.1880
 5147SOL     OW27073   1.694   2.709   4.713 -0.2367 -0.0446  0.2930
 5147SOL    HW127074   1.602   2.713   4.686 -0.2825  0.9749  0.5987
 5147SOL    HW227075   1.681   2.700   4.808  1.6848  0.9526  0.6284
 5148SOL     OW27076   3.909   0.222  17.485 -0.5000 -0.1556 -0.8101
 5148SOL    HW127077   3.858   0.154  17.528 -0.0604  0.9767  1.5004
 5148SOL    HW227078   3.856   0.258  17.414  0.3621  0.3072 -1.2323
 5149SOL     OW27079   2.118   2.725   7.410 -0.1887  0.3144  0.5235
 5149SOL    HW127080   2.171   2.734   7.489 -0.0982 -1.2616  0.6363
 5149SOL    HW227081   2.128   2.631   7.400 -1.4386 -0.0348  2.5638
 5150SOL     OW27082   4.002   4.203   8.201 -0.3471  0.2295 -0.0971
 5150SOL    HW127083   4.085   4.174   8.238  1.3184  1.6346 -2.7157
 5150SOL    HW227084   3.958   4.121   8.179 -1.0907  1.3458 -2.8771
 5151SOL     OW27085   0.168   0.304  14.456 -0.5802 -0.5018  0.2057
 5151SOL    HW127086   0.093   0.251  14.482 -1.3548 -0.0584 -1.1304
 5151SOL    HW227087   0.199   0.251  14.382  0.0866  0.1696 -0.0079
 5152SOL     OW27088   3.044   0.921   2.005  0.1354  0.7405  0.0972
 5152SOL    HW127089   3.032   0.961   1.919 -0.8292  1.5950  0.6352
 5152SOL    HW227090   3.078   0.834   1.985  1.0745  0.7157  1.7880
 5153SOL     OW27091   0.657   1.037   5.573  0.2908  0.3129 -0.0314
 5153SOL    HW127092   0.725   0.969   5.580  1.3802  1.5478  1.5670
 5153SOL    HW227093   0.587   0.978   5.545 -0.4409  1.8673 -1.4167
 5154SOL     OW27094   2.295   3.490   2.850 -0.5299  0.5899 -0.2784
 5154SOL    HW127095   2.294   3.402   2.887  0.6793  0.5474 -0.3216
 5154SOL    HW227096   2.376   3.531   2.881 -1.7625  0.8588  2.5977
 5155SOL     OW27097   3.751   0.220   5.075 -0.0649  0.4331  0.2252
 5155SOL    HW127098   3.796   0.181   5.000  2.1743  0.4666  1.5665
 5155SOL    HW227099   3.786   0.160   5.141 -0.5175 -0.3190 -0.2181
 5156SOL     OW27100   4.588   3.882   0.169  0.0207 -0.1429 -0.1110
 5156SOL    HW127101   4.545   3.951   0.220  0.0228 -1.9528  2.3579
 5156SOL    HW227102   4.563   3.913   0.082 -0.0154 -0.4274 -0.2017
 5157SOL     OW27103   1.255   1.122   9.959  0.3424 -0.8827 -0.1871
 5157SOL    HW127104   1.193   1.165  10.017  1.7942 -0.5020  1.0914
 5157SOL    HW227105   1.339   1.130  10.006  1.4896 -1.6251 -2.1085
 5158SOL     OW27106   1.703   2.816   5.997  0.1732 -0.5500  0.6361
 5158SOL    HW127107   1.643   2.798   6.068  0.6993  1.0562  1.4759
 5158SOL    HW227108   1.782   2.767   6.021 -0.3771 -0.3967  2.6963
 5159SOL     OW27109   1.183   3.412  13.192 -0.5174  0.2978  0.1869
 5159SOL    HW127110   1.222   3.498  13.209  1.2815 -0.6066  0.5457
 5159SOL    HW227111   1.093   3.429  13.164 -0.5211 -1.2895 -0.7170
 5160SOL     OW27112   0.081   2.789   2.247  0.4923  0.1546  0.0805
 5160SOL    HW127113   0.035   2.828   2.172  2.1424 -2.0473 -2.0942
 5160SOL    HW227114   0.026   2.838   2.308  1.8671  0.7798  0.7961
 5161SOL     OW27115   0.902   0.611  15.376 -0.2469 -0.5382 -0.5418
 5161SOL    HW127116   0.885   0.666  15.299  0.2345 -1.0168 -0.9845
 5161SOL    HW227117   0.994   0.623  15.396 -0.8005  0.4347  1.4926
 5162SOL     OW27118   2.132   0.009   2.831  0.6133  0.4834  0.1724
 5162SOL    HW127119   2.135   0.076   2.899  1.5358 -0.4352  1.0443
 5162SOL    HW227120   2.039   4.731   2.819  0.7534  0.0143 -0.3125
 5163SOL     OW27121   2.680   2.908   1.816  0.0633 -0.0386  0.3136
 5163SOL    HW127122   2.761   2.859   1.828  0.3168 -0.2605 -2.2430
 5163SOL    HW227123   2.645   2.915   1.905 -1.4155 -0.3835 -0.2349
 5164SOL     OW27124   2.923   1.573   8.692  0.2177  0.9236 -0.0607
 5164SOL    HW127125   2.956   1.583   8.782 -0.1686  1.7368 -0.0163
 5164SOL    HW227126   2.840   1.526   8.693  0.6341  0.1939  0.8508
 5165SOL     OW27127   3.444   4.354   6.438 -0.5339 -0.0169  0.2262
 5165SOL    HW127128   3.393   4.288   6.485 -0.4710 -0.3931 -0.2389
 5165SOL    HW227129   3.451   4.311   6.353  1.8661 -1.1037  0.9718
 5166SOL     OW27130   2.093   0.654   6.674 -0.8194 -0.0726 -0.2885
 5166SOL    HW127131   2.061   0.622   6.589 -0.4436 -2.3061  0.4264
 5166SOL    HW227132   2.039   0.733   6.681 -1.2859 -0.4001 -0.1585
 5167SOL     OW27133   3.084   0.956   4.552 -0.0911  0.8436 -0.0696
 5167SOL    HW127134   2.995   0.929   4.575  0.5613 -1.2822 -0.0991
 5167SOL    HW227135   3.119   0.981   4.638  1.6318  2.6128 -1.2791
 5168SOL     OW27136   1.660   3.291   4.387  0.1003  0.5963 -0.3785
 5168SOL    HW127137   1.653   3.196   4.387 -2.6222  0.7906 -2.3288
 5168SOL    HW227138   1.572   3.302   4.421  0.0275 -0.6039 -0.1766
 5169SOL     OW27139   2.606   3.943   5.538 -0.1020 -0.1402 -0.7381
 5169SOL    HW127140   2.686   3.893   5.523  1.3679  2.0082 -0.1671
 5169SOL    HW227141   2.605   4.015   5.475  0.5916  1.1881  0.7529
 5170SOL     OW27142   3.282   3.755   0.775  0.0364 -0.6557 -0.2604
 5170SOL    HW127143   3.315   3.808   0.702  3.5140  0.8310  2.3862
 5170SOL    HW227144   3.188   3.767   0.758 -0.1352 -0.5566  0.7574
 5171SOL     OW27145   1.405   2.873   9.869  0.2324 -0.3717  0.4976
 5171SOL    HW127146   1.472   2.894   9.935 -0.0692 -1.0407  1.0175
 5171SOL    HW227147   1.329   2.861   9.927  1.1666 -0.0791  1.7964
 5172SOL     OW27148   2.695   1.049   7.771 -0.7024  0.3150 -0.0028
 5172SOL    HW127149   2.713   1.135   7.734 -3.9020  0.5560 -0.9865
 5172SOL    HW227150   2.619   1.070   7.825 -1.0013  0.7481 -0.6014
 5173SOL     OW27151   3.747   3.866   0.500 -1.2090 -0.7426  0.2945
 5173SOL    HW127152   3.722   3.777   0.475  0.1403 -0.9818 -0.2363
 5173SOL    HW227153   3.830   3.892   0.459 -0.2730 -0.3297  2.4549
 5174SOL     OW27154   0.503   4.484   2.216  0.3511  0.4727  0.2291
 5174SOL    HW127155   0.544   4.456   2.298  0.0156 -1.2495 -0.1978
 5174SOL    HW227156   0.420   4.518   2.248  0.2560  0.2761  0.1941
 5175SOL     OW27157   1.601   2.972  14.592 -0.2534  0.0068 -0.1685
 5175SOL    HW127158   1.664   2.992  14.523  1.7445  1.4287  2.0949
 5175SOL    HW227159   1.667   2.960  14.660 -2.0115  2.3907  1.9430
 5176SOL     OW27160   0.006   4.070   5.012 -0.1352  0.0076 -0.0264
 5176SOL    HW127161   0.004   4.070   4.917 -0.4911  0.9912 -0.0239
 5176SOL    HW227162   4.660   4.029   5.035 -0.4307  0.8839  0.4859
 5177SOL     OW27163   4.471   3.502   3.039  0.3935 -0.0408  0.1769
 5177SOL    HW127164   4.519   3.451   3.105  0.0423  0.0076  0.4714
 5177SOL    HW227165   4.417   3.433   3.000  0.3759 -1.7602  3.2544
 5178SOL     OW27166   1.148   0.549   8.010  0.8087 -0.9656  0.3810
 5178SOL    HW127167   1.061   0.551   8.050  0.3862 -0.7777 -0.5393
 5178SOL    HW227168   1.164   0.643   8.009 -1.2597 -0.6295 -1.9997
 5179SOL     OW27169   3.338   2.739  12.682  0.4101  0.1584 -0.0204
 5179SOL    HW127170   3.416   2.705  12.726  0.1582 -0.8057 -0.3141
 5179SOL    HW227171   3.361   2.829  12.660 -0.0305  0.4839  0.8314
 5180SOL     OW27172   4.483   1.371   0.573 -0.0243 -0.3622 -0.1557
 5180SOL    HW127173   4.570   1.371   0.613  0.0116  1.1313 -0.2319
 5180SOL    HW227174   4.507   1.395   0.484 -0.1757  0.5909  0.0566
 5181SOL     OW27175   3.086   1.319   2.604  0.3235  0.2327 -0.5273
 5181SOL    HW127176   3.106   1.277   2.520  2.6041 -0.3561  0.2946
 5181SOL    HW227177   3.138   1.260   2.659 -0.4200 -0.2158 -0.2943
 5182SOL     OW27178   3.579   4.072   4.908 -0.4655 -0.1662  0.1337
 5182SOL    HW127179   3.565   4.165   4.926 -1.4989 -0.6435  1.7632
 5182SOL    HW227180   3.532   4.056   4.826 -1.6370 -0.2190  0.8183
 5183SOL     OW27181   4.679   2.287   3.538  0.2708 -0.5520 -0.5894
 5183SOL    HW127182   4.679   2.208   3.591  0.3802 -0.3994 -0.3631
 5183SOL    HW227183   4.614   2.334   3.591  1.6600  0.0440  0.5599
 5184SOL     OW27184   0.201   2.297   8.645 -0.1181  0.2045  0.3866
 5184SOL    HW127185   0.296   2.290   8.644 -0.2573 -1.6688 -0.6904
 5184SOL    HW227186   0.180   2.350   8.722 -0.8296 -0.4097  0.6204
 5185SOL     OW27187   0.286   1.051  11.105 -0.0078 -0.6292 -0.1449
 5185SOL    HW127188   0.338   0.994  11.048 -1.1478 -1.0573 -0.7344
 5185SOL    HW227189   0.333   1.033  11.187  1.0023 -0.5871 -0.7071
 5186SOL     OW27190   2.063   0.644   2.347 -0.2775  0.0065 -0.3527
 5186SOL    HW127191   2.105   0.697   2.415 -0.4713 -0.0026 -0.2232
 5186SOL    HW227192   1.974   0.676   2.359 -0.5918 -0.8996 -0.2319
 5187SOL     OW27193   3.321   1.495   6.856  0.0671 -0.7260 -0.2558
 5187SOL    HW127194   3.264   1.559   6.899  0.3677  1.1365 -2.6319
 5187SOL    HW227195   3.331   1.542   6.774 -1.1564 -1.8005 -1.0094
 5188SOL     OW27196   0.243   3.666   5.377 -0.0008 -0.6065 -0.0154
 5188SOL    HW127197   0.211   3.578   5.358  1.3998 -0.6526 -2.2275
 5188SOL    HW227198   0.248   3.661   5.473 -1.8803 -1.1282  0.0413
 5189SOL     OW27199   4.289   3.129   7.009  0.4347  0.7147  0.4249
 5189SOL    HW127200   4.223   3.158   6.945  0.0365 -2.6875 -0.7092
 5189SOL    HW227201   4.241   3.098   7.085  0.3822 -1.3149 -0.4480
 5190SOL     OW27202   4.546   2.229  12.835  0.1583 -0.8223 -0.1385
 5190SOL    HW127203   4.606   2.300  12.813  1.4060 -1.2396  1.9224
 5190SOL    HW227204   4.569   2.168  12.766 -1.1907  0.7409 -1.9690
 5191SOL     OW27205   2.988   3.376   6.181 -0.0720 -0.1199 -0.3716
 5191SOL    HW127206   3.029   3.306   6.232 -1.5873 -0.3626  0.4993
 5191SOL    HW227207   2.969   3.323   6.103  0.1903 -0.9276  0.1056
 5192SOL     OW27208   0.949   3.517   7.140  0.1264  0.2565  0.0068
 5192SOL    HW127209   1.006   3.444   7.114  1.7937  1.2265  0.9802
 5192SOL    HW227210   0.971   3.531   7.232 -0.3692 -1.4632  0.4042
 5193SOL     OW27211   0.780   4.041   4.357  0.2037  0.3614 -0.1988
 5193SOL    HW127212   0.780   4.023   4.263 -3.1122  2.8112 -0.6709
 5193SOL    HW227213   0.699   3.999   4.385  1.6521 -0.4609  2.7624
 5194SOL     OW27214   0.863   0.721   8.461  0.4064  0.3464  0.6681
 5194SOL    HW127215   0.949   0.686   8.484 -0.2264 -1.1999  0.6425
 5194SOL    HW227216   0.815   0.731   8.543 -2.2911 -0.4097 -0.8179
 5195SOL     OW27217   0.431   1.958   8.570 -0.0996 -0.0962  0.5300
 5195SOL    HW127218   0.386   1.981   8.489  2.6875 -0.7392 -1.1995
 5195SOL    HW227219   0.477   1.876   8.552  0.7445  0.3620  0.5628
 5196SOL     OW27220   4.154   2.703   2.752  0.1225 -0.1524 -0.7797
 5196SOL    HW127221   4.231   2.649   2.738  1.1985  1.2780 -0.4010
 5196SOL    HW227222   4.125   2.667   2.835 -1.1238  1.7030 -0.4106
 5197SOL     OW27223   4.641   0.244   8.732 -0.1476  0.2352  0.0978
 5197SOL    HW127224   4.642   0.149   8.746 -0.4467  0.4616  1.6719
 5197SOL    HW227225   4.703   0.244   8.659  1.5125 -0.5147  1.5134
 5198SOL     OW27226   3.197   0.724   4.460  0.1067  0.2713  0.0113
 5198SOL    HW127227   3.257   0.774   4.404  0.6006 -0.2180  0.0999
 5198SOL    HW227228   3.159   0.804   4.497 -0.9772  1.0570 -2.7886
 5199SOL     OW27229   3.625   2.477  16.730  0.4747 -0.0500  0.2301
 5199SOL    HW127230   3.647   2.507  16.819  0.2505 -0.5679  0.4604
 5199SOL    HW227231   3.590   2.389  16.739 -0.0844  0.1500 -0.0270
 5200SOL     OW27232   3.129   1.589  16.550  0.2012 -0.8168  0.2224
 5200SOL    HW127233   3.044   1.564  16.513 -0.6655 -0.2692  1.8578
 5200SOL    HW227234   3.093   1.642  16.620  2.6925  0.6682  0.3447
 5201SOL     OW27235   1.969   0.628   4.061 -0.4940 -0.9636  0.5195
 5201SOL    HW127236   1.884   0.601   4.027  0.1973  0.3776 -2.2733
 5201SOL    HW227237   2.027   0.566   4.015 -0.5602 -1.3982  1.0177
 5202SOL     OW27238   3.796   2.120   7.162 -0.3217  0.0851  0.6194
 5202SOL    HW127239   3.712   2.077   7.149  0.0653 -0.3763 -0.3331
 5202SOL    HW227240   3.831   2.100   7.075  0.6577  1.0719  0.7754
 5203SOL     OW27241   4.115   0.197   2.702  0.0464 -0.5376  0.3570
 5203SOL    HW127242   4.115   0.227   2.793 -2.0953 -0.2220  0.2544
 5203SOL    HW227243   4.209   0.186   2.690  0.4807  2.0559  1.2882
 5204SOL     OW27244   1.074   4.690  11.565 -0.2701 -0.1395 -0.3081
 5204SOL    HW127245   1.097   0.039  11.600 -1.0079 -1.0193  2.2854
 5204SOL    HW227246   1.147   4.639  11.599  0.0475  0.8494  0.4781
 5205SOL     OW27247   3.321   1.753   5.692  0.2584 -0.2039 -0.0906
 5205SOL    HW127248   3.371   1.692   5.639 -1.2310 -1.7030  0.2299
 5205SOL    HW227249   3.367   1.743   5.775  0.0201 -1.5616 -0.1179
 5206SOL     OW27250   1.292   3.551   5.572 -0.1814  0.8981 -0.2372
 5206SOL    HW127251   1.352   3.491   5.617 -1.2056  0.2689  0.2833
 5206SOL    HW227252   1.243   3.484   5.524 -1.1779  1.5483 -0.1265
 5207SOL     OW27253   0.790   1.328   5.829 -0.0707  0.8739  0.2409
 5207SOL    HW127254   0.703   1.294   5.807  0.2039  0.7075 -0.6040
 5207SOL    HW227255   0.825   1.330   5.740 -1.8543 -4.6694 -0.6138
 5208SOL     OW27256   4.630   0.180   9.227 -0.7989 -0.3663 -0.1915
 5208SOL    HW127257   4.543   0.141   9.232 -1.5321  1.2032 -0.8635
 5208SOL    HW227258   4.620   0.259   9.175  0.2088  0.2350  0.5223
 5209SOL     OW27259   2.969   3.344  17.380  0.1471  0.8390 -0.7104
 5209SOL    HW127260   2.944   3.267  17.430 -0.4910  1.9085  0.5947
 5209SOL    HW227261   2.992   3.290  17.304 -1.5495 -1.1148  0.1855
 5210SOL     OW27262   0.807   3.080   8.664  0.0309 -0.0433 -0.1836
 5210SOL    HW127263   0.848   3.082   8.577 -1.9351 -2.0161 -1.1618
 5210SOL    HW227264   0.881   3.047   8.716  0.9181  1.0268 -0.7455
 5211SOL     OW27265   3.741   0.866   7.840 -0.3941  0.3648 -0.6521
 5211SOL    HW127266   3.754   0.831   7.928  0.7558  0.5530 -0.7460
 5211SOL    HW227267   3.654   0.902   7.855 -0.1950  0.8869 -0.7620
 5212SOL     OW27268   3.135   1.224   8.117 -1.0853 -0.3279 -0.8800
 5212SOL    HW127269   3.179   1.308   8.107  1.6180 -1.1891  3.5769
 5212SOL    HW227270   3.206   1.166   8.090 -0.0060 -0.2448  1.7287
 5213SOL     OW27271   3.703   1.718   5.655  0.2186 -0.2481 -0.2490
 5213SOL    HW127272   3.745   1.803   5.666  0.9193 -1.0482  3.2112
 5213SOL    HW227273   3.750   1.700   5.574 -0.5732 -1.1404 -0.5109
 5214SOL     OW27274   4.133   0.892   6.113 -0.1488 -0.4108 -0.0359
 5214SOL    HW127275   4.054   0.841   6.100  0.6230 -1.0111 -2.2974
 5214SOL    HW227276   4.179   0.836   6.176  0.5092  0.7053  0.4791
 5215SOL     OW27277   3.561   0.151   6.255 -0.7068 -0.1694  0.3840
 5215SOL    HW127278   3.594   0.062   6.270  1.0471  0.5109  0.5340
 5215SOL    HW227279   3.491   0.128   6.194 -0.7869 -2.3530  1.2807
 5216SOL     OW27280   3.195   4.679   1.656  0.0033 -0.0850 -0.1845
 5216SOL    HW127281   3.290   4.671   1.651  0.1865  2.2391 -0.5002
 5216SOL    HW227282   3.185   0.003   1.583 -0.2491 -1.1700 -1.0678
 5217SOL     OW27283   4.504   0.599   4.593  0.4921 -0.6959  0.1994
 5217SOL    HW127284   4.557   0.674   4.619  0.7441 -0.6937 -0.3108
 5217SOL    HW227285   4.507   0.550   4.675 -3.4712 -3.5995 -1.3704
 5218SOL     OW27286   3.455   3.084   8.543 -0.0118 -0.3129 -0.1353
 5218SOL    HW127287   3.472   3.176   8.525 -1.9151 -0.2284 -1.4984
 5218SOL    HW227288   3.364   3.094   8.572 -0.3957 -2.2316 -0.7031
 5219SOL     OW27289   2.064   0.683   7.756  0.1191 -0.2614  0.1445
 5219SOL    HW127290   2.152   0.696   7.720  0.5936 -0.7297  1.1466
 5219SOL    HW227291   2.017   0.672   7.673 -0.1120  1.6241  0.0291
 5220SOL     OW27292   0.671   1.231   7.037 -0.1073  0.3954  0.0666
 5220SOL    HW127293   0.634   1.228   7.126  1.0371  0.1094  0.5262
 5220SOL    HW227294   0.608   1.267   6.975 -3.8823 -2.8981  1.9612
 5221SOL     OW27295   1.625   3.829   5.699 -0.3781  0.2416  0.2613
 5221SOL    HW127296   1.711   3.865   5.723  0.3435 -0.1428 -1.7108
 5221SOL    HW227297   1.568   3.892   5.742 -1.8373  0.2256 -1.6476
 5222SOL     OW27298   0.961   3.670   3.644 -0.1766  0.0092  0.2676
 5222SOL    HW127299   1.013   3.623   3.579  0.3219  1.6580 -0.5259
 5222SOL    HW227300   1.013   3.750   3.654 -3.1567  2.2691 -2.3922
 5223SOL     OW27301   2.972   2.643   0.363 -0.0198 -0.1463 -0.1771
 5223SOL    HW127302   3.052   2.617   0.410  1.2802  1.7778 -1.3156
 5223SOL    HW227303   2.993   2.696   0.286  0.4080  2.3117  1.6145
 5224SOL     OW27304   1.608   3.414   3.077 -0.1264  0.4767  0.1913
 5224SOL    HW127305   1.653   3.336   3.045  0.7939  0.8073  0.6917
 5224SOL    HW227306   1.671   3.462   3.130  1.4296 -1.9526  0.5612
 5225SOL     OW27307   2.709   2.806  12.306  0.3808 -0.0078  0.4608
 5225SOL    HW127308   2.712   2.799  12.401  3.2028  0.3011  0.3840
 5225SOL    HW227309   2.717   2.901  12.305 -0.7695  0.0954  1.3766
 5226SOL     OW27310   4.099   0.100  17.142 -0.0998 -0.4978  0.7566
 5226SOL    HW127311   4.108   0.021  17.196 -2.7928 -0.9207  0.6179
 5226SOL    HW227312   4.019   0.074  17.097  0.2109  1.5879 -0.9688
 5227SOL     OW27313   2.038   2.070  12.618 -0.0208 -0.0848  0.5237
 5227SOL    HW127314   2.012   1.985  12.653 -1.4590 -0.0225 -0.3916
 5227SOL    HW227315   2.054   2.047  12.526  1.6595 -1.0979  1.0735
 5228SOL     OW27316   1.458   3.449   3.382  0.0882 -0.4617 -0.7137
 5228SOL    HW127317   1.476   3.443   3.476 -2.4519 -0.6803 -0.2547
 5228SOL    HW227318   1.476   3.543   3.377 -0.3655 -0.3541 -0.3648
 5229SOL     OW27319   2.014   0.967  10.871 -0.1718  0.1930 -0.5939
 5229SOL    HW127320   1.968   0.930  10.947 -1.0974  1.8654 -0.3349
 5229SOL    HW227321   2.071   0.892  10.852  0.2125 -0.2900  2.4533
 5230SOL     OW27322   1.491   1.812   5.990 -0.2036 -0.5903  0.1011
 5230SOL    HW127323   1.465   1.892   5.943 -2.5365 -1.2915  0.1723
 5230SOL    HW227324   1.470   1.742   5.928 -0.3497 -0.7227  0.2999
 5231SOL     OW27325   3.486   4.649  17.293 -0.0565  0.5156 -0.0003
 5231SOL    HW127326   3.459   4.684  17.378  2.3217 -0.9293  1.3721
 5231SOL    HW227327   3.396   4.654  17.263 -0.6597 -1.0283  1.5600
 5232SOL     OW27328   1.832   1.034   2.381  0.5236  0.5206  0.5149
 5232SOL    HW127329   1.926   1.048   2.390  0.1158  2.5508  1.3596
 5232SOL    HW227330   1.830   1.029   2.285  1.4920 -1.3078  0.5756
 5233SOL     OW27331   1.563   3.756   9.098  0.0925  0.0224 -0.3616
 5233SOL    HW127332   1.494   3.691   9.109 -0.8165  1.2049  1.0204
 5233SOL    HW227333   1.602   3.728   9.016 -0.9651  0.2409 -0.9349
 5234SOL     OW27334   4.171   4.658  10.899 -0.2473  0.4403  0.1450
 5234SOL    HW127335   4.078   4.679  10.888 -0.9747 -4.1364 -2.6125
 5234SOL    HW227336   4.168   4.580  10.844 -2.0419 -1.8734  3.4776
 5235SOL     OW27337   2.962   1.911   1.692  0.8049  0.4501  0.3359
 5235SOL    HW127338   2.985   1.980   1.754 -0.3129 -0.9190  2.2803
 5235SOL    HW227339   3.006   1.935   1.611 -2.3438  0.3920 -1.4055
 5236SOL     OW27340   0.978   1.205   3.056  0.8851  0.2033 -0.0608
 5236SOL    HW127341   0.992   1.212   2.961  2.4613 -2.5772 -0.0513
 5236SOL    HW227342   0.895   1.252   3.055  0.6366 -0.2420 -0.3104
 5237SOL     OW27343   1.123   3.566  15.629  0.1138 -0.4980  0.0752
 5237SOL    HW127344   1.029   3.564  15.648  0.0117  0.7046 -0.2391
 5237SOL    HW227345   1.132   3.570  15.533 -0.4429 -1.5422 -0.0154
 5238SOL     OW27346   0.142   3.008   5.704  0.5290  0.1475  0.1030
 5238SOL    HW127347   0.105   2.924   5.728  0.7114 -0.1488 -0.6622
 5238SOL    HW227348   0.227   2.977   5.671  0.8423 -1.5956  2.6217
 5239SOL     OW27349   4.652   4.244   7.238  0.0276  0.3702 -0.4448
 5239SOL    HW127350   4.602   4.276   7.314  0.9587  2.1296 -0.5638
 5239SOL    HW227351   4.714   4.317   7.239 -0.0750  0.4585 -0.6827
 5240SOL     OW27352   1.451   1.781   3.006 -0.0088 -0.0136 -0.2991
 5240SOL    HW127353   1.460   1.836   3.084  0.9090 -0.6479  0.0440
 5240SOL    HW227354   1.538   1.779   2.968  0.1110  1.0961 -0.0693
 5241SOL     OW27355   1.187   3.162   2.103  0.5155 -0.1724 -0.2805
 5241SOL    HW127356   1.264   3.114   2.132  2.4842  2.7337 -0.6970
 5241SOL    HW227357   1.196   3.223   2.177 -2.0842 -0.6840  0.4881
 5242SOL     OW27358   4.137   4.131   6.926  0.0161 -0.3585 -0.5107
 5242SOL    HW127359   4.064   4.085   6.968  0.6861  0.3391  1.4391
 5242SOL    HW227360   4.164   4.065   6.862 -1.9064 -1.0818 -0.5674
 5243SOL     OW27361   0.529   4.047   1.462  0.3975  0.5858 -0.2263
 5243SOL    HW127362   0.473   4.106   1.412  0.1669 -0.5599 -1.3199
 5243SOL    HW227363   0.616   4.067   1.428  0.7344 -0.1484  0.2038
 5244SOL     OW27364   2.053   3.139   5.882 -0.5077  0.1175 -0.0445
 5244SOL    HW127365   2.083   3.182   5.802 -0.1387  0.1921  0.1334
 5244SOL    HW227366   1.962   3.125   5.857 -0.7074 -0.3334  0.9238
 5245SOL     OW27367   0.057   0.793   6.833 -0.0034  0.4573  0.2163
 5245SOL    HW127368   0.136   0.739   6.827 -1.1239 -1.1087 -0.4485
 5245SOL    HW227369   4.725   0.727   6.822  0.3946  0.3825 -1.9582
 5246SOL     OW27370   2.803   2.410   2.873 -0.4217 -0.3672 -0.1024
 5246SOL    HW127371   2.798   2.363   2.956 -2.6126  3.5185  1.9369
 5246SOL    HW227372   2.733   2.365   2.825 -0.3203  0.2717 -0.8418
 5247SOL     OW27373   2.735   4.075  17.312  0.2539  0.8104  0.4152
 5247SOL    HW127374   2.738   3.980  17.316  0.1056  0.9237  3.4420
 5247SOL    HW227375   2.790   4.082  17.234 -0.4475  0.2088 -0.1249
 5248SOL     OW27376   3.069   2.234   1.647 -0.5805 -0.6059  0.0020
 5248SOL    HW127377   3.105   2.148   1.626  0.7410  0.2153 -1.1480
 5248SOL    HW227378   3.124   2.255   1.722 -2.1489 -0.2605  1.0382
 5249SOL     OW27379   4.332   3.840   5.375 -0.1625  0.2842 -0.2881
 5249SOL    HW127380   4.293   3.858   5.289 -0.5959 -0.3141 -0.2155
 5249SOL    HW227381   4.346   3.930   5.403  2.3064 -0.4643  0.8711
 5250SOL     OW27382   1.243   1.061  17.535  0.4782  0.3399 -0.1942
 5250SOL    HW127383   1.292   1.128  17.583  3.9269 -1.5033 -1.1954
 5250SOL    HW227384   1.241   1.091  17.444  0.4461 -0.7478 -0.5480
 5251SOL     OW27385   0.946   4.608   9.428 -0.2404  0.2702 -0.0309
 5251SOL    HW127386   0.981   4.664   9.359  1.4429  1.6059  1.8801
 5251SOL    HW227387   1.026   4.601   9.481  0.0157 -0.3643 -0.5044
 5252SOL     OW27388   0.517   3.949  14.646 -0.1633  0.1279  0.1542
 5252SOL    HW127389   0.498   4.006  14.571  1.3208 -0.5636 -0.7482
 5252SOL    HW227390   0.590   3.898  14.611  0.0402 -0.2681  1.1677
 5253SOL     OW27391   1.170   0.664   0.599 -0.1386  0.5621 -0.0592
 5253SOL    HW127392   1.097   0.618   0.638  2.2236 -2.9684  0.2633
 5253SOL    HW227393   1.235   0.593   0.605  0.9793  1.4332 -1.7750
 5254SOL     OW27394   4.433   2.707   3.027 -0.3861  0.5786  0.0366
 5254SOL    HW127395   4.505   2.662   2.983 -1.0595 -0.9342  0.4602
 5254SOL    HW227396   4.366   2.641   3.009 -0.9032  0.9979  0.4225
 5255SOL     OW27397   1.783   3.360  15.180  0.3112 -0.2067  0.3469
 5255SOL    HW127398   1.762   3.267  15.187 -1.4960  0.4382  3.7923
 5255SOL    HW227399   1.801   3.373  15.087  0.8640  3.1779  0.9156
 5256SOL     OW27400   2.230   3.330   1.785  0.2573 -0.0891  0.0152
 5256SOL    HW127401   2.255   3.385   1.710 -2.0024  2.3136  1.0497
 5256SOL    HW227402   2.171   3.266   1.745  0.4247  0.8409 -1.7010
 5257SOL     OW27403   2.334   1.494  17.727  0.4718  0.2415 -0.0883
 5257SOL    HW127404   2.297   1.581  17.717  2.0779  0.8940 -0.4447
 5257SOL    HW227405   2.379   1.484  17.643  3.0801  1.1772  1.2040
 5258SOL     OW27406   3.617   3.901   8.007 -0.4759  0.7994 -0.0572
 5258SOL    HW127407   3.605   3.836   7.938  1.1879  0.4974 -0.0704
 5258SOL    HW227408   3.531   3.909   8.048 -0.7964 -0.9041 -0.3863
 5259SOL     OW27409   0.433   0.064   1.918  0.1237  0.5251 -0.2496
 5259SOL    HW127410   0.479   4.724   1.950 -0.5608  1.1212  2.1779
 5259SOL    HW227411   0.412   0.041   1.828 -1.2226 -0.3722  0.2792
 5260SOL     OW27412   4.132   3.036  15.201  0.1264 -0.8929 -0.0459
 5260SOL    HW127413   4.070   3.022  15.129  0.0298 -1.6848  0.1876
 5260SOL    HW227414   4.160   2.951  15.235 -1.3240 -0.9443  1.0422
 5261SOL     OW27415   2.323   2.668   4.313  0.5230 -0.1989  0.2641
 5261SOL    HW127416   2.284   2.591   4.356  2.1222 -0.2002  1.7245
 5261SOL    HW227417   2.247   2.706   4.269  0.7700  1.2442  1.0973
 5262SOL     OW27418   1.985   0.150   1.941 -0.2404  0.2852 -0.4249
 5262SOL    HW127419   2.063   0.183   1.986 -0.5477 -0.1719  0.4546
 5262SOL    HW227420   1.907   0.191   1.980 -0.0009 -1.3013  1.7493
 5263SOL     OW27421   4.556   3.838   5.064  0.3521 -0.0509 -0.4492
 5263SOL    HW127422   4.485   3.786   5.026 -0.3975 -1.1063  2.4305
 5263SOL    HW227423   4.573   3.784   5.141  0.1074  0.5506  0.0243
 5264SOL     OW27424   0.841   2.921   6.732 -0.7456 -0.1100  0.8982
 5264SOL    HW127425   0.779   2.870   6.784  0.4917 -1.7350  0.7547
 5264SOL    HW227426   0.863   2.869   6.655  1.2534  2.1384 -0.0539
 5265SOL     OW27427   1.207   2.162   7.344  0.6742 -0.0956  0.7090
 5265SOL    HW127428   1.140   2.098   7.321  0.7336  0.1289 -0.1114
 5265SOL    HW227429   1.256   2.156   7.262  0.0042 -1.8637  0.4407
 5266SOL     OW27430   1.092   1.990  15.120 -0.0349 -0.2873 -0.3962
 5266SOL    HW127431   1.101   2.010  15.213 -3.3447  0.3779 -0.2273
 5266SOL    HW227432   1.062   2.079  15.097 -2.4573 -1.4786 -1.8490
 5267SOL     OW27433   2.582   3.692   8.623  0.1480 -0.3195 -0.5790
 5267SOL    HW127434   2.519   3.662   8.557 -0.1448 -2.6764  0.7707
 5267SOL    HW227435   2.536   3.673   8.705  3.8970 -0.6404  1.4498
 5268SOL     OW27436   1.161   2.462   3.201 -0.4163 -0.2868  0.8923
 5268SOL    HW127437   1.223   2.518   3.248  2.6354 -1.7284 -1.4224
 5268SOL    HW227438   1.103   2.532   3.171  2.6685  1.0590 -2.0912
 5269SOL     OW27439   2.440   1.083   6.215  1.1016  0.8305 -0.3879
 5269SOL    HW127440   2.464   1.019   6.283  2.1333  1.5316 -0.1051
 5269SOL    HW227441   2.411   1.154   6.272 -0.5785 -0.0939 -0.0854
 5270SOL     OW27442   2.907   2.373   7.897  0.8880 -0.4022 -0.2457
 5270SOL    HW127443   2.993   2.413   7.898  0.4680  0.4399  1.4182
 5270SOL    HW227444   2.861   2.410   7.821  0.7803  0.9375  0.4857
 5271SOL     OW27445   3.196   3.689   1.601 -0.4890 -0.5557 -0.4883
 5271SOL    HW127446   3.167   3.617   1.545 -1.3076 -0.9633  0.4638
 5271SOL    HW227447   3.156   3.658   1.682  0.5698  0.6048  0.4744
 5272SOL     OW27448   2.497   3.561   3.421  0.1833 -0.5742 -0.4688
 5272SOL    HW127449   2.521   3.631   3.481 -0.9722 -1.9573  1.6189
 5272SOL    HW227450   2.452   3.618   3.359 -1.6165  0.2060  1.5269
 5273SOL     OW27451   1.977   0.895   4.770  0.1595  0.0974 -0.0511
 5273SOL    HW127452   1.915   0.895   4.843 -1.3059  1.2225 -1.2746
 5273SOL    HW227453   2.047   0.843   4.809  0.4878 -0.5214 -1.4744
 5274SOL     OW27454   1.649   2.173  17.024  0.2468  0.2554  0.2794
 5274SOL    HW127455   1.632   2.113  16.951 -1.3092  0.7363  0.2589
 5274SOL    HW227456   1.713   2.238  16.997 -1.9971  2.1225 -0.5249
 5275SOL     OW27457   0.937   0.474   1.657  0.4496  0.0559 -0.0264
 5275SOL    HW127458   0.886   0.550   1.685 -0.8191 -1.2862  1.3319
 5275SOL    HW227459   0.922   0.401   1.717 -0.6999  0.1090 -0.2508
 5276SOL     OW27460   4.335   4.179   4.407 -0.3226  0.5177 -0.1956
 5276SOL    HW127461   4.302   4.182   4.317 -1.9059 -1.0716  0.3525
 5276SOL    HW227462   4.368   4.269   4.408 -0.0585  0.4152  0.2402
 5277SOL     OW27463   1.777   2.236  15.410 -0.1158  0.2630 -0.0759
 5277SOL    HW127464   1.762   2.228  15.316  0.6079  0.6213 -0.2242
 5277SOL    HW227465   1.851   2.296  15.399 -0.3089  0.2491 -1.4500
 5278SOL     OW27466   1.166   1.228  17.318 -0.2468 -0.0114  0.3083
 5278SOL    HW127467   1.186   1.308  17.366 -0.1030 -1.0154  1.9201
 5278SOL    HW227468   1.166   1.258  17.227  1.7189  0.0358  0.3227
 5279SOL     OW27469   1.423   1.356   2.034 -0.2337  0.4930 -0.5829
 5279SOL    HW127470   1.331   1.372   2.016 -0.2394  2.0373  0.8344
 5279SOL    HW227471   1.461   1.444   2.030 -1.2255  0.8579 -2.0167
 5280SOL     OW27472   0.313   1.562   1.935 -0.0398 -0.1694 -0.0190
 5280SOL    HW127473   0.399   1.585   1.971  0.1788 -0.4130 -0.3847
 5280SOL    HW227474   0.328   1.559   1.840  2.4470  1.7378  0.2924
 5281SOL     OW27475   1.915   0.739   5.888  0.5280  0.0487  0.2272
 5281SOL    HW127476   1.842   0.784   5.931  1.6060  0.9111  1.1547
 5281SOL    HW227477   1.978   0.811   5.891 -0.5952  1.0432  0.0158
 5282SOL     OW27478   2.099   3.091   7.314  0.3519 -0.1859  0.7011
 5282SOL    HW127479   2.014   3.126   7.286 -0.3881 -2.7157 -0.1938
 5282SOL    HW227480   2.127   3.159   7.375 -0.3930 -0.6732  1.6024
 5283SOL     OW27481   0.414   0.258  17.090 -0.4110  0.0078 -0.4592
 5283SOL    HW127482   0.347   0.218  17.146 -1.4419  1.9195 -0.3405
 5283SOL    HW227483   0.407   0.210  17.007 -1.1010  0.2272 -0.5228
 5284SOL     OW27484   1.833   2.500   5.345  0.0371 -0.5493 -0.3027
 5284SOL    HW127485   1.907   2.440   5.359 -0.9044 -1.1909  1.8257
 5284SOL    HW227486   1.879   2.571   5.300  0.0552 -0.2531  0.1824
 5285SOL     OW27487   0.849   1.649   9.747  0.5906  0.5093 -0.0267
 5285SOL    HW127488   0.859   1.737   9.712  0.9542  0.0693 -1.0266
 5285SOL    HW227489   0.763   1.621   9.715  1.5753 -2.0134 -0.5014
 5286SOL     OW27490   2.745   1.501  17.744  0.0738  0.2939 -0.2742
 5286SOL    HW127491   2.722   1.422  17.695 -0.8491 -0.0803  0.7580
 5286SOL    HW227492   2.660   1.524   0.034 -0.5328 -1.3426 -0.6376
 5287SOL     OW27493   2.320   2.246   0.703 -0.3407 -0.1483  0.2405
 5287SOL    HW127494   2.298   2.203   0.786 -3.3956 -0.5033 -0.7835
 5287SOL    HW227495   2.276   2.192   0.638  0.6554  0.6099 -1.0605
 5288SOL     OW27496   3.958   4.163   5.237 -0.8684  0.4697  0.3100
 5288SOL    HW127497   4.047   4.190   5.263  0.0780 -2.0645 -0.3141
 5288SOL    HW227498   3.976   4.087   5.181  0.1959  1.6961 -1.0128
 5289SOL     OW27499   4.447   4.566   8.762  0.4971  0.4585 -0.3544
 5289SOL    HW127500   4.507   4.639   8.746  0.5501  0.4317 -0.2792
 5289SOL    HW227501   4.367   4.618   8.753  0.1712  0.1011  0.4215
 5290SOL     OW27502   0.775   3.372   3.743 -0.5342 -0.1859 -0.1114
 5290SOL    HW127503   0.805   3.458   3.714  1.2024 -0.2025  1.6098
 5290SOL    HW227504   0.722   3.387   3.821 -2.5013 -0.9367 -1.2950
 5291SOL     OW27505   3.382   1.798   8.699 -0.4232 -0.9348 -0.1595
 5291SOL    HW127506   3.417   1.723   8.650 -2.8928 -1.1940 -1.5518
 5291SOL    HW227507   3.428   1.877   8.670 -1.3259 -0.7150 -1.0013
 5292SOL     OW27508   1.517   3.921  12.660  0.2883 -0.2668 -0.3088
 5292SOL    HW127509   1.487   3.985  12.595  1.5888 -0.0818 -0.7225
 5292SOL    HW227510   1.602   3.896  12.624  0.1687  1.5547 -1.9024
 5293SOL     OW27511   1.073   0.046   8.348 -0.2876 -0.3048  0.3362
 5293SOL    HW127512   1.114   4.697   8.342 -0.0847 -0.1560 -0.4762
 5293SOL    HW227513   1.090   0.072   8.258 -0.3832  1.4223  0.8332
 5294SOL     OW27514   3.585   2.565  13.977  0.3855 -0.4788 -0.8682
 5294SOL    HW127515   3.655   2.618  14.017 -1.5627  0.1067  1.7787
 5294SOL    HW227516   3.604   2.475  14.005 -2.1473 -0.9276 -0.6427
 5295SOL     OW27517   2.797   4.134   3.769  0.4754  0.5841 -0.3651
 5295SOL    HW127518   2.793   4.088   3.853  0.8563  0.6515 -0.3095
 5295SOL    HW227519   2.812   4.220   3.809 -0.3589  0.1353  0.9171
 5296SOL     OW27520   3.838   1.716   7.346 -0.2995 -0.3298 -0.7967
 5296SOL    HW127521   3.759   1.769   7.334 -0.2084 -0.1867 -0.7656
 5296SOL    HW227522   3.807   1.628   7.367  0.2974 -0.8482 -2.0741
 5297SOL     OW27523   4.047   3.555  10.041  1.0435 -0.4138  0.6228
 5297SOL    HW127524   4.075   3.494   9.973 -2.0196 -0.1683 -0.8537
 5297SOL    HW227525   4.000   3.499  10.103  0.5414 -0.2017  0.4326
 5298SOL     OW27526   0.001   0.436   3.493 -0.1761 -0.4718  0.5864
 5298SOL    HW127527   0.001   0.435   3.588 -1.1962 -1.2080  0.5880
 5298SOL    HW227528   4.719   0.524   3.460 -0.6927 -0.6883  0.2955
 5299SOL     OW27529   0.952   2.685   1.931 -0.1465  0.5244  0.5247
 5299SOL    HW127530   0.905   2.729   1.860 -0.9397 -0.4502  0.4423
 5299SOL    HW227531   1.040   2.715   1.909  0.4102 -1.8356 -0.4389
 5300SOL     OW27532   3.295   1.062  16.400 -0.1621  0.4439  0.4404
 5300SOL    HW127533   3.280   1.015  16.481 -3.3154 -0.5450 -0.7147
 5300SOL    HW227534   3.387   1.089  16.403 -0.6969  2.3856 -0.1579
 5301SOL     OW27535   1.594   2.123   6.960 -0.7646 -0.2715  0.3406
 5301SOL    HW127536   1.584   2.218   6.966  1.6557  0.0915 -1.7200
 5301SOL    HW227537   1.650   2.114   7.037 -0.8067  2.1956  0.6533
 5302SOL     OW27538   0.840   1.952   1.494 -0.0864 -0.1927 -0.5247
 5302SOL    HW127539   0.816   1.890   1.564 -0.7170 -0.9227 -1.3993
 5302SOL    HW227540   0.795   2.025   1.537 -0.3878 -0.8650  0.3133
 5303SOL     OW27541   4.351   0.654   5.529 -0.9103 -0.2156 -0.4453
 5303SOL    HW127542   4.416   0.724   5.541  1.1882 -2.1442 -0.5264
 5303SOL    HW227543   4.267   0.699   5.538 -1.8684 -2.5855  2.5128
 5304SOL     OW27544   1.518   2.886   5.797  0.1911  0.0539 -0.2994
 5304SOL    HW127545   1.529   2.973   5.760  1.0479 -0.1890 -0.6117
 5304SOL    HW227546   1.593   2.863   5.852  0.4110  1.8305  0.1346
 5305SOL     OW27547   3.054   2.486  11.783 -0.6003  0.0154 -0.2863
 5305SOL    HW127548   2.994   2.541  11.833  0.4975  0.2338  0.7991
 5305SOL    HW227549   3.112   2.450  11.851  0.9371 -0.1416 -1.6962
 5306SOL     OW27550   0.196   3.566   3.028  0.1846 -0.5098 -0.0424
 5306SOL    HW127551   0.189   3.529   2.940 -1.6522 -0.6762  0.1631
 5306SOL    HW227552   0.271   3.514   3.056 -0.4559 -1.3786  0.0710
 5307SOL     OW27553   0.022   3.581   2.707 -0.8500 -0.4325  0.1586
 5307SOL    HW127554   4.673   3.617   2.726 -0.1212  0.8817  0.9830
 5307SOL    HW227555   0.037   3.613   2.618 -1.3407  0.9863  0.5853
 5308SOL     OW27556   0.122   2.997  16.039  0.0815 -0.3111  0.1189
 5308SOL    HW127557   0.175   2.972  15.964 -0.2972  0.6300 -0.4601
 5308SOL    HW227558   0.041   3.034  16.002  1.5559  0.2160 -2.5559
 5309SOL     OW27559   0.412   3.229   7.102 -0.3736 -0.4685  0.0921
 5309SOL    HW127560   0.493   3.272   7.076 -0.6562 -0.6638 -1.1418
 5309SOL    HW227561   0.428   3.135   7.103  0.9422 -0.2053  1.9217
 5310SOL     OW27562   2.029   4.098   7.067  0.1858  0.3431 -0.0653
 5310SOL    HW127563   2.039   4.191   7.090  0.5888  0.7777 -1.9825
 5310SOL    HW227564   2.122   4.079   7.050 -0.1539 -1.1444 -0.2518
 5311SOL     OW27565   1.314   3.471   2.538 -0.6029 -0.3724  0.0413
 5311SOL    HW127566   1.291   3.563   2.544 -1.0571 -0.5317  0.7031
 5311SOL    HW227567   1.402   3.491   2.507 -0.6763  0.6251  0.5046
 5312SOL     OW27568   3.599   0.600  15.984 -0.8622 -0.9799  0.1567
 5312SOL    HW127569   3.529   0.631  16.042  0.9801 -1.3105  2.5537
 5312SOL    HW227570   3.604   0.510  16.015 -0.1231 -1.2950 -0.8849
 5313SOL     OW27571   0.242   4.175   5.200  0.2072 -0.3651 -0.2378
 5313SOL    HW127572   0.165   4.127   5.172  1.0023 -1.8043  0.0660
 5313SOL    HW227573   0.273   4.127   5.277  2.2988  0.3765 -0.6002
 5314SOL     OW27574   1.398   2.560   8.801 -0.2315 -0.2848  0.0118
 5314SOL    HW127575   1.336   2.564   8.873  0.4355  1.7718  0.4653
 5314SOL    HW227576   1.346   2.584   8.724  0.7598 -0.7458 -0.8022
 5315SOL     OW27577   0.578   0.996   9.056  0.2537  0.0043  0.2249
 5315SOL    HW127578   0.495   1.038   9.033 -0.0144  0.3780  1.9074
 5315SOL    HW227579   0.597   1.033   9.142 -2.4999 -0.3254  0.9776
 5316SOL     OW27580   2.201   4.464   1.699 -0.0693  0.0286  0.1207
 5316SOL    HW127581   2.118   4.422   1.678 -0.9348  1.5597  0.4553
 5316SOL    HW227582   2.169   4.533   1.757 -1.3622 -0.0507 -0.5030
 5317SOL     OW27583   0.006   3.589   8.870  0.6800 -0.3538  1.0760
 5317SOL    HW127584   4.655   3.581   8.905  0.1702  0.1277 -0.0916
 5317SOL    HW227585   0.029   3.673   8.908 -1.7204  1.1365 -0.7602
 5318SOL     OW27586   0.464   3.698  14.526 -0.1542  0.4474 -0.1896
 5318SOL    HW127587   0.460   3.746  14.608 -0.2418  0.4856 -0.2170
 5318SOL    HW227588   0.559   3.687  14.526 -0.4705 -2.3525 -1.2525
 5319SOL     OW27589   4.579   2.079   3.699  0.0759 -0.1812  0.0680
 5319SOL    HW127590   4.600   2.064   3.791  2.1731  0.3817 -0.3117
 5319SOL    HW227591   4.491   2.117   3.698 -0.1710 -0.7046  1.4628
 5320SOL     OW27592   0.746   1.323   1.135 -0.2945  0.1927 -0.3513
 5320SOL    HW127593   0.777   1.354   1.050 -1.6561  1.1911 -0.4902
 5320SOL    HW227594   0.801   1.245   1.139 -1.6088 -0.8688 -2.4900
 5321SOL     OW27595   3.591   1.782   5.022 -0.1605  0.1468  0.0602
 5321SOL    HW127596   3.604   1.726   4.944  1.2632 -0.2534  0.5792
 5321SOL    HW227597   3.497   1.768   5.031 -0.3872  2.4128  0.9368
 5322SOL     OW27598   0.420   4.087   2.673 -0.1033  0.4316  0.5011
 5322SOL    HW127599   0.495   4.109   2.618  1.0916  0.5566  2.1902
 5322SOL    HW227600   0.413   3.996   2.643  0.3969  0.9987 -1.3661
 5323SOL     OW27601   3.434   4.389  12.434 -0.0539 -0.6064  0.0472
 5323SOL    HW127602   3.485   4.468  12.417 -2.9148  1.1685 -0.2822
 5323SOL    HW227603   3.500   4.353  12.493 -1.7567 -1.5630  1.3867
 5324SOL     OW27604   3.432   0.828   3.777  0.2104  0.2876 -0.1628
 5324SOL    HW127605   3.415   0.837   3.683 -0.2517  0.9335 -0.0147
 5324SOL    HW227606   3.495   0.899   3.789  0.7468 -0.2775  0.3862
 5325SOL     OW27607   3.401   2.127   2.364  0.2966  0.5874  0.3389
 5325SOL    HW127608   3.329   2.174   2.323  0.5140  2.4694  2.1165
 5325SOL    HW227609   3.356   2.049   2.396 -0.4312  1.2534  0.9391
 5326SOL     OW27610   1.367   4.018  12.314  0.3853 -0.0216  0.2676
 5326SOL    HW127611   1.373   4.113  12.325  0.7772  0.1522 -1.4383
 5326SOL    HW227612   1.403   4.007  12.226  1.0746 -2.4740  0.8480
 5327SOL     OW27613   0.819   1.571   8.284  0.8336 -0.4009 -0.2620
 5327SOL    HW127614   0.829   1.500   8.220  0.5021 -2.0231  1.4966
 5327SOL    HW227615   0.735   1.547   8.322  1.7619 -0.6642  1.6019
 5328SOL     OW27616   1.764   2.088   6.756  0.4673  0.3505 -0.2449
 5328SOL    HW127617   1.716   2.100   6.837 -0.8745  0.4661 -1.0570
 5328SOL    HW227618   1.778   2.179   6.727  2.4582  0.6078  1.5387
 5329SOL     OW27619   3.514   1.081  14.243 -0.7613  0.2439 -0.2492
 5329SOL    HW127620   3.578   1.033  14.296  1.6045  0.9560 -2.4846
 5329SOL    HW227621   3.469   1.126  14.315  0.6572  2.7767 -0.9748
 5330SOL     OW27622   3.326   0.770  16.174 -0.0227  0.2707  0.1899
 5330SOL    HW127623   3.277   0.851  16.164 -0.1836  0.1612  0.1118
 5330SOL    HW227624   3.256   0.707  16.159 -0.4110  0.7507  0.0135
 5331SOL     OW27625   0.604   0.296   1.935  0.7952 -0.2818 -0.2878
 5331SOL    HW127626   0.548   0.226   1.900 -0.3402 -0.5201  1.9609
 5331SOL    HW227627   0.687   0.252   1.955 -0.0329 -2.4325 -1.6187
 5332SOL     OW27628   1.947   4.246   6.030  0.3669  0.8098  0.0997
 5332SOL    HW127629   2.001   4.268   5.955  1.6502  1.5167  1.2286
 5332SOL    HW227630   2.012   4.218   6.095  0.1001  0.9752  0.4421
 5333SOL     OW27631   2.172   4.562  16.733  0.3489  0.2079 -0.3560
 5333SOL    HW127632   2.109   4.546  16.662 -0.2868  1.3413 -0.0626
 5333SOL    HW227633   2.122   4.611  16.799  0.7774 -1.4553  1.1756
 5334SOL     OW27634   1.893   0.494   2.081 -0.0425 -0.5233  0.7500
 5334SOL    HW127635   1.876   0.588   2.087  2.4825  0.0992 -1.8652
 5334SOL    HW227636   1.987   0.494   2.060 -1.0420 -0.6942 -3.6505
 5335SOL     OW27637   2.711   3.242   3.102 -0.0273 -0.0673 -0.1558
 5335SOL    HW127638   2.730   3.165   3.157 -1.9582 -0.8301 -0.5239
 5335SOL    HW227639   2.718   3.314   3.165  0.3583  0.3579 -0.6921
 5336SOL     OW27640   1.082   1.639   4.863 -0.2921 -0.1885  1.0048
 5336SOL    HW127641   1.129   1.712   4.903 -1.1512  2.1057 -2.2159
 5336SOL    HW227642   1.113   1.569   4.921 -3.3023 -2.0433  0.4208
 5337SOL     OW27643   3.302   2.506  16.770 -0.0991 -0.2357 -0.0707
 5337SOL    HW127644   3.335   2.578  16.824  0.1981 -1.2606  1.1124
 5337SOL    HW227645   3.378   2.450  16.758  0.5128  0.6216 -0.1668
 5338SOL     OW27646   0.631   4.619  15.624  0.1676  0.1812  0.4575
 5338SOL    HW127647   0.640   4.702  15.670  0.2380 -0.0067  0.7883
 5338SOL    HW227648   0.650   4.648  15.535  3.0547 -1.6685  0.4725
 5339SOL     OW27649   2.937   0.801   5.789  0.3554  0.4684 -0.1201
 5339SOL    HW127650   3.011   0.739   5.784  0.2415  0.2556  0.8779
 5339SOL    HW227651   2.957   0.865   5.721  1.0987  1.1309  0.7187
 5340SOL     OW27652   3.722   2.007   8.217  0.5166  0.1810 -0.2418
 5340SOL    HW127653   3.629   2.003   8.194  0.8522  0.3260 -1.6272
 5340SOL    HW227654   3.724   1.956   8.298 -0.1835  0.2035 -0.2102
 5341SOL     OW27655   1.149   4.399   7.558  0.2196 -0.2263  0.0172
 5341SOL    HW127656   1.223   4.421   7.614 -0.3641  0.3993  0.5281
 5341SOL    HW227657   1.158   4.449   7.477 -1.1862  0.9854  0.6251
 5342SOL     OW27658   0.756   0.746   8.710  0.1415 -0.0731 -0.0060
 5342SOL    HW127659   0.798   0.681   8.765 -1.1609  1.9259  3.3543
 5342SOL    HW227660   0.753   0.820   8.771  0.3428  1.0749 -1.3968
 5343SOL     OW27661   2.396   1.459  15.899 -0.0851  0.3043 -0.1030
 5343SOL    HW127662   2.309   1.433  15.869  0.5821  1.2698 -2.9068
 5343SOL    HW227663   2.385   1.553  15.916  0.9749  0.5401 -0.6838
 5344SOL     OW27664   0.359   0.111   5.960 -0.5201 -0.4179  0.0950
 5344SOL    HW127665   0.407   0.119   5.878 -1.5611  3.2573 -0.1712
 5344SOL    HW227666   0.391   0.191   6.002  0.1423 -0.5209 -0.2259
 5345SOL     OW27667   0.772   3.884   1.846 -0.4906 -0.4273  0.3144
 5345SOL    HW127668   0.694   3.913   1.799 -0.2395 -1.7807 -0.9264
 5345SOL    HW227669   0.818   3.844   1.772 -0.6552 -0.8979  0.4671
 5346SOL     OW27670   2.376   1.483   4.251  0.3578  0.4372  0.2580
 5346SOL    HW127671   2.395   1.469   4.158  0.6151  1.8313  0.1046
 5346SOL    HW227672   2.281   1.480   4.250  0.2852  3.5367 -0.8725
 5347SOL     OW27673   2.814   4.066   4.032 -0.3779 -0.0790  0.5938
 5347SOL    HW127674   2.855   4.009   4.097 -1.3301  0.2840  1.4981
 5347SOL    HW227675   2.767   4.123   4.093  1.0651 -1.2808  2.7997
 5348SOL     OW27676   3.564   2.632  12.827  0.1837 -0.1024 -0.4906
 5348SOL    HW127677   3.530   2.597  12.909 -0.3012  0.6360 -0.3693
 5348SOL    HW227678   3.565   2.548  12.781  1.8424 -0.0223 -0.5937
 5349SOL     OW27679   3.532   1.852   1.913  1.0476  0.5620  0.6704
 5349SOL    HW127680   3.449   1.894   1.935  0.9967 -0.0002  1.5827
 5349SOL    HW227681   3.537   1.874   1.820  0.1364 -0.7315  0.3243
 5350SOL     OW27682   1.015   3.026   8.843 -0.5552  0.1841  0.2955
 5350SOL    HW127683   1.021   3.096   8.908 -3.0714  0.4370  0.2713
 5350SOL    HW227684   1.106   3.031   8.815 -1.5199  1.1507 -2.6284
 5351SOL     OW27685   1.116   3.744   0.985  0.6013 -0.1372  0.0042
 5351SOL    HW127686   1.100   3.761   0.893 -4.0174 -0.1672  0.7993
 5351SOL    HW227687   1.037   3.693   1.001 -0.0724  1.5746  2.2603
 5352SOL     OW27688   0.742   2.014   3.144 -0.2051  0.0415  0.8250
 5352SOL    HW127689   0.812   1.963   3.103 -0.7208  0.7104 -0.9037
 5352SOL    HW227690   0.783   2.056   3.220  2.8319 -2.7187  0.7196
 5353SOL     OW27691   0.480   0.218   8.728  0.3977 -0.3136  0.5605
 5353SOL    HW127692   0.423   0.201   8.804 -0.1009  0.7508  0.4173
 5353SOL    HW227693   0.556   0.256   8.770  0.9937 -0.0415 -0.7774
 5354SOL     OW27694   1.229   1.595  10.704 -0.2168 -0.0629  0.2356
 5354SOL    HW127695   1.225   1.500  10.720 -1.0377 -0.5671 -2.9983
 5354SOL    HW227696   1.179   1.601  10.623  2.3985 -1.9470 -1.5275
 5355SOL     OW27697   0.496   4.331   1.552 -0.0151 -0.1656  0.0690
 5355SOL    HW127698   0.522   4.296   1.637 -4.4529  1.0171  1.9558
 5355SOL    HW227699   0.475   4.423   1.570 -1.8573 -0.5106 -0.2308
 5356SOL     OW27700   0.175   0.038   2.866  0.0387  0.3630  0.0812
 5356SOL    HW127701   0.184   0.129   2.894  2.1714  0.2156 -0.1312
 5356SOL    HW227702   0.218   4.734   2.941  1.4762  1.1649 -0.2965
 5357SOL     OW27703   3.361   1.554   4.748 -0.4920 -0.4014 -0.2752
 5357SOL    HW127704   3.291   1.584   4.690  1.5021 -1.9748 -3.4878
 5357SOL    HW227705   3.318   1.584   4.828 -1.1974  0.2468 -0.8873
 5358SOL     OW27706   3.172   4.507   4.070  0.2442 -0.1456  0.0656
 5358SOL    HW127707   3.216   4.436   4.023  3.9372  0.3611  2.7524
 5358SOL    HW227708   3.245   4.548   4.117  1.3340 -2.5510  0.5030
 5359SOL     OW27709   1.098   1.561  17.268 -0.4669 -0.6839 -0.3052
 5359SOL    HW127710   1.080   1.655  17.268 -0.4262 -0.6781  1.7470
 5359SOL    HW227711   1.174   1.550  17.326  1.1572  0.0843 -2.2895
 5360SOL     OW27712   2.072   0.872   5.415 -0.1656  0.2191  0.4613
 5360SOL    HW127713   2.027   0.889   5.333  1.7628  4.5772  0.3140
 5360SOL    HW227714   2.048   0.785   5.448  2.2193 -0.8698 -0.6891
 5361SOL     OW27715   0.686   2.675   5.234  0.1625  0.8050  0.1345
 5361SOL    HW127716   0.758   2.614   5.216 -0.4775  0.3636 -0.9381
 5361SOL    HW227717   0.625   2.639   5.170  1.4795 -0.0711 -0.6389
 5362SOL     OW27718   2.170   2.911   8.567  0.8895 -0.0573 -0.3496
 5362SOL    HW127719   2.109   2.907   8.494 -0.5001 -0.3526  0.8280
 5362SOL    HW227720   2.180   3.003   8.591  0.0861 -0.1771  0.4545
 5363SOL     OW27721   3.806   4.604  10.337  0.1457  0.5416 -0.2223
 5363SOL    HW127722   3.824   4.697  10.344 -2.1640  1.0519 -1.3333
 5363SOL    HW227723   3.813   4.587  10.243  0.9004  2.2224 -0.4603
 5364SOL     OW27724   1.655   3.060   8.255 -0.4520 -0.5532 -0.1273
 5364SOL    HW127725   1.644   3.139   8.307 -0.2307 -2.3835  2.6928
 5364SOL    HW227726   1.748   3.047   8.272 -0.0598  3.4251  0.6404
 5365SOL     OW27727   0.788   2.156  10.533 -0.1491  0.4539  0.1119
 5365SOL    HW127728   0.834   2.076  10.560  1.9826  2.3370  1.9869
 5365SOL    HW227729   0.700   2.119  10.541  0.1602  0.5041  3.5913
 5366SOL     OW27730   2.209   1.075   0.331 -0.1705 -0.5928 -0.2723
 5366SOL    HW127731   2.153   1.151   0.346  0.2425 -0.4422  0.4591
 5366SOL    HW227732   2.267   1.088   0.406 -0.9117 -0.7799  0.3343
 5367SOL     OW27733   1.647   3.493   5.293 -0.3435 -0.5863  0.3810
 5367SOL    HW127734   1.563   3.447   5.284 -0.9050  0.5176 -0.0149
 5367SOL    HW227735   1.621   3.583   5.274  0.4021 -0.4810 -0.1437
 5368SOL     OW27736   4.340   4.310  12.899  0.2893  1.1157 -0.4210
 5368SOL    HW127737   4.324   4.273  12.812 -1.4912 -1.5209  1.0173
 5368SOL    HW227738   4.435   4.299  12.910  0.1733  0.5489  0.0653
 5369SOL     OW27739   2.903   0.318  15.270 -0.3624  0.3691  0.4471
 5369SOL    HW127740   2.914   0.412  15.284 -0.6552  0.4990 -0.1925
 5369SOL    HW227741   2.975   0.291  15.326  0.2652  0.8196 -0.1409
 5370SOL     OW27742   2.721   4.722  12.370  0.0239  0.0225 -0.3361
 5370SOL    HW127743   2.635   0.022  12.347 -0.1405  0.8830  1.7407
 5370SOL    HW227744   2.777   0.051  12.327  1.0219  0.5557  1.8051
 5371SOL     OW27745   1.173   4.438  11.859 -0.0137  0.0156 -0.3212
 5371SOL    HW127746   1.229   4.515  11.867 -0.5695  0.5625 -1.6810
 5371SOL    HW227747   1.232   4.382  11.808 -1.9126 -2.2084 -0.1190
 5372SOL     OW27748   0.007   4.228   1.595  0.4246  0.2597 -0.2100
 5372SOL    HW127749   4.731   4.138   1.623 -0.2143  0.1471 -0.8740
 5372SOL    HW227750   0.051   4.264   1.672 -0.0070  1.3253 -0.4513
 5373SOL     OW27751   1.978   2.853   9.393 -0.6163 -0.6761  0.8030
 5373SOL    HW127752   1.989   2.822   9.303 -2.8329 -1.3830  0.7890
 5373SOL    HW227753   1.884   2.836   9.400 -0.3616 -1.7579  1.5032
 5374SOL     OW27754   1.650   1.737  12.443 -0.2107 -0.9409  0.0559
 5374SOL    HW127755   1.697   1.761  12.523 -2.2370 -2.2853  1.6637
 5374SOL    HW227756   1.719   1.708  12.384 -1.0002 -0.2562 -1.2000
 5375SOL     OW27757   1.814   4.043   2.902 -0.8644 -0.5082  0.4811
 5375SOL    HW127758   1.852   4.024   2.816 -0.0341 -1.9184  1.1507
 5375SOL    HW227759   1.753   3.971   2.920  0.7789 -1.3909  2.6302
 5376SOL     OW27760   1.242   4.485   1.511 -0.2449 -0.0885  0.5107
 5376SOL    HW127761   1.220   4.471   1.419  0.5713  2.3524 -0.0468
 5376SOL    HW227762   1.212   4.400   1.545 -1.9339  0.1637 -0.3459
 5377SOL     OW27763   2.951   0.221   0.199  0.3125  0.6235  0.0212
 5377SOL    HW127764   2.946   0.297   0.257  1.2919  1.0576 -0.4781
 5377SOL    HW227765   2.934   0.271   0.119 -0.7891 -0.5387 -0.4658
 5378SOL     OW27766   0.290   1.812   6.863 -0.3498  0.4408 -0.4074
 5378SOL    HW127767   0.333   1.768   6.789  1.9692 -1.1525  1.8753
 5378SOL    HW227768   0.302   1.750   6.935 -1.1977  1.3730  0.5136
 5379SOL     OW27769   0.052   2.118   2.848 -0.0649 -0.2208  0.0931
 5379SOL    HW127770   4.710   2.159   2.812 -1.2747 -1.6779  1.0539
 5379SOL    HW227771   0.101   2.154   2.774 -0.8948  1.6328  0.4551
 5380SOL     OW27772   2.707   3.460   3.283  0.5821  0.3597 -0.6860
 5380SOL    HW127773   2.733   3.467   3.375 -2.0078 -2.4114  0.2668
 5380SOL    HW227774   2.616   3.492   3.282  0.0345 -1.3005 -3.5085
 5381SOL     OW27775   3.898   3.444   4.300 -0.2822  0.2186 -0.7722
 5381SOL    HW127776   3.878   3.462   4.392 -4.1767  2.0880 -1.9582
 5381SOL    HW227777   3.990   3.417   4.300 -0.6867 -1.1705 -1.3076
 5382SOL     OW27778   2.543   4.172  13.644 -0.3614  0.1114  0.2294
 5382SOL    HW127779   2.529   4.262  13.675 -2.8298  0.5023 -1.9888
 5382SOL    HW227780   2.628   4.158  13.686 -0.0993 -0.5372 -0.5221
 5383SOL     OW27781   2.241   0.925   1.291  0.3345  0.3463  0.2061
 5383SOL    HW127782   2.284   0.995   1.242  2.2197 -0.9632 -0.0149
 5383SOL    HW227783   2.186   0.967   1.357  2.3257  1.0318  1.4168
 5384SOL     OW27784   3.085   1.024   8.381  0.0753 -0.4054  0.0180
 5384SOL    HW127785   3.046   1.059   8.461  0.1348  1.7415 -0.8958
 5384SOL    HW227786   3.062   1.097   8.323 -2.3521 -0.7201  0.5906
 5385SOL     OW27787   3.485   2.145   4.594  0.0291  0.3752 -0.2557
 5385SOL    HW127788   3.433   2.213   4.637  0.8954 -1.1101  3.1888
 5385SOL    HW227789   3.451   2.064   4.633 -0.2761  1.4157  1.6340
 5386SOL     OW27790   0.370   0.074  14.846  0.0286  0.6281  0.2395
 5386SOL    HW127791   0.451   0.030  14.872 -0.2540 -0.1597 -0.2037
 5386SOL    HW227792   0.378   0.098  14.754 -2.0017  1.3832  0.2515
 5387SOL     OW27793   0.445   0.793   8.032 -0.0846  0.3083  0.4159
 5387SOL    HW127794   0.420   0.873   8.080  0.1392  0.1402  0.8122
 5387SOL    HW227795   0.371   0.784   7.971 -0.4723 -2.3907  1.2837
 5388SOL     OW27796   0.107   0.092   6.182  0.0972 -0.2356  0.0052
 5388SOL    HW127797   0.152   0.078   6.099  0.8755  0.6735  0.2696
 5388SOL    HW227798   0.052   0.165   6.156  1.2656  1.2256  1.6413
 5389SOL     OW27799   3.104   4.680   4.384  0.0357  0.1494  0.4622
 5389SOL    HW127800   3.197   4.701   4.370  0.2450 -2.5550 -1.9831
 5389SOL    HW227801   3.112   4.611   4.450 -2.7934  1.0260  1.7294
 5390SOL     OW27802   0.937   0.521   6.491  0.2485  0.2669 -0.6418
 5390SOL    HW127803   0.951   0.609   6.455  0.2450  2.0526  3.5987
 5390SOL    HW227804   0.857   0.532   6.543  0.0705  0.0914 -0.8835
 5391SOL     OW27805   3.506   3.299   4.398  0.5707  0.6736  0.3693
 5391SOL    HW127806   3.585   3.291   4.345  0.5347  1.6074  0.1691
 5391SOL    HW227807   3.458   3.240   4.340 -1.8609  2.4920  0.5178
 5392SOL     OW27808   4.730   4.423   8.383 -0.2180 -0.6228  0.3721
 5392SOL    HW127809   0.085   4.397   8.372 -0.6234 -1.5683 -0.8305
 5392SOL    HW227810   4.727   4.374   8.465 -1.4049 -0.0293  0.6719
 5393SOL     OW27811   4.022   0.986   3.019 -0.1077 -0.4246  0.0334
 5393SOL    HW127812   3.973   0.905   3.008  0.2393 -0.6326  0.0151
 5393SOL    HW227813   3.980   1.023   3.097 -0.9855 -1.7062  0.1733
 5394SOL     OW27814   2.276   4.505  17.694  0.0360 -0.4027 -0.6512
 5394SOL    HW127815   2.218   4.434  17.721 -0.5390  0.8979  1.5208
 5394SOL    HW227816   2.348   4.454  17.656  0.8074  0.2033  0.0034
 5395SOL     OW27817   2.288   3.561  11.344 -0.1121  0.8924 -0.0514
 5395SOL    HW127818   2.208   3.545  11.394 -0.3989  0.6140 -0.6091
 5395SOL    HW227819   2.351   3.573  11.415 -0.0956  0.9239 -0.0715
 5396SOL     OW27820   4.020   0.880   0.623  0.8400 -0.4509 -1.0099
 5396SOL    HW127821   3.943   0.850   0.671  1.0728  2.3095  1.1056
 5396SOL    HW227822   4.026   0.811   0.557  1.0663 -2.3837  1.0440
 5397SOL     OW27823   3.683   3.911   3.581 -0.1063  0.4176  0.1729
 5397SOL    HW127824   3.688   3.880   3.491  0.6565 -0.1191  0.4005
 5397SOL    HW227825   3.597   3.953   3.585  0.6954  1.9167  1.9544
 5398SOL     OW27826   4.396   2.991  11.973 -0.1073 -0.3257  0.1319
 5398SOL    HW127827   4.446   2.969  11.894  1.5168  1.0213  0.7982
 5398SOL    HW227828   4.413   3.085  11.976 -0.8318 -0.1292 -1.7712
 5399SOL     OW27829   2.557   1.502   4.011  0.1445 -0.3595 -0.0648
 5399SOL    HW127830   2.578   1.433   3.949  0.7176 -0.3346  0.0993
 5399SOL    HW227831   2.624   1.486   4.078  0.6406 -0.5340 -0.6108
 5400SOL     OW27832   2.748   0.352  16.570  0.2530  0.6599 -0.5429
 5400SOL    HW127833   2.693   0.369  16.493  0.1271  1.2814 -0.3140
 5400SOL    HW227834   2.781   0.435  16.604 -0.6199  0.2280  1.3821
 5401SOL     OW27835   3.314   3.348   7.387 -0.0254 -0.2061  0.3458
 5401SOL    HW127836   3.267   3.425   7.418  1.1650  1.4403 -1.8856
 5401SOL    HW227837   3.247   3.282   7.402 -0.1071 -0.1536  0.2159
 5402SOL     OW27838   3.496   1.011  11.278 -0.0677  0.4193  0.1298
 5402SOL    HW127839   3.422   1.050  11.324  0.7461  1.3592  0.6290
 5402SOL    HW227840   3.465   1.035  11.191 -1.0602  1.8342  0.8849
 5403SOL     OW27841   1.685   2.062   6.046 -0.1042 -0.3935 -0.1847
 5403SOL    HW127842   1.749   2.001   6.010 -1.1556 -1.1017 -0.8533
 5403SOL    HW227843   1.603   2.034   6.006 -0.1883  1.8931 -1.6003
 5404SOL     OW27844   2.250   2.793  16.073 -0.0105  0.2744  0.8036
 5404SOL    HW127845   2.202   2.723  16.031 -0.0796  1.0196 -0.3495
 5404SOL    HW227846   2.265   2.851  15.998 -1.2785 -1.4078 -0.7451
 5405SOL     OW27847   1.639   0.205   3.273  0.5206 -0.8494  0.0679
 5405SOL    HW127848   1.606   0.117   3.290 -0.8200 -0.6172 -1.3255
 5405SOL    HW227849   1.567   0.252   3.232  1.1607  1.4169  1.5532
 5406SOL     OW27850   4.376   2.547   2.770 -0.5708 -0.7970  0.1095
 5406SOL    HW127851   4.459   2.505   2.790  0.2322 -1.0622 -3.7918
 5406SOL    HW227852   4.351   2.502   2.689  2.0273  1.1808 -1.7901
 5407SOL     OW27853   2.586   1.948   5.161 -0.2952  0.0134  0.0863
 5407SOL    HW127854   2.641   1.873   5.184 -3.5621 -2.0370  1.1379
 5407SOL    HW227855   2.597   1.928   5.068  1.5416  0.4854  0.2032
 5408SOL     OW27856   0.454   0.866   5.512  0.0269  0.6548 -0.2966
 5408SOL    HW127857   0.366   0.896   5.490 -1.0534 -1.9006  0.5236
 5408SOL    HW227858   0.458   0.800   5.444  1.1131  0.9502 -0.5230
 5409SOL     OW27859   4.678   1.589  16.304  0.3477 -0.8521 -0.3473
 5409SOL    HW127860   4.595   1.625  16.271  0.9635  0.4689 -0.4512
 5409SOL    HW227861   4.671   1.622  16.394 -0.9542 -1.8585 -0.0704
 5410SOL     OW27862   1.669   0.206  16.915 -0.1403 -0.9254 -0.4420
 5410SOL    HW127863   1.732   0.279  16.918  0.2581 -1.2445 -1.1986
 5410SOL    HW227864   1.717   0.124  16.914  1.1051 -0.2016 -0.5632
 5411SOL     OW27865   2.465   3.693   6.516  0.5407 -0.0740 -0.1933
 5411SOL    HW127866   2.393   3.713   6.576  0.5701 -2.0836  0.4857
 5411SOL    HW227867   2.431   3.709   6.428 -0.4354  0.8823  0.3483
 5412SOL     OW27868   2.581   2.213   7.975 -0.6911 -0.4447 -0.3519
 5412SOL    HW127869   2.673   2.234   7.988 -1.7854  1.5600  4.1026
 5412SOL    HW227870   2.533   2.224   8.057  1.0028 -0.7128  0.6813
 5413SOL     OW27871   0.636   3.082   8.005 -0.0082  0.0296  0.2353
 5413SOL    HW127872   0.684   3.004   8.034 -0.7238  0.2516  2.0113
 5413SOL    HW227873   0.581   3.104   8.080  1.2178 -0.2575  1.2188
 5414SOL     OW27874   3.804   2.150   3.579 -0.1645  0.4757 -0.6504
 5414SOL    HW127875   3.828   2.064   3.614 -0.5650  0.2816 -0.8515
 5414SOL    HW227876   3.883   2.185   3.537 -1.7612  0.8736 -3.3223
 5415SOL     OW27877   1.190   2.929   0.015 -0.0813 -0.0224 -0.2483
 5415SOL    HW127878   1.245   2.860   0.052 -1.0902 -0.5277  0.2971
 5415SOL    HW227879   1.102   2.899   0.041  0.9535 -2.4996  0.4103
 5416SOL     OW27880   0.487   3.768   5.294 -0.3307 -0.1107 -0.2560
 5416SOL    HW127881   0.403   3.787   5.335 -0.1689  1.5267 -0.6583
 5416SOL    HW227882   0.467   3.717   5.215 -1.9899  1.5904 -0.9370
 5417SOL     OW27883   1.460   4.652  16.397 -0.2497 -0.2014 -0.8747
 5417SOL    HW127884   1.489   0.005  16.388  0.0908 -0.3374 -1.1249
 5417SOL    HW227885   1.479   4.630  16.488 -2.7093 -0.6455 -0.4752
 5418SOL     OW27886   4.246   4.181   6.349 -0.0388  0.4827  0.3526
 5418SOL    HW127887   4.213   4.207   6.435 -0.4280 -0.5202  0.5142
 5418SOL    HW227888   4.257   4.089   6.373 -2.4445  0.6529  2.1487
 5419SOL     OW27889   3.551   0.288  16.952 -0.0882 -0.3333 -1.2904
 5419SOL    HW127890   3.614   0.337  16.898 -1.5707  3.8190  0.7249
 5419SOL    HW227891   3.604   0.212  16.977  0.1755  0.7349  1.4311
 5420SOL     OW27892   0.821   0.109   4.517 -0.2038  0.5922  0.0668
 5420SOL    HW127893   0.898   0.095   4.572  0.1837  0.8482 -0.4053
 5420SOL    HW227894   0.775   0.026   4.530  1.1989 -0.7625 -3.5258
 5421SOL     OW27895   2.133   3.036   5.042 -0.0328 -0.3940 -0.2510
 5421SOL    HW127896   2.152   3.078   5.126 -0.5371  1.8058 -1.2383
 5421SOL    HW227897   2.214   3.044   4.992  0.8726 -0.7698  1.1441
 5422SOL     OW27898   0.933   4.445   7.095  0.7712  0.0588  0.1082
 5422SOL    HW127899   1.000   4.396   7.047 -0.4278 -0.7172 -0.7726
 5422SOL    HW227900   0.882   4.495   7.031  1.5866  3.4166  2.0857
 5423SOL     OW27901   2.098   3.329   6.098 -0.0450 -0.5347  0.4665
 5423SOL    HW127902   2.084   3.284   6.014  1.3080  2.5087 -1.3652
 5423SOL    HW227903   2.014   3.314   6.141  0.5159  1.7162  2.2976
 5424SOL     OW27904   1.249   3.038   7.842  0.5015 -0.1328 -0.3148
 5424SOL    HW127905   1.203   3.096   7.781  2.3819  2.4670  0.7440
 5424SOL    HW227906   1.183   3.018   7.908 -0.6780  1.2956 -1.0423
 5425SOL     OW27907   4.111   2.919   4.980  0.0362 -0.5362  0.1065
 5425SOL    HW127908   4.144   2.960   5.060 -1.3762  0.5957  0.1194
 5425SOL    HW227909   4.016   2.932   4.985  0.2302  0.8454  0.2461
 5426SOL     OW27910   4.580   3.786   6.297 -0.7919 -0.0604 -0.1479
 5426SOL    HW127911   4.635   3.858   6.329 -0.7194 -0.6441  1.0240
 5426SOL    HW227912   4.648   3.738   6.250  0.6252  1.9383 -0.1616
 5427SOL     OW27913   2.615   2.800   9.136  0.3724  0.0398 -0.2093
 5427SOL    HW127914   2.634   2.727   9.078 -0.4038  0.2324 -0.7054
 5427SOL    HW227915   2.527   2.821   9.106  0.1140  1.2442  1.3784
 5428SOL     OW27916   0.072   3.839   4.190 -0.0818  0.1069  0.5560
 5428SOL    HW127917   0.082   3.756   4.143  0.7328  0.1295  0.6948
 5428SOL    HW227918   0.048   3.897   4.118 -2.2326 -0.3442  0.9147
 5429SOL     OW27919   1.949   1.719   6.189  0.4242  0.3158 -0.0036
 5429SOL    HW127920   1.904   1.694   6.108 -0.6716  0.9302  0.4078
 5429SOL    HW227921   1.927   1.644   6.244  1.0618 -0.1848 -0.4382
 5430SOL     OW27922   3.311   2.916   6.696  0.4983 -0.2488  0.2521
 5430SOL    HW127923   3.313   2.874   6.782  0.5053  0.6517  0.6840
 5430SOL    HW227924   3.297   2.837   6.643 -1.2800  0.2228  0.0433
 5431SOL     OW27925   4.492   3.226   3.373  0.1885  0.0081  0.3079
 5431SOL    HW127926   4.540   3.207   3.292  0.6370 -0.2238  0.6341
 5431SOL    HW227927   4.567   3.254   3.425 -0.6701  0.9253  1.0493
 5432SOL     OW27928   1.355   1.932   1.466 -0.6233  0.3357 -0.3260
 5432SOL    HW127929   1.398   1.906   1.384  0.1771 -2.0799  0.8626
 5432SOL    HW227930   1.352   2.027   1.457  0.1336  0.2120 -2.0924
 5433SOL     OW27931   0.549   2.771   1.576  0.3496 -0.1943  0.4212
 5433SOL    HW127932   0.467   2.791   1.532  0.1175 -0.4665  0.7323
 5433SOL    HW227933   0.559   2.679   1.550  0.6065 -0.0780  0.1053
 5434SOL     OW27934   1.005   1.387   8.667 -1.3694  0.4473  0.6005
 5434SOL    HW127935   0.974   1.308   8.622  0.3105 -0.5991  1.2600
 5434SOL    HW227936   0.940   1.393   8.737 -0.2721  1.3648  1.5531
 5435SOL     OW27937   3.393   1.218   7.991 -0.1092  0.2252 -0.7855
 5435SOL    HW127938   3.406   1.275   7.915 -2.4401  1.8148  0.0177
 5435SOL    HW227939   3.407   1.276   8.066  0.3806 -1.6858  0.5957
 5436SOL     OW27940   4.672   4.697   5.025  0.7181 -0.3794 -0.3953
 5436SOL    HW127941   4.735   4.633   4.993  2.7965  0.8780  1.1935
 5436SOL    HW227942   4.720   4.725   5.103  1.5925 -0.2741 -0.9724
 5437SOL     OW27943   2.335   0.281   6.319  0.1023  0.3068 -0.4872
 5437SOL    HW127944   2.390   0.322   6.385 -1.1202  4.4801 -2.0554
 5437SOL    HW227945   2.257   0.256   6.368  0.3750 -0.9345 -0.6829
 5438SOL     OW27946   2.880   0.678   4.303  0.6861 -0.5240 -0.1410
 5438SOL    HW127947   2.814   0.620   4.341  1.1568  1.0754  3.1273
 5438SOL    HW227948   2.954   0.619   4.313  0.3613 -0.4887  2.4715
 5439SOL     OW27949   3.048   0.633  14.708 -0.2154  0.2909 -0.0849
 5439SOL    HW127950   3.059   0.621  14.802  2.1983  0.8234 -0.3092
 5439SOL    HW227951   2.969   0.687  14.709  0.3740  1.1768 -1.2238
 5440SOL     OW27952   1.205   0.028  10.062  0.0049  1.1626  0.2311
 5440SOL    HW127953   1.217   0.055   9.971 -0.4819 -1.1255 -0.5342
 5440SOL    HW227954   1.148   0.091  10.105  1.0618  2.0342  0.3555
 5441SOL     OW27955   3.286   0.491   3.638 -0.2915  0.0370  0.0957
 5441SOL    HW127956   3.296   0.466   3.730  0.8364  0.3106  0.0553
 5441SOL    HW227957   3.205   0.443   3.620  0.2143 -0.6958 -0.2126
 5442SOL     OW27958   1.526   3.545   6.894 -0.1840  0.3618 -0.1608
 5442SOL    HW127959   1.444   3.591   6.914  0.5429  2.2792 -1.6015
 5442SOL    HW227960   1.561   3.596   6.821 -0.7590 -0.3064 -0.9065
 5443SOL     OW27961   0.910   2.322   1.141  0.7290  0.2063 -0.2778
 5443SOL    HW127962   0.968   2.394   1.168  2.3001 -1.4397  0.8221
 5443SOL    HW227963   0.897   2.293   1.232  0.4616  1.8193  0.1914
 5444SOL     OW27964   0.138   2.470   8.889  0.0538 -0.3298  0.1271
 5444SOL    HW127965   0.052   2.509   8.871 -0.0315 -0.1124  1.0186
 5444SOL    HW227966   0.158   2.500   8.977 -0.0960  0.6261 -0.1578
 5445SOL     OW27967   0.245   2.282  13.537 -0.2461  0.3296 -0.3187
 5445SOL    HW127968   0.271   2.362  13.583 -0.0869 -0.3580  0.7801
 5445SOL    HW227969   0.274   2.207  13.588 -1.1391  1.5420  1.9486
 5446SOL     OW27970   0.619   1.033  13.383 -0.4084  0.0727 -0.1969
 5446SOL    HW127971   0.662   0.963  13.334 -1.1482 -0.5704  0.0840
 5446SOL    HW227972   0.693   1.043  13.443 -1.0959  0.5175  0.5775
 5447SOL     OW27973   4.651   2.257   7.140  0.9647  0.1427  0.6254
 5447SOL    HW127974   4.663   2.350   7.120 -1.0265  0.4123  0.7185
 5447SOL    HW227975   4.563   2.254   7.177  0.3731 -2.1302 -0.9929
 5448SOL     OW27976   3.212   0.864  12.146 -0.3592  0.2586  0.5311
 5448SOL    HW127977   3.149   0.937  12.139 -1.1950 -0.5068  0.0699
 5448SOL    HW227978   3.181   0.807  12.076 -2.6091 -1.5338  2.9987
 5449SOL     OW27979   0.463   4.586  10.486  0.5826 -0.0151 -0.1359
 5449SOL    HW127980   0.468   4.505  10.436 -2.5282  1.3122 -2.5886
 5449SOL    HW227981   0.384   4.624  10.448  1.4610  1.8372 -0.1093
 5450SOL     OW27982   4.235   4.519   5.228  0.1003  0.1465 -0.2046
 5450SOL    HW127983   4.165   4.526   5.292 -0.4031  0.8364 -0.8462
 5450SOL    HW227984   4.191   4.500   5.145 -0.6708 -0.4458  0.3400
 5451SOL     OW27985   2.399   2.905   5.239 -0.0924  0.3370 -0.2193
 5451SOL    HW127986   2.335   2.866   5.178  0.4488  1.0677 -1.2605
 5451SOL    HW227987   2.342   2.956   5.297 -1.1629 -0.5965 -0.4491
 5452SOL     OW27988   3.396   0.474   8.739  0.0999 -0.3252 -0.0574
 5452SOL    HW127989   3.397   0.479   8.644  0.9210 -1.0014 -0.0920
 5452SOL    HW227990   3.480   0.518   8.749 -0.5541  0.8142  0.3989
 5453SOL     OW27991   3.487   0.933  12.607 -0.0294 -0.2600 -0.1154
 5453SOL    HW127992   3.495   0.838  12.615 -0.8499 -0.2972  0.2642
 5453SOL    HW227993   3.412   0.941  12.548 -0.3071 -0.1016  0.2586
 5454SOL     OW27994   2.603   4.292  13.251  0.1921 -0.0010  0.8147
 5454SOL    HW127995   2.657   4.371  13.247 -0.8945  0.7318  0.6372
 5454SOL    HW227996   2.662   4.226  13.215 -0.1751  0.5078 -0.7163
 5455SOL     OW27997   4.281   4.490   3.672 -0.6795  0.2778 -0.5471
 5455SOL    HW127998   4.229   4.494   3.592  0.0393 -1.7159 -1.1183
 5455SOL    HW227999   4.351   4.429   3.649 -1.4793 -1.2200  1.0461
 5456SOL     OW28000   4.251   2.577   2.180  0.2948 -0.2736  0.0920
 5456SOL    HW128001   4.257   2.562   2.086  0.1907  0.0900  0.0258
 5456SOL    HW228002   4.164   2.618   2.180  0.7850  0.7962  1.2903
 5457SOL     OW28003   0.874   2.464   9.159 -0.2094  0.2620  0.1477
 5457SOL    HW128004   0.961   2.499   9.181 -0.3629  2.6441 -3.0435
 5457SOL    HW228005   0.905   2.406   9.089 -1.2209  0.7734 -0.7128
 5458SOL     OW28006   4.508   2.293   7.471  0.5226 -0.0950  0.5791
 5458SOL    HW128007   4.419   2.258   7.466  0.4125  0.0563  1.5043
 5458SOL    HW228008   4.556   2.211   7.483  1.0947  0.0844 -0.5063
 5459SOL     OW28009   2.433   1.087   8.190 -0.5732  0.1806  0.1066
 5459SOL    HW128010   2.462   1.070   8.280  1.9856  0.8870 -0.5578
 5459SOL    HW228011   2.455   1.002   8.152 -2.5054 -0.2757  0.0488
 5460SOL     OW28012   3.658   0.056  17.128 -0.1388  0.1434  0.3463
 5460SOL    HW128013   3.592   0.009  17.178 -0.2764  0.6878  0.6791
 5460SOL    HW228014   3.721   4.723  17.110 -0.3374  0.5747 -2.1217
 5461SOL     OW28015   4.235   4.034   1.048  0.2337 -0.5298 -0.1796
 5461SOL    HW128016   4.284   4.102   1.094 -1.7714  0.3822  0.5865
 5461SOL    HW228017   4.225   3.972   1.120  1.8841 -0.5065  0.0720
 5462SOL     OW28018   4.201   0.663  10.999  0.1781  0.7206  0.2533
 5462SOL    HW128019   4.201   0.580  10.951  1.0081 -0.4598  2.3160
 5462SOL    HW228020   4.133   0.709  10.950  0.2228 -0.2610 -0.7509
 5463SOL     OW28021   3.030   2.955   8.326  0.4373  0.4077 -0.4413
 5463SOL    HW128022   2.962   2.894   8.297 -2.9116  2.6866  2.5747
 5463SOL    HW228023   2.968   3.023   8.353 -1.6130 -1.3148 -0.7803
 5464SOL     OW28024   3.045   4.552   5.363 -0.1719 -0.0605 -0.0848
 5464SOL    HW128025   3.048   4.573   5.269 -0.9980 -0.6152 -0.2317
 5464SOL    HW228026   3.130   4.514   5.384  0.7945  0.4245 -3.0171
 5465SOL     OW28027   2.888   0.604   2.440 -0.0984  0.2135 -0.6457
 5465SOL    HW128028   2.799   0.583   2.410 -0.2188  0.1481 -0.2412
 5465SOL    HW228029   2.908   0.687   2.396  2.0046  0.3867  0.6369
 5466SOL     OW28030   2.017   3.734   2.983 -1.1342 -0.2953 -0.5930
 5466SOL    HW128031   2.028   3.765   2.893  1.3755  0.5069 -0.0050
 5466SOL    HW228032   1.923   3.719   2.994 -0.7466 -1.7457  0.7820
 5467SOL     OW28033   4.546   3.172  12.467 -0.2050 -0.3822 -0.0619
 5467SOL    HW128034   4.522   3.264  12.459  1.5944  0.2864  2.0933
 5467SOL    HW228035   4.612   3.185  12.535 -1.5420  0.9254  0.9922
 5468SOL     OW28036   2.330   0.875  10.679 -0.4265  0.4852 -0.5647
 5468SOL    HW128037   2.330   0.836  10.766 -0.4290  0.3856 -0.6085
 5468SOL    HW228038   2.372   0.802  10.633 -2.0733 -2.1354  2.0980
 5469SOL     OW28039   0.027   1.006   2.022 -0.5987  0.0170 -0.1915
 5469SOL    HW128040   0.063   0.970   2.103  1.9995 -0.0855 -1.3633
 5469SOL    HW228041   4.676   0.971   2.015 -0.1539 -1.1034 -0.1339
 5470SOL     OW28042   3.217   0.355   8.000  0.1028  0.1415 -0.4305
 5470SOL    HW128043   3.130   0.337   7.964  0.2624  1.7049 -1.6093
 5470SOL    HW228044   3.196   0.417   8.070  2.3631 -0.5472  0.8713
 5471SOL     OW28045   3.468   1.132   5.378 -0.5383  0.1978  0.6848
 5471SOL    HW128046   3.417   1.133   5.459  0.2650  0.4850  1.1817
 5471SOL    HW228047   3.504   1.044   5.382  2.3738  1.4772  2.2154
 5472SOL     OW28048   2.113   4.613   6.316  0.0803 -0.9283  0.2473
 5472SOL    HW128049   2.186   4.610   6.254  0.9302 -0.3695  1.2192
 5472SOL    HW228050   2.157   4.577   6.393  2.7455 -0.3352 -1.0013
 5473SOL     OW28051   1.909   2.158   0.767 -0.4398 -0.8769 -0.1622
 5473SOL    HW128052   1.949   2.103   0.699  1.8481 -1.3944  1.5823
 5473SOL    HW228053   1.875   2.232   0.718  0.2017  0.4852  1.4540
 5474SOL     OW28054   0.486   2.989  16.047  0.1782  0.3121 -0.6076
 5474SOL    HW128055   0.470   2.899  16.020  0.2829  0.5245 -1.3725
 5474SOL    HW228056   0.505   3.031  15.963  3.2602  0.3626  0.1187
 5475SOL     OW28057   2.107   0.050  11.305 -0.3524 -0.3214 -0.6753
 5475SOL    HW128058   2.089   0.102  11.227  2.3663  2.0334  0.2800
 5475SOL    HW228059   2.201   0.036  11.311 -0.5397 -2.0925 -1.9478
 5476SOL     OW28060   3.291   3.792   3.340 -0.3569  0.0547  0.3892
 5476SOL    HW128061   3.261   3.727   3.277  1.0549 -1.6022  1.3943
 5476SOL    HW228062   3.221   3.855   3.326 -0.5991 -0.4331 -0.5222
 5477SOL     OW28063   3.731   3.758   6.725 -0.4149  0.2809  0.4296
 5477SOL    HW128064   3.686   3.726   6.647  2.1582  0.6377 -1.1944
 5477SOL    HW228065   3.685   3.713   6.795 -2.0345  0.5557 -0.4500
 5478SOL     OW28066   1.274   0.315   9.836  0.0840 -0.8221 -0.5844
 5478SOL    HW128067   1.219   0.237   9.829  2.4152 -2.3377 -2.3092
 5478SOL    HW228068   1.231   0.375   9.776 -0.1239  0.6322  1.0250
 5479SOL     OW28069   3.377   3.581   8.936 -0.3154  0.4098  0.3599
 5479SOL    HW128070   3.375   3.570   8.841 -0.2691 -0.4131  0.4583
 5479SOL    HW228071   3.458   3.631   8.948 -0.2306  0.5121 -0.6394
 5480SOL     OW28072   2.278   0.413   5.312  0.2096 -0.0793 -0.2183
 5480SOL    HW128073   2.317   0.445   5.393 -1.7995  1.9552 -0.0648
 5480SOL    HW228074   2.260   0.320   5.330 -2.2105  0.6000  0.8016
 5481SOL     OW28075   0.799   1.642   7.236 -0.1856 -0.3470  0.2468
 5481SOL    HW128076   0.773   1.553   7.259  1.6283 -1.6935 -2.9079
 5481SOL    HW228077   0.892   1.640   7.217 -0.2493  1.3018 -0.2746
 5482SOL     OW28078   3.021   0.443   4.336 -0.0411 -0.0108 -0.0545
 5482SOL    HW128079   2.991   0.353   4.341  1.3781 -0.5628 -1.3207
 5482SOL    HW228080   3.080   0.436   4.411 -1.3047  1.1611  1.0561
 5483SOL     OW28081   3.237   0.668  13.379  0.2103  0.0612  0.6176
 5483SOL    HW128082   3.224   0.761  13.359  0.8513  0.1024  0.3926
 5483SOL    HW228083   3.149   0.632  13.368  0.1896 -0.0663  1.1833
 5484SOL     OW28084   0.227   4.296   3.523  0.0189 -0.0519 -0.2781
 5484SOL    HW128085   0.161   4.284   3.592  0.4311  0.8776  0.2726
 5484SOL    HW228086   0.169   4.319   3.450  1.0409  1.5009 -0.5985
 5485SOL     OW28087   0.713   2.853   1.800 -0.1306 -0.1850  0.3716
 5485SOL    HW128088   0.657   2.776   1.800 -1.7175  0.9874 -0.2014
 5485SOL    HW228089   0.658   2.930   1.786 -2.1009 -1.5221  0.7980
 5486SOL     OW28090   1.099   1.819  17.065 -0.1224 -0.2146 -0.1299
 5486SOL    HW128091   1.184   1.864  17.072 -0.4320  0.3224  0.1984
 5486SOL    HW228092   1.066   1.834  17.154 -0.4225  1.0183 -0.4475
 5487SOL     OW28093   0.194   3.688   1.874  0.1312 -0.3492 -0.5169
 5487SOL    HW128094   0.169   3.763   1.820 -0.2892  0.3273  0.6169
 5487SOL    HW228095   0.230   3.733   1.950  0.6038 -0.5584 -0.6166
 5488SOL     OW28096   3.589   0.155   2.166  0.5390  0.4231 -0.4362
 5488SOL    HW128097   3.646   0.164   2.243 -1.1091  2.1330  0.5697
 5488SOL    HW228098   3.645   0.162   2.089  0.3424 -0.8496 -0.6940
 5489SOL     OW28099   2.778   2.303   4.377  0.1039  0.1489 -0.2346
 5489SOL    HW128100   2.786   2.354   4.297  1.7588  1.0947  0.5283
 5489SOL    HW228101   2.718   2.359   4.426 -2.7631 -1.5222 -1.8436
 5490SOL     OW28102   2.379   0.055   1.006  1.2670  1.0058  0.0562
 5490SOL    HW128103   2.285   0.051   1.022  0.9254  0.7120 -1.9413
 5490SOL    HW228104   2.386   0.150   1.014 -1.3100  1.2380 -0.6345
 5491SOL     OW28105   3.298   3.322  17.252  0.4036 -0.0689 -0.1096
 5491SOL    HW128106   3.297   3.259  17.180 -1.7766  1.7465 -1.6741
 5491SOL    HW228107   3.324   3.401  17.205  0.3060  0.0524  0.0380
 5492SOL     OW28108   0.029   3.433   7.656  0.1707  0.3910  0.0592
 5492SOL    HW128109   4.708   3.365   7.622  1.6608 -0.3472 -1.0114
 5492SOL    HW228110   0.074   3.472   7.582  2.1983  1.4460  1.8572
 5493SOL     OW28111   0.797   3.312   6.316  0.6933 -0.3466  0.7423
 5493SOL    HW128112   0.746   3.295   6.395  0.5813 -0.5802  0.6225
 5493SOL    HW228113   0.822   3.404   6.308 -1.4853  0.0941 -1.0669
 5494SOL     OW28114   2.475   1.843   8.723  0.5576  0.2829 -0.0960
 5494SOL    HW128115   2.560   1.877   8.752 -0.4106  1.7614  0.9715
 5494SOL    HW228116   2.408   1.908   8.743 -1.3822 -0.7278 -3.2768
 5495SOL     OW28117   3.897   3.616   4.864  0.3339 -1.0285 -0.4679
 5495SOL    HW128118   3.947   3.665   4.929 -2.5773  3.7735 -1.8453
 5495SOL    HW228119   3.851   3.689   4.822  2.5707  0.6112 -0.0518
 5496SOL     OW28120   0.053   2.188   8.245 -0.3246  0.4059  0.0610
 5496SOL    HW128121   0.106   2.192   8.165 -0.7635  0.3396 -0.2326
 5496SOL    HW228122   4.707   2.151   8.218  0.4063  0.0913 -1.7722
 5497SOL     OW28123   1.891   0.104   2.694 -0.0809  0.7745  0.4223
 5497SOL    HW128124   1.858   0.121   2.605  0.8478 -1.6816 -0.4013
 5497SOL    HW228125   1.938   0.185   2.713  3.5060 -1.3229  0.5264
 5498SOL     OW28126   0.623   4.423   2.465  0.1084  0.1599  0.1289
 5498SOL    HW128127   0.672   4.470   2.533 -0.2360  1.0929 -0.2825
 5498SOL    HW228128   0.654   4.333   2.480 -1.5258 -0.3100  0.6543
 5499SOL     OW28129   0.436   3.012   4.654  0.0962  0.3070 -0.0691
 5499SOL    HW128130   0.369   2.982   4.715 -0.0617  1.1445  0.1640
 5499SOL    HW228131   0.431   3.107   4.662  1.1251  0.5625 -2.5233
 5500SOL     OW28132   4.164   3.099   7.855 -0.1534 -0.9245 -0.5811
 5500SOL    HW128133   4.132   3.180   7.816  1.1204  0.0122  0.2770
 5500SOL    HW228134   4.258   3.102   7.838  0.5180  1.3646  3.4086
 5501SOL     OW28135   2.910   2.096   9.476 -0.1018  0.1984 -0.5970
 5501SOL    HW128136   2.937   2.178   9.436 -0.9468 -0.0736 -1.7289
 5501SOL    HW228137   2.821   2.108   9.510 -0.5456  0.4927 -1.8534
 5502SOL     OW28138   1.127   0.118  12.654 -0.0545 -0.0139  0.4275
 5502SOL    HW128139   1.139   0.037  12.604  2.7101 -0.4113  1.7034
 5502SOL    HW228140   1.109   0.184  12.587 -0.1782 -0.9583 -0.4779
 5503SOL     OW28141   4.431   2.254   8.194 -0.9765 -0.1820 -0.4271
 5503SOL    HW128142   4.438   2.339   8.236  0.7543 -0.4554 -0.1673
 5503SOL    HW228143   4.459   2.203   8.270 -0.0272 -1.0560 -1.3596
 5504SOL     OW28144   0.151   4.159   0.678 -0.0556 -0.4837 -0.4762
 5504SOL    HW128145   0.111   4.168   0.765 -0.7105  1.0074 -0.9363
 5504SOL    HW228146   0.239   4.144   0.712 -0.1483 -2.2430 -0.9959
 5505SOL     OW28147   2.136   3.492   8.124  0.0677  0.0895 -0.2912
 5505SOL    HW128148   2.225   3.503   8.089 -0.3781  1.8842 -0.8199
 5505SOL    HW228149   2.094   3.577   8.126  1.1065  0.5599  1.8932
 5506SOL     OW28150   2.397   0.730   4.283 -0.0006  0.8386  0.7307
 5506SOL    HW128151   2.407   0.707   4.191 -0.6197  0.4498  0.7649
 5506SOL    HW228152   2.304   0.753   4.276  0.1304  1.1902  0.1491
 5507SOL     OW28153   4.120   0.692   6.762 -0.0165  0.2587  0.1477
 5507SOL    HW128154   4.056   0.620   6.757  1.6000 -1.2455  1.1670
 5507SOL    HW228155   4.063   0.758   6.723  1.3222  1.7656  0.7912
 5508SOL     OW28156   0.610   0.673   3.126 -0.6326  0.0426  0.0578
 5508SOL    HW128157   0.600   0.669   3.031  0.3623 -0.4289 -0.0212
 5508SOL    HW228158   0.585   0.585   3.156  0.6536 -0.2493  0.2498
 5509SOL     OW28159   2.962   4.630   6.006  0.3913 -0.1793  0.0400
 5509SOL    HW128160   2.955   4.667   5.918 -1.6718  0.7316  0.5993
 5509SOL    HW228161   3.057   4.614   6.006  1.0271  3.5887 -1.5741
 5510SOL     OW28162   1.445   1.491   6.413  0.3171  0.1981 -0.1011
 5510SOL    HW128163   1.501   1.567   6.428 -0.3566  0.8222 -0.7576
 5510SOL    HW228164   1.490   1.447   6.341 -0.8168 -0.1456 -0.6131
 5511SOL     OW28165   4.145   1.803   3.911  0.0648  0.5627  0.0377
 5511SOL    HW128166   4.201   1.803   3.989  1.8007  0.2698 -1.2200
 5511SOL    HW228167   4.186   1.738   3.854 -0.3711  1.3892 -1.2224
 5512SOL     OW28168   3.106   3.330   2.166 -0.4418  0.7459 -0.0420
 5512SOL    HW128169   3.074   3.391   2.232  1.7592  0.6095  1.1387
 5512SOL    HW228170   3.036   3.264   2.165 -0.2366  0.5303 -0.6456
 5513SOL     OW28171   3.807   2.023   7.895 -0.1307 -0.2138  0.0333
 5513SOL    HW128172   3.874   1.959   7.918 -1.0260 -1.3790 -0.5872
 5513SOL    HW228173   3.782   2.051   7.983 -1.5636  0.5860 -0.6332
 5514SOL     OW28174   0.106   2.293  11.929  0.0341  0.0440  0.1007
 5514SOL    HW128175   0.089   2.277  11.836 -0.7816 -0.2905  0.3145
 5514SOL    HW228176   0.021   2.305  11.970 -0.8543 -0.8057 -1.4818
 5515SOL     OW28177   2.262   1.939   4.049 -0.3190  0.1750  0.0990
 5515SOL    HW128178   2.297   2.001   4.113  0.6376  2.8384 -3.0214
 5515SOL    HW228179   2.190   1.901   4.100  0.7720  1.8368  2.8649
 5516SOL     OW28180   0.910   3.409   4.188  0.1766 -0.2486 -0.1415
 5516SOL    HW128181   0.962   3.348   4.135  0.6667 -0.6409  0.8091
 5516SOL    HW228182   0.825   3.399   4.143  0.8513 -0.3212 -1.4076
 5517SOL     OW28183   4.154   2.965  13.018  0.2315  0.3732 -0.4601
 5517SOL    HW128184   4.179   2.964  12.925 -0.3385 -1.9539 -0.5902
 5517SOL    HW228185   4.066   3.003  13.017 -0.4604 -1.1881  1.1965
 5518SOL     OW28186   0.964   1.439   0.420  0.2474  0.2227  0.6246
 5518SOL    HW128187   0.883   1.481   0.451  0.1326 -0.1064  0.7772
 5518SOL    HW228188   0.964   1.473   0.330 -0.3719 -0.6031  0.3082
 5519SOL     OW28189   2.082   0.684  11.817  0.2342 -0.1092  0.0984
 5519SOL    HW128190   2.006   0.723  11.859 -1.6756 -1.6131 -1.9192
 5519SOL    HW228191   2.103   0.607  11.870 -1.7030 -1.0230 -0.4874
 5520SOL     OW28192   1.133   0.618   0.023  0.2084 -0.7319 -0.0918
 5520SOL    HW128193   1.184   0.586  17.695 -0.9949 -0.9024 -0.8375
 5520SOL    HW228194   1.125   0.712   0.003  2.7937 -0.0237  2.1337
 5521SOL     OW28195   0.635   1.612   2.572 -0.3972 -0.3513 -0.3004
 5521SOL    HW128196   0.546   1.645   2.584 -1.0403 -2.3911  0.5521
 5521SOL    HW228197   0.662   1.582   2.659 -0.0228 -1.3530 -0.7538
 5522SOL     OW28198   0.298   3.423  17.033  0.2866  0.3133 -0.7509
 5522SOL    HW128199   0.304   3.504  16.981 -1.6498 -0.2505 -1.8690
 5522SOL    HW228200   0.353   3.364  16.982  0.1241 -1.3837  1.0753
 5523SOL     OW28201   1.196   2.217  17.669  0.2510 -0.8095 -0.1181
 5523SOL    HW128202   1.244   2.237   0.001 -0.7312 -0.5440  0.4147
 5523SOL    HW228203   1.189   2.309  17.644  2.0703 -1.4466 -3.0210
 5524SOL     OW28204   0.789   2.221   0.355 -0.3239 -0.8962  0.7931
 5524SOL    HW128205   0.884   2.223   0.367 -0.6136 -1.0074  2.9640
 5524SOL    HW228206   0.762   2.147   0.408 -0.7082 -0.4499  1.2195
 5525SOL     OW28207   2.037   3.645   6.340 -0.1941 -0.2981  0.4845
 5525SOL    HW128208   1.991   3.582   6.285  0.7631 -1.3382  0.8619
 5525SOL    HW228209   1.967   3.652   6.405 -1.2963  1.9596 -0.9629
 5526SOL     OW28210   0.438   0.682   6.494 -0.2493 -0.1093 -0.2192
 5526SOL    HW128211   0.404   0.732   6.420  0.5717  0.2349 -0.3618
 5526SOL    HW228212   0.412   0.592   6.475  2.8008 -1.2175  0.9332
 5527SOL     OW28213   3.994   0.070  10.618 -0.0912  0.3820 -0.2711
 5527SOL    HW128214   3.943   0.072  10.537  1.5112 -1.3364 -1.3006
 5527SOL    HW228215   4.080   0.048  10.583  0.9588 -0.3800  2.7642
 5528SOL     OW28216   3.066   1.263   7.804  0.3407 -0.0835  0.1463
 5528SOL    HW128217   3.075   1.254   7.898 -2.7866 -1.3824  0.3174
 5528SOL    HW228218   3.131   1.196   7.782  0.8378  0.0720  1.1364
 5529SOL     OW28219   1.667   3.342   8.355 -0.2102 -0.2260  0.0643
 5529SOL    HW128220   1.578   3.360   8.327 -0.6196 -0.8078  0.9791
 5529SOL    HW228221   1.645   3.305   8.441 -0.4699 -0.8372 -0.2694
 5530SOL     OW28222   3.530   2.549   3.639 -0.3871 -0.0868  0.3958
 5530SOL    HW128223   3.445   2.519   3.672 -1.0119 -0.6764 -1.7246
 5530SOL    HW228224   3.553   2.631   3.683  0.5344 -0.8771  1.4005
 5531SOL     OW28225   2.368   1.032  15.234 -0.2214 -0.4451 -0.0945
 5531SOL    HW128226   2.397   1.003  15.148  3.8458  1.4440  0.6776
 5531SOL    HW228227   2.299   1.096  15.213 -2.5488 -2.0360  2.5760
 5532SOL     OW28228   0.845   4.514   2.293  0.1582  0.3590 -0.6419
 5532SOL    HW128229   0.906   4.451   2.333  0.0998  0.3322 -0.5953
 5532SOL    HW228230   0.766   4.491   2.343 -0.2852  1.8633 -0.6694
 5533SOL     OW28231   3.072   1.577   4.890  0.3374 -0.3233  0.4062
 5533SOL    HW128232   3.083   1.608   4.800  0.4763 -1.4747  0.0280
 5533SOL    HW228233   3.051   1.484   4.890 -0.7946 -0.0474 -3.9594
 5534SOL     OW28234   0.146   4.669  14.054 -0.1609 -0.0341  0.0147
 5534SOL    HW128235   0.139   4.672  13.959  2.0319 -1.5953 -0.2060
 5534SOL    HW228236   0.055   4.690  14.074  0.0321 -0.1915  1.0850
 5535SOL     OW28237   2.504   4.240  15.304  0.2031 -0.5640 -0.0943
 5535SOL    HW128238   2.589   4.249  15.347 -1.3074  3.1821  2.1196
 5535SOL    HW228239   2.441   4.236  15.376 -0.7188  1.3085 -0.8079
 5536SOL     OW28240   4.472   3.316  10.452  0.1980  0.4317  0.6310
 5536SOL    HW128241   4.447   3.294  10.542  1.0209 -2.0855  0.2611
 5536SOL    HW228242   4.431   3.246  10.401  2.4308  0.4784 -1.2115
 5537SOL     OW28243   4.423   1.235  16.547 -0.1686  0.1694 -0.1268
 5537SOL    HW128244   4.441   1.176  16.474 -1.0815 -1.0000  0.5954
 5537SOL    HW228245   4.341   1.195  16.576  0.6239 -0.6755  0.9130
 5538SOL     OW28246   1.760   1.655   8.121  0.1484 -0.2707 -0.3009
 5538SOL    HW128247   1.733   1.651   8.030 -0.6948  2.2534 -0.1569
 5538SOL    HW228248   1.721   1.733   8.160  3.3132  1.1170  0.0944
 5539SOL     OW28249   3.718   2.558  16.978  0.4798  0.3460  0.0522
 5539SOL    HW128250   3.686   2.500  17.047  0.8358  0.1875  0.0825
 5539SOL    HW228251   3.806   2.526  16.958  0.0542  0.1804 -1.6297
 5540SOL     OW28252   0.859   4.129  17.132  0.1763 -0.4643  0.1223
 5540SOL    HW128253   0.793   4.063  17.155  1.2422 -0.8235  2.1171
 5540SOL    HW228254   0.926   4.113  17.199  3.2005 -2.4394 -3.4181
 5541SOL     OW28255   3.708   3.383   4.021  0.4678  0.4123  0.2772
 5541SOL    HW128256   3.627   3.387   4.072  0.9439  0.2634  1.0626
 5541SOL    HW228257   3.673   3.369   3.933 -1.0179 -0.2110  0.9596
 5542SOL     OW28258   1.943   1.137   4.582  0.1688  0.7354 -0.6287
 5542SOL    HW128259   2.013   1.129   4.517 -0.1479  1.3731 -1.0495
 5542SOL    HW228260   1.966   1.065   4.640 -1.2946  1.2535  0.5857
 5543SOL     OW28261   2.946   2.692  12.212 -0.1553 -0.0831  0.1699
 5543SOL    HW128262   2.868   2.735  12.247  0.5092  0.9949  0.3310
 5543SOL    HW228263   3.019   2.743  12.247 -0.7359 -0.2409  1.5939
 5544SOL     OW28264   1.830   2.074   3.311 -0.4383  0.3621  0.0143
 5544SOL    HW128265   1.895   2.130   3.270 -0.2782  1.5666  1.9449
 5544SOL    HW228266   1.824   2.110   3.399 -0.4477  0.7746 -0.1553
 5545SOL     OW28267   1.972   3.142  10.699 -1.0859 -0.3833  0.3535
 5545SOL    HW128268   1.962   3.069  10.761  0.6745  1.4768  2.7739
 5545SOL    HW228269   1.895   3.193  10.724 -0.7859  0.4472 -0.4452
 5546SOL     OW28270   2.252   1.514   8.592 -0.5702 -0.0837 -0.0029
 5546SOL    HW128271   2.277   1.540   8.681 -0.9005 -0.9920  0.3603
 5546SOL    HW228272   2.327   1.554   8.549 -0.8683  0.8478  0.3464
 5547SOL     OW28273   1.794   1.937  12.299 -0.0740 -0.1845  0.7932
 5547SOL    HW128274   1.750   1.852  12.304 -1.3870  0.2118 -4.1550
 5547SOL    HW228275   1.721   1.993  12.328 -2.6251 -3.0184 -0.2309
 5548SOL     OW28276   0.265   3.541  14.441 -0.2800  0.0638 -0.4836
 5548SOL    HW128277   0.320   3.466  14.418 -0.7856 -0.7050  0.8427
 5548SOL    HW228278   0.336   3.596  14.474  0.7853 -1.8384  0.3993
 5549SOL     OW28279   1.444   2.038   5.864 -0.0540 -0.1674  0.7846
 5549SOL    HW128280   1.405   2.124   5.855 -0.2950 -0.4621 -1.0443
 5549SOL    HW228281   1.501   2.036   5.787 -0.8074 -1.4931  0.2530
 5550SOL     OW28282   2.941   1.887  13.158  0.4389  0.3601 -0.0963
 5550SOL    HW128283   2.934   1.983  13.156 -3.6279  0.1350  2.4879
 5550SOL    HW228284   2.882   1.859  13.088 -0.7057  0.5585  0.7822
 5551SOL     OW28285   1.002   2.715  16.590  0.4047  0.1357 -0.2129
 5551SOL    HW128286   1.073   2.686  16.647  1.5488  0.5636 -1.4160
 5551SOL    HW228287   0.934   2.689  16.652  0.4430  1.5135  0.4009
 5552SOL     OW28288   0.443   3.789   6.729  0.6320  0.2944  0.5500
 5552SOL    HW128289   0.480   3.838   6.656  2.2176  0.1967  1.2919
 5552SOL    HW228290   0.350   3.778   6.708  0.3424 -0.0476  2.0430
 5553SOL     OW28291   2.529   3.671   5.362 -0.4192  0.1208  0.1640
 5553SOL    HW128292   2.603   3.661   5.422  0.7174 -4.5652 -2.0149
 5553SOL    HW228293   2.568   3.739   5.307 -1.9999  3.2027  2.9231
 5554SOL     OW28294   0.761   0.142  10.885  0.2654 -0.3351 -0.6790
 5554SOL    HW128295   0.721   0.136  10.971  0.4886 -1.2561 -0.6356
 5554SOL    HW228296   0.710   0.208  10.839  0.2179  0.4706  0.5425
 5555SOL     OW28297   2.283   1.957   6.748 -0.0602  0.0263  0.0660
 5555SOL    HW128298   2.194   1.931   6.772 -0.9612  0.9137 -2.3423
 5555SOL    HW228299   2.260   2.027   6.688 -1.1932 -1.3498 -1.1208
 5556SOL     OW28300   3.845   0.656  15.411 -0.0787 -0.4516 -0.1456
 5556SOL    HW128301   3.885   0.719  15.350 -1.9914  1.8388  0.9933
 5556SOL    HW228302   3.918   0.631  15.467  1.4713 -1.7245 -2.7215
 5557SOL     OW28303   2.486   1.391   1.824 -0.1148  0.2354 -0.2461
 5557SOL    HW128304   2.422   1.390   1.894  0.7208  0.3374  0.5146
 5557SOL    HW228305   2.444   1.358   1.744  0.8714  1.7396 -1.3966
 5558SOL     OW28306   1.973   2.495  11.830 -0.5577 -0.7246  0.2124
 5558SOL    HW128307   1.975   2.421  11.770 -3.0861  1.2630 -2.3271
 5558SOL    HW228308   1.964   2.567  11.767  0.8045 -0.2681  0.5461
 5559SOL     OW28309   1.609   1.500   5.958 -0.2827  0.4006  0.3624
 5559SOL    HW128310   1.526   1.522   5.915 -0.4654  1.7535  1.4290
 5559SOL    HW228311   1.581   1.445   6.031 -0.6955  0.2128  0.0681
 5560SOL     OW28312   3.495   4.144   2.817  0.1084  0.4837 -0.3283
 5560SOL    HW128313   3.487   4.112   2.727  2.6351  1.5310 -0.9260
 5560SOL    HW228314   3.450   4.227   2.810 -2.3968 -0.7982  0.5835
 5561SOL     OW28315   1.554   0.589   3.428 -0.0750  0.1727 -0.2418
 5561SOL    HW128316   1.600   0.658   3.477 -0.0107 -0.1975  0.2192
 5561SOL    HW228317   1.620   0.592   3.358 -0.3944  1.0536 -0.5076
 5562SOL     OW28318   4.164   4.672  12.261  0.4885 -0.3805 -0.6513
 5562SOL    HW128319   4.169   4.712  12.174  0.7558 -2.4437 -1.5775
 5562SOL    HW228320   4.109   4.599  12.234 -0.0167  0.0600 -0.7980
 5563SOL     OW28321   2.282   0.189   3.498 -0.2255  0.4267  0.0503
 5563SOL    HW128322   2.208   0.163   3.554 -0.6020  1.9131  0.2491
 5563SOL    HW228323   2.246   0.170   3.412  2.8448 -0.5776 -1.0054
 5564SOL     OW28324   3.726   4.161   0.365 -0.1129  0.3436  0.0236
 5564SOL    HW128325   3.798   4.100   0.350  0.6697  1.1596  0.4339
 5564SOL    HW228326   3.667   4.119   0.427  1.3727  0.4842  1.5137
 5565SOL     OW28327   0.336   3.047   2.916 -0.3036 -0.5945 -0.4477
 5565SOL    HW128328   0.259   2.991   2.917 -1.4311  0.9595 -0.8183
 5565SOL    HW228329   0.349   3.087   3.002  0.4170 -0.4063 -0.6439
 5566SOL     OW28330   3.038   2.302   4.834  0.7002 -0.3465  0.0719
 5566SOL    HW128331   2.998   2.215   4.832 -0.7336  0.3247 -0.2720
 5566SOL    HW228332   2.972   2.357   4.793 -1.3794 -2.7530  0.1919
 5567SOL     OW28333   1.562   4.200   2.063 -0.3889 -0.0830  1.0408
 5567SOL    HW128334   1.646   4.247   2.064 -0.0803 -0.6002 -0.4342
 5567SOL    HW228335   1.512   4.274   2.097 -0.6197  0.3903 -0.3005
 5568SOL     OW28336   3.021   0.760   6.794 -0.0427  0.1923  0.7625
 5568SOL    HW128337   3.094   0.697   6.795 -1.5103 -1.4822  1.6956
 5568SOL    HW228338   3.070   0.824   6.742  3.5344 -1.7750  1.6637
 5569SOL     OW28339   2.715   0.063   5.449  0.4764 -0.2892  0.0595
 5569SOL    HW128340   2.638   0.108   5.483  0.9621  0.8487 -0.3620
 5569SOL    HW228341   2.683   0.023   5.367 -0.1150  2.4341 -1.0251
 5570SOL     OW28342   4.131   2.112  12.312 -0.7759 -0.4196  0.3205
 5570SOL    HW128343   4.061   2.134  12.373 -0.8458  1.2105 -0.3487
 5570SOL    HW228344   4.085   2.057  12.249 -0.1350 -0.1892 -0.3618
 5571SOL     OW28345   1.609   2.928  10.048  0.1081 -0.1663 -0.0593
 5571SOL    HW128346   1.678   2.864  10.071 -1.1365 -0.7688  2.0172
 5571SOL    HW228347   1.664   3.005  10.063  0.2574 -0.6388  1.9304
 5572SOL     OW28348   1.986   1.409   5.005 -0.6558 -0.0758  0.7022
 5572SOL    HW128349   1.894   1.385   4.998 -0.9831  0.8922  1.5933
 5572SOL    HW228350   2.030   1.337   5.050  2.5008 -0.7802 -3.5837
 5573SOL     OW28351   3.591   0.049   9.694  0.0351 -0.3164 -0.2220
 5573SOL    HW128352   3.670   0.011   9.657 -0.6009  0.6381 -2.5763
 5573SOL    HW228353   3.595   0.135   9.651  0.9510 -0.7530 -1.0072
 5574SOL     OW28354   4.158   1.219   3.388  0.0882 -0.0966 -0.1334
 5574SOL    HW128355   4.101   1.154   3.430  0.6945 -1.6562 -1.7357
 5574SOL    HW228356   4.089   1.249   3.329  1.7322  0.1947 -1.8706
 5575SOL     OW28357   3.114   0.875   5.352 -0.5245 -0.0871  0.3119
 5575SOL    HW128358   3.074   0.954   5.391 -0.0176  0.3248  0.0008
 5575SOL    HW228359   3.063   0.813   5.404 -1.9591 -0.1018 -1.1325
 5576SOL     OW28360   2.770   0.408   0.444  0.0264 -0.1913 -0.1196
 5576SOL    HW128361   2.684   0.378   0.471 -0.7480  0.8092 -1.4835
 5576SOL    HW228362   2.827   0.364   0.507 -1.8944 -2.1864  0.2022
 5577SOL     OW28363   0.828   2.443   1.574 -0.0307 -0.0573  0.1533
 5577SOL    HW128364   0.874   2.429   1.656  2.2514  0.6918 -0.9912
 5577SOL    HW228365   0.885   2.495   1.518 -2.1232  2.2368  0.1351
 5578SOL     OW28366   0.172   2.234   2.593 -0.3866 -1.0481  0.3044
 5578SOL    HW128367   0.082   2.265   2.587 -0.1619 -0.5206 -0.3865
 5578SOL    HW228368   0.194   2.250   2.501 -1.5672  1.6967  0.4904
 5579SOL     OW28369   4.596   0.989   9.149  0.8398 -0.1960 -0.0287
 5579SOL    HW128370   4.561   0.995   9.238  0.7439  1.0862 -0.1621
 5579SOL    HW228371   4.526   0.997   9.084  1.1401  1.8529 -0.0832
 5580SOL     OW28372   0.384   2.971   5.503  0.4742 -0.1446 -0.0006
 5580SOL    HW128373   0.423   2.886   5.481  2.7642  1.1619 -1.0843
 5580SOL    HW228374   0.462   3.025   5.487 -1.4061  2.3965 -0.6136
 5581SOL     OW28375   1.432   1.632  16.389  0.1270  0.3260 -0.0914
 5581SOL    HW128376   1.396   1.662  16.305 -0.8959 -0.6960 -0.0138
 5581SOL    HW228377   1.350   1.608  16.432 -0.1642 -1.3820 -1.6095
 5582SOL     OW28378   2.202   0.844   2.492  0.2732 -0.0687 -0.7855
 5582SOL    HW128379   2.124   0.888   2.526  2.6172  2.1429  1.7040
 5582SOL    HW228380   2.278   0.893   2.522  0.4231 -2.0720  2.1426
 5583SOL     OW28381   1.923   0.872   6.685  0.0343 -0.1177 -0.5351
 5583SOL    HW128382   1.883   0.948   6.728  2.5850  1.4612 -0.9292
 5583SOL    HW228383   1.931   0.915   6.600  0.0150  0.7342 -0.1173
 5584SOL     OW28384   0.370   0.352   7.805 -0.0929  0.7569 -0.4080
 5584SOL    HW128385   0.419   0.333   7.725 -3.2446 -3.8476 -1.2265
 5584SOL    HW228386   0.430   0.406   7.857  0.5976  0.0733 -0.5067
 5585SOL     OW28387   0.915   4.160   8.035  0.2487  0.6250 -0.2871
 5585SOL    HW128388   0.982   4.105   7.995  0.9804 -0.6268  2.6050
 5585SOL    HW228389   0.874   4.207   7.963  0.4738  0.6745 -0.3808
 5586SOL     OW28390   0.031   0.127   0.121 -0.1059 -0.3526  0.0552
 5586SOL    HW128391   0.059   0.177   0.045 -1.8760 -1.0457 -1.0484
 5586SOL    HW228392   0.025   0.038   0.084 -2.5567  0.0684 -0.5831
 5587SOL     OW28393   2.566   1.583   7.674 -0.1156 -0.2271 -0.5973
 5587SOL    HW128394   2.615   1.595   7.593  0.9103 -0.0866  0.0370
 5587SOL    HW228395   2.504   1.656   7.669  0.4226  0.1365 -2.0312
 5588SOL     OW28396   4.433   3.931   9.014 -0.3455  0.2885  0.2725
 5588SOL    HW128397   4.466   4.020   9.028 -0.4080  0.1683  1.1848
 5588SOL    HW228398   4.345   3.946   8.979 -0.6641 -0.9052  0.5605
 5589SOL     OW28399   0.522   3.099  15.760 -0.6456 -0.6664 -0.2401
 5589SOL    HW128400   0.467   3.106  15.682 -0.9465  1.3744  0.1410
 5589SOL    HW228401   0.607   3.065  15.732 -1.6337 -3.7112  0.5218
 5590SOL     OW28402   1.436   2.991   1.213  0.7847  0.0086  0.1499
 5590SOL    HW128403   1.440   2.914   1.155 -2.8775 -0.0756  0.0498
 5590SOL    HW228404   1.445   2.950   1.299 -1.5215 -0.6257  0.0761
 5591SOL     OW28405   0.065   0.042   5.253  0.2935  0.1248  0.4320
 5591SOL    HW128406   4.713   0.078   5.247  0.1163 -0.5990 -1.3220
 5591SOL    HW228407   0.099   0.112   5.309 -0.5018  2.0119 -1.3952
 5592SOL     OW28408   1.562   3.920  17.680 -0.0639  0.4748  0.0468
 5592SOL    HW128409   1.509   3.844  17.702 -1.5403  1.2115 -1.0099
 5592SOL    HW228410   1.593   3.946   0.019  1.4225 -2.2218  0.3293
 5593SOL     OW28411   2.261   1.379   1.975 -0.7764  0.0786  0.0110
 5593SOL    HW128412   2.177   1.413   1.945  0.2168  1.3909 -1.2505
 5593SOL    HW228413   2.276   1.433   2.053  0.9960 -1.0015  0.4184
 5594SOL     OW28414   1.627   4.631   2.311 -0.7137  0.1486  0.4677
 5594SOL    HW128415   1.613   4.568   2.381 -2.2462  1.7653  1.6341
 5594SOL    HW228416   1.656   4.710   2.357 -0.5236  0.0843  0.4547
 5595SOL     OW28417   3.180   3.820   1.003  0.0691 -0.1090  0.5008
 5595SOL    HW128418   3.243   3.797   0.935 -1.8310  1.0841 -1.6990
 5595SOL    HW228419   3.097   3.838   0.957 -0.3680 -3.2678  0.0943
 5596SOL     OW28420   1.826   2.147   6.484  0.2428  0.4110 -1.1049
 5596SOL    HW128421   1.818   2.099   6.402  1.3536 -2.3767  0.4145
 5596SOL    HW228422   1.856   2.082   6.547 -1.1200 -0.1020 -0.9933
 5597SOL     OW28423   4.645   0.391   7.772 -0.0082 -0.0454  0.3978
 5597SOL    HW128424   4.675   0.418   7.685 -0.8083  4.1131  1.4234
 5597SOL    HW228425   4.550   0.388   7.760 -0.0318  0.4356  0.4593
 5598SOL     OW28426   2.061   2.060  11.618  0.1573 -0.3330 -0.3531
 5598SOL    HW128427   1.978   2.023  11.588  1.0270 -1.6073 -1.1501
 5598SOL    HW228428   2.097   1.995  11.678 -1.2393 -0.7005  0.0825
 5599SOL     OW28429   0.635   2.500   5.028  0.3623 -0.6879 -0.1656
 5599SOL    HW128430   0.698   2.541   4.969  1.7216  0.3179  1.9821
 5599SOL    HW228431   0.688   2.424   5.055 -0.0373 -1.1605 -0.7069
 5600SOL     OW28432   0.165   1.997   0.234  0.7030  0.1086 -0.2169
 5600SOL    HW128433   0.225   2.066   0.206 -1.8394  3.2261  2.0819
 5600SOL    HW228434   0.080   2.027   0.201 -0.0333 -2.1447 -0.3904
 5601SOL     OW28435   0.273   2.855  17.427  0.2649 -0.0058 -0.1650
 5601SOL    HW128436   0.234   2.916  17.489  1.3707 -0.8539  1.3721
 5601SOL    HW228437   0.295   2.914  17.355  0.1189  1.0398  0.6538
 5602SOL     OW28438   3.490   3.503   9.566  0.5730 -0.8367  0.1487
 5602SOL    HW128439   3.536   3.578   9.529  0.1791 -0.1903  0.9709
 5602SOL    HW228440   3.436   3.542   9.635  1.7112  1.5048 -0.2631
 5603SOL     OW28441   1.811   1.688   5.122 -0.3011  0.1389 -0.4438
 5603SOL    HW128442   1.814   1.670   5.028  2.3785  0.3549 -0.3967
 5603SOL    HW228443   1.830   1.782   5.120 -0.4034  0.1190 -2.5896
 5604SOL     OW28444   4.714   1.890  14.387  0.3425 -0.0720 -0.1021
 5604SOL    HW128445   4.619   1.895  14.382  0.2177 -1.5883  0.9929
 5604SOL    HW228446   0.007   1.825  14.324  1.3530  0.4882 -0.1972
 5605SOL     OW28447   0.733   4.446   9.121 -0.0603 -0.1169  0.2710
 5605SOL    HW128448   0.756   4.539   9.116 -0.8934  0.0713 -0.2396
 5605SOL    HW228449   0.781   4.412   9.046  1.3535 -2.0437  2.0548
 5606SOL     OW28450   3.576   3.572  11.668 -0.5283 -0.6517 -0.1805
 5606SOL    HW128451   3.541   3.580  11.756 -0.4081 -0.3320 -0.1628
 5606SOL    HW228452   3.584   3.477  11.665  2.3664 -0.4395  0.7461
 5607SOL     OW28453   2.337   1.777  10.922 -0.3211  0.0574  0.2505
 5607SOL    HW128454   2.417   1.827  10.939 -0.0634 -1.2541  2.9586
 5607SOL    HW228455   2.294   1.785  11.008  1.2954  1.0142  0.9529
 5608SOL     OW28456   0.947   0.675   2.246 -0.0670  0.1748 -0.9733
 5608SOL    HW128457   0.965   0.769   2.237 -2.3147  0.6352 -0.7340
 5608SOL    HW228458   0.852   0.662   2.253 -0.1461  1.4081  0.3026
 5609SOL     OW28459   3.709   0.322   4.230  0.3772  0.2479 -0.2651
 5609SOL    HW128460   3.629   0.314   4.283  0.0734  1.2961 -0.5676
 5609SOL    HW228461   3.775   0.331   4.299 -0.1600  0.9204  0.1666
 5610SOL     OW28462   1.034   0.231   9.544  0.3747 -0.0053 -0.3976
 5610SOL    HW128463   1.053   0.323   9.565 -0.7721  0.2735 -0.6110
 5610SOL    HW228464   1.103   0.211   9.481  0.2589 -3.7069  0.6669
 5611SOL     OW28465   3.221   2.547  12.510  0.5639  0.2356  0.1630
 5611SOL    HW128466   3.206   2.495  12.588  1.4278  1.4076  1.1028
 5611SOL    HW228467   3.258   2.625  12.552 -1.0951  1.8304 -1.2938
 5612SOL     OW28468   3.424   3.100   5.331  0.6329  0.0406  0.4271
 5612SOL    HW128469   3.442   3.143   5.414  2.0008  0.2099  0.0334
 5612SOL    HW228470   3.451   3.174   5.276 -1.1042  2.9254  3.4510
 5613SOL     OW28471   0.205   4.447  16.410  0.3449  0.3219  1.0164
 5613SOL    HW128472   0.166   4.453  16.322  2.0049 -0.6527  0.2102
 5613SOL    HW228473   0.164   4.364  16.436  1.1563 -0.6475 -0.7496
 5614SOL     OW28474   3.491   2.264  16.746 -0.0338  0.1815 -0.0918
 5614SOL    HW128475   3.485   2.176  16.784  2.3389 -0.5051 -1.3307
 5614SOL    HW228476   3.438   2.256  16.666  0.3773 -0.6447 -0.2882
 5615SOL     OW28477   1.697   2.957   3.140 -0.3151  0.3999  0.0129
 5615SOL    HW128478   1.776   2.935   3.090 -0.2458  1.6112 -0.4095
 5615SOL    HW228479   1.706   3.052   3.131  0.1715  0.3024 -0.5191
 5616SOL     OW28480   3.345   3.171   4.765 -0.4756  0.2356  0.9961
 5616SOL    HW128481   3.392   3.113   4.825  0.7277  1.7155  1.4806
 5616SOL    HW228482   3.332   3.106   4.695  1.1229  0.9546  0.0437
 5617SOL     OW28483   0.928   2.752   7.124  0.4598 -0.1914 -0.3597
 5617SOL    HW128484   0.952   2.827   7.179 -0.0818 -1.4454  1.5941
 5617SOL    HW228485   0.923   2.783   7.034 -1.4648  0.3944 -0.0536
 5618SOL     OW28486   3.656   0.568  15.722 -0.4049 -0.3422  0.0858
 5618SOL    HW128487   3.618   0.592  15.807  0.1838  0.7211  0.0448
 5618SOL    HW228488   3.731   0.520  15.755 -1.7766 -2.6078 -0.0831
 5619SOL     OW28489   3.113   0.314   7.654 -0.0893 -0.0829 -0.3989
 5619SOL    HW128490   3.167   0.338   7.578 -0.2775 -0.2957 -0.6026
 5619SOL    HW228491   3.062   0.394   7.670  0.3858  0.4578 -1.5833
 5620SOL     OW28492   2.227   2.816  14.257  0.0131  0.3201 -0.1203
 5620SOL    HW128493   2.308   2.834  14.210 -0.0167  0.7328 -0.0129
 5620SOL    HW228494   2.183   2.766  14.189 -0.9715 -1.3320  1.7116
 5621SOL     OW28495   2.152   2.439   2.861  0.4416  0.5124 -0.7062
 5621SOL    HW128496   2.083   2.394   2.909  2.3342 -0.7857  0.7774
 5621SOL    HW228497   2.143   2.410   2.770  0.0316  2.8501 -1.4099
 5622SOL     OW28498   3.826   1.371   2.785  0.6338 -0.3098 -0.2738
 5622SOL    HW128499   3.744   1.356   2.831  0.4683 -1.3106 -0.9070
 5622SOL    HW228500   3.886   1.299   2.804  2.3571  1.1744  0.0096
 5623SOL     OW28501   0.306   0.341   6.851  0.2899 -0.2088 -0.0902
 5623SOL    HW128502   0.323   0.434   6.839  1.5404 -0.3402  0.5912
 5623SOL    HW228503   0.318   0.329   6.945  0.4147  1.1508  0.0608
 5624SOL     OW28504   0.170   4.407  16.140  0.2077  0.6772  0.0861
 5624SOL    HW128505   0.223   4.335  16.105  3.3073  2.6918  0.6355
 5624SOL    HW228506   0.171   4.472  16.069 -0.8582 -0.7178 -1.2233
 5625SOL     OW28507   3.414   4.033   1.169  0.1366  0.2132 -0.1053
 5625SOL    HW128508   3.417   4.089   1.091  0.6024 -1.3856 -1.2443
 5625SOL    HW228509   3.320   4.032   1.183  0.0603  0.5382 -0.5780
 5626SOL     OW28510   3.979   1.354  14.024 -0.4329 -0.6549 -0.2427
 5626SOL    HW128511   4.039   1.428  14.027  1.4393 -2.2399  1.0032
 5626SOL    HW228512   3.902   1.404  14.053 -0.5572 -1.4788  0.8203
 5627SOL     OW28513   1.141   2.089   5.741  0.3283 -0.0433  0.6447
 5627SOL    HW128514   1.218   2.144   5.732  0.2589  0.1373  1.1301
 5627SOL    HW228515   1.098   2.151   5.800  1.5588  1.1963  0.2329
 5628SOL     OW28516   4.436   4.231  13.705 -0.0758  0.3732 -0.1952
 5628SOL    HW128517   4.505   4.167  13.690  0.6254  0.9232  0.6936
 5628SOL    HW228518   4.487   4.300  13.747  2.6363 -1.1758 -0.9889
 5629SOL     OW28519   3.596   2.732  15.651 -0.1446 -0.3563 -0.0856
 5629SOL    HW128520   3.606   2.641  15.623  0.7048 -0.0265 -0.8683
 5629SOL    HW228521   3.547   2.714  15.731 -0.6219 -0.2308 -0.3422
 5630SOL     OW28522   3.290   2.793   6.262  0.1043 -0.4580  0.2693
 5630SOL    HW128523   3.196   2.785   6.247  0.5936 -2.2276 -1.7710
 5630SOL    HW228524   3.315   2.735   6.333 -1.5668 -3.5197 -1.6453
 5631SOL     OW28525   2.021   3.489  14.341 -0.0754 -0.2313  0.1140
 5631SOL    HW128526   2.067   3.415  14.382 -1.3437 -0.9511  0.2447
 5631SOL    HW228527   2.051   3.471  14.253  0.8051 -0.1171  0.3891
 5632SOL     OW28528   2.154   2.277   6.803  0.4818 -0.9873  0.6163
 5632SOL    HW128529   2.121   2.239   6.722 -2.3013  2.4409  0.1210
 5632SOL    HW228530   2.237   2.313   6.772 -0.5557  0.1329 -0.8820
 5633SOL     OW28531   3.999   1.343   9.608  0.0005  0.0503  0.1877
 5633SOL    HW128532   3.995   1.438   9.617 -0.5914  0.1809 -1.5537
 5633SOL    HW228533   3.951   1.320   9.528  0.6075 -0.4299 -0.0292
 5634SOL     OW28534   1.146   0.430  15.413  0.2453 -0.6170 -0.4633
 5634SOL    HW128535   1.206   0.408  15.342  0.8775  0.0029 -0.1285
 5634SOL    HW228536   1.068   0.385  15.381 -1.1867  0.5685  1.3491
 5635SOL     OW28537   1.692   2.781   4.151 -0.3745 -0.0866  0.2857
 5635SOL    HW128538   1.726   2.799   4.064 -2.0255  2.5396  0.1887
 5635SOL    HW228539   1.611   2.833   4.150 -0.4380 -0.2773 -2.4592
 5636SOL     OW28540   0.837   1.181   5.063  0.1018 -0.2084  0.2044
 5636SOL    HW128541   0.929   1.205   5.053  0.4438 -1.2045  0.9081
 5636SOL    HW228542   0.853   1.113   5.128 -2.0965 -1.8767 -1.0013
 5637SOL     OW28543   2.083   4.671   1.834 -0.2450 -0.2299 -0.0990
 5637SOL    HW128544   2.047   4.726   1.903  3.3885  1.4446  0.4473
 5637SOL    HW228545   2.001   4.650   1.790 -1.4028 -0.2029  2.0413
 5638SOL     OW28546   0.749   0.386   8.496  0.4540  0.0695 -0.0135
 5638SOL    HW128547   0.828   0.422   8.537  0.0898  0.5708  0.2517
 5638SOL    HW228548   0.734   0.319   8.562  1.5513  0.5519  0.7182
 5639SOL     OW28549   0.275   1.347   3.626  0.3889  0.3475 -0.8635
 5639SOL    HW128550   0.248   1.291   3.699 -1.1119 -0.3341 -1.9517
 5639SOL    HW228551   0.369   1.332   3.619  0.5506  0.4016  1.1306
 5640SOL     OW28552   3.204   0.918   6.651 -0.4381  0.6897  0.0432
 5640SOL    HW128553   3.280   0.877   6.693  1.1193  1.6204 -1.8396
 5640SOL    HW228554   3.213   1.010   6.678 -0.6223  0.3406  1.2527
 5641SOL     OW28555   4.732   3.974   2.973 -0.1893  0.1485 -0.8049
 5641SOL    HW128556   4.655   3.981   2.916  0.1935 -2.8034 -1.7109
 5641SOL    HW228557   4.701   3.928   3.050  0.6646 -1.1075 -1.2069
 5642SOL     OW28558   0.519   1.004   3.502 -0.0516 -0.3656 -0.4663
 5642SOL    HW128559   0.577   0.955   3.444 -0.3146 -1.9323  0.6088
 5642SOL    HW228560   0.458   1.033   3.434  1.6875  2.4360 -0.8304
 5643SOL     OW28561   1.102   1.896   5.375  0.0030  0.3313 -0.2544
 5643SOL    HW128562   1.055   1.924   5.297 -0.4483 -0.8266 -0.4043
 5643SOL    HW228563   1.037   1.912   5.443 -0.0944  0.8318 -0.4682
 5644SOL     OW28564   4.152   1.953   5.348  0.0594  0.1872  0.6559
 5644SOL    HW128565   4.168   2.043   5.374 -0.7463  0.3472  0.6056
 5644SOL    HW228566   4.078   1.969   5.289  1.0188 -0.1708 -0.6558
 5645SOL     OW28567   3.826   1.459   7.953 -0.0796 -0.4796 -0.1755
 5645SOL    HW128568   3.829   1.504   8.038  0.0131 -0.1250 -0.3687
 5645SOL    HW228569   3.810   1.523   7.884  0.1574 -1.1173 -0.8264
 5646SOL     OW28570   0.968   2.462   8.335 -0.4133 -0.2404 -0.5761
 5646SOL    HW128571   0.973   2.435   8.243 -0.2157 -1.4272 -0.2098
 5646SOL    HW228572   1.011   2.392   8.383  1.2290  0.1581 -1.4537
 5647SOL     OW28573   1.052   1.342  10.410  0.2528  0.3958 -0.1335
 5647SOL    HW128574   0.991   1.342  10.484  1.3728  2.2344  0.7922
 5647SOL    HW228575   1.107   1.265  10.424 -0.3302 -0.3283 -1.8102
 5648SOL     OW28576   2.767   3.875   6.272 -0.4835  0.4530  0.2524
 5648SOL    HW128577   2.819   3.798   6.294 -0.7327  0.0575 -0.5220
 5648SOL    HW228578   2.730   3.855   6.186 -0.9441  2.3802  0.0047
 5649SOL     OW28579   3.083   0.096  13.560  0.3464 -0.6748  0.0714
 5649SOL    HW128580   3.082   0.112  13.465  0.5287  4.1088  0.8620
 5649SOL    HW228581   3.176   0.075  13.573  0.6883 -0.2264 -1.6185
 5650SOL     OW28582   2.450   2.830   2.921 -0.7136  0.1898  0.4736
 5650SOL    HW128583   2.418   2.740   2.914  0.9774 -0.4602  1.1092
 5650SOL    HW228584   2.538   2.816   2.956 -1.5703  1.0894  2.9816
 5651SOL     OW28585   1.706   0.416   4.918 -0.2673 -0.1927 -0.0517
 5651SOL    HW128586   1.726   0.481   4.985 -0.3025  0.7627 -0.9729
 5651SOL    HW228587   1.781   0.436   4.861 -0.1339  0.1166  0.2288
 5652SOL     OW28588   1.901   3.294  10.266  0.2038 -0.0420  0.6929
 5652SOL    HW128589   1.903   3.352  10.342  2.9615  2.5017 -1.2995
 5652SOL    HW228590   1.936   3.222  10.318 -0.4555 -0.9808 -0.1658
 5653SOL     OW28591   3.895   4.703  12.747 -0.0626  0.1515  0.4636
 5653SOL    HW128592   3.872   0.051  12.710  0.7177  0.3255  0.3808
 5653SOL    HW228593   3.887   4.641  12.674  1.4779  0.5131 -0.0187
 5654SOL     OW28594   0.821   2.532   8.717  0.0581 -0.1684 -0.3806
 5654SOL    HW128595   0.813   2.443   8.751  0.9560  0.1832  0.7180
 5654SOL    HW228596   0.888   2.570   8.774 -0.6297 -0.9933  0.9620
 5655SOL     OW28597   4.474   0.398   4.826 -0.5834 -0.0298 -0.0444
 5655SOL    HW128598   4.453   0.315   4.869  0.4035 -0.6186 -0.6836
 5655SOL    HW228599   4.564   0.375   4.801 -0.5068  1.4755 -1.1489
 5656SOL     OW28600   0.901   2.651   2.209  0.8495 -0.2419 -0.7921
 5656SOL    HW128601   0.974   2.592   2.225  0.5619 -0.1305  1.0098
 5656SOL    HW228602   0.933   2.679   2.123 -0.8591  3.0395 -0.3595
 5657SOL     OW28603   4.500   1.668  15.261  0.2461  0.1851 -0.3011
 5657SOL    HW128604   4.509   1.710  15.346  1.3433  1.5208 -1.0815
 5657SOL    HW228605   4.563   1.726  15.218 -1.0496  0.2458 -2.0979
 5658SOL     OW28606   0.091   0.105   7.051 -0.1594  0.6988 -0.5418
 5658SOL    HW128607   0.096   0.125   6.957  1.9903 -1.5209 -0.9098
 5658SOL    HW228608   0.136   0.182   7.083 -2.4772  1.7710  0.0883
 5659SOL     OW28609   2.256   1.649   7.406 -0.1576 -0.2318 -0.1978
 5659SOL    HW128610   2.265   1.700   7.486  2.7977 -0.2029 -0.5444
 5659SOL    HW228611   2.177   1.686   7.366 -0.3518 -1.3087 -0.8072
 5660SOL     OW28612   1.388   1.650   0.595 -0.3502  0.0287 -0.2370
 5660SOL    HW128613   1.361   1.693   0.676 -0.0904 -0.0127 -0.1287
 5660SOL    HW228614   1.325   1.577   0.589 -2.8592  2.2946 -1.4954
 5661SOL     OW28615   1.853   1.674   3.008  0.1291  0.2497  0.2641
 5661SOL    HW128616   1.824   1.730   2.937 -0.6921 -0.9842 -0.3649
 5661SOL    HW228617   1.787   1.605   2.996  2.4446 -2.0841  0.8406
 5662SOL     OW28618   2.258   2.993  17.063 -0.0241  0.1245  0.2323
 5662SOL    HW128619   2.233   2.921  17.005  0.4594  0.2132 -0.0792
 5662SOL    HW228620   2.305   3.049  17.001 -2.9200  2.4077  0.0799
 5663SOL     OW28621   2.382   1.694   0.690 -0.3527  0.1845  0.1922
 5663SOL    HW128622   2.321   1.626   0.661 -0.8853 -0.0644  1.9007
 5663SOL    HW228623   2.458   1.672   0.637 -0.5969 -0.6913  0.2088
 5664SOL     OW28624   1.888   1.401   6.750 -0.3061 -0.1614  0.5134
 5664SOL    HW128625   1.846   1.454   6.683  0.6111  0.3849  0.3680
 5664SOL    HW228626   1.904   1.316   6.709  0.1189  0.1365  0.0648
 5665SOL     OW28627   2.992   2.040   3.895 -0.5711  0.2227 -0.1729
 5665SOL    HW128628   2.908   1.997   3.907 -0.0919 -1.0336 -1.3866
 5665SOL    HW228629   2.963   2.110   3.836  1.7148  0.4181 -1.0587
 5666SOL     OW28630   1.601   0.441   4.086 -0.5986 -0.0784  0.5402
 5666SOL    HW128631   1.634   0.498   4.017  0.8852  0.4237  1.6746
 5666SOL    HW228632   1.516   0.415   4.050 -0.0798  0.8156 -1.3470
 5667SOL     OW28633   4.021   3.168   3.955 -0.2218 -0.2122  0.1496
 5667SOL    HW128634   4.064   3.225   4.019  2.2075 -0.2687 -1.4405
 5667SOL    HW228635   4.056   3.203   3.873 -0.5271 -0.7325 -0.2024
 5668SOL     OW28636   3.768   1.368  17.047  0.6284 -0.9452 -0.0858
 5668SOL    HW128637   3.783   1.289  17.098 -0.1763 -0.2787  1.2061
 5668SOL    HW228638   3.785   1.439  17.110  2.6203 -0.4623 -1.1722
 5669SOL     OW28639   2.991   3.211   9.459 -0.1373  0.3624 -0.2617
 5669SOL    HW128640   3.049   3.286   9.474 -0.2289  0.5847 -1.0229
 5669SOL    HW228641   2.924   3.247   9.517  1.5964  0.8094  1.4681
 5670SOL     OW28642   0.913   3.304   1.047  0.3087 -0.0467  0.1330
 5670SOL    HW128643   0.868   3.297   1.131 -1.5386  0.1681 -0.8266
 5670SOL    HW228644   0.862   3.238   1.000  1.1793 -0.7627  0.1910
 5671SOL     OW28645   1.975   1.256   7.276  0.0289 -0.3822  0.0090
 5671SOL    HW128646   1.923   1.195   7.328  0.4488 -0.1677  0.6626
 5671SOL    HW228647   1.985   1.209   7.193  1.4289 -1.3852  0.7642
 5672SOL     OW28648   1.687   0.986   3.749  0.5533  0.5237 -0.3643
 5672SOL    HW128649   1.604   0.998   3.794  0.2243 -0.1849 -0.7866
 5672SOL    HW228650   1.760   0.980   3.812  0.6277 -0.8437 -0.5867
 5673SOL     OW28651   1.024   2.496   6.849  0.2284 -0.0976  0.5266
 5673SOL    HW128652   1.015   2.427   6.783 -0.9308  1.2339 -0.7153
 5673SOL    HW228653   1.082   2.549   6.794  0.9685 -1.7777 -0.3044
 5674SOL     OW28654   2.935   0.807   4.074 -0.9980  0.3799  0.3446
 5674SOL    HW128655   2.902   0.762   4.153  2.7295  0.5770  2.0080
 5674SOL    HW228656   2.996   0.872   4.109 -2.8610  2.8612 -1.0436
 5675SOL     OW28657   4.181   1.678  13.351  0.1890 -0.6652  0.0042
 5675SOL    HW128658   4.194   1.671  13.256  0.2944 -2.4804  0.1582
 5675SOL    HW228659   4.105   1.622  13.368 -1.5295  2.1723  1.6253
 5676SOL     OW28660   3.575   4.407   0.459  0.0868 -0.0102 -0.4673
 5676SOL    HW128661   3.555   4.407   0.365 -2.0181 -3.2658  0.0007
 5676SOL    HW228662   3.647   4.346   0.468 -1.2810 -1.7237 -1.1557
 5677SOL     OW28663   0.125   2.906   3.236 -0.4750  0.2325 -0.3558
 5677SOL    HW128664   0.153   2.848   3.307 -1.0964  2.7962  2.0036
 5677SOL    HW228665   0.031   2.902   3.258 -0.0335 -2.7529  1.0607
 5678SOL     OW28666   2.113   0.005   5.133  0.5092  0.1611  0.1666
 5678SOL    HW128667   2.039   0.016   5.192 -0.3873 -1.6506 -0.6285
 5678SOL    HW228668   2.075   4.675   5.077  1.3305  0.7536 -1.0995
 5679SOL     OW28669   2.499   0.534  17.699  0.3111 -0.0134  0.5149
 5679SOL    HW128670   2.511   0.533   0.047  1.0386  0.2954  0.4289
 5679SOL    HW228671   2.405   0.546  17.684 -0.3064 -2.4125  2.4757
 5680SOL     OW28672   3.785   4.620   3.285 -0.2045  0.5396 -0.2789
 5680SOL    HW128673   3.726   4.556   3.246  0.5788  0.4079 -1.2558
 5680SOL    HW228674   3.719   4.686   3.308 -0.6827 -0.0737  0.0992
 5681SOL     OW28675   0.067   0.513   5.501 -0.2474 -0.0477 -0.0754
 5681SOL    HW128676   4.721   0.494   5.457  0.2433 -0.9811 -0.5895
 5681SOL    HW228677   0.069   0.604   5.532 -1.4533 -0.4313  1.1626
 5682SOL     OW28678   4.300   0.671   1.855 -0.1927  0.4361  0.2457
 5682SOL    HW128679   4.259   0.647   1.771 -1.4960  1.5728  0.5502
 5682SOL    HW228680   4.365   0.602   1.863  0.4818  1.0885  0.3804
 5683SOL     OW28681   1.562   0.639   6.464  0.3583 -0.2300 -0.0627
 5683SOL    HW128682   1.617   0.636   6.543  1.2784 -0.7329 -0.7323
 5683SOL    HW228683   1.538   0.547   6.468  1.5001 -0.4885  1.0729
 5684SOL     OW28684   1.578   0.377   8.444  0.4760 -0.1274  0.5602
 5684SOL    HW128685   1.628   0.429   8.506  0.4295 -0.5854  0.9866
 5684SOL    HW228686   1.579   0.290   8.485  0.6724 -0.6086 -0.4469
 5685SOL     OW28687   1.581   4.501   2.885  0.4635 -0.6392  1.1072
 5685SOL    HW128688   1.632   4.537   2.958  0.9058 -0.1350  0.5477
 5685SOL    HW228689   1.527   4.439   2.935  0.4043 -1.6714 -0.2374
 5686SOL     OW28690   2.467   2.627   7.396 -0.0306 -0.4626 -0.1793
 5686SOL    HW128691   2.552   2.587   7.414  1.0097  2.0104  0.3522
 5686SOL    HW228692   2.425   2.594   7.476  0.7108 -1.6528 -0.2758
 5687SOL     OW28693   4.050   1.799   8.904  0.9492  0.4929  0.4434
 5687SOL    HW128694   3.962   1.824   8.932  1.3610  1.5947  0.7587
 5687SOL    HW228695   4.106   1.841   8.969  0.4818 -2.2593  2.5801
 5688SOL     OW28696   0.027   2.665  15.154  0.7840  0.0388  0.4979
 5688SOL    HW128697   0.104   2.626  15.111 -0.7542 -0.5262 -1.7828
 5688SOL    HW228698   0.015   2.613  15.233  0.2809  2.1646  1.8140
 5689SOL     OW28699   4.207   3.029   5.213 -0.3865 -0.0392 -0.0957
 5689SOL    HW128700   4.206   3.112   5.261 -2.8197  0.7916 -1.5663
 5689SOL    HW228701   4.296   3.017   5.181  0.1482  0.3374  1.2872
 5690SOL     OW28702   3.796   0.641   5.948  0.5949  0.5215 -0.1678
 5690SOL    HW128703   3.812   0.690   6.029 -0.0771  0.6251 -0.0967
 5690SOL    HW228704   3.849   0.565   5.971  1.3354  0.3635 -2.4029
 5691SOL     OW28705   2.812   1.086  17.708  0.3614  0.2740 -0.2413
 5691SOL    HW128706   2.721   1.117  17.710  0.6313  1.0841 -0.6964
 5691SOL    HW228707   2.809   1.031  17.630 -0.7747 -0.8446  0.5957
 5692SOL     OW28708   4.006   4.515   5.005  0.1307  0.3523 -0.1089
 5692SOL    HW128709   3.986   4.551   4.919 -0.4640  2.4213  0.9190
 5692SOL    HW228710   4.060   4.439   4.980  1.8027  1.2472  0.7785
 5693SOL     OW28711   1.784   0.727  12.568 -1.0273 -0.4465 -0.2943
 5693SOL    HW128712   1.736   0.704  12.648  1.1741 -1.7449  0.6385
 5693SOL    HW228713   1.717   0.694  12.507 -1.4511  0.6959 -0.4464
 5694SOL     OW28714   2.082   3.486  11.521  0.2777 -0.3167 -0.0926
 5694SOL    HW128715   2.100   3.529  11.605  3.4940 -0.7288 -0.5687
 5694SOL    HW228716   1.999   3.455  11.557  0.0185 -0.4749 -0.8369
 5695SOL     OW28717   2.501   2.249   5.262  0.3254  0.3245 -0.5096
 5695SOL    HW128718   2.499   2.211   5.350  1.2157 -3.0374 -1.9591
 5695SOL    HW228719   2.483   2.178   5.201  1.4614  0.6050 -1.1682
 5696SOL     OW28720   1.655   0.677  10.527 -0.3901  0.5128  0.4009
 5696SOL    HW128721   1.662   0.712  10.615  0.5280 -2.3003  1.4533
 5696SOL    HW228722   1.731   0.716  10.483  0.3115 -2.3095 -0.9585
 5697SOL     OW28723   0.360   0.134   8.960  0.3863 -0.8851 -0.0990
 5697SOL    HW128724   0.266   0.139   8.976  0.7666 -0.0691  1.8481
 5697SOL    HW228725   0.391   0.207   9.015 -0.5486  0.4324 -1.3139
 5698SOL     OW28726   3.871   1.438   7.477  0.7578  0.0668  0.1298
 5698SOL    HW128727   3.912   1.364   7.431 -0.0004 -0.5984  0.5171
 5698SOL    HW228728   3.918   1.419   7.558 -1.9426 -2.1661  1.1928
 5699SOL     OW28729   1.505   3.720   4.743 -0.1414  0.1509  0.1561
 5699SOL    HW128730   1.575   3.677   4.792  0.0533 -0.4608 -0.6589
 5699SOL    HW228731   1.521   3.814   4.756 -0.7952 -0.1399  3.0091
 5700SOL     OW28732   2.735   1.294   0.246 -0.2495 -0.0890 -0.1459
 5700SOL    HW128733   2.651   1.251   0.229  0.1085 -1.0536  0.4742
 5700SOL    HW228734   2.724   1.380   0.206 -1.1496 -0.9153 -1.6728
 5701SOL     OW28735   4.577   0.690  14.777 -0.0018  0.3901  0.4037
 5701SOL    HW128736   4.493   0.681  14.733  0.3520 -1.9364  0.1861
 5701SOL    HW228737   4.625   0.618  14.736  0.2900  0.5430  0.4744
 5702SOL     OW28738   2.131   2.687  14.012  0.1883 -0.2445 -0.3733
 5702SOL    HW128739   2.058   2.627  14.026 -0.2847  0.3977 -0.0752
 5702SOL    HW228740   2.113   2.730  13.928 -0.4770  0.1484 -0.0357
 5703SOL     OW28741   2.642   1.387   4.303  0.3953  0.3921  0.2001
 5703SOL    HW128742   2.650   1.303   4.349 -0.9802 -0.7836 -1.6957
 5703SOL    HW228743   2.551   1.400   4.278  0.5035  3.1321  1.1894
 5704SOL     OW28744   0.571   1.808  11.366  0.2513  0.5354 -0.1160
 5704SOL    HW128745   0.587   1.902  11.363  3.6590 -0.0398  0.0696
 5704SOL    HW228746   0.482   1.803  11.332 -0.0345  1.6785  0.4582
 5705SOL     OW28747   0.145   1.839   8.556 -0.5733  0.2233 -0.2268
 5705SOL    HW128748   0.116   1.918   8.510 -1.5446 -0.5563 -0.9359
 5705SOL    HW228749   0.221   1.802   8.510  0.2300  2.6837 -0.8760
 5706SOL     OW28750   0.494   1.112   5.328  0.3119 -0.3231  0.8207
 5706SOL    HW128751   0.405   1.080   5.319  0.1077  1.1917 -2.7264
 5706SOL    HW228752   0.491   1.169   5.404  0.3935  0.5693  0.1579
 5707SOL     OW28753   3.508   2.648  10.757  0.7053  0.0456  0.0129
 5707SOL    HW128754   3.595   2.609  10.748  1.4455  1.3527  1.4780
 5707SOL    HW228755   3.452   2.574  10.732 -0.3467  0.7721  0.2220
 5708SOL     OW28756   2.890   1.506  12.548 -0.0521  0.2047  0.4220
 5708SOL    HW128757   2.797   1.529  12.558  0.0016  0.9259 -0.6907
 5708SOL    HW228758   2.920   1.590  12.582  0.8258 -0.3540  0.9989
 5709SOL     OW28759   1.721   3.719   2.947 -0.3908 -0.3883  0.1905
 5709SOL    HW128760   1.653   3.771   2.991  0.1454  0.4084  0.0887
 5709SOL    HW228761   1.702   3.738   2.855  0.3423 -1.2441 -0.1350
 5710SOL     OW28762   3.694   4.326   3.456 -0.2265 -0.0527  0.1935
 5710SOL    HW128763   3.639   4.398   3.487  0.2141 -0.3332  1.6445
 5710SOL    HW228764   3.659   4.309   3.369  1.4904 -1.0800 -0.2845
 5711SOL     OW28765   3.057   2.891  11.930 -0.3125  0.2304  0.8311
 5711SOL    HW128766   3.021   2.882  11.842  1.8654  1.4003 -0.1730
 5711SOL    HW228767   3.145   2.858  11.910 -0.5239  0.5870 -0.6840
 5712SOL     OW28768   0.923   1.112   1.157  0.2062  0.0684 -0.4990
 5712SOL    HW128769   1.018   1.121   1.161  0.5376 -2.0120 -2.8435
 5712SOL    HW228770   0.910   1.029   1.203  0.4977 -0.4267 -1.2969
 5713SOL     OW28771   0.176   0.210   5.455 -0.7618 -0.5380 -0.9395
 5713SOL    HW128772   0.267   0.180   5.464 -0.0971  1.4585 -1.1051
 5713SOL    HW228773   0.180   0.304   5.472 -1.8144 -0.7169  0.3051
 5714SOL     OW28774   4.546   3.252   6.420 -0.0010  0.5450 -0.9132
 5714SOL    HW128775   4.572   3.246   6.512 -1.4056  2.2009 -0.4042
 5714SOL    HW228776   4.520   3.343   6.405  0.9198  1.0873  0.8253
 5715SOL     OW28777   3.181   3.927  17.599  0.0492 -0.0708  0.1329
 5715SOL    HW128778   3.181   3.997  17.533 -0.2908  2.0117  2.3665
 5715SOL    HW228779   3.226   3.857  17.551 -0.6220 -0.9108  0.7239
 5716SOL     OW28780   3.483   1.341   7.004 -0.6945  0.4633  0.0157
 5716SOL    HW128781   3.430   1.398   6.948  0.1986 -0.0290 -1.3173
 5716SOL    HW228782   3.506   1.412   7.064  1.4179 -0.4573  0.3145
 5717SOL     OW28783   1.933   2.875   8.717  0.2507  0.3402  0.0947
 5717SOL    HW128784   1.971   2.864   8.804 -2.0967 -1.0137  0.9354
 5717SOL    HW228785   2.009   2.891   8.661 -0.9399  1.3234 -1.2056
 5718SOL     OW28786   3.729   3.721  11.509  0.2915  0.5085 -0.4623
 5718SOL    HW128787   3.664   3.700  11.576 -0.8715 -0.5769 -1.9418
 5718SOL    HW228788   3.717   3.814  11.489 -2.1823  0.1522 -0.6268
 5719SOL     OW28789   3.414   3.183   7.799 -0.2414  0.5218 -0.2000
 5719SOL    HW128790   3.487   3.205   7.857  1.3633  0.9144 -2.3416
 5719SOL    HW228791   3.380   3.107   7.846  1.4304 -0.7507 -1.0606
 5720SOL     OW28792   4.268   2.038   3.456 -0.3975  0.3202  0.2456
 5720SOL    HW128793   4.355   1.997   3.455  0.2089  1.5558  2.5657
 5720SOL    HW228794   4.262   2.093   3.377  1.4338  1.4284  0.8817
 5721SOL     OW28795   2.495   3.151   8.686 -0.1735  0.6039 -0.0786
 5721SOL    HW128796   2.409   3.155   8.729 -0.4372  1.2652 -0.6828
 5721SOL    HW228797   2.517   3.243   8.701 -1.7160  0.9818 -0.1865
 5722SOL     OW28798   2.196   0.798   1.625 -0.8189 -0.0550  0.1424
 5722SOL    HW128799   2.195   0.791   1.720 -0.4692  0.5629  0.1959
 5722SOL    HW228800   2.276   0.849   1.610 -0.3266 -1.2021 -1.0984
 5723SOL     OW28801   3.006   2.799   6.267  0.2442  0.3432  0.0423
 5723SOL    HW128802   2.926   2.811   6.318  0.0898 -0.9049  0.1145
 5723SOL    HW228803   2.979   2.711   6.240 -0.9104  0.8309 -0.3963
 5724SOL     OW28804   2.093   3.246   4.810  0.0176 -0.5848 -0.5305
 5724SOL    HW128805   2.181   3.259   4.846 -0.8494  1.8728  0.7125
 5724SOL    HW228806   2.052   3.190   4.875 -1.3356  0.8058 -0.1839
 5725SOL     OW28807   2.682   2.846   7.551  0.2540 -0.4005 -0.0179
 5725SOL    HW128808   2.765   2.804   7.532  0.5477  0.2539 -0.1946
 5725SOL    HW228809   2.662   2.860   7.458  2.0391 -0.7642 -0.4461
 5726SOL     OW28810   3.289   4.179  12.394 -0.1761  0.1245  0.4519
 5726SOL    HW128811   3.328   4.265  12.403  0.6539 -0.1133 -0.9238
 5726SOL    HW228812   3.232   4.189  12.470  0.2034 -1.1785  0.9113
 5727SOL     OW28813   2.944   4.320   5.957 -0.0925  0.2984  0.0834
 5727SOL    HW128814   3.027   4.329   5.911  1.0451  0.5430  2.1494
 5727SOL    HW228815   2.887   4.360   5.892  0.3420  1.3172  0.3222
 5728SOL     OW28816   2.998   2.060   7.314  0.3344 -0.1787 -0.2777
 5728SOL    HW128817   2.928   1.995   7.324  0.5409 -0.0466  2.1315
 5728SOL    HW228818   3.051   2.047   7.393 -0.5253  2.0110  0.6655
 5729SOL     OW28819   1.378   2.032   6.810 -0.5445  0.0900 -0.6967
 5729SOL    HW128820   1.464   2.016   6.850  0.3198  0.2831 -2.4876
 5729SOL    HW228821   1.383   2.126   6.795  3.9231 -0.2717 -1.7103
 5730SOL     OW28822   3.044   0.674  16.196 -0.0429  0.1709 -0.0719
 5730SOL    HW128823   3.028   0.735  16.268  1.0205 -0.6701  0.8705
 5730SOL    HW228824   2.971   0.613  16.208  0.8088 -1.1038 -1.4471
 5731SOL     OW28825   2.786   4.412   0.785  0.3230 -0.1648  0.1640
 5731SOL    HW128826   2.807   4.377   0.698 -0.6950 -0.0001 -0.1387
 5731SOL    HW228827   2.731   4.485   0.757  1.6838  0.5329 -0.7070
 5732SOL     OW28828   3.457   1.817   9.203 -0.2661 -0.5174  0.2134
 5732SOL    HW128829   3.422   1.774   9.125  3.1679 -2.9473  0.0001
 5732SOL    HW228830   3.429   1.759   9.274 -0.0385 -0.4841  0.3319
 5733SOL     OW28831   3.154   1.258   4.148  0.3496  0.4301 -0.1994
 5733SOL    HW128832   3.137   1.249   4.054 -1.9368 -0.3987  0.2794
 5733SOL    HW228833   3.109   1.176   4.170  1.5658 -0.0748  0.4221
 5734SOL     OW28834   2.993   2.717   2.541  0.1840 -0.3304 -0.8550
 5734SOL    HW128835   3.006   2.812   2.533 -2.6191  0.3445  2.5015
 5734SOL    HW228836   2.991   2.711   2.637  0.0831  2.6174 -0.6426
 5735SOL     OW28837   0.834   0.871   4.128 -0.2840  0.1109  0.2470
 5735SOL    HW128838   0.916   0.893   4.173 -0.8887  2.0131  0.4062
 5735SOL    HW228839   0.836   0.933   4.056 -1.7256 -0.0631  0.0482
 5736SOL     OW28840   4.450   1.327   2.259 -0.4987 -0.0606 -0.3318
 5736SOL    HW128841   4.538   1.346   2.289 -0.8680 -0.8838  1.2686
 5736SOL    HW228842   4.424   1.270   2.331  1.9846 -0.4412  0.2483
 5737SOL     OW28843   3.283   0.939   9.799  0.5831 -0.0785 -0.0090
 5737SOL    HW128844   3.215   0.987   9.752  0.2054 -0.2240  0.3853
 5737SOL    HW228845   3.274   0.968   9.890 -1.9051  3.2105 -1.2940
 5738SOL     OW28846   1.573   4.702   7.825 -0.0055 -0.2647  0.2559
 5738SOL    HW128847   1.609   0.054   7.822  3.1601 -1.5735 -0.3975
 5738SOL    HW228848   1.581   4.684   7.919  2.0717 -1.4300 -0.1583
 5739SOL     OW28849   1.165   0.685  15.725  0.0054 -0.0442  0.5643
 5739SOL    HW128850   1.076   0.661  15.753  0.5146 -1.9762  0.5188
 5739SOL    HW228851   1.199   0.597  15.710 -2.9288 -1.0632 -0.2747
 5740SOL     OW28852   4.088   4.037   5.548  0.3407  0.0782  0.3694
 5740SOL    HW128853   4.142   3.970   5.590 -0.0270 -0.7495 -0.4837
 5740SOL    HW228854   4.052   3.984   5.477  1.4191  2.4813 -1.9719
 5741SOL     OW28855   3.062   1.015  10.385 -0.2879 -0.3631 -0.0989
 5741SOL    HW128856   3.045   0.951  10.316 -2.0596  0.4656 -0.4479
 5741SOL    HW228857   3.115   1.082  10.342 -0.6435 -0.0781 -0.0922
 5742SOL     OW28858   3.077   4.332   4.826 -0.7681 -0.4098  0.3628
 5742SOL    HW128859   3.097   4.362   4.915 -2.3318  0.6537  0.3694
 5742SOL    HW228860   3.028   4.407   4.791 -1.3233 -0.6086  0.7124
 5743SOL     OW28861   4.716   0.178  14.127 -0.0182 -0.1320  0.0850
 5743SOL    HW128862   4.666   0.215  14.200  0.4199 -0.1584  0.3927
 5743SOL    HW228863   0.071   0.185  14.151  0.2695 -1.9247 -0.5663
 5744SOL     OW28864   4.251   3.541   6.660 -0.0257 -0.2619 -0.0673
 5744SOL    HW128865   4.227   3.594   6.584  1.9758 -0.6616 -0.9679
 5744SOL    HW228866   4.232   3.608   6.726  1.1621  0.5840 -0.5932
 5745SOL     OW28867   3.779   3.509   9.749  0.0372  0.4008 -0.0779
 5745SOL    HW128868   3.853   3.474   9.800  0.8206  3.4164  0.8802
 5745SOL    HW228869   3.715   3.475   9.812  1.3581 -1.7163  0.1272
 5746SOL     OW28870   2.380   3.157   1.383  0.2716 -0.1935  0.3305
 5746SOL    HW128871   2.471   3.187   1.383  0.2882 -0.2501 -0.1659
 5746SOL    HW228872   2.399   3.076   1.430  1.1379  1.7787  3.4588
 5747SOL     OW28873   1.290   3.836   6.552  0.4686  0.0638  0.3364
 5747SOL    HW128874   1.232   3.836   6.476  1.4077  1.6978 -0.3831
 5747SOL    HW228875   1.234   3.823   6.628  0.6378  0.4205  0.5234
 5748SOL     OW28876   4.043   3.205  17.186  0.1847  0.0948 -0.4529
 5748SOL    HW128877   4.035   3.263  17.110 -3.7323 -0.9857 -0.9076
 5748SOL    HW228878   4.102   3.252  17.244  1.7668 -0.8329 -1.3218
 5749SOL     OW28879   3.185   3.257   8.303 -0.1137  0.0046 -0.2840
 5749SOL    HW128880   3.117   3.324   8.311  0.1646  0.2979 -0.3793
 5749SOL    HW228881   3.140   3.180   8.337  0.9850 -0.6218 -0.2292
 5750SOL     OW28882   1.985   4.635  10.891 -0.2193  0.1381 -0.0328
 5750SOL    HW128883   1.928   4.706  10.921 -2.0461 -1.1118 -0.5359
 5750SOL    HW228884   2.005   4.582  10.968  1.4240  0.4488 -0.2466
 5751SOL     OW28885   1.490   1.144   5.651  0.3469  0.0812  0.1779
 5751SOL    HW128886   1.538   1.067   5.617 -1.0257 -0.8666  0.3999
 5751SOL    HW228887   1.454   1.165   5.565 -0.7214 -0.7456  0.4270
 5752SOL     OW28888   3.484   2.790   5.241  0.4453  0.2160  0.0499
 5752SOL    HW128889   3.460   2.872   5.285 -1.4858  0.0401 -0.6659
 5752SOL    HW228890   3.563   2.825   5.199 -0.1244  0.7259 -0.6034
 5753SOL     OW28891   3.214   2.608   6.791  0.1735  0.4150 -0.0036
 5753SOL    HW128892   3.170   2.544   6.846 -0.0603  1.6089  1.1946
 5753SOL    HW228893   3.268   2.652   6.857  0.7303 -0.3941  0.0799
 5754SOL     OW28894   4.007   1.539   4.688 -0.3874  0.4916 -0.5845
 5754SOL    HW128895   3.986   1.630   4.710  0.1898  1.0566 -2.4089
 5754SOL    HW228896   4.083   1.517   4.743 -0.3047  3.5474  0.5426
 5755SOL     OW28897   2.739   4.392  14.480 -0.2781  0.3420  0.9733
 5755SOL    HW128898   2.726   4.301  14.451  0.1444  0.3734  0.6767
 5755SOL    HW228899   2.797   4.377  14.554  1.7918  2.8090 -0.1423
 5756SOL     OW28900   2.294   0.251  17.393 -0.1342 -0.4620  0.4004
 5756SOL    HW128901   2.312   0.234  17.486 -1.2444  1.5686  0.9858
 5756SOL    HW228902   2.244   0.333  17.402 -3.3541 -2.3942 -0.0559
 5757SOL     OW28903   0.115   3.428   3.848 -0.0394 -0.2106 -0.0004
 5757SOL    HW128904   0.198   3.432   3.801 -0.5982 -0.2324 -1.0001
 5757SOL    HW228905   0.116   3.333   3.859  2.4907 -0.2855 -0.8101
 5758SOL     OW28906   1.300   0.001   1.959  0.1362 -0.6169  0.7522
 5758SOL    HW128907   1.343   4.686   2.027  0.8686 -2.8401 -1.3965
 5758SOL    HW228908   1.331   4.696   1.878  0.8514 -0.9595  1.2086
 5759SOL     OW28909   4.378   3.490   1.470 -0.0320 -0.5259  0.0980
 5759SOL    HW128910   4.362   3.397   1.454 -0.4392 -0.2916 -0.8670
 5759SOL    HW228911   4.311   3.530   1.415 -0.7366 -0.5956  0.9188
 5760SOL     OW28912   4.603   3.855   3.178 -0.5373  0.1243 -0.1471
 5760SOL    HW128913   4.634   3.869   3.267  0.7000  0.2622 -0.5909
 5760SOL    HW228914   4.514   3.822   3.188 -0.9300  1.4499  0.7594
 5761SOL     OW28915   2.808   3.860   3.130  0.2019 -0.1425 -0.4187
 5761SOL    HW128916   2.789   3.945   3.091 -1.4429  0.4378  1.6617
 5761SOL    HW228917   2.883   3.880   3.186  0.4749  1.3912 -1.3421
 5762SOL     OW28918   4.271   3.621   7.234  0.7890 -0.2851 -0.4775
 5762SOL    HW128919   4.330   3.689   7.265 -1.9951  1.0055  1.9247
 5762SOL    HW228920   4.224   3.677   7.172  0.8990  0.6545  0.2978
 5763SOL     OW28921   0.181   3.794   4.849 -0.1936 -0.0221 -0.3253
 5763SOL    HW128922   0.229   3.713   4.837 -0.8970 -0.5577  0.4636
 5763SOL    HW228923   0.112   3.767   4.909  0.5660  1.4319  1.2174
 5764SOL     OW28924   0.347   0.655  13.765  0.2148  0.5558  0.7924
 5764SOL    HW128925   0.344   0.610  13.850  1.2497 -0.6168  0.2094
 5764SOL    HW228926   0.433   0.697  13.760 -0.2821  1.0722 -3.2724
 5765SOL     OW28927   0.524   3.909  10.710  0.3828 -0.0672 -0.7451
 5765SOL    HW128928   0.592   3.910  10.777 -0.5643 -2.8010  0.2743
 5765SOL    HW228929   0.571   3.864  10.640  1.1801 -0.8913  0.3284
 5766SOL     OW28930   2.119   1.873   5.175 -0.1627  0.2928 -0.5240
 5766SOL    HW128931   2.121   1.846   5.083 -0.1505  3.0560 -1.3343
 5766SOL    HW228932   2.047   1.936   5.168  0.4381  1.1990  1.5112
 5767SOL     OW28933   2.281   0.416   4.258  0.0888 -0.6680 -0.4519
 5767SOL    HW128934   2.350   0.437   4.195 -0.2398 -3.2586 -1.6845
 5767SOL    HW228935   2.274   0.321   4.245 -0.6045 -0.5821 -0.6903
 5768SOL     OW28936   2.620   2.005   4.235 -0.2251  0.0211  0.1159
 5768SOL    HW128937   2.618   1.924   4.287 -2.4448  0.6871  1.0855
 5768SOL    HW228938   2.529   2.019   4.209 -0.1945 -0.4978 -0.2939
 5769SOL     OW28939   1.283   2.346  14.757  0.3586  0.3554 -0.2540
 5769SOL    HW128940   1.300   2.390  14.840  0.5235  1.6547 -0.9585
 5769SOL    HW228941   1.362   2.293  14.746  1.2713  1.3820  1.4648
 5770SOL     OW28942   3.828   2.516   5.745  0.5000  0.1653 -0.2824
 5770SOL    HW128943   3.847   2.610   5.744  0.1996  0.2070 -2.7555
 5770SOL    HW228944   3.912   2.485   5.711  0.8092  1.1179 -0.4031
 5771SOL     OW28945   4.050   0.344   5.204  0.1346  0.0057 -0.0554
 5771SOL    HW128946   3.974   0.362   5.259  1.0801  0.9831  0.9381
 5771SOL    HW228947   4.113   0.402   5.246  0.1897  1.9386 -2.8303
 5772SOL     OW28948   2.356   0.576   1.371  0.5821  0.0134 -0.0366
 5772SOL    HW128949   2.393   0.582   1.282  1.2412  3.0411  0.4459
 5772SOL    HW228950   2.336   0.669   1.382 -2.0655 -0.4239 -1.2019
 5773SOL     OW28951   2.323   1.340   9.133  0.3841 -0.5951 -0.3956
 5773SOL    HW128952   2.402   1.388   9.157  0.4409 -0.4485 -0.8887
 5773SOL    HW228953   2.355   1.250   9.136  0.8041 -0.4353  0.0691
 5774SOL     OW28954   1.334   2.089   7.126 -0.0488 -0.2836  0.4455
 5774SOL    HW128955   1.308   2.023   7.062  0.2600  1.8565 -1.8777
 5774SOL    HW228956   1.360   2.160   7.067  1.1112 -1.7250 -0.7642
 5775SOL     OW28957   1.627   1.882   6.248 -0.1781  0.1416 -0.3451
 5775SOL    HW128958   1.573   1.933   6.188 -1.1957 -0.7704 -0.2000
 5775SOL    HW228959   1.711   1.884   6.202  0.1470  0.1002  0.2432
 5776SOL     OW28960   1.292   3.710  11.253 -0.3139 -0.4165 -0.3193
 5776SOL    HW128961   1.291   3.710  11.349 -1.0814 -1.1400 -0.3276
 5776SOL    HW228962   1.380   3.742  11.234  0.1771 -1.6702 -0.1232
 5777SOL     OW28963   3.851   3.211  16.575 -0.6365 -0.0092  0.6139
 5777SOL    HW128964   3.826   3.294  16.615 -2.0660  0.3497 -1.0021
 5777SOL    HW228965   3.926   3.229  16.519 -0.2105  0.2089  1.2670
 5778SOL     OW28966   2.835   1.550   4.148 -0.1974  0.1989 -0.1644
 5778SOL    HW128967   2.905   1.531   4.211 -0.5415  1.5216  0.5986
 5778SOL    HW228968   2.768   1.484   4.166 -0.8701  1.0245  0.2977
 5779SOL     OW28969   2.146   4.731   2.169 -0.6902  0.7221  0.1383
 5779SOL    HW128970   2.061   4.710   2.130 -0.2269 -0.4525 -0.2343
 5779SOL    HW228971   2.154   4.661   2.234  2.2911 -1.5274 -2.6183
 5780SOL     OW28972   4.195   1.049  16.973  0.0231  0.0727 -0.1661
 5780SOL    HW128973   4.233   1.137  16.973 -2.5281  1.1774 -0.2108
 5780SOL    HW228974   4.113   1.064  17.020  0.1883 -2.4334  0.9041
 5781SOL     OW28975   2.485   3.268   4.364  0.4816  0.2380 -0.0311
 5781SOL    HW128976   2.432   3.245   4.440 -1.8430  3.3549 -0.7110
 5781SOL    HW228977   2.562   3.231   4.406 -0.8838 -1.8111  0.6803
 5782SOL     OW28978   4.171   3.968   9.150  0.8912 -0.2462 -0.9387
 5782SOL    HW128979   4.077   3.958   9.162  1.1044  0.0838  1.0102
 5782SOL    HW228980   4.177   3.960   9.055 -0.7473  2.5981 -1.2762
 5783SOL     OW28981   0.166   1.323   3.082 -0.3015  0.4093 -0.1129
 5783SOL    HW128982   0.116   1.311   3.001  1.6589  0.9822 -1.4022
 5783SOL    HW228983   0.103   1.278   3.139 -0.2482  0.0153 -0.3634
 5784SOL     OW28984   1.891   2.005   4.742  0.1310  0.2299 -0.2031
 5784SOL    HW128985   1.815   1.967   4.697  0.1050 -0.8423  0.7502
 5784SOL    HW228986   1.862   2.092   4.770  1.5728  0.4898  0.4763
 5785SOL     OW28987   3.971   2.956   8.663 -0.7806 -0.0901 -0.4129
 5785SOL    HW128988   3.893   3.002   8.694 -1.0588 -1.3219  0.7044
 5785SOL    HW228989   4.011   3.024   8.609 -0.6230  1.6271  1.8810
 5786SOL     OW28990   1.891   1.878   4.011 -0.0058  0.2720 -0.4229
 5786SOL    HW128991   1.890   1.839   4.099 -1.7594 -2.9253 -1.8396
 5786SOL    HW228992   1.823   1.823   3.972 -0.3398 -1.8675  3.1178
 5787SOL     OW28993   0.256   1.296  11.753  0.2505  0.1194 -0.0477
 5787SOL    HW128994   0.242   1.380  11.797 -1.2863 -0.2930  0.2653
 5787SOL    HW228995   0.317   1.330  11.687  0.6164 -0.9936 -0.2858
 5788SOL     OW28996   4.032   4.607   2.911 -0.0125 -0.0313  0.4039
 5788SOL    HW128997   4.117   4.563   2.921  1.1514  1.5594 -2.4543
 5788SOL    HW228998   4.058   4.700   2.909  2.4944 -0.7410 -0.2035
 5789SOL     OW28999   1.257   0.984   8.820 -0.1072  0.4852  0.1318
 5789SOL    HW129000   1.295   1.071   8.827 -0.8033  0.9087 -1.4097
 5789SOL    HW229001   1.211   0.990   8.736  0.7738 -0.6154 -0.4275
 5790SOL     OW29002   1.943   4.332   6.355  0.3156 -0.5155  0.0283
 5790SOL    HW129003   2.021   4.350   6.303 -0.1692 -0.0495 -0.5425
 5790SOL    HW229004   1.980   4.265   6.412 -0.1456 -0.1126  0.7924
 5791SOL     OW29005   0.157   3.134   6.443  0.6047 -0.0419  0.6533
 5791SOL    HW129006   0.201   3.216   6.467  0.8958 -0.1357  0.4245
 5791SOL    HW229007   0.098   3.111   6.516 -2.0476  2.2156 -0.7605
 5792SOL     OW29008   3.798   2.900   4.888 -0.3596 -0.6376 -0.6510
 5792SOL    HW129009   3.820   2.910   4.796  1.4504 -0.0353 -0.1446
 5792SOL    HW229010   3.801   2.991   4.919  1.1395 -0.2293 -2.0258
 5793SOL     OW29011   1.648   2.441   8.051  0.5095 -0.1935 -0.1811
 5793SOL    HW129012   1.690   2.507   8.106  0.8740 -1.4082  0.9878
 5793SOL    HW229013   1.627   2.372   8.113  2.6531 -0.2972  0.4284
 5794SOL     OW29014   0.270   0.530  12.656  0.6385 -0.1482  0.2498
 5794SOL    HW129015   0.300   0.445  12.624 -0.3280 -0.9833  1.5434
 5794SOL    HW229016   0.343   0.552  12.714  1.7512 -1.9213 -0.4859
 5795SOL     OW29017   2.222   0.767  10.933 -0.2664 -0.1058  0.4559
 5795SOL    HW129018   2.152   0.774  10.997 -0.5182 -2.4432  0.4617
 5795SOL    HW229019   2.188   0.697  10.877 -3.6465  1.1228  0.9705
 5796SOL     OW29020   1.223   3.413   9.546  0.4086 -0.0926  0.3836
 5796SOL    HW129021   1.299   3.471   9.548 -1.8683  2.9306 -0.5480
 5796SOL    HW229022   1.238   3.357   9.622 -1.0066  0.5553  1.1501
 5797SOL     OW29023   3.597   2.019   4.877 -0.2696  0.1319 -0.3393
 5797SOL    HW129024   3.509   1.990   4.853 -0.3193 -0.7134  0.8573
 5797SOL    HW229025   3.623   1.932   4.909 -1.8308 -0.6959 -1.3284
 5798SOL     OW29026   3.041   2.992   6.072  0.3070 -0.0555  0.4480
 5798SOL    HW129027   3.073   3.052   6.140  0.7867  1.2905 -0.9614
 5798SOL    HW229028   3.028   2.918   6.131  3.0637 -1.0097 -0.1286
 5799SOL     OW29029   1.909   3.032   2.003 -0.3434 -1.1080 -0.2966
 5799SOL    HW129030   1.940   2.941   2.006  0.1498 -0.8714  1.7289
 5799SOL    HW229031   1.930   3.049   1.912 -3.0746  0.8719 -0.5393
 5800SOL     OW29032   0.342   0.489   3.961  0.3287 -0.2325  0.3174
 5800SOL    HW129033   0.356   0.565   4.018 -1.1726  0.2933 -0.0290
 5800SOL    HW229034   0.390   0.433   4.023 -1.4639  0.5257  2.3869
 5801SOL     OW29035   3.944   3.511   7.958 -0.2297 -0.3330 -0.5729
 5801SOL    HW129036   4.011   3.499   7.890 -0.8139 -0.7987 -1.0691
 5801SOL    HW229037   3.872   3.470   7.909 -1.5680 -1.2722  2.1647
 5802SOL     OW29038   3.435   4.346   4.615 -0.7372  0.1822  0.0265
 5802SOL    HW129039   3.369   4.280   4.593 -1.8392  1.6035 -0.8784
 5802SOL    HW229040   3.460   4.325   4.706 -0.7258  1.1583  0.2441
 5803SOL     OW29041   0.733   4.098   5.885  0.3690  0.4727 -0.5256
 5803SOL    HW129042   0.801   4.030   5.883 -0.2149 -0.1389  0.4810
 5803SOL    HW229043   0.773   4.161   5.826  0.2570 -0.0561 -1.1607
 5804SOL     OW29044   1.318   0.802  14.875 -0.1673 -0.5677 -0.4280
 5804SOL    HW129045   1.306   0.715  14.838 -0.6657 -0.8123  0.3011
 5804SOL    HW229046   1.339   0.857  14.799 -2.1023  0.5203 -0.1830
 5805SOL     OW29047   1.296   3.882   0.290  0.4832  0.0356  0.1294
 5805SOL    HW129048   1.267   3.944   0.224  0.7924 -0.5841 -0.5941
 5805SOL    HW229049   1.390   3.896   0.304  0.5118 -1.5734  1.6574
 5806SOL     OW29050   0.508   3.438   1.449  0.0378 -0.0054 -0.4036
 5806SOL    HW129051   0.516   3.397   1.535  0.4940  1.3395  0.1905
 5806SOL    HW229052   0.414   3.453   1.458  0.6743  1.8970  3.1473
 5807SOL     OW29053   0.865   2.074   5.308 -0.1470 -0.1143 -0.0989
 5807SOL    HW129054   0.776   2.040   5.309 -0.6537  1.2448  1.4155
 5807SOL    HW229055   0.876   2.107   5.397 -1.1838 -0.6847  0.2459
 5808SOL     OW29056   2.853   1.670   1.719 -0.1427 -0.0012  0.2921
 5808SOL    HW129057   2.804   1.664   1.637  0.0823  0.8148  0.0981
 5808SOL    HW229058   2.882   1.761   1.723 -2.0286  0.5937  0.1221
 5809SOL     OW29059   1.614   2.592   1.600 -0.1755  0.2731 -0.0325
 5809SOL    HW129060   1.640   2.676   1.638 -1.8455  2.0035 -2.8174
 5809SOL    HW229061   1.688   2.534   1.622  0.4244  0.9291 -0.3068
 5810SOL     OW29062   2.292   1.577   2.994  0.1634 -0.0084  0.4394
 5810SOL    HW129063   2.284   1.673   2.995 -1.2291 -0.0766 -2.0953
 5810SOL    HW229064   2.210   1.548   3.034  0.7486  1.0263  2.3957
 5811SOL     OW29065   1.363   0.708   7.760 -0.3539 -0.1419  0.6577
 5811SOL    HW129066   1.403   0.744   7.838  0.9749  1.3420 -0.7010
 5811SOL    HW229067   1.398   0.619   7.759  2.4316  0.9726  0.6641
 5812SOL     OW29068   2.857   4.350   6.549 -0.5813 -0.5945  0.0400
 5812SOL    HW129069   2.822   4.265   6.520  0.4904 -0.6593 -1.0344
 5812SOL    HW229070   2.878   4.379   6.460  1.3311  1.4574  1.1857
 5813SOL     OW29071   1.532   2.425   5.842  0.3731  0.2569  0.1991
 5813SOL    HW129072   1.539   2.519   5.828 -0.9191  0.5033  1.2278
 5813SOL    HW229073   1.622   2.399   5.821 -0.0545  0.2270 -1.5284
 5814SOL     OW29074   0.905   2.194  15.031  0.0228 -0.0997  0.2157
 5814SOL    HW129075   0.817   2.227  15.014  0.6938  0.3104 -2.4587
 5814SOL    HW229076   0.899   2.169  15.123 -2.0838  1.4476  0.4791
 5815SOL     OW29077   2.947   2.665   3.078  0.6616 -0.2635 -0.5679
 5815SOL    HW129078   2.927   2.717   3.157 -3.7897 -1.3788 -0.9943
 5815SOL    HW229079   3.038   2.695   3.077  0.7845 -0.6624 -0.9929
 5816SOL     OW29080   0.484   4.229   6.735 -0.0776  0.6164 -0.0565
 5816SOL    HW129081   0.537   4.203   6.810 -1.3104 -0.1032  0.5702
 5816SOL    HW229082   0.544   4.292   6.696 -0.9618  2.6940  1.8932
 5817SOL     OW29083   4.452   0.896  12.634 -0.7307 -0.6497  0.1412
 5817SOL    HW129084   4.365   0.922  12.603  0.1341  0.0134 -1.7251
 5817SOL    HW229085   4.432   0.913  12.726 -2.3137  1.7211 -0.6382
 5818SOL     OW29086   0.488   2.264   3.056 -0.3939  0.1165  0.1203
 5818SOL    HW129087   0.538   2.236   2.979  3.0784 -2.5194  3.3650
 5818SOL    HW229088   0.395   2.246   3.039  0.4558 -3.6164 -0.3923
 5819SOL     OW29089   4.043   1.189  11.960 -0.1677 -0.2363 -0.0864
 5819SOL    HW129090   4.004   1.272  11.930  1.3773  0.3667 -0.4173
 5819SOL    HW229091   4.093   1.212  12.038  0.7774 -1.0032 -0.4793
 5820SOL     OW29092   1.739   2.186   7.182 -0.6480 -0.1375  0.5015
 5820SOL    HW129093   1.814   2.237   7.152  1.2812 -2.2818  1.6864
 5820SOL    HW229094   1.772   2.176   7.271  0.9692  2.1625  0.1626
 5821SOL     OW29095   0.309   0.087   3.799  0.2966 -0.3296  0.1541
 5821SOL    HW129096   0.355   0.139   3.733 -0.4244  0.5117  0.3128
 5821SOL    HW229097   0.358   0.120   3.875 -2.4845 -1.2365  2.3467
 5822SOL     OW29098   1.337   1.682  14.551  0.3801 -0.1065 -0.0308
 5822SOL    HW129099   1.397   1.755  14.569 -1.0464  1.3717 -1.2417
 5822SOL    HW229100   1.270   1.699  14.617 -2.0206  0.9180 -2.7803
 5823SOL     OW29101   0.353   0.891   0.924 -0.5246 -0.1707 -0.2129
 5823SOL    HW129102   0.342   0.984   0.939 -0.0999 -0.3865  1.4757
 5823SOL    HW229103   0.351   0.889   0.829 -2.3954  0.8320 -0.1840
 5824SOL     OW29104   2.924   1.396   6.512 -0.1022 -0.1690 -0.0416
 5824SOL    HW129105   2.980   1.368   6.585  1.5004  0.8286 -0.9046
 5824SOL    HW229106   2.856   1.330   6.497  1.0909 -1.4669  0.2722
 5825SOL     OW29107   3.144   1.849   6.054  0.4734  0.1178  1.0556
 5825SOL    HW129108   3.170   1.784   6.119 -1.3886 -0.9259  0.7768
 5825SOL    HW229109   3.223   1.901   6.047 -0.8723  1.5751 -3.0372
 5826SOL     OW29110   1.316   2.678  13.804  0.0952  0.2864  0.5063
 5826SOL    HW129111   1.325   2.726  13.721  1.2480 -0.6252  0.1107
 5826SOL    HW229112   1.407   2.650  13.808 -0.0424 -0.3137 -0.5688
 5827SOL     OW29113   3.462   1.035   4.958 -0.3578  0.6461  0.0221
 5827SOL    HW129114   3.421   0.959   5.000  1.9209 -0.1058  0.9255
 5827SOL    HW229115   3.554   1.009   4.966  0.2520  2.8752  0.2431
 5828SOL     OW29116   2.108   0.485   1.454  0.1662 -0.3577  0.1949
 5828SOL    HW129117   2.060   0.567   1.440  2.2649  0.6104 -1.2025
 5828SOL    HW229118   2.194   0.516   1.426  0.3006 -0.3527  0.6067
 5829SOL     OW29119   3.921   3.311   8.869  0.4122 -0.3503  0.6752
 5829SOL    HW129120   3.879   3.395   8.884 -0.7141 -0.6142 -1.0010
 5829SOL    HW229121   3.930   3.282   8.960 -0.1601  1.0085  1.1598
 5830SOL     OW29122   2.186   0.879   5.867  0.7400 -0.3011  0.8732
 5830SOL    HW129123   2.176   0.947   5.800  2.5618 -0.3819  0.5274
 5830SOL    HW229124   2.266   0.900   5.915  1.8312 -1.3639 -0.4598
 5831SOL     OW29125   2.862   0.695   6.372  0.1618  0.0309  0.1180
 5831SOL    HW129126   2.780   0.647   6.362  0.1327 -0.2163  1.4505
 5831SOL    HW229127   2.889   0.692   6.281  1.4663 -0.2739  0.5091
 5832SOL     OW29128   2.413   2.398   6.781 -0.1653 -0.1961  0.0206
 5832SOL    HW129129   2.437   2.474   6.729  0.0595  0.1751  0.6757
 5832SOL    HW229130   2.461   2.413   6.862  0.3564  0.8854 -0.4911
 5833SOL     OW29131   2.315   0.739  16.183 -0.5916 -0.3526  0.3645
 5833SOL    HW129132   2.270   0.782  16.256  0.3722 -0.1775  0.8669
 5833SOL    HW229133   2.365   0.809  16.141 -1.9942  0.6764  0.4206
 5834SOL     OW29134   0.499   3.848   0.951 -0.5318  0.3979  0.6816
 5834SOL    HW129135   0.463   3.773   0.999 -0.1292  0.6828  1.4138
 5834SOL    HW229136   0.562   3.797   0.900 -1.3465 -1.0664  1.1336
 5835SOL     OW29137   0.555   1.864   7.557  0.2810 -0.0928  0.2456
 5835SOL    HW129138   0.471   1.898   7.525  0.7537  0.0173 -0.8623
 5835SOL    HW229139   0.602   1.844   7.476  2.6828 -3.2454  2.4140
 5836SOL     OW29140   0.786   3.821   8.087 -0.2639  0.1097 -0.3926
 5836SOL    HW129141   0.783   3.902   8.138  2.4124 -0.7441  1.1450
 5836SOL    HW229142   0.863   3.831   8.030  0.0564  0.5707  0.1283
 5837SOL     OW29143   1.578   3.335  16.026  0.0699  0.4903  0.2992
 5837SOL    HW129144   1.551   3.383  15.948 -1.0789  0.3596  0.6160
 5837SOL    HW229145   1.491   3.327  16.065 -0.6119  0.4919 -1.2377
 5838SOL     OW29146   2.623   3.466   0.598 -0.1190 -0.8071  0.3089
 5838SOL    HW129147   2.570   3.393   0.565 -0.0052 -0.3664 -0.8402
 5838SOL    HW229148   2.707   3.456   0.553  0.6364  0.1550  1.5153
 5839SOL     OW29149   4.118   4.023   3.753  0.0031 -0.0892 -0.3100
 5839SOL    HW129150   4.124   4.113   3.720  0.6441 -0.1784 -0.4334
 5839SOL    HW229151   4.024   4.005   3.754  0.0404 -0.4566 -3.3323
 5840SOL     OW29152   4.583   4.009  10.964 -0.5468  0.5169 -0.4457
 5840SOL    HW129153   4.503   4.007  10.912 -0.0414 -0.2700 -1.2061
 5840SOL    HW229154   4.633   3.950  10.907 -0.1836 -0.0362  0.4473
 5841SOL     OW29155   1.203   4.142   6.572  0.0114 -0.1222  0.8795
 5841SOL    HW129156   1.272   4.198   6.610  1.9970 -1.1564 -1.2425
 5841SOL    HW229157   1.248   4.060   6.554 -1.3740 -0.5661 -0.5437
 5842SOL     OW29158   4.397   3.390   7.301  0.2311 -0.3868  0.2318
 5842SOL    HW129159   4.417   3.374   7.209 -1.1787 -2.9056  0.3661
 5842SOL    HW229160   4.366   3.479   7.283 -1.4699 -0.8389  0.9465
 5843SOL     OW29161   4.378   4.258  12.264 -0.5013 -0.1433 -0.0094
 5843SOL    HW129162   4.392   4.348  12.294  3.0050 -1.3206  1.9263
 5843SOL    HW229163   4.376   4.276  12.170 -1.5158 -1.1244 -0.1656
 5844SOL     OW29164   2.461   2.077   6.949  0.1706  0.1358 -0.7025
 5844SOL    HW129165   2.427   2.159   6.986  1.4383  0.2032  0.3059
 5844SOL    HW229166   2.395   2.041   6.890 -1.6277  0.0382  1.3356
 5845SOL     OW29167   1.513   2.367   8.306 -0.0151 -0.3347 -0.0967
 5845SOL    HW129168   1.434   2.318   8.332 -1.6055  2.5825  0.5407
 5845SOL    HW229169   1.542   2.419   8.381 -3.2320 -0.6720  1.3954
 5846SOL     OW29170   0.676   4.141   6.936 -0.2496 -0.2776 -0.2055
 5846SOL    HW129171   0.674   4.180   7.023  0.2096 -1.6543  0.4318
 5846SOL    HW229172   0.691   4.049   6.958  2.4917 -0.0080 -0.8819
 5847SOL     OW29173   1.292   2.977   3.724  0.6443 -0.2683 -0.8679
 5847SOL    HW129174   1.363   2.945   3.781  1.3230  3.2126  0.2122
 5847SOL    HW229175   1.340   3.007   3.648  0.4160  2.3610  0.0470
 5848SOL     OW29176   1.003   2.338   8.967 -0.2623 -0.3562 -0.4493
 5848SOL    HW129177   1.077   2.284   8.940  0.5273  0.8193 -0.6156
 5848SOL    HW229178   0.933   2.316   8.905 -0.0963  0.4935 -0.9408
 5849SOL     OW29179   4.050   3.282   2.513  0.2590  0.4436 -0.7468
 5849SOL    HW129180   4.100   3.240   2.443  0.3670  0.4463 -0.6724
 5849SOL    HW229181   4.120   3.326   2.562  0.0981 -0.9802  0.7430
 5850SOL     OW29182   2.671   2.976   9.957  0.4579 -0.5375 -0.4184
 5850SOL    HW129183   2.664   2.912  10.029  0.1855 -1.3031 -1.1189
 5850SOL    HW229184   2.624   3.050   9.995 -0.9736 -1.3554 -0.5765
 5851SOL     OW29185   3.237   1.230  15.529 -0.0742 -0.2127 -0.0644
 5851SOL    HW129186   3.253   1.324  15.541  0.3434 -0.1495 -1.0746
 5851SOL    HW229187   3.173   1.212  15.598 -0.0446  2.1871  0.5874
 5852SOL     OW29188   4.691   3.026   6.635 -0.6276 -0.2834  0.1597
 5852SOL    HW129189   4.706   2.956   6.698  1.4424  0.1143  0.1210
 5852SOL    HW229190   4.603   3.000   6.610 -1.2199  0.5640  1.4046
 5853SOL     OW29191   2.025   4.453   2.578  0.3294 -0.0595  0.3157
 5853SOL    HW129192   2.056   4.366   2.605 -1.6338 -0.9037 -0.1257
 5853SOL    HW229193   1.976   4.479   2.656 -0.4301  0.8223 -0.4590
 5854SOL     OW29194   3.502   2.019   2.696  0.5015 -0.0898  0.7588
 5854SOL    HW129195   3.464   1.958   2.633 -1.3590 -0.2984  2.0702
 5854SOL    HW229196   3.559   2.079   2.649  1.6266 -0.3149  1.8542
 5855SOL     OW29197   3.222   1.085   2.658 -0.5754 -0.3151  0.0404
 5855SOL    HW129198   3.272   1.025   2.603 -1.4777 -0.4833 -0.6021
 5855SOL    HW229199   3.160   1.020   2.692  0.4223  0.5097  3.4773
 5856SOL     OW29200   0.595   4.553  15.965 -0.4102  0.1823  0.5140
 5856SOL    HW129201   0.552   4.587  15.887  2.1327  2.6535  0.1990
 5856SOL    HW229202   0.530   4.487  15.988  0.8271 -0.4045  2.3503
 5857SOL     OW29203   3.591   2.824   8.130 -0.1652  0.0887  0.2254
 5857SOL    HW129204   3.642   2.743   8.129 -1.0739 -0.4769 -1.5256
 5857SOL    HW229205   3.548   2.820   8.215  1.2203 -0.5475  0.8925
 5858SOL     OW29206   1.010   0.592   7.509  0.1918 -0.9477  0.0579
 5858SOL    HW129207   1.050   0.549   7.584 -1.2061  1.4012  2.1397
 5858SOL    HW229208   0.975   0.523   7.453 -0.7428  0.1528 -0.7269
 5859SOL     OW29209   2.811   3.719   7.282  0.8186 -0.1562  0.6579
 5859SOL    HW129210   2.905   3.730   7.268  1.1281 -2.1001  1.1094
 5859SOL    HW229211   2.804   3.645   7.343  0.3067 -0.6372  0.0116
 5860SOL     OW29212   0.593   2.687   2.716  0.1468 -0.9540  0.1794
 5860SOL    HW129213   0.540   2.616   2.752  0.3588 -0.8060  0.7836
 5860SOL    HW229214   0.566   2.761   2.770 -3.8811 -0.3796 -2.6074
 5861SOL     OW29215   4.598   2.986   3.156  0.3391 -0.2777 -0.6079
 5861SOL    HW129216   4.558   2.970   3.070  0.2885  1.9712 -0.9981
 5861SOL    HW229217   4.653   3.062   3.134 -1.7436  1.8354  1.4758
 5862SOL     OW29218   2.026   1.760   4.734  0.0540 -0.8233  0.7835
 5862SOL    HW129219   1.949   1.735   4.785 -0.2018  0.4331  1.0053
 5862SOL    HW229220   2.016   1.854   4.746 -0.4975 -0.7982  0.1112
 5863SOL     OW29221   3.005   4.084   6.204  0.3273 -0.3613 -0.0080
 5863SOL    HW129222   2.921   4.047   6.231  0.3684 -0.3222  0.1722
 5863SOL    HW229223   3.002   4.054   6.113  2.5005  1.7537 -0.7625
 5864SOL     OW29224   4.609   2.385  16.192 -0.6082 -0.3044  0.1708
 5864SOL    HW129225   4.587   2.478  16.177 -0.4590 -0.4784 -1.0879
 5864SOL    HW229226   4.703   2.400  16.185 -0.9056  1.9396  0.8513
 5865SOL     OW29227   1.767   0.482   7.794  0.4811  0.0889 -0.1074
 5865SOL    HW129228   1.851   0.438   7.779 -0.1641 -1.7494  1.6957
 5865SOL    HW229229   1.794   0.573   7.804  0.2768  0.1789 -0.3652
 5866SOL     OW29230   0.903   2.810   9.018 -0.0405  0.2932 -0.0093
 5866SOL    HW129231   0.810   2.810   9.038 -0.4487  1.3368 -1.8762
 5866SOL    HW229232   0.914   2.883   8.956  0.5279  0.5563  0.4013
 5867SOL     OW29233   2.974   1.000  12.077 -0.2406  0.0052 -0.0018
 5867SOL    HW129234   2.978   1.091  12.106 -0.4529  0.7992 -2.4155
 5867SOL    HW229235   2.883   0.971  12.086 -0.6240  2.0551  2.5307
 5868SOL     OW29236   2.584   0.204   0.362  0.0288  0.1383 -0.3780
 5868SOL    HW129237   2.654   0.160   0.314  0.7862  1.9808 -0.9274
 5868SOL    HW229238   2.548   0.130   0.411 -0.2229 -0.0928 -0.9040
 5869SOL     OW29239   0.457   2.804   7.446 -0.2217  0.7168 -0.1429
 5869SOL    HW129240   0.461   2.827   7.538 -1.6644 -1.7992  0.5312
 5869SOL    HW229241   0.388   2.864   7.419 -0.2178  1.1940  0.9345
 5870SOL     OW29242   2.388   3.785   3.020 -0.7147 -0.1724 -0.3478
 5870SOL    HW129243   2.437   3.724   2.963  1.6341 -0.7170  2.2754
 5870SOL    HW229244   2.298   3.754   3.010 -1.2612  0.1318  3.6869
 5871SOL     OW29245   1.321   1.280   7.992 -0.4677  0.2085 -0.5427
 5871SOL    HW129246   1.271   1.310   8.068  1.9008 -1.2469  1.6151
 5871SOL    HW229247   1.384   1.352   7.983  1.3090 -1.5004 -1.6759
 5872SOL     OW29248   2.043   0.565   2.978 -0.5507 -0.2873 -0.4979
 5872SOL    HW129249   2.091   0.504   3.034 -0.4530  1.0898  0.9012
 5872SOL    HW229250   1.966   0.589   3.029  1.0689  1.3513  1.2263
 5873SOL     OW29251   4.676   2.660   2.874 -0.7913 -0.2843 -0.3242
 5873SOL    HW129252   4.674   2.683   2.781  0.3598 -0.5539 -0.4103
 5873SOL    HW229253   0.007   2.593   2.879 -2.1109 -1.5711  0.3866
 5874SOL     OW29254   2.514   2.870   4.366 -0.0493  0.2929 -0.0455
 5874SOL    HW129255   2.557   2.875   4.280 -1.5014 -1.5444 -0.8724
 5874SOL    HW229256   2.453   2.800   4.345  0.7309 -0.4924  0.2919
 5875SOL     OW29257   1.007   4.336   2.943 -0.0831  0.1814  0.2994
 5875SOL    HW129258   1.033   4.244   2.937 -2.1527 -0.3948 -0.0228
 5875SOL    HW229259   1.083   4.385   2.914 -1.8551  1.8695 -1.5105
 5876SOL     OW29260   2.353   1.945   4.569 -0.0311  0.0604 -0.6881
 5876SOL    HW129261   2.283   2.007   4.591 -3.2882 -3.2573 -1.6483
 5876SOL    HW229262   2.411   2.016   4.542  2.6323 -1.6400  0.6166
 5877SOL     OW29263   1.114   2.637   1.512 -0.1308 -0.3858 -0.2115
 5877SOL    HW129264   1.201   2.665   1.539 -0.9924  1.3814  0.7804
 5877SOL    HW229265   1.058   2.691   1.567 -1.8750 -1.5873 -0.8013
 5878SOL     OW29266   3.712   2.144   7.511  0.2716 -0.8341  0.3837
 5878SOL    HW129267   3.789   2.086   7.511  1.9748  1.4339 -2.8816
 5878SOL    HW229268   3.742   2.217   7.457 -2.0543 -0.5342 -0.4851
 5879SOL     OW29269   4.563   3.217   1.692  0.0002 -0.2641 -0.3609
 5879SOL    HW129270   4.646   3.225   1.646  0.9352 -0.2873  1.3288
 5879SOL    HW229271   4.546   3.307   1.723  2.2294 -0.0099  0.0783
 5880SOL     OW29272   1.276   1.924   7.815 -0.1227  0.4070 -0.0604
 5880SOL    HW129273   1.188   1.962   7.820  0.0609  0.7112  0.7677
 5880SOL    HW229274   1.303   1.953   7.728  0.3842  0.1303  0.0075
 5881SOL     OW29275   0.941   3.390   6.775  0.0689 -0.2327 -0.3987
 5881SOL    HW129276   0.878   3.324   6.802 -0.7595  0.1373 -1.4408
 5881SOL    HW229277   0.920   3.396   6.682  1.9413  1.7576 -0.7014
 5882SOL     OW29278   3.585   4.534   3.606  0.4059 -0.0566  0.1568
 5882SOL    HW129279   3.634   4.554   3.686  0.4345  0.7961 -0.0752
 5882SOL    HW229280   3.504   4.581   3.628  0.1451 -0.3653 -0.1508
 5883SOL     OW29281   1.564   3.120   4.089  0.4888 -0.4526  0.6317
 5883SOL    HW129282   1.613   3.054   4.040 -0.3887 -0.9466  0.4420
 5883SOL    HW229283   1.626   3.140   4.160  1.3013  1.4897 -0.6110
 5884SOL     OW29284   4.634   1.416   4.672 -0.0398 -0.5197 -0.0082
 5884SOL    HW129285   4.645   1.505   4.639  0.1594 -1.1610 -1.6960
 5884SOL    HW229286   4.690   1.420   4.749  0.0222 -2.0773  0.0405
 5885SOL     OW29287   0.445   4.109   9.226 -0.0225 -0.4292 -0.4494
 5885SOL    HW129288   0.423   4.167   9.153 -0.3199 -1.1279 -0.9189
 5885SOL    HW229289   0.364   4.073   9.261  1.7383 -0.7749  3.1879
 5886SOL     OW29290   2.715   3.178  16.950 -0.3892 -0.3229  0.0935
 5886SOL    HW129291   2.719   3.140  16.863  3.7985  1.5699 -0.5820
 5886SOL    HW229292   2.722   3.269  16.921 -0.1056  0.9722  4.2033
 5887SOL     OW29293   2.276   4.554  10.850  0.6380 -0.2862 -0.0754
 5887SOL    HW129294   2.299   4.584  10.938  0.5821  0.4825 -0.3235
 5887SOL    HW229295   2.187   4.587  10.841  0.0329 -2.2549 -1.3370
 5888SOL     OW29296   0.787   2.637   4.851  0.6004  0.1091 -0.7824
 5888SOL    HW129297   0.843   2.620   4.775 -0.2603 -1.9371 -0.9586
 5888SOL    HW229298   0.727   2.703   4.817 -0.0883 -0.2256 -0.1960
 5889SOL     OW29299   0.164   4.673   5.909 -0.2476  0.3283  0.2151
 5889SOL    HW129300   0.177   4.638   5.821  0.0634  0.5322  0.1810
 5889SOL    HW229301   0.223   0.009   5.926 -0.8558  0.9835 -0.5290
 5890SOL     OW29302   4.013   4.409   8.662  0.8411  0.1322 -0.0944
 5890SOL    HW129303   4.104   4.389   8.683  0.8901  0.2570 -0.1896
 5890SOL    HW229304   3.984   4.449   8.744 -2.0121  0.2039 -1.1374
 5891SOL     OW29305   0.291   1.098   3.816 -0.5215  0.2534  1.4259
 5891SOL    HW129306   0.280   1.018   3.765 -0.3913 -0.6668  2.8469
 5891SOL    HW229307   0.359   1.071   3.877  0.9904  2.0227  0.5524
 5892SOL     OW29308   3.409   4.506   4.422  0.2609  0.3500 -0.1334
 5892SOL    HW129309   3.488   4.557   4.441 -0.8635  1.3225  2.0320
 5892SOL    HW229310   3.390   4.460   4.504  2.1991 -1.3400 -0.6372
 5893SOL     OW29311   0.497   3.474  10.262  0.1255 -0.1915 -0.0143
 5893SOL    HW129312   0.515   3.487  10.356 -0.1785 -0.0334  0.0215
 5893SOL    HW229313   0.467   3.384  10.253 -0.1449 -0.2214  1.1688
 5894SOL     OW29314   0.739   3.534  11.569  0.2761  0.3060  0.6469
 5894SOL    HW129315   0.651   3.550  11.535  2.2627  0.0060 -4.6860
 5894SOL    HW229316   0.717   3.522  11.661  0.7814  2.0520  0.9854
 5895SOL     OW29317   3.681   3.038  17.508 -0.2292  0.5355  0.0525
 5895SOL    HW129318   3.735   3.068  17.580  2.0263  1.4169 -2.0265
 5895SOL    HW229319   3.737   3.000  17.441 -0.5571  1.5778 -0.8046
 5896SOL     OW29320   0.975   0.323  15.143 -0.3823  0.1717  0.0781
 5896SOL    HW129321   0.880   0.315  15.144 -0.2372 -1.6406 -0.4490
 5896SOL    HW229322   0.998   0.242  15.097 -2.8476 -2.0382  2.7650
 5897SOL     OW29323   2.117   1.598   3.988 -0.9096 -0.4110 -0.3565
 5897SOL    HW129324   2.131   1.660   4.059  0.0193 -0.6813 -0.2927
 5897SOL    HW229325   2.134   1.519   4.039  1.4105  0.0600 -0.3866
 5898SOL     OW29326   4.588   2.942   5.703 -0.9319  0.0205  0.2310
 5898SOL    HW129327   4.639   2.936   5.623  0.7857  0.0745  1.3281
 5898SOL    HW229328   4.633   3.014   5.748 -1.0334 -0.3858  0.9916
 5899SOL     OW29329   4.651   4.565  17.065  0.0494  0.0721  0.1153
 5899SOL    HW129330   4.589   4.505  17.105 -1.6415  0.7401 -1.5198
 5899SOL    HW229331   4.724   4.560  17.127  0.5535 -2.3157 -0.6440
 5900SOL     OW29332   1.005   0.364   7.244  0.4319  0.2431  0.0164
 5900SOL    HW129333   0.946   0.362   7.319 -1.0506  1.3007 -1.1071
 5900SOL    HW229334   0.990   0.275   7.214 -0.8338 -0.2727  2.2129
 5901SOL     OW29335   3.672   0.198   0.938  0.2268  0.3847 -0.0331
 5901SOL    HW129336   3.607   0.161   0.878  2.3988 -1.5063 -1.2215
 5901SOL    HW229337   3.671   0.138   1.013 -0.2769  0.5893  0.1271
 5902SOL     OW29338   1.315   2.775   7.151 -0.0690 -0.0451  0.3518
 5902SOL    HW129339   1.282   2.865   7.152 -1.6665 -0.6403  0.9148
 5902SOL    HW229340   1.320   2.751   7.244  2.0536 -0.0326  0.2508
 5903SOL     OW29341   3.700   2.388   1.407 -0.3375  0.0127  0.5012
 5903SOL    HW129342   3.726   2.382   1.316  1.6460 -2.4051  1.2470
 5903SOL    HW229343   3.622   2.332   1.401  0.0549 -0.5160  0.3885
 5904SOL     OW29344   0.981   0.074   2.541  0.5129 -0.2923  0.7091
 5904SOL    HW129345   1.060   0.072   2.486 -0.0912  1.8206 -0.2190
 5904SOL    HW229346   1.025   0.070   2.626  1.5746  0.5422  0.2119
 5905SOL     OW29347   2.700   3.520   7.109  0.7950 -0.0947 -0.0715
 5905SOL    HW129348   2.694   3.584   7.180  1.7808 -1.2997  1.1144
 5905SOL    HW229349   2.610   3.528   7.077  0.9330 -1.4948 -0.7851
 5906SOL     OW29350   4.523   1.653   9.679  0.3157  0.3805 -0.5262
 5906SOL    HW129351   4.557   1.696   9.757 -0.6280 -0.1476  0.1622
 5906SOL    HW229352   4.453   1.602   9.720  0.2592 -0.4720 -1.6721
 5907SOL     OW29353   2.360   2.855   2.631 -0.3305 -0.1721 -0.0330
 5907SOL    HW129354   2.425   2.859   2.701 -0.9914 -0.2653  0.5821
 5907SOL    HW229355   2.387   2.927   2.573  1.1398  1.0255  2.1445
 5908SOL     OW29356   2.994   0.105   2.181  0.0564  0.3348  0.1945
 5908SOL    HW129357   3.068   0.066   2.135 -0.1042  1.9185 -1.3893
 5908SOL    HW229358   2.998   0.198   2.158  0.3685  0.4842  0.8553
 5909SOL     OW29359   2.792   2.840   8.203 -0.2060 -0.0027  0.8765
 5909SOL    HW129360   2.863   2.808   8.147 -0.0649  2.3961 -0.2696
 5909SOL    HW229361   2.777   2.771   8.268 -1.3132 -0.0906  0.5258
 5910SOL     OW29362   4.652   4.299   5.141  0.2051  0.4089  0.7327
 5910SOL    HW129363   4.560   4.281   5.161  0.8303 -0.8104  2.5191
 5910SOL    HW229364   4.682   4.211   5.120  0.9445  0.1874  2.7582
 5911SOL     OW29365   2.483   3.139  17.260 -0.4069  0.8149  0.4946
 5911SOL    HW129366   2.515   3.211  17.315  0.6081  0.0060  0.9687
 5911SOL    HW229367   2.406   3.111  17.310 -0.4688 -1.5087 -0.8795
 5912SOL     OW29368   2.574   2.847   7.297  0.2512  0.0046 -0.0977
 5912SOL    HW129369   2.521   2.774   7.328 -0.1768  0.7599  0.9350
 5912SOL    HW229370   2.529   2.867   7.215  0.3559 -0.8872 -0.3710
 5913SOL     OW29371   1.763   4.240   3.551  0.5493 -0.2686  0.2588
 5913SOL    HW129372   1.855   4.265   3.546  0.6854 -0.4702  1.8466
 5913SOL    HW229373   1.716   4.319   3.526 -0.2179 -0.2337  1.7951
 5914SOL     OW29374   1.448   1.618  15.672  0.2274  0.1036  0.2696
 5914SOL    HW129375   1.485   1.700  15.707 -2.6467  1.5131 -0.0192
 5914SOL    HW229376   1.528   1.566  15.663 -0.0031 -0.1540 -0.2605
 5915SOL     OW29377   4.244   4.258  13.970 -0.0473  0.1801 -0.3192
 5915SOL    HW129378   4.184   4.232  13.900  0.9139 -0.7546 -0.7991
 5915SOL    HW229379   4.297   4.178  13.973  1.2045  0.9528 -1.7561
 5916SOL     OW29380   1.114   0.296   1.979  0.3861  0.4037 -0.4798
 5916SOL    HW129381   1.045   0.360   1.996 -0.5435  0.0225 -2.8801
 5916SOL    HW229382   1.057   0.250   1.917  0.7358  0.6312 -0.9707
 5917SOL     OW29383   1.774   2.971  15.477  0.2562  0.2824  0.0415
 5917SOL    HW129384   1.689   2.970  15.520  0.1277  3.5319 -0.1459
 5917SOL    HW229385   1.804   2.882  15.493  1.9969  0.1330 -4.0035
 5918SOL     OW29386   4.434   2.401  12.485  0.2362  0.0688  0.4989
 5918SOL    HW129387   4.402   2.467  12.546 -0.1566  1.7149 -1.4974
 5918SOL    HW229388   4.467   2.458  12.415 -3.0471 -1.6662 -2.4642
 5919SOL     OW29389   3.825   1.067   5.208  0.4001 -0.5664 -0.0241
 5919SOL    HW129390   3.814   1.161   5.193  2.7944 -0.0226  1.7076
 5919SOL    HW229391   3.784   1.033   5.128 -0.9561  0.0048  0.4261
 5920SOL     OW29392   3.167   1.012   7.806 -0.0684 -0.0710  0.2301
 5920SOL    HW129393   3.168   0.969   7.721  1.7244  0.1641  0.1413
 5920SOL    HW229394   3.250   0.975   7.835 -1.3814 -1.6276  2.0320
 5921SOL     OW29395   3.595   2.746   0.704  0.3172  0.0927  1.0279
 5921SOL    HW129396   3.534   2.775   0.636  1.2527  1.7714  0.8871
 5921SOL    HW229397   3.626   2.662   0.671 -3.1059 -0.9769  0.5009
 5922SOL     OW29398   4.034   1.259   4.262 -0.0246 -0.3297  0.4383
 5922SOL    HW129399   3.953   1.310   4.264  0.0856 -0.0156 -5.2704
 5922SOL    HW229400   4.103   1.324   4.248 -2.0899  2.0391  1.2124
 5923SOL     OW29401   0.032   3.849   5.986 -0.3435 -0.6583  0.5807
 5923SOL    HW129402   0.125   3.867   5.999 -0.3279 -1.2089  1.2453
 5923SOL    HW229403   0.030   3.795   5.907 -0.4240  2.6276 -1.6173
 5924SOL     OW29404   4.448   1.291   7.508 -0.1503 -0.3640  0.0912
 5924SOL    HW129405   4.414   1.378   7.528  1.7724  0.3960  0.0840
 5924SOL    HW229406   4.359   1.258   7.499 -0.1352 -0.5099  0.4590
 5925SOL     OW29407   4.155   2.114   4.500 -0.3005  0.2419 -0.7196
 5925SOL    HW129408   4.164   2.209   4.494 -0.7362  0.4184  1.2884
 5925SOL    HW229409   4.208   2.085   4.426 -0.4963 -1.6015 -0.1437
 5926SOL     OW29410   4.026   3.115   4.321 -0.0992  0.5222  0.4301
 5926SOL    HW129411   3.990   3.159   4.398 -0.7480  1.3671 -0.3538
 5926SOL    HW229412   3.944   3.128   4.273 -0.1984  2.1624  1.0332
 5927SOL     OW29413   2.227   3.866   4.326  0.4481 -0.3440 -0.2669
 5927SOL    HW129414   2.321   3.861   4.344  0.4557 -2.0499 -0.8391
 5927SOL    HW229415   2.186   3.836   4.407 -1.2826  0.9921 -0.6376
 5928SOL     OW29416   1.512   1.091  16.546  0.1381  0.6176 -0.2843
 5928SOL    HW129417   1.498   1.093  16.641 -2.3659 -2.2423 -0.6190
 5928SOL    HW229418   1.499   0.999  16.524 -4.6421  1.0961  0.6126
 5929SOL     OW29419   4.358   0.380   3.544  0.4844  0.0580  0.5025
 5929SOL    HW129420   4.295   0.451   3.530 -0.7553 -1.4075 -1.4176
 5929SOL    HW229421   4.405   0.383   3.461  1.3104  0.8317  1.0005
 5930SOL     OW29422   2.514   2.284  17.243 -0.4786 -0.0644  0.2104
 5930SOL    HW129423   2.462   2.345  17.295  1.4250 -1.4619  3.7972
 5930SOL    HW229424   2.468   2.275  17.160 -0.4484  0.5048  0.1349
 5931SOL     OW29425   1.288   1.266   7.691  0.1009 -0.2053  0.0138
 5931SOL    HW129426   1.315   1.355   7.671 -1.2452 -0.3757 -2.5785
 5931SOL    HW229427   1.295   1.267   7.787  0.7098  0.5061 -0.0446
 5932SOL     OW29428   3.195   1.018  16.162  1.2201  0.5430 -0.4170
 5932SOL    HW129429   3.105   1.000  16.187  1.2561  1.2131  0.2194
 5932SOL    HW229430   3.238   1.021  16.248  2.9204 -2.1716 -1.1619
 5933SOL     OW29431   3.917   3.568   3.437  1.1442 -0.3926  0.3539
 5933SOL    HW129432   3.882   3.530   3.518  0.5634  1.6498  1.0660
 5933SOL    HW229433   3.840   3.618   3.409  1.0453 -0.5881  0.2741
 5934SOL     OW29434   0.494   4.634   5.243  0.0325 -0.3341 -0.1321
 5934SOL    HW129435   0.581   4.629   5.202  1.0610  3.0354  1.6746
 5934SOL    HW229436   0.443   4.624   5.163  1.1503  1.2141 -1.0436
 5935SOL     OW29437   1.020   1.439   6.201  0.0289  0.1152 -0.2494
 5935SOL    HW129438   1.038   1.465   6.110  0.5023 -1.7969 -0.7095
 5935SOL    HW229439   0.929   1.468   6.205  0.2056  0.2925  2.2872
 5936SOL     OW29440   1.335   3.995  15.458  0.2829 -0.0246 -0.1617
 5936SOL    HW129441   1.343   3.922  15.520  1.8628  0.5807  0.3375
 5936SOL    HW229442   1.273   3.969  15.391  1.1646  1.3785 -1.5237
 5937SOL     OW29443   0.562   3.901  14.193 -0.3344  0.4841 -0.7187
 5937SOL    HW129444   0.546   3.807  14.189 -4.5847  1.1186  1.5107
 5937SOL    HW229445   0.490   3.929  14.249 -0.6235  0.3317 -1.0158
 5938SOL     OW29446   0.921   0.287   4.097 -1.0740  0.1895  0.0605
 5938SOL    HW129447   0.851   0.349   4.115 -1.6195 -0.2579 -0.5451
 5938SOL    HW229448   0.968   0.329   4.025 -0.0422  1.9002  1.7012
 5939SOL     OW29449   3.119   1.042  13.915 -0.0334  0.0670 -0.2460
 5939SOL    HW129450   3.097   1.051  13.822  1.0121 -0.0625 -0.5055
 5939SOL    HW229451   3.172   0.963  13.907  1.6481  1.2429 -0.8590
 5940SOL     OW29452   1.417   1.859   5.074 -0.1962  0.8895 -0.4757
 5940SOL    HW129453   1.443   1.767   5.073  0.3084  1.0135  0.9721
 5940SOL    HW229454   1.470   1.890   5.001  0.0339  1.0678 -0.2351
 5941SOL     OW29455   4.228   2.946   4.424 -0.5781 -0.2076 -0.1732
 5941SOL    HW129456   4.171   2.979   4.354  0.0348 -3.3751 -2.1861
 5941SOL    HW229457   4.289   2.887   4.379 -0.2828 -0.4282  0.5222
 5942SOL     OW29458   1.571   2.428  10.361 -0.2038 -0.8423  0.1962
 5942SOL    HW129459   1.627   2.498  10.327  1.2231 -0.8254  2.5991
 5942SOL    HW229460   1.636   2.369  10.398  0.0860  0.6340  2.0269
 5943SOL     OW29461   2.383   0.495   4.526  0.3750  0.3746 -0.0068
 5943SOL    HW129462   2.320   0.424   4.534  0.2696  0.2597 -1.8616
 5943SOL    HW229463   2.374   0.515   4.433 -1.5496 -1.5849 -0.2235
 5944SOL     OW29464   1.705   0.200   6.728 -0.2991 -0.6753  0.0654
 5944SOL    HW129465   1.660   0.115   6.727  1.2804 -1.5029  0.6020
 5944SOL    HW229466   1.706   0.226   6.820 -1.2364 -2.8023  0.6790
 5945SOL     OW29467   0.450   0.879   1.674  0.5663  0.0928 -0.5416
 5945SOL    HW129468   0.442   0.974   1.681  0.4468 -0.0160  0.7434
 5945SOL    HW229469   0.491   0.847   1.755 -0.9807 -0.0295  0.1856
 5946SOL     OW29470   4.720   4.446   1.118  0.0259  0.1415  0.6213
 5946SOL    HW129471   0.024   4.396   1.188 -0.3790 -3.6248 -1.8288
 5946SOL    HW229472   4.693   4.525   1.165 -2.2598 -0.3704  0.1683
 5947SOL     OW29473   3.601   4.278   3.197 -0.3899  0.5462 -0.4700
 5947SOL    HW129474   3.605   4.365   3.156  0.2764  0.1476 -1.2607
 5947SOL    HW229475   3.522   4.238   3.161 -0.7300  2.2021 -1.5759
 5948SOL     OW29476   1.163   1.512   2.276 -0.1310 -0.4852  0.3770
 5948SOL    HW129477   1.078   1.521   2.231 -0.7896  0.2348  1.7729
 5948SOL    HW229478   1.147   1.434   2.329  0.7794 -0.4994  0.6217
 5949SOL     OW29479   1.896   0.259   8.434  0.4555  0.2092  0.3541
 5949SOL    HW129480   1.854   0.341   8.461 -0.5586  0.6783 -2.6528
 5949SOL    HW229481   1.963   0.308   8.387  0.9062 -0.3338  0.4295
 5950SOL     OW29482   4.406   4.632  17.662  0.4692  0.9950 -0.2080
 5950SOL    HW129483   4.347   4.600  17.730  0.0507  2.1198 -0.0361
 5950SOL    HW229484   4.330   4.643  17.604 -0.1970  0.3489  0.5290
 5951SOL     OW29485   2.008   3.541   6.653  0.0997  0.1063 -0.4256
 5951SOL    HW129486   2.083   3.483   6.662  0.5020  0.5370 -1.0780
 5951SOL    HW229487   1.958   3.493   6.587 -0.1883 -0.7253  0.3876
 5952SOL     OW29488   3.813   1.228   7.806 -0.0047 -0.1333  0.3277
 5952SOL    HW129489   3.855   1.150   7.843 -1.1457 -0.3531  1.1287
 5952SOL    HW229490   3.855   1.292   7.863 -0.1772  0.6333 -0.3992
 5953SOL     OW29491   2.433   3.744   5.976 -0.0715  0.1607 -0.4827
 5953SOL    HW129492   2.474   3.777   5.896 -1.5287  1.0415 -0.8521
 5953SOL    HW229493   2.345   3.780   5.966  1.0637  2.8333 -0.7503
 5954SOL     OW29494   1.148   4.021   3.878 -0.2719 -0.5765  0.2064
 5954SOL    HW129495   1.188   3.939   3.906 -0.8097 -0.1878  2.1362
 5954SOL    HW229496   1.125   3.992   3.790 -0.1031 -2.5483  0.8274
 5955SOL     OW29497   2.161   3.667   4.497 -0.0537  0.2332 -0.7051
 5955SOL    HW129498   2.239   3.614   4.483 -0.2424  0.3548 -2.2018
 5955SOL    HW229499   2.122   3.628   4.575 -0.7006  0.1545 -1.0693
 5956SOL     OW29500   4.737   3.358   8.300  0.1329  0.0021 -0.3814
 5956SOL    HW129501   0.028   3.323   8.385 -1.9816  0.6800  0.6238
 5956SOL    HW229502   4.642   3.346   8.301  0.1518 -0.1222 -0.0908
 5957SOL     OW29503   1.452   1.580   7.105 -0.6700 -0.5984 -0.0530
 5957SOL    HW129504   1.446   1.493   7.066  0.8040 -0.5460 -0.4024
 5957SOL    HW229505   1.488   1.635   7.035 -0.7242 -0.9975 -0.3898
 5958SOL     OW29506   1.048   0.427  17.059 -0.0547  0.2537  0.0697
 5958SOL    HW129507   1.099   0.408  17.137 -0.3877 -1.5281 -0.1424
 5958SOL    HW229508   1.115   0.475  17.009 -0.6228 -0.4822 -1.4226
 5959SOL     OW29509   4.493   2.307   1.741  0.1436  0.3311  0.1393
 5959SOL    HW129510   4.407   2.335   1.709  0.9364  1.5599 -0.9075
 5959SOL    HW229511   4.541   2.377   1.783 -0.4053  1.6474 -1.4304
 5960SOL     OW29512   1.900   2.544   2.465 -0.0542  0.0501  0.6944
 5960SOL    HW129513   1.881   2.503   2.548 -0.2041 -0.4839  0.3934
 5960SOL    HW229514   1.826   2.517   2.411  0.3125  3.5605 -1.6221
 5961SOL     OW29515   4.603   1.608   3.684 -0.0994 -0.1929 -0.1771
 5961SOL    HW129516   4.644   1.690   3.655  2.7000 -1.8865 -1.0170
 5961SOL    HW229517   4.652   1.603   3.766 -0.5093  0.1141  0.0877
 5962SOL     OW29518   2.850   0.640  16.500 -0.2491  0.2795 -0.0575
 5962SOL    HW129519   2.941   0.665  16.515  1.2787 -4.3919 -1.5285
 5962SOL    HW229520   2.805   0.669  16.580 -2.7917 -0.2874 -1.2972
 5963SOL     OW29521   4.447   1.761   3.150 -0.2609  0.0426 -0.0783
 5963SOL    HW129522   4.493   1.703   3.088  0.7307  1.8027 -0.9971
 5963SOL    HW229523   4.383   1.700   3.186 -0.4208 -1.2540 -2.5500
 5964SOL     OW29524   2.657   1.316   5.198  0.2478 -0.0834  0.1680
 5964SOL    HW129525   2.697   1.245   5.148  0.2364 -0.6674  0.9892
 5964SOL    HW229526   2.605   1.273   5.265 -1.1949  0.3174 -0.6890
 5965SOL     OW29527   2.507   0.451   4.102  0.1906  0.0752 -0.1113
 5965SOL    HW129528   2.541   0.440   4.013  1.7609  0.9006  0.3893
 5965SOL    HW229529   2.569   0.429   4.172  0.5965 -1.4764 -0.9568
 5966SOL     OW29530   4.221   0.225   8.490 -0.1155 -0.0999 -0.1916
 5966SOL    HW129531   4.266   0.308   8.472  0.5297 -1.2539 -3.8348
 5966SOL    HW229532   4.162   0.246   8.563  0.8575  1.2522  0.2096
 5967SOL     OW29533   2.931   1.941   9.078 -0.2847  0.1820 -0.4486
 5967SOL    HW129534   3.008   1.939   9.021  0.4859 -0.8921  0.6575
 5967SOL    HW229535   2.969   1.927   9.164  2.0868  2.1143 -1.1831
 5968SOL     OW29536   0.669   4.243   4.909 -0.5440 -0.6208  0.1858
 5968SOL    HW129537   0.669   4.149   4.890  1.9047 -0.8004  0.9985
 5968SOL    HW229538   0.612   4.234   4.985  1.3180  0.9348  1.7917
 5969SOL     OW29539   2.451   2.854  14.101  0.1044 -0.6760 -0.7213
 5969SOL    HW129540   2.427   2.937  14.060 -0.3300 -0.6701 -0.4675
 5969SOL    HW229541   2.535   2.847  14.056  0.7249 -0.3746  0.3921
 5970SOL     OW29542   1.404   2.310   6.750  0.0835  0.1064 -0.0007
 5970SOL    HW129543   1.460   2.328   6.675  0.4737  0.9714  0.5053
 5970SOL    HW229544   1.401   2.397   6.790  0.8443 -0.5545  1.5045
 5971SOL     OW29545   1.864   0.845  11.907 -0.1083 -0.6707 -0.2181
 5971SOL    HW129546   1.783   0.804  11.877 -1.0390  0.6391  0.5215
 5971SOL    HW229547   1.816   0.914  11.952  2.6558  1.4208 -0.4459
 5972SOL     OW29548   2.976   0.091   6.780 -0.2898  0.1359 -0.1622
 5972SOL    HW129549   2.898   0.105   6.834 -0.5709 -2.4530  0.1293
 5972SOL    HW229550   2.973   0.157   6.711 -0.2292 -0.4299 -0.7100
 5973SOL     OW29551   3.655   4.542   6.488 -0.2076 -0.2439 -0.0217
 5973SOL    HW129552   3.650   4.576   6.399  1.4575  1.3221  0.5032
 5973SOL    HW229553   3.592   4.470   6.479 -0.2545 -0.3347  1.0073
 5974SOL     OW29554   1.147   3.497   4.010  0.0009  0.1590 -0.1558
 5974SOL    HW129555   1.054   3.506   3.990  0.3780 -0.5747 -2.2945
 5974SOL    HW229556   1.145   3.471   4.102  0.3808  0.3533 -0.0941
 5975SOL     OW29557   3.961   2.918   3.171  0.3050  0.5812 -0.2250
 5975SOL    HW129558   3.969   3.012   3.190 -2.7292  0.5217  1.3754
 5975SOL    HW229559   4.013   2.917   3.091 -1.1311  1.7255 -1.1653
 5976SOL     OW29560   2.845   1.134   7.176 -0.1700  0.3441 -0.2588
 5976SOL    HW129561   2.855   1.130   7.271  2.7721 -0.0680 -0.5731
 5976SOL    HW229562   2.852   1.039   7.166 -0.1284  0.3071  0.1098
 5977SOL     OW29563   1.031   2.559  14.914  0.3039 -0.0999  0.3323
 5977SOL    HW129564   1.058   2.602  14.833  0.0995 -2.8874 -1.2432
 5977SOL    HW229565   1.019   2.475  14.869 -1.9522 -1.1721  2.9307
 5978SOL     OW29566   4.294   1.681   3.425  0.5914 -0.4550 -0.4505
 5978SOL    HW129567   4.260   1.763   3.462 -0.9893 -0.3441 -2.1495
 5978SOL    HW229568   4.243   1.616   3.474 -0.1311 -0.6754 -1.4920
 5979SOL     OW29569   0.755   3.266   7.365 -0.0114 -0.4747  0.6068
 5979SOL    HW129570   0.741   3.174   7.342 -0.6471  0.0869 -1.2315
 5979SOL    HW229571   0.847   3.267   7.390 -0.3467 -0.5529  1.8791
 5980SOL     OW29572   1.847   2.999   2.261  0.1175  0.2520  0.6346
 5980SOL    HW129573   1.868   3.000   2.168  1.7045  0.7691  0.9934
 5980SOL    HW229574   1.764   3.047   2.257  0.4818  0.9419  1.1945
 5981SOL     OW29575   1.092   3.634   7.624 -0.3581  0.2220  0.0450
 5981SOL    HW129576   1.006   3.618   7.586 -0.4629 -0.8780  0.7113
 5981SOL    HW229577   1.084   3.728   7.635  1.3349  0.3895 -0.1551
 5982SOL     OW29578   2.196   1.129   5.454 -0.4112 -0.2480  0.1992
 5982SOL    HW129579   2.200   1.139   5.549 -1.3725  1.8504  0.0100
 5982SOL    HW229580   2.129   1.061   5.450 -0.4305 -0.2846  1.2113
 5983SOL     OW29581   1.128   1.011   9.494  0.1518 -0.3262 -0.5072
 5983SOL    HW129582   1.095   1.090   9.536  0.7077 -0.3036 -0.1022
 5983SOL    HW229583   1.217   0.989   9.523 -0.3345 -1.3721  0.1927
 5984SOL     OW29584   1.867   0.807   6.334  1.1324 -0.8718  0.0090
 5984SOL    HW129585   1.892   0.719   6.361  3.1864 -0.1339  0.4994
 5984SOL    HW229586   1.918   0.829   6.256  1.2770 -0.8150  0.1187
 5985SOL     OW29587   1.124   1.299   8.984 -0.2053 -0.4878 -0.6696
 5985SOL    HW129588   1.126   1.383   8.938 -2.4081 -0.4087 -0.6131
 5985SOL    HW229589   1.113   1.320   9.077  0.9306 -1.4186 -0.3306
 5986SOL     OW29590   2.649   1.333   6.425 -0.2395 -0.0788 -0.4007
 5986SOL    HW129591   2.667   1.384   6.505  0.1071  1.5896 -1.5400
 5986SOL    HW229592   2.573   1.378   6.388 -0.7840 -0.9150 -0.2854
 5987SOL     OW29593   0.069   0.598   8.861 -0.2819  0.2153  0.7080
 5987SOL    HW129594   0.048   0.657   8.788  3.0887 -0.7558 -1.0176
 5987SOL    HW229595   0.112   0.530   8.810  0.4707  0.5778  0.8636
 5988SOL     OW29596   2.375   2.601  14.024  0.5539 -0.0282  0.2583
 5988SOL    HW129597   2.386   2.683  14.072 -1.8075 -0.8347  2.1613
 5988SOL    HW229598   2.289   2.619  13.986  1.4066 -0.4686 -1.9016
 5989SOL     OW29599   3.109   0.309   5.743 -0.0708 -0.5516 -0.3916
 5989SOL    HW129600   3.168   0.279   5.674 -1.1829 -2.2575 -0.6135
 5989SOL    HW229601   3.023   0.280   5.712 -1.7693  0.4912  3.4148
 5990SOL     OW29602   2.464   3.980   8.767 -0.2607  0.1480 -0.7298
 5990SOL    HW129603   2.538   4.009   8.715  0.4021 -0.9629 -0.4171
 5990SOL    HW229604   2.454   4.054   8.826 -0.5839 -0.6847  0.2601
 5991SOL     OW29605   0.124   3.910   4.611  0.3753 -0.1567 -0.2012
 5991SOL    HW129606   0.195   3.878   4.555  0.8627  0.2514  0.1905
 5991SOL    HW229607   0.144   3.861   4.691 -1.8045  0.1245  0.5204
 5992SOL     OW29608   2.858   0.561  16.933 -0.1451  0.3314 -0.5177
 5992SOL    HW129609   2.932   0.507  16.907 -0.8018 -0.8905  0.1338
 5992SOL    HW229610   2.872   0.569  17.027  0.1906 -1.7731 -0.3831
 5993SOL     OW29611   0.852   2.567   7.437  0.2183 -0.2851 -0.6737
 5993SOL    HW129612   0.850   2.479   7.399 -2.0091  0.0918 -1.4434
 5993SOL    HW229613   0.805   2.621   7.373  0.4997  1.4277  0.5470
 5994SOL     OW29614   1.063   4.565   0.733 -0.1281 -0.0421 -0.1650
 5994SOL    HW129615   1.061   4.653   0.694  0.0042  0.6006  1.2919
 5994SOL    HW229616   0.971   4.547   0.752  0.2503 -1.4423  0.3666
 5995SOL     OW29617   3.330   2.967   7.952  0.2716  0.5645  0.3690
 5995SOL    HW129618   3.234   2.972   7.958  0.4898  2.1027  2.7651
 5995SOL    HW229619   3.358   2.905   8.019 -0.3938  0.3009  0.4021
 5996SOL     OW29620   2.722   3.190  10.255  0.4116  0.2288 -1.0469
 5996SOL    HW129621   2.796   3.205  10.196  0.6900  0.9841 -0.5054
 5996SOL    HW229622   2.651   3.159  10.198  0.2019  1.5755 -1.5194
 5997SOL     OW29623   3.164   0.777  11.333  0.3989  0.1631 -0.4926
 5997SOL    HW129624   3.170   0.868  11.360  0.7625 -0.2314  0.7423
 5997SOL    HW229625   3.205   0.778  11.247  1.6244 -1.5117  0.0720
 5998SOL     OW29626   3.073   3.122   3.166  0.4360 -0.0284  0.4806
 5998SOL    HW129627   3.098   3.184   3.235  1.5726  1.0323 -0.8689
 5998SOL    HW229628   2.988   3.148   3.130  0.4959  0.2910  0.5628
 5999SOL     OW29629   4.631   0.177   8.342  0.1058 -0.5748  0.5184
 5999SOL    HW129630   4.676   0.213   8.266  1.4837 -1.4324  0.9238
 5999SOL    HW229631   4.606   0.088   8.319 -1.8506  0.3725 -1.0084
 6000SOL     OW29632   2.772   2.533  13.469  0.9105  0.1710 -0.5045
 6000SOL    HW129633   2.720   2.478  13.528  1.1457 -2.0666 -2.3999
 6000SOL    HW229634   2.763   2.616  13.516 -1.5759  0.4539 -1.4626
 6001SOL     OW29635   0.396   2.380   7.973  0.1697  0.4439  0.4870
 6001SOL    HW129636   0.476   2.365   8.023  1.0255  0.2502 -0.9462
 6001SOL    HW229637   0.391   2.301   7.919  0.9785 -0.0255  1.0930
 6002SOL     OW29638   2.784   0.641  14.809 -0.0759 -0.3581 -0.3650
 6002SOL    HW129639   2.813   0.693  14.884 -1.2322  0.0311 -0.1853
 6002SOL    HW229640   2.708   0.688  14.777 -0.1446 -0.0406  0.2532
 6003SOL     OW29641   1.711   2.657  10.571 -0.0353 -0.2019  0.5570
 6003SOL    HW129642   1.805   2.674  10.577  0.5532 -2.6852 -1.4350
 6003SOL    HW229643   1.689   2.673  10.479 -0.4412 -0.8629  0.5414
 6004SOL     OW29644   1.647   0.965   5.501 -0.3064 -0.0147  0.2606
 6004SOL    HW129645   1.597   0.889   5.532  2.8850 -2.1205  0.2707
 6004SOL    HW229646   1.645   0.954   5.406 -0.8543 -1.8293  0.4862
 6005SOL     OW29647   1.425   2.207   4.806  0.5099 -0.0919 -0.2618
 6005SOL    HW129648   1.452   2.235   4.718 -0.2636  1.9806  0.1638
 6005SOL    HW229649   1.418   2.293   4.847  1.6292  0.0360 -0.3344
 6006SOL     OW29650   3.908   2.198   5.414  0.1869 -0.3271  0.3747
 6006SOL    HW129651   3.875   2.144   5.343 -0.0850  0.4669 -0.1004
 6006SOL    HW229652   3.933   2.277   5.366  0.0362  0.1256  1.0358
 6007SOL     OW29653   1.773   3.039   3.896  0.2336 -0.1612 -0.2068
 6007SOL    HW129654   1.823   2.965   3.861  1.0211 -0.3566  1.2916
 6007SOL    HW229655   1.845   3.090   3.935  0.3641  1.2425 -2.3285
 6008SOL     OW29656   2.971   0.293   6.571 -0.3013  0.1900 -0.1242
 6008SOL    HW129657   2.877   0.304   6.556 -0.4393  1.5597  1.8757
 6008SOL    HW229658   3.008   0.278   6.484 -0.2392  0.5380 -0.1579
 6009SOL     OW29659   1.481   1.588   8.462 -0.1940  0.0099  0.0764
 6009SOL    HW129660   1.574   1.594   8.442  0.0807  0.1528  1.4303
 6009SOL    HW229661   1.458   1.681   8.460  1.0674  0.2617 -1.8589
 6010SOL     OW29662   0.366   1.295  14.143  0.0908 -0.5342 -0.0161
 6010SOL    HW129663   0.283   1.333  14.118  0.2734 -0.6119 -0.7427
 6010SOL    HW229664   0.363   1.279  14.237  2.0914 -0.4433  0.0811
 6011SOL     OW29665   1.786   3.812   9.638 -0.1163  0.2637  0.0858
 6011SOL    HW129666   1.792   3.825   9.544 -2.0134  0.9907  0.0725
 6011SOL    HW229667   1.877   3.800   9.664 -0.9934  0.9820  3.4842
 6012SOL     OW29668   0.720   0.817   8.016 -0.0069 -0.6805  0.2447
 6012SOL    HW129669   0.721   0.892   8.076 -1.0616 -1.5991  1.3989
 6012SOL    HW229670   0.627   0.793   8.013 -0.7474  2.2509 -1.0316
 6013SOL     OW29671   0.212   2.073   5.966 -0.6942 -0.2294  0.0454
 6013SOL    HW129672   0.193   2.022   6.045  1.2664 -0.8945  0.0875
 6013SOL    HW229673   0.195   2.164   5.987  1.2837 -0.3490  2.1630
 6014SOL     OW29674   4.001   1.420  14.737  0.7533  0.2672 -0.1225
 6014SOL    HW129675   3.990   1.324  14.734 -0.9718  0.4544  0.0046
 6014SOL    HW229676   4.077   1.430  14.679  1.3180 -0.6639  0.4539
 6015SOL     OW29677   1.133   2.775   3.555  0.5404  0.5830  0.5539
 6015SOL    HW129678   1.110   2.826   3.477  1.9201 -1.7398 -1.3560
 6015SOL    HW229679   1.145   2.851   3.612 -0.5851  0.8514  0.4275
 6016SOL     OW29680   2.263   1.947   7.107 -0.3209  0.0999 -0.2859
 6016SOL    HW129681   2.344   1.909   7.142 -0.3850  0.7525  0.5869
 6016SOL    HW229682   2.294   2.038   7.107  0.5820 -0.2105 -1.9793
 6017SOL     OW29683   3.073   3.496   9.515  0.6456  0.0442 -0.2019
 6017SOL    HW129684   2.978   3.506   9.515  0.6728  0.3257 -0.1227
 6017SOL    HW229685   3.084   3.588   9.490 -0.9636  0.5060  0.7774
 6018SOL     OW29686   2.189   1.344   4.799  0.3414 -0.5473 -0.4349
 6018SOL    HW129687   2.258   1.373   4.858  0.2092 -1.7728  0.3092
 6018SOL    HW229688   2.118   1.354   4.863  1.1731  1.5137  0.1667
 6019SOL     OW29689   4.703   2.086  12.237  0.3545  0.7208 -0.1414
 6019SOL    HW129690   0.021   2.150  12.282  2.0682 -2.5240  2.2939
 6019SOL    HW229691   0.026   2.018  12.206  0.4501  0.1696  1.2647
 6020SOL     OW29692   1.696   1.097  10.240  0.1077  0.0769  0.1155
 6020SOL    HW129693   1.791   1.085  10.240  0.1576  0.4712  0.1937
 6020SOL    HW229694   1.678   1.156  10.313 -1.0071  0.5348 -0.5320
 6021SOL     OW29695   3.972   3.289   6.540  0.5215  0.3481 -0.5924
 6021SOL    HW129696   3.906   3.355   6.561  1.8319  1.7696 -0.9284
 6021SOL    HW229697   3.942   3.264   6.452 -0.9133 -2.8939  0.8263
 6022SOL     OW29698   2.441   1.201   0.883  0.0022  0.8673  0.3005
 6022SOL    HW129699   2.519   1.181   0.934  1.3674  1.1590 -1.6596
 6022SOL    HW229700   2.481   1.253   0.814 -1.6282  1.7735  0.0415
 6023SOL     OW29701   4.561   1.455   5.875 -0.1542 -0.0262 -0.3330
 6023SOL    HW129702   4.598   1.425   5.958 -1.5546 -0.0474  0.2790
 6023SOL    HW229703   4.532   1.543   5.896  0.7993  0.6364 -1.7798
 6024SOL     OW29704   2.454   0.977  16.198  0.1770 -0.0709 -0.0036
 6024SOL    HW129705   2.369   1.006  16.229  0.9840  1.2335  0.9719
 6024SOL    HW229706   2.486   0.944  16.283  0.7412 -0.9222 -0.5441
 6025SOL     OW29707   3.489   3.545  11.957 -0.2345 -0.4014  0.2854
 6025SOL    HW129708   3.499   3.586  12.043 -0.2631  2.7416 -1.1972
 6025SOL    HW229709   3.451   3.460  11.980 -2.7901  0.3051 -1.2910
 6026SOL     OW29710   4.344   4.704   9.506  0.0829  0.1381 -0.2139
 6026SOL    HW129711   4.306   4.697   9.593  0.7607 -2.3943 -0.1333
 6026SOL    HW229712   4.334   0.060   9.488 -0.9731 -0.7179 -4.1158
 6027SOL     OW29713   2.443   4.578   2.496 -0.4019 -0.3365  0.3043
 6027SOL    HW129714   2.434   4.662   2.542  0.1667  0.1146 -0.4093
 6027SOL    HW229715   2.512   4.601   2.433 -2.4436  2.0214 -1.0503
 6028SOL     OW29716   4.337   1.449   4.340  0.1751  0.4080  0.2804
 6028SOL    HW129717   4.341   1.538   4.305  1.9130 -0.0303 -0.6558
 6028SOL    HW229718   4.418   1.456   4.391 -0.6674  2.7515  1.3039
 6029SOL     OW29719   4.460   2.046   9.796 -0.1306  0.2938  0.4262
 6029SOL    HW129720   4.413   2.008   9.722 -0.1585 -0.1844  0.6895
 6029SOL    HW229721   4.437   1.988   9.869  1.1485 -0.7379 -0.0131
 6030SOL     OW29722   4.203   3.840   8.133  0.3309  0.1966  0.6894
 6030SOL    HW129723   4.234   3.926   8.105 -0.3846  1.0322  2.4425
 6030SOL    HW229724   4.108   3.850   8.124  0.9492  3.7831 -1.9694
 6031SOL     OW29725   1.418   1.417   1.201 -1.1479  0.0789 -0.2163
 6031SOL    HW129726   1.514   1.417   1.198 -1.1756  0.2211 -1.2823
 6031SOL    HW229727   1.403   1.408   1.107  0.1822  3.4748 -0.7576
 6032SOL     OW29728   1.071   0.690   1.232  0.2113 -0.4904  0.1160
 6032SOL    HW129729   1.088   0.748   1.306 -1.5821 -0.7140  0.6974
 6032SOL    HW229730   1.047   0.609   1.277 -0.0941  0.4080  1.5537
 6033SOL     OW29731   3.458   0.796   5.690 -0.1660 -0.0984 -0.3783
 6033SOL    HW129732   3.474   0.888   5.668  2.7336 -0.5447 -0.1520
 6033SOL    HW229733   3.427   0.797   5.780 -1.0745 -0.2849 -0.6898
 6034SOL     OW29734   0.774   1.412  12.994 -0.4634 -0.4671 -0.1560
 6034SOL    HW129735   0.714   1.476  12.955 -1.5824 -1.0885  0.5525
 6034SOL    HW229736   0.809   1.370  12.916  1.2043 -0.9790  0.8586
 6035SOL     OW29737   1.755   0.772   1.103 -0.2524 -0.1330  0.7560
 6035SOL    HW129738   1.684   0.819   1.060  0.8554  1.4016  0.6346
 6035SOL    HW229739   1.706   0.698   1.139 -0.7515  0.1102  0.5698
 6036SOL     OW29740   0.072   0.214   6.429 -0.0172  0.0891  0.3303
 6036SOL    HW129741   0.160   0.210   6.467 -0.0540  1.7488  0.6008
 6036SOL    HW229742   0.081   0.180   6.340 -0.3736  1.4039 -0.2184
 6037SOL     OW29743   2.965   2.188   3.296  0.1855 -0.6148 -0.2882
 6037SOL    HW129744   2.984   2.193   3.389  1.7424  1.6977 -0.7035
 6037SOL    HW229745   3.014   2.268   3.274 -0.9841  0.0584 -0.4507
 6038SOL     OW29746   1.048   3.871   0.457  0.4944 -0.5898 -0.3520
 6038SOL    HW129747   0.989   3.840   0.389 -2.7722 -0.6819  2.5724
 6038SOL    HW229748   1.131   3.881   0.409 -0.0803 -1.7678 -1.5860
 6039SOL     OW29749   4.254   1.966   6.169  0.1860 -0.0246 -0.0090
 6039SOL    HW129750   4.283   2.052   6.199  1.8160 -0.1671 -1.1971
 6039SOL    HW229751   4.180   1.954   6.229 -0.8036  1.0615 -1.0003
 6040SOL     OW29752   1.434   0.085   6.886 -0.3437 -0.2051  0.3156
 6040SOL    HW129753   1.448   0.159   6.826  1.3161 -0.3691  0.4879
 6040SOL    HW229754   1.484   0.015   6.844 -2.7084 -1.6709 -0.0508
 6041SOL     OW29755   2.516   0.742   6.759  0.0715 -0.0483  0.1846
 6041SOL    HW129756   2.595   0.702   6.724 -0.4991  0.2219 -1.4319
 6041SOL    HW229757   2.474   0.781   6.682 -1.9154 -1.4884  0.5501
 6042SOL     OW29758   2.687   3.666   5.727  0.3317 -0.4043 -0.1320
 6042SOL    HW129759   2.673   3.638   5.817  0.3386  2.3448  0.7295
 6042SOL    HW229760   2.710   3.755   5.755 -2.0410  0.7012 -1.6310
 6043SOL     OW29761   0.412   0.538   3.662 -0.0428  0.8834 -0.0810
 6043SOL    HW129762   0.423   0.451   3.624 -1.3442  0.2329  1.0494
 6043SOL    HW229763   0.410   0.525   3.757  0.1185  1.5227  0.0131
 6044SOL     OW29764   2.200   1.265   7.891  0.0456 -0.6707 -0.2093
 6044SOL    HW129765   2.183   1.349   7.933 -1.3364 -1.0379 -0.0216
 6044SOL    HW229766   2.174   1.276   7.800  1.9536 -0.5362 -0.7300
 6045SOL     OW29767   0.129   0.110  12.889  0.1012 -0.3616 -0.0999
 6045SOL    HW129768   0.206   0.131  12.835 -0.0176 -0.0536 -0.1485
 6045SOL    HW229769   0.066   0.159  12.837 -2.4117 -1.3863  2.0256
 6046SOL     OW29770   2.883   4.503  13.774  0.1844 -0.3174 -0.1380
 6046SOL    HW129771   2.884   4.445  13.699 -0.2461  0.2192 -0.5594
 6046SOL    HW229772   2.970   4.484  13.811 -0.1774 -0.7016  0.5260
 6047SOL     OW29773   4.092   0.577  11.245  0.4982  0.0817  0.0796
 6047SOL    HW129774   4.158   0.612  11.304  0.3654  1.0473 -0.3335
 6047SOL    HW229775   4.083   0.638  11.172 -1.5853  0.5212  0.7044
 6048SOL     OW29776   3.000   2.787   3.919  0.2363  0.3857  0.5159
 6048SOL    HW129777   3.069   2.847   3.950  1.8683 -0.2614 -1.8949
 6048SOL    HW229778   2.966   2.748   3.999 -0.4584 -1.3550 -0.6309
 6049SOL     OW29779   1.395   0.000   7.637 -0.6454 -0.1031  0.1870
 6049SOL    HW129780   1.472   4.719   7.691 -0.7681 -1.3994 -0.0736
 6049SOL    HW229781   1.431   0.010   7.549 -0.3599  0.7377  0.3943
 6050SOL     OW29782   4.182   0.336   1.374  0.1620 -0.3117 -0.1536
 6050SOL    HW129783   4.220   0.424   1.373  2.3763 -1.2490  0.2405
 6050SOL    HW229784   4.256   0.291   1.415  0.6504 -1.0490 -1.8324
 6051SOL     OW29785   0.162   1.726   0.201  0.1038  0.2476  0.9739
 6051SOL    HW129786   0.170   1.722   0.297 -3.3247 -2.1789  1.1759
 6051SOL    HW229787   0.161   1.821   0.205  0.9139  0.3333 -0.9825
 6052SOL     OW29788   0.593   1.558  12.875 -0.0246  0.0146 -0.2380
 6052SOL    HW129789   0.550   1.489  12.825 -0.3991  0.6557 -0.8007
 6052SOL    HW229790   0.575   1.632  12.816  0.7796 -0.2901 -0.8766
 6053SOL     OW29791   0.771   2.596   6.756 -0.2914 -0.2468 -0.6307
 6053SOL    HW129792   0.843   2.539   6.784  0.2463 -0.1792 -1.8557
 6053SOL    HW229793   0.806   2.643   6.680 -0.5902  0.7171 -0.1692
 6054SOL     OW29794   0.176   2.821  17.116 -0.2063 -0.1482  0.2106
 6054SOL    HW129795   0.234   2.897  17.121 -0.5633  0.2464 -1.7453
 6054SOL    HW229796   0.090   2.862  17.107  0.2102  0.8849  0.9305
 6055SOL     OW29797   1.035   1.577   9.518 -0.0862 -0.4553  0.2258
 6055SOL    HW129798   1.084   1.658   9.531 -2.8737  0.7874  2.9128
 6055SOL    HW229799   0.958   1.584   9.574  1.1093  0.3352  1.7587
 6056SOL     OW29800   4.001   3.390  11.395 -0.6510 -0.7929 -0.1254
 6056SOL    HW129801   3.944   3.317  11.420 -1.6973  0.1034  0.1091
 6056SOL    HW229802   4.031   3.362  11.308  0.9623  1.1278 -0.1825
 6057SOL     OW29803   4.223   4.274   3.887  0.0084  0.0278 -0.2310
 6057SOL    HW129804   4.251   4.348   3.833  1.4122  0.4180  1.0212
 6057SOL    HW229805   4.138   4.256   3.849 -0.8031  1.4509  0.8849
 6058SOL     OW29806   1.574   1.162   6.410  0.0157 -0.3966 -0.1879
 6058SOL    HW129807   1.488   1.170   6.369  0.1712 -0.7444 -0.5911
 6058SOL    HW229808   1.593   1.069   6.426  0.9911  0.2212  2.2583
 6059SOL     OW29809   2.767   2.653   4.523 -0.3011 -0.2990  0.5277
 6059SOL    HW129810   2.837   2.706   4.486  0.2059 -0.8631  0.6694
 6059SOL    HW229811   2.745   2.700   4.604  1.0302 -0.5858  1.0565
 6060SOL     OW29812   0.700   1.163   2.134 -0.2849  0.1335  0.0836
 6060SOL    HW129813   0.648   1.155   2.055 -2.9092  1.4941  1.6679
 6060SOL    HW229814   0.664   1.240   2.179 -1.1245  0.5774 -1.3628
 6061SOL     OW29815   2.376   1.413   4.988  0.1096  0.1590  0.1810
 6061SOL    HW129816   2.428   1.465   5.050  0.3167 -0.9013  0.9062
 6061SOL    HW229817   2.375   1.331   5.039 -0.4998 -0.1019 -0.2504
 6062SOL     OW29818   1.309   0.443   8.196 -0.3858  0.2939  0.5794
 6062SOL    HW129819   1.322   0.526   8.241 -2.9520  1.0013  0.0147
 6062SOL    HW229820   1.264   0.468   8.116 -0.0532  2.1004  0.9580
 6063SOL     OW29821   4.500   3.393   5.721  0.0671  0.5864  0.1715
 6063SOL    HW129822   4.424   3.450   5.709  1.1300  1.9198 -0.1978
 6063SOL    HW229823   4.455   3.309   5.728  0.3232  0.2025 -2.7528
 6064SOL     OW29824   4.716   4.544   0.530  0.0500 -0.5568 -0.1324
 6064SOL    HW129825   4.732   4.562   0.622  0.7557  0.5279 -0.4710
 6064SOL    HW229826   4.651   4.474   0.544  1.1025 -1.5089 -0.0095
 6065SOL     OW29827   0.869   2.933  16.192 -0.6565 -0.0848 -0.4747
 6065SOL    HW129828   0.874   2.851  16.143 -0.7362 -0.5834  0.3578
 6065SOL    HW229829   0.927   2.905  16.263 -0.8264 -1.5929 -0.9276
 6066SOL     OW29830   0.765   0.408   8.050  0.0874 -0.2406  0.3429
 6066SOL    HW129831   0.694   0.453   8.003  0.2689  1.6321  1.8928
 6066SOL    HW229832   0.822   0.479   8.080 -1.6766  1.2826  0.1362
 6067SOL     OW29833   2.125   0.975   4.438 -0.3025 -0.2079  0.0731
 6067SOL    HW129834   2.195   1.038   4.454  0.4925 -1.9868  3.4853
 6067SOL    HW229835   2.174   0.899   4.468  1.6636  0.5877 -1.1128
 6068SOL     OW29836   3.128   1.782  12.846 -0.6348 -0.8822  0.2227
 6068SOL    HW129837   3.101   1.693  12.868  1.0126 -1.5294 -0.3984
 6068SOL    HW229838   3.114   1.829  12.929  1.5379 -0.8644  0.5793
 6069SOL     OW29839   3.211   1.733  13.219  0.0233  0.0805 -0.3277
 6069SOL    HW129840   3.129   1.756  13.262 -0.9398 -1.6619 -1.2312
 6069SOL    HW229841   3.239   1.822  13.194  1.9208 -0.7778 -1.2423
 6070SOL     OW29842   2.877   0.862   1.325 -0.3146 -0.0421  0.3394
 6070SOL    HW129843   2.966   0.872   1.358  0.2145  2.8136 -1.8852
 6070SOL    HW229844   2.837   0.789   1.371  0.7175 -0.4352  0.6156
 6071SOL     OW29845   3.561   0.597   3.826 -0.8026  0.4139 -0.7574
 6071SOL    HW129846   3.504   0.672   3.811  0.0851  1.2705  0.0732
 6071SOL    HW229847   3.557   0.594   3.922  0.6997  0.8384 -0.6699
 6072SOL     OW29848   3.617   3.021   1.768 -0.1858  0.0238  0.7290
 6072SOL    HW129849   3.564   3.037   1.689  1.4665  1.8242 -0.0196
 6072SOL    HW229850   3.545   3.054   1.822 -2.6312 -3.6040 -0.2828
 6073SOL     OW29851   1.474   0.266  10.701  0.5038 -0.3699 -0.2899
 6073SOL    HW129852   1.445   0.243  10.613 -0.3449 -2.0153  0.4238
 6073SOL    HW229853   1.458   0.183  10.745 -0.0318 -0.9979 -1.6927
 6074SOL     OW29854   4.142   3.647  14.665  0.2391 -0.2288 -0.6889
 6074SOL    HW129855   4.202   3.720  14.675  1.5757 -1.3222 -0.6448
 6074SOL    HW229856   4.094   3.631  14.746  1.4670  0.7157  0.2123
 6075SOL     OW29857   0.767   4.622   7.235 -0.0315 -0.2571  0.0076
 6075SOL    HW129858   0.698   4.563   7.203  2.4387 -1.6724 -2.7043
 6075SOL    HW229859   0.772   4.680   7.159 -2.4118  0.0908  0.1240
 6076SOL     OW29860   0.523   0.274   3.669  0.0000  0.4899 -0.2287
 6076SOL    HW129861   0.566   0.263   3.584  0.5701 -1.9460  0.3615
 6076SOL    HW229862   0.593   0.261   3.733 -0.7730 -1.7185  0.1777
 6077SOL     OW29863   4.229   0.541   5.289 -0.4910 -0.0073  0.1052
 6077SOL    HW129864   4.282   0.564   5.212  0.4137 -0.6877  0.5214
 6077SOL    HW229865   4.292   0.540   5.361  0.2243 -0.0827 -0.5105
 6078SOL     OW29866   1.854   2.223  10.253 -0.1971  0.2649 -0.1193
 6078SOL    HW129867   1.843   2.236  10.348 -1.4582 -0.0117 -0.2231
 6078SOL    HW229868   1.945   2.253  10.247 -0.3491  0.8881  0.5850
 6079SOL     OW29869   1.010   2.762   7.492  0.4168 -0.1055  0.5598
 6079SOL    HW129870   1.047   2.734   7.576  0.8411  1.2670  0.8150
 6079SOL    HW229871   0.970   2.678   7.467 -1.2278  0.1634  2.3848
 6080SOL     OW29872   1.006   2.117   8.260 -0.3290  0.3990  0.3556
 6080SOL    HW129873   1.005   2.111   8.356 -1.7400 -0.2886  0.2986
 6080SOL    HW229874   1.017   2.024   8.240 -1.5062 -0.3951  3.3389
 6081SOL     OW29875   0.717   1.131  11.989  0.2111 -0.0064 -0.0959
 6081SOL    HW129876   0.808   1.129  12.017  0.1182 -1.5243  0.1132
 6081SOL    HW229877   0.722   1.132  11.894 -2.9093 -0.8639 -0.2955
 6082SOL     OW29878   3.804   0.030  13.238 -0.6237  0.4034  0.3364
 6082SOL    HW129879   3.837   0.085  13.167 -1.5117  0.2931 -0.1533
 6082SOL    HW229880   3.881   4.725  13.276 -0.8710 -0.8715 -0.5957
 6083SOL     OW29881   3.849   3.336   2.276  0.1319  0.1390 -0.1805
 6083SOL    HW129882   3.757   3.332   2.302 -0.0443 -0.0983 -0.8425
 6083SOL    HW229883   3.895   3.303   2.353  0.0413  0.9313  0.2148
 6084SOL     OW29884   1.880   4.308  11.662  0.2288  0.2325 -0.3011
 6084SOL    HW129885   1.869   4.226  11.614  0.6183 -1.0906  1.8537
 6084SOL    HW229886   1.946   4.280  11.726  0.7265 -1.0178 -1.3560
 6085SOL     OW29887   0.349   4.515  16.987  0.4469  0.2197 -0.5953
 6085SOL    HW129888   0.331   4.483  16.898 -0.5659  0.1746 -0.3728
 6085SOL    HW229889   0.369   4.606  16.965  0.2965  0.6331  0.9931
 6086SOL     OW29890   3.928   1.836   7.053 -0.1882  0.3482  0.5200
 6086SOL    HW129891   3.978   1.826   7.134 -1.9804  1.1256  1.7369
 6086SOL    HW229892   3.935   1.929   7.032 -0.2613  0.0996 -0.5961
 6087SOL     OW29893   1.166   3.981  12.490 -0.0173  0.0737 -0.8954
 6087SOL    HW129894   1.227   3.932  12.434  1.0419  0.8458 -0.4356
 6087SOL    HW229895   1.233   4.049  12.503 -0.8467  0.4143  1.4664
 6088SOL     OW29896   1.000   2.245   9.753 -0.0283  0.6701 -0.3524
 6088SOL    HW129897   1.080   2.282   9.790 -0.0245  0.9217 -0.6053
 6088SOL    HW229898   0.992   2.157   9.790  0.7872  0.3573 -0.9040
 6089SOL     OW29899   0.994   4.310   1.631 -0.0409  0.0903 -0.2876
 6089SOL    HW129900   0.993   4.397   1.670  0.0554 -0.7356  1.5830
 6089SOL    HW229901   0.909   4.310   1.588  1.1377 -0.4096 -2.6002
 6090SOL     OW29902   4.197   3.073  13.416 -0.2957  0.2797  0.1873
 6090SOL    HW129903   4.134   3.017  13.369 -0.2766 -0.4151  0.9869
 6090SOL    HW229904   4.127   3.121  13.461 -1.0200 -1.5607  1.0354
 6091SOL     OW29905   4.176   2.621  17.129  0.1330 -0.0421 -0.1092
 6091SOL    HW129906   4.245   2.573  17.083  0.3510 -2.0686  2.3274
 6091SOL    HW229907   4.133   2.671  17.060 -1.0166  1.1646  1.4817
 6092SOL     OW29908   1.303   0.767   4.001 -0.2922 -0.0005 -0.2209
 6092SOL    HW129909   1.210   0.747   3.994 -0.2271 -0.6538  0.6536
 6092SOL    HW229910   1.337   0.737   3.917 -0.6484  0.7121 -0.6102
 6093SOL     OW29911   3.152   3.597  10.467  0.5302  0.2842 -0.1599
 6093SOL    HW129912   3.228   3.619  10.521  0.6372 -0.8726  0.1837
 6093SOL    HW229913   3.106   3.537  10.527 -0.5048  0.8372 -0.3976
 6094SOL     OW29914   0.249   4.430   6.356  0.0350  0.1510  0.5039
 6094SOL    HW129915   0.158   4.430   6.328  0.0532  0.6198  0.4313
 6094SOL    HW229916   0.235   4.467   6.443  0.6132  0.2540  0.5502
 6095SOL     OW29917   0.497   0.172   3.984  0.4890  0.4378  0.0290
 6095SOL    HW129918   0.582   0.208   3.959  0.0106  2.3188  1.0983
 6095SOL    HW229919   0.480   0.213   4.069  1.1061  1.0475 -0.1420
 6096SOL     OW29920   0.379   3.402   3.757 -0.0017  0.1437 -0.0269
 6096SOL    HW129921   0.378   3.406   3.661 -1.7111  0.5898  0.0164
 6096SOL    HW229922   0.456   3.346   3.768  0.5890  0.8717 -0.4482
 6097SOL     OW29923   3.445   2.160   4.137  0.1608 -0.2091 -0.3650
 6097SOL    HW129924   3.493   2.203   4.208  1.5129 -0.0661 -1.3745
 6097SOL    HW229925   3.427   2.072   4.170 -1.6717 -0.3676 -1.8017
 6098SOL     OW29926   4.199   2.538   1.933 -0.9399  0.2047  0.1002
 6098SOL    HW129927   4.108   2.559   1.912 -0.3200  0.7159 -2.0870
 6098SOL    HW229928   4.202   2.472   1.864 -0.8288 -1.9510  2.1663
 6099SOL     OW29929   2.739   2.460  15.406 -0.2297  0.8123 -0.1521
 6099SOL    HW129930   2.726   2.378  15.454 -0.6663 -0.1140 -1.8350
 6099SOL    HW229931   2.708   2.422  15.323  0.0677 -1.5491  0.8157
 6100SOL     OW29932   2.677   4.127   4.335 -0.3826  0.1035 -0.3961
 6100SOL    HW129933   2.742   4.092   4.396  0.5513  0.8305 -1.0005
 6100SOL    HW229934   2.666   4.221   4.348  0.8911  0.4204 -1.6915
 6101SOL     OW29935   3.721   4.333   1.120  0.1660  0.2426  0.2739
 6101SOL    HW129936   3.651   4.364   1.063 -2.0108 -1.1089  2.1884
 6101SOL    HW229937   3.695   4.364   1.207  1.9643 -0.7031  1.1694
 6102SOL     OW29938   1.565   4.312   2.396 -0.3977  0.8228 -0.3733
 6102SOL    HW129939   1.654   4.316   2.363 -0.7285  1.6503 -1.1649
 6102SOL    HW229940   1.561   4.367   2.475 -0.7537 -2.0247  1.5709
 6103SOL     OW29941   1.756   3.387   7.498  0.3745  0.1828 -0.2366
 6103SOL    HW129942   1.700   3.450   7.544  1.2828  0.0243  1.0924
 6103SOL    HW229943   1.835   3.402   7.550  0.1739 -0.1519  0.1606
 6104SOL     OW29944   1.717   3.763   2.676 -0.1724  0.3124  0.1069
 6104SOL    HW129945   1.694   3.682   2.630 -1.5513 -0.0633  1.4631
 6104SOL    HW229946   1.637   3.815   2.670 -0.8985 -0.8465 -0.2455
 6105SOL     OW29947   0.673   3.864   6.883  0.6003 -0.0956 -0.8492
 6105SOL    HW129948   0.589   3.845   6.841 -0.7624 -0.8701  2.1478
 6105SOL    HW229949   0.701   3.777   6.913 -0.1917  0.1242  0.5469
 6106SOL     OW29950   1.429   3.915   5.983 -0.3685  0.2605 -0.1401
 6106SOL    HW129951   1.437   3.979   5.912 -0.7875  0.6580  0.1708
 6106SOL    HW229952   1.347   3.946   6.022 -0.4856 -2.8658  2.0917
 6107SOL     OW29953   4.482   4.003   2.867 -0.1311 -0.0628  0.2925
 6107SOL    HW129954   4.435   3.992   2.949 -1.7788  0.5332 -0.5628
 6107SOL    HW229955   4.412   3.958   2.820  0.1265 -0.4860  0.3133
 6108SOL     OW29956   1.756   4.046   7.285  0.1974  0.0985  0.3384
 6108SOL    HW129957   1.715   4.132   7.294 -1.4867 -0.7752  0.9283
 6108SOL    HW229958   1.713   3.995   7.354 -0.3251  0.0201 -0.0522
 6109SOL     OW29959   4.182   4.674   4.701  0.2302 -0.5365  0.3785
 6109SOL    HW129960   4.252   4.671   4.766  3.5892 -0.5182 -3.2328
 6109SOL    HW229961   4.188   0.027   4.670  2.9296 -0.7221  0.3693
 6110SOL     OW29962   1.529   1.266   8.428 -0.2959  0.2980  0.2466
 6110SOL    HW129963   1.583   1.212   8.370 -2.3411 -1.4997  0.0142
 6110SOL    HW229964   1.501   1.338   8.372 -1.1101 -1.0596 -1.0955
 6111SOL     OW29965   1.826   4.450   4.007  0.2111 -0.0420  0.2113
 6111SOL    HW129966   1.874   4.511   3.949  1.3641 -1.1755 -0.0336
 6111SOL    HW229967   1.893   4.386   4.031 -0.2138 -0.2958  0.7057
 6112SOL     OW29968   3.948   1.763   5.017 -0.0412  0.0376  0.1154
 6112SOL    HW129969   4.025   1.750   5.072  0.2505 -0.4976 -0.4084
 6112SOL    HW229970   3.886   1.699   5.051  1.1619 -0.2208  1.7908
 6113SOL     OW29971   2.547   0.412   1.467 -0.2585  0.2625  0.2043
 6113SOL    HW129972   2.560   0.425   1.561  2.1032 -0.2077 -0.0565
 6113SOL    HW229973   2.486   0.485   1.451  0.3894  0.6460 -0.5030
 6114SOL     OW29974   2.827   1.883   8.771  0.1358 -0.5070  0.4200
 6114SOL    HW129975   2.803   1.819   8.705 -1.0171 -0.3509  0.6958
 6114SOL    HW229976   2.885   1.931   8.711 -1.7294  0.8632 -0.2886
 6115SOL     OW29977   0.422   3.332   8.658  0.2045 -0.1403  0.5621
 6115SOL    HW129978   0.356   3.398   8.680 -1.0779 -1.1908 -0.1684
 6115SOL    HW229979   0.441   3.354   8.567  1.8401 -1.4435  0.6035
 6116SOL     OW29980   3.062   2.318   6.649 -0.2560  0.5707 -0.3631
 6116SOL    HW129981   2.991   2.307   6.586  0.2654  0.9470 -1.0216
 6116SOL    HW229982   3.128   2.257   6.616  0.9689  1.7704 -0.1367
 6117SOL     OW29983   4.724   2.329   2.124 -0.4268 -0.3394 -0.1740
 6117SOL    HW129984   4.629   2.343   2.128 -0.1829  1.1560  0.5084
 6117SOL    HW229985   0.014   2.399   2.065  0.9459 -0.1621  0.6766
 6118SOL     OW29986   4.369   3.038   9.199 -0.2641  0.5295  0.3507
 6118SOL    HW129987   4.275   3.034   9.213 -0.6599 -2.2304 -3.2253
 6118SOL    HW229988   4.376   3.020   9.105  3.0260  0.2613  0.6290
 6119SOL     OW29989   2.814   4.199  12.828 -0.0256 -0.2874  0.2958
 6119SOL    HW129990   2.847   4.171  12.742 -1.1762 -0.5679 -0.0574
 6119SOL    HW229991   2.778   4.285  12.809  0.4171 -0.4475 -1.3608
 6120SOL     OW29992   3.226   0.981  13.525 -0.9227 -0.4042  0.7336
 6120SOL    HW129993   3.179   0.953  13.447 -0.1530  0.5555 -0.0816
 6120SOL    HW229994   3.154   1.026  13.569 -1.6250  0.2596 -1.0983
 6121SOL     OW29995   3.891   3.627   7.057  0.1004 -0.4663  0.4290
 6121SOL    HW129996   3.894   3.592   7.147  0.1916 -2.0063 -0.1748
 6121SOL    HW229997   3.814   3.581   7.026  0.3259 -0.2873 -0.3773
 6122SOL     OW29998   0.616   0.887   1.907  0.3344 -0.3403 -0.7132
 6122SOL    HW129999   0.587   0.975   1.931 -2.5073 -1.2102 -0.9662
 6122SOL    HW230000   0.697   0.904   1.858  0.5037 -1.2670 -0.7394
 6123SOL     OW30001   4.424   0.282   6.437  0.2079 -0.0889  0.3711
 6123SOL    HW130002   4.422   0.222   6.362 -1.7509  1.1376 -0.5594
 6123SOL    HW230003   4.405   0.227   6.512 -0.5252  0.6238  0.7096
 6124SOL     OW30004   0.185   1.337   7.678 -0.0563  0.4764 -0.3902
 6124SOL    HW130005   0.254   1.277   7.650 -1.5179 -1.1233 -0.5299
 6124SOL    HW230006   0.238   1.416   7.668  0.9473 -0.3690 -1.7654
 6125SOL     OW30007   2.548   0.573  16.642 -0.2561  0.1280 -0.2884
 6125SOL    HW130008   2.539   0.507  16.711  1.0183  0.7963  0.5163
 6125SOL    HW230009   2.465   0.565  16.595 -0.4947 -0.2150  0.1914
 6126SOL     OW30010   4.181   1.006   7.398  0.6281  0.5667  0.2453
 6126SOL    HW130011   4.264   1.010   7.447  0.7432  2.4950 -0.1288
 6126SOL    HW230012   4.165   0.912   7.414 -0.9500  0.7270 -0.4089
 6127SOL     OW30013   0.135   3.295  13.395  0.0871  0.1407  0.4853
 6127SOL    HW130014   0.095   3.357  13.457  1.2144 -0.7188  2.0835
 6127SOL    HW230015   0.167   3.344  13.320  0.7421 -1.0830 -0.0248
 6128SOL     OW30016   1.542   1.924  10.890  0.1968  0.3101  0.2992
 6128SOL    HW130017   1.584   1.892  10.970 -1.5130  0.1397  1.1296
 6128SOL    HW230018   1.461   1.873  10.897  0.2891  0.3603  1.8414
 6129SOL     OW30019   3.636   3.878   3.029 -0.3101  0.0380 -0.1444
 6129SOL    HW130020   3.707   3.887   2.965  0.1490  0.1587  0.3846
 6129SOL    HW230021   3.586   3.959   3.018  0.6777  0.5291 -0.9762
 6130SOL     OW30022   3.565   0.449  12.668 -0.5643  0.5374 -0.1250
 6130SOL    HW130023   3.522   0.530  12.695  1.4425  1.6469 -0.2527
 6130SOL    HW230024   3.597   0.455  12.578  0.2195  0.8571  0.1721
 6131SOL     OW30025   1.047   1.195   3.320  0.7176 -0.1819 -0.0943
 6131SOL    HW130026   1.046   1.290   3.334  1.8869 -0.2090  0.1085
 6131SOL    HW230027   1.022   1.184   3.228  1.1041  0.6420 -0.3008
 6132SOL     OW30028   2.292   3.813   7.174  0.0482  0.4003 -0.4280
 6132SOL    HW130029   2.337   3.729   7.167 -0.7928 -0.1182  0.3589
 6132SOL    HW230030   2.328   3.835   7.259 -0.4384 -2.2776  0.4566
 6133SOL     OW30031   2.609   1.767   4.954 -0.2495  0.2610  0.0270
 6133SOL    HW130032   2.599   1.701   5.022 -0.6104  1.2538  0.9196
 6133SOL    HW230033   2.519   1.792   4.936 -0.6550  0.7300  2.8555
 6134SOL     OW30034   2.555   0.483  16.938 -0.2948  0.0749  0.1291
 6134SOL    HW130035   2.630   0.454  16.990  0.2890  0.2763 -0.6055
 6134SOL    HW230036   2.489   0.419  16.966 -0.0353  0.8240  2.5211
 6135SOL     OW30037   2.974   0.566   3.297 -0.5376 -0.1508  0.3994
 6135SOL    HW130038   2.899   0.521   3.259  0.1725  0.1816 -1.3998
 6135SOL    HW230039   2.991   0.639   3.238  0.3972 -1.3178 -0.7630
 6136SOL     OW30040   1.762   0.231  11.656 -0.0838 -0.3397 -0.8040
 6136SOL    HW130041   1.856   0.215  11.665  0.2567  3.2562  1.7842
 6136SOL    HW230042   1.751   0.156  11.598 -0.3525 -1.6165  0.8829
 6137SOL     OW30043   1.484   3.618   6.522  0.2885  0.1456  0.0566
 6137SOL    HW130044   1.452   3.555   6.586  3.0427  0.1795  1.4680
 6137SOL    HW230045   1.405   3.655   6.481  0.0895 -0.4707 -0.1250
 6138SOL     OW30046   2.274   4.379   9.791 -0.4765  0.4120 -0.2951
 6138SOL    HW130047   2.199   4.392   9.732 -0.9638 -0.5760  0.1085
 6138SOL    HW230048   2.321   4.461   9.775  0.3784  0.0299  0.3025
 6139SOL     OW30049   2.770   1.810   8.494  0.4702 -0.0377 -0.2175
 6139SOL    HW130050   2.857   1.770   8.490 -0.2275 -1.5590 -0.0458
 6139SOL    HW230051   2.725   1.768   8.421 -1.4107 -1.6813  1.8921
 6140SOL     OW30052   4.226   0.910   2.184  0.3906  0.5820  0.4008
 6140SOL    HW130053   4.238   0.902   2.089  1.5436  2.6926  0.3756
 6140SOL    HW230054   4.168   0.985   2.185 -0.6418 -0.1516 -2.9227
 6141SOL     OW30055   3.768   4.381   5.133 -0.0291  0.0516  0.1306
 6141SOL    HW130056   3.806   4.305   5.178  3.7382  2.0880  0.3777
 6141SOL    HW230057   3.835   4.399   5.067  0.0213  1.1738  0.4980
 6142SOL     OW30058   2.359   0.022  13.568 -0.4875 -0.5795 -0.5495
 6142SOL    HW130059   2.344   4.671  13.533  0.3197 -1.5046  1.3747
 6142SOL    HW230060   2.391   0.004  13.657 -1.5852 -0.5145 -0.1320
 6143SOL     OW30061   0.476   3.839   2.481  0.1184 -0.7098  0.0764
 6143SOL    HW130062   0.483   3.757   2.531 -0.6966  0.1794  1.6359
 6143SOL    HW230063   0.395   3.824   2.432  0.7140 -1.4827 -0.6586
 6144SOL     OW30064   3.924   2.043   5.160 -0.0518  0.7903  0.2305
 6144SOL    HW130065   3.855   1.981   5.183  0.0016  1.2422  1.5939
 6144SOL    HW230066   3.870   2.093   5.098  0.3364  0.4242 -0.4063
 6145SOL     OW30067   0.636   4.193  11.573 -0.0791 -0.0322 -0.2715
 6145SOL    HW130068   0.600   4.160  11.655 -0.4186  0.0744 -0.3788
 6145SOL    HW230069   0.722   4.151  11.575  0.5007  1.2917  1.7716
 6146SOL     OW30070   1.494   2.432   6.116 -0.8490 -0.2579 -0.3055
 6146SOL    HW130071   1.546   2.425   6.035  0.1338 -0.5286  0.3547
 6146SOL    HW230072   1.522   2.522   6.135  0.1868 -0.5286 -0.5488
 6147SOL     OW30073   3.025   0.713   7.895 -0.3492  0.1693  0.1065
 6147SOL    HW130074   2.969   0.781   7.931  1.2099  1.5176 -0.0336
 6147SOL    HW230075   3.057   0.675   7.976  1.9027 -3.4879 -2.4657
 6148SOL     OW30076   4.314   2.658   7.882 -0.3984  0.3967 -0.7493
 6148SOL    HW130077   4.267   2.576   7.870  2.2273 -1.4131  1.3880
 6148SOL    HW230078   4.264   2.709   7.946 -1.8645 -1.1995 -0.6058
 6149SOL     OW30079   2.760   0.494   5.865  0.2066  0.2402 -0.3843
 6149SOL    HW130080   2.718   0.441   5.797  1.2408 -1.1998  0.1139
 6149SOL    HW230081   2.848   0.506   5.831 -0.6839  0.5157 -2.5897
 6150SOL     OW30082   2.848   0.792   4.828 -0.0243 -0.2379  0.0262
 6150SOL    HW130083   2.850   0.825   4.739  2.1378 -1.1778 -0.2703
 6150SOL    HW230084   2.832   0.699   4.814  0.5329 -0.8175  3.2130
 6151SOL     OW30085   1.104   1.617  14.844  0.4371 -0.0063  0.1870
 6151SOL    HW130086   1.026   1.575  14.808 -0.4333 -0.1226  2.2206
 6151SOL    HW230087   1.117   1.696  14.791  2.1263  0.6159  1.5332
 6152SOL     OW30088   4.631   0.876   6.564 -0.0909  0.0338 -0.0779
 6152SOL    HW130089   4.681   0.807   6.522 -1.0340  0.1086 -1.3358
 6152SOL    HW230090   4.547   0.834   6.584 -1.7549  3.5999  0.3551
 6153SOL     OW30091   3.865   3.882   9.896 -0.3435  0.2596  0.8865
 6153SOL    HW130092   3.887   3.835   9.816 -0.1962 -1.2393  1.8098
 6153SOL    HW230093   3.950   3.881   9.940  0.2321 -0.2301 -0.2245
 6154SOL     OW30094   1.144   0.786   6.704 -0.4277  0.2775 -0.0503
 6154SOL    HW130095   1.081   0.793   6.633  0.8915  0.7869 -1.1815
 6154SOL    HW230096   1.137   0.691   6.715 -0.7759  0.1578 -1.3653
 6155SOL     OW30097   1.565   4.168  10.400  0.5598  0.0495 -0.1674
 6155SOL    HW130098   1.495   4.154  10.336 -0.2396 -0.5763  0.8432
 6155SOL    HW230099   1.598   4.254  10.375 -2.4186  1.5671  1.0267
 6156SOL     OW30100   4.326   3.662   7.920  0.4452 -0.1540 -0.4159
 6156SOL    HW130101   4.380   3.597   7.964  0.6863  0.2109 -0.1745
 6156SOL    HW230102   4.290   3.713   7.992 -0.5656 -0.9789 -0.3463
 6157SOL     OW30103   3.664   0.741   8.558  0.4939 -0.2596 -0.0394
 6157SOL    HW130104   3.671   0.646   8.571 -1.4543 -0.3191  0.5584
 6157SOL    HW230105   3.632   0.775   8.641  1.2006  0.6438 -0.1290
 6158SOL     OW30106   2.932   0.820   6.063  0.3700  0.2309  0.1904
 6158SOL    HW130107   2.918   0.820   5.968 -1.5474 -0.6463  0.4744
 6158SOL    HW230108   2.846   0.834   6.103 -0.5782 -0.2734 -1.6723
 6159SOL     OW30109   0.327   0.224  13.057  0.1273 -0.8578 -0.2288
 6159SOL    HW130110   0.257   0.169  13.022 -1.3928  1.0863 -0.2367
 6159SOL    HW230111   0.275   0.305  13.055 -2.0357 -2.2588 -0.5547
 6160SOL     OW30112   1.746   2.646   8.222  0.2206  0.3606  0.2755
 6160SOL    HW130113   1.774   2.652   8.313 -2.0581  1.1062  0.9308
 6160SOL    HW230114   1.661   2.690   8.218  0.3511  0.7227  1.7396
 6161SOL     OW30115   1.303   2.292   5.793 -0.2568 -0.0030 -0.0611
 6161SOL    HW130116   1.337   2.284   5.704 -0.7918 -1.2187 -0.1543
 6161SOL    HW230117   1.374   2.341   5.834 -1.8633  1.5988  0.8125
 6162SOL     OW30118   2.084   1.661  12.508  0.6013  0.7263 -0.1865
 6162SOL    HW130119   2.068   1.668  12.602 -0.0211  1.9257 -0.3766
 6162SOL    HW230120   2.100   1.752  12.480 -2.3622  0.8441 -1.5230
 6163SOL     OW30121   2.775   2.968   9.711  0.3069 -0.3869 -0.0996
 6163SOL    HW130122   2.751   2.985   9.802 -0.2524 -0.2975 -0.2602
 6163SOL    HW230123   2.854   3.022   9.709  1.0161 -1.2866  3.8129
 6164SOL     OW30124   4.109   4.093   1.913  0.0466 -0.5389 -0.1931
 6164SOL    HW130125   4.036   4.108   1.854  0.6539 -3.7663 -1.7736
 6164SOL    HW230126   4.074   4.139   1.990  1.9830  0.7426 -0.0754
 6165SOL     OW30127   3.281   2.058  11.260  0.0626 -0.1761 -0.1854
 6165SOL    HW130128   3.258   2.150  11.276 -1.0027 -0.1578 -1.7588
 6165SOL    HW230129   3.204   2.027  11.214  0.8811 -2.2078 -0.1939
 6166SOL     OW30130   2.426   2.521   2.902  0.2776 -1.0121 -0.6135
 6166SOL    HW130131   2.464   2.483   2.981  1.9547  1.6029 -0.1381
 6166SOL    HW230132   2.341   2.479   2.895  0.3059 -0.6735 -2.8941
 6167SOL     OW30133   4.385   0.505   7.677  0.1461 -0.2737  0.2754
 6167SOL    HW130134   4.346   0.437   7.621 -0.1966 -0.7065  1.0429
 6167SOL    HW230135   4.451   0.545   7.620  0.4497 -2.0906 -0.6673
 6168SOL     OW30136   3.331   0.809   3.214  0.0924  0.1980  0.5885
 6168SOL    HW130137   3.384   0.765   3.147 -0.0727  0.9308 -0.0250
 6168SOL    HW230138   3.310   0.734   3.269  1.2902 -0.8393 -0.3928
 6169SOL     OW30139   2.323   4.514  11.341  0.3509 -0.3057  0.3938
 6169SOL    HW130140   2.244   4.470  11.373  1.5215 -0.3945  3.2127
 6169SOL    HW230141   2.305   4.534  11.250  2.8329 -0.5843 -0.1518
 6170SOL     OW30142   4.047   1.900   3.385 -0.5909 -0.3663  0.3226
 6170SOL    HW130143   4.053   1.869   3.294 -0.3109  0.4621  0.0591
 6170SOL    HW230144   4.135   1.935   3.396 -1.1447  1.1331 -0.0171
 6171SOL     OW30145   2.557   4.659   5.285  0.0100  0.0457 -0.1513
 6171SOL    HW130146   2.497   4.649   5.359 -2.9650 -2.6976 -2.9250
 6171SOL    HW230147   2.551   4.572   5.246 -1.2781 -0.4221  1.0800
 6172SOL     OW30148   0.643   4.415   3.207  0.2687  0.7112  0.6006
 6172SOL    HW130149   0.695   4.340   3.177 -1.8121 -0.2895 -0.5678
 6172SOL    HW230150   0.592   4.383   3.281  0.3254 -1.3519 -0.2484
 6173SOL     OW30151   1.264   4.568   8.801 -0.1295 -0.1419 -0.7581
 6173SOL    HW130152   1.176   4.576   8.836 -0.3139 -2.2817 -0.7147
 6173SOL    HW230153   1.307   4.650   8.827 -2.7643  2.1881 -3.8511
 6174SOL     OW30154   1.641   1.488   2.998 -0.1696 -0.6461 -0.7493
 6174SOL    HW130155   1.609   1.400   3.020  1.4958 -0.8228  1.0080
 6174SOL    HW230156   1.622   1.496   2.905  0.9819  1.4749 -0.7961
 6175SOL     OW30157   4.148   2.652   3.733 -0.4373  0.4970 -0.5329
 6175SOL    HW130158   4.079   2.708   3.698 -0.2799  1.6148  0.9817
 6175SOL    HW230159   4.230   2.696   3.710 -1.7631  2.1494 -2.1549
 6176SOL     OW30160   3.895   0.898   6.627  0.0717  0.4814 -0.1113
 6176SOL    HW130161   3.970   0.889   6.569 -0.0294 -1.4855  0.0450
 6176SOL    HW230162   3.850   0.960   6.570  1.5847  1.2330 -0.4808
 6177SOL     OW30163   2.821   3.559   9.201 -0.4678  0.0388 -0.1622
 6177SOL    HW130164   2.832   3.471   9.235  4.0488  0.4971 -0.4890
 6177SOL    HW230165   2.749   3.585   9.259 -0.3181 -0.2354  0.1475
 6178SOL     OW30166   0.660   3.585   9.869 -0.3051 -0.1585  0.6056
 6178SOL    HW130167   0.641   3.567   9.777  0.6514  0.6267  0.2547
 6178SOL    HW230168   0.749   3.618   9.860  0.3257 -2.3358 -1.1326
 6179SOL     OW30169   3.365   4.088   0.436 -0.4808  0.3266  0.0741
 6179SOL    HW130170   3.296   4.128   0.489  0.8405 -2.5678  4.0202
 6179SOL    HW230171   3.425   4.075   0.509 -1.1870 -0.1567  0.5730
 6180SOL     OW30172   2.503   4.367   6.599  0.0105  0.2112 -0.2438
 6180SOL    HW130173   2.482   4.284   6.556  0.6133  0.6497 -1.3777
 6180SOL    HW230174   2.459   4.424   6.536  0.1224  2.3865  1.6312
 6181SOL     OW30175   4.599   3.702  12.313  0.7230  0.4102 -0.0407
 6181SOL    HW130176   4.589   3.795  12.293 -0.3154  0.5141  0.9641
 6181SOL    HW230177   4.508   3.686  12.339  1.2599  0.4814  1.8858
 6182SOL     OW30178   3.560   0.131   5.491 -0.2104 -0.5202  0.0052
 6182SOL    HW130179   3.588   0.116   5.581  1.0201  0.3738 -0.2270
 6182SOL    HW230180   3.581   0.049   5.447  0.7147 -0.9887  1.3302
 6183SOL     OW30181   3.035   0.387  16.803  0.2173  0.4902 -0.1154
 6183SOL    HW130182   3.129   0.408  16.806 -0.2488  2.5776  0.2343
 6183SOL    HW230183   3.036   0.318  16.737 -0.6876  0.9465 -0.6015
 6184SOL     OW30184   2.723   1.018   1.903  0.2466  0.0282 -0.3685
 6184SOL    HW130185   2.766   1.011   1.988  0.7342  1.0068 -0.5336
 6184SOL    HW230186   2.796   1.038   1.845 -0.9781  1.3111 -1.4604
 6185SOL     OW30187   1.771   1.373   8.897  0.4866 -0.0793 -0.2207
 6185SOL    HW130188   1.753   1.374   8.803 -0.4560 -0.1486 -0.0434
 6185SOL    HW230189   1.798   1.463   8.917 -0.7160 -0.0301  1.2306
 6186SOL     OW30190   4.146   3.816   2.532 -0.1636 -0.3921 -0.2182
 6186SOL    HW130191   4.166   3.814   2.438 -1.6378  2.1401 -0.5824
 6186SOL    HW230192   4.066   3.869   2.530 -0.5373 -0.8783  1.5607
 6187SOL     OW30193   1.155   1.992  15.399 -0.1178  0.2953 -0.4945
 6187SOL    HW130194   1.193   1.911  15.433 -2.7575 -0.8554 -0.2514
 6187SOL    HW230195   1.162   2.049  15.475 -0.0370 -1.0213  0.4957
 6188SOL     OW30196   0.347   1.170   8.419 -0.2039  0.7096  0.3052
 6188SOL    HW130197   0.349   1.137   8.509 -0.4624 -0.9822 -0.3062
 6188SOL    HW230198   0.267   1.222   8.422 -1.2249 -0.6971 -2.0415
 6189SOL     OW30199   2.877   3.209  10.011  0.6489  0.1595  0.0258
 6189SOL    HW130200   2.954   3.255  10.045 -1.0599 -0.9718  5.3940
 6189SOL    HW230201   2.923   3.171   9.936  0.3118  0.3047 -0.2597
 6190SOL     OW30202   0.274   3.450   2.755  0.4348 -0.9883 -0.4936
 6190SOL    HW130203   0.307   3.368   2.719  0.3295 -1.0999 -0.3355
 6190SOL    HW230204   0.194   3.472   2.708  0.3471 -0.3371 -0.0477
 6191SOL     OW30205   0.136   0.430   3.783 -0.3607 -0.2117  0.3917
 6191SOL    HW130206   0.217   0.440   3.833 -0.6206  2.0753  0.3188
 6191SOL    HW230207   0.101   0.342   3.796 -1.5870  0.6619  2.9387
 6192SOL     OW30208   0.635   2.473   5.791 -0.2070  0.2044  0.4098
 6192SOL    HW130209   0.711   2.511   5.747  1.1517 -2.9257  0.0856
 6192SOL    HW230210   0.637   2.510   5.879 -1.5808  0.7731  0.1981
 6193SOL     OW30211   2.968   3.381   5.604 -0.2732 -0.1786  0.1203
 6193SOL    HW130212   3.039   3.317   5.609  0.1117  0.2423  0.0797
 6193SOL    HW230213   2.991   3.426   5.523 -0.8546 -0.1875 -0.0536
 6194SOL     OW30214   4.280   2.469  13.599 -0.5709 -0.4272 -0.1313
 6194SOL    HW130215   4.265   2.522  13.521 -1.7336  0.1045  0.4600
 6194SOL    HW230216   4.316   2.536  13.658 -2.4777  0.4172  0.0605
 6195SOL     OW30217   3.383   0.830   6.839 -0.0682  0.0532 -0.0095
 6195SOL    HW130218   3.397   0.740   6.869 -0.3215 -0.9095 -2.7731
 6195SOL    HW230219   3.409   0.880   6.916 -0.2278  1.4320 -0.8317
 6196SOL     OW30220   0.454   1.882   7.829 -0.2022 -0.4234  0.2495
 6196SOL    HW130221   0.507   1.859   7.753 -0.0152 -1.8943  0.8219
 6196SOL    HW230222   0.379   1.924   7.788 -0.0090 -0.4667 -0.1485
 6197SOL     OW30223   3.834   0.907  10.513  0.4048 -0.2056  0.2642
 6197SOL    HW130224   3.911   0.946  10.556  1.9933 -2.2490 -0.6967
 6197SOL    HW230225   3.869   0.863  10.436  1.9501 -0.1233  0.9123
 6198SOL     OW30226   0.829   2.640   2.639  0.1314  0.1688  0.4740
 6198SOL    HW130227   0.808   2.570   2.577  1.2744  0.9473 -0.7747
 6198SOL    HW230228   0.745   2.656   2.683  0.7662  2.3011  0.9141
 6199SOL     OW30229   0.672   0.129   2.951  0.0565  0.1733 -0.5527
 6199SOL    HW130230   0.609   0.127   3.022 -0.3501  1.5647 -0.8835
 6199SOL    HW230231   0.624   0.066   2.896  2.4900 -0.9522 -1.4142
 6200SOL     OW30232   2.924   2.811   5.744 -0.1681 -0.1039  0.0407
 6200SOL    HW130233   2.854   2.843   5.688 -0.2308 -3.7090 -1.9651
 6200SOL    HW230234   2.876   2.756   5.807 -2.8235  2.4717  0.2253
 6201SOL     OW30235   2.377   4.012   0.064  0.4747  0.2437 -0.1879
 6201SOL    HW130236   2.428   3.934   0.085  0.9323  1.0755  1.7657
 6201SOL    HW230237   2.345   4.009  17.721 -2.9564 -1.1460  1.0438
 6202SOL     OW30238   2.965   2.161  17.179  1.0532 -0.0107  0.7798
 6202SOL    HW130239   2.894   2.222  17.160  1.9105  1.0955  1.0724
 6202SOL    HW230240   3.000   2.141  17.092  1.2879 -1.8672  1.3126
 6203SOL     OW30241   0.798   0.361   0.325  0.1822  0.5145  0.1761
 6203SOL    HW130242   0.839   0.351   0.239  3.3125  1.0759  1.5992
 6203SOL    HW230243   0.850   0.308   0.386 -0.5936 -0.2167  0.2035
 6204SOL     OW30244   4.534   2.100  11.525  0.5602  0.1145 -0.2590
 6204SOL    HW130245   4.445   2.101  11.562 -0.3111 -0.5592 -2.3201
 6204SOL    HW230246   4.507   2.113  11.434  0.2751 -0.7313 -0.2964
 6205SOL     OW30247   1.760   3.580   7.279 -0.1964 -0.6312  0.3581
 6205SOL    HW130248   1.731   3.503   7.328 -0.1448 -0.6819  0.3100
 6205SOL    HW230249   1.787   3.641   7.347 -0.6221 -0.7315  0.6148
 6206SOL     OW30250   4.660   0.956  10.453  0.1424 -0.1249 -0.2258
 6206SOL    HW130251   4.663   0.873  10.500 -1.5422  0.5879  1.1321
 6206SOL    HW230252   4.724   0.931  10.386 -0.7753  1.5979 -1.7649
 6207SOL     OW30253   4.696   2.465   6.693  0.6663 -0.0506  0.4499
 6207SOL    HW130254   0.026   2.496   6.753  1.3367  0.6366 -0.6491
 6207SOL    HW230255   4.714   2.372   6.677  0.1786  0.0128 -0.4646
 6208SOL     OW30256   3.649   1.346  15.032  0.4058 -0.1405 -0.5307
 6208SOL    HW130257   3.720   1.408  15.047 -0.3300  0.3423  0.9059
 6208SOL    HW230258   3.570   1.398  15.035  1.0396  0.7056  1.3750
 6209SOL     OW30259   4.110   0.798   7.149 -0.4148 -0.2504  0.5165
 6209SOL    HW130260   4.142   0.888   7.161  0.5012 -0.5181  0.1056
 6209SOL    HW230261   4.102   0.769   7.240  1.6176  0.3586  0.9045
 6210SOL     OW30262   2.271   0.375   5.779  0.2003 -0.2571  0.0972
 6210SOL    HW130263   2.225   0.459   5.783  0.2781 -0.1448 -1.3347
 6210SOL    HW230264   2.218   0.324   5.841 -1.9832  1.2317 -0.5255
 6211SOL     OW30265   0.282   2.544  15.007 -0.2161  0.0972  0.1848
 6211SOL    HW130266   0.323   2.491  14.939 -1.2489  2.0168 -1.9393
 6211SOL    HW230267   0.257   2.619  14.954  1.0175  0.4771  0.1454
 6212SOL     OW30268   2.757   2.529   7.225 -0.0790  0.0348 -0.1320
 6212SOL    HW130269   2.789   2.483   7.147  1.3977  0.7617  0.0451
 6212SOL    HW230270   2.776   2.619   7.200 -0.0373  0.8671  2.9060
 6213SOL     OW30271   4.509   4.433  17.467 -0.2108  0.6932  0.5941
 6213SOL    HW130272   4.496   4.519  17.508  0.1458  0.7978  0.4823
 6213SOL    HW230273   4.500   4.450  17.374 -0.9806  1.0682  0.7345
 6214SOL     OW30274   1.426   0.401   6.159 -0.7653  0.0986  0.6184
 6214SOL    HW130275   1.361   0.423   6.093 -0.2009  0.8519  0.3147
 6214SOL    HW230276   1.391   0.313   6.173  0.1183 -0.2129  0.8768
 6215SOL     OW30277   2.682   3.951   7.219  0.1778 -0.0409 -0.5084
 6215SOL    HW130278   2.636   3.867   7.216 -1.8755  1.1131 -1.8808
 6215SOL    HW230279   2.768   3.927   7.253  0.5965 -1.1910 -2.3638
 6216SOL     OW30280   3.524   4.092   8.450  0.1541 -0.0973  0.4155
 6216SOL    HW130281   3.452   4.030   8.462  2.2790 -2.1043  2.6048
 6216SOL    HW230282   3.523   4.136   8.534 -4.4862  0.9096 -0.1574
 6217SOL     OW30283   0.437   2.574   6.759  0.2465 -0.1562 -0.3297
 6217SOL    HW130284   0.480   2.529   6.686 -0.4537 -0.4155 -0.5880
 6217SOL    HW230285   0.444   2.512   6.832 -1.0395  0.5518  0.4088
 6218SOL     OW30286   0.448   0.228   2.196  0.3797 -0.8861  0.3745
 6218SOL    HW130287   0.378   0.292   2.202  1.4667  0.3541 -0.0465
 6218SOL    HW230288   0.465   0.226   2.101 -0.9672 -0.7618  0.1343
 6219SOL     OW30289   2.777   2.927  16.473  0.2509 -0.6166 -0.1741
 6219SOL    HW130290   2.872   2.934  16.478  0.1546 -0.8942  2.0455
 6219SOL    HW230291   2.760   2.990  16.403  0.3928  0.4344  0.7448
 6220SOL     OW30292   1.273   3.208   8.574  1.0419 -0.3757  0.0455
 6220SOL    HW130293   1.196   3.262   8.590 -0.4142 -1.3863 -3.4565
 6220SOL    HW230294   1.294   3.172   8.660  0.3774 -0.2964  0.2417
 6221SOL     OW30295   4.621   2.034  17.424 -0.1952  0.4175  0.2853
 6221SOL    HW130296   4.713   2.011  17.414  0.3469  1.8995  1.8367
 6221SOL    HW230297   4.630   2.128  17.440 -0.4697  0.5091 -0.1153
 6222SOL     OW30298   3.914   2.132   0.326 -0.3062  0.9144 -0.3174
 6222SOL    HW130299   3.856   2.208   0.335  0.5321  1.7986 -2.3175
 6222SOL    HW230300   3.862   2.055   0.347  2.8335 -1.5640 -1.6565
 6223SOL     OW30301   1.180   2.590   8.652  0.0430 -0.0098 -0.2501
 6223SOL    HW130302   1.164   2.642   8.574 -0.4329  1.8213  1.0617
 6223SOL    HW230303   1.109   2.615   8.711  2.3354  1.6131  1.8061
 6224SOL     OW30304   3.165   3.153   1.151 -0.5760 -0.1191 -0.5407
 6224SOL    HW130305   3.141   3.224   1.093 -0.2421  1.4978  1.3010
 6224SOL    HW230306   3.245   3.114   1.115  2.1456  5.1528 -0.1399
 6225SOL     OW30307   3.235   3.835   0.431  0.0384  0.3113  0.1537
 6225SOL    HW130308   3.263   3.927   0.438  1.1337 -0.0510  0.5471
 6225SOL    HW230309   3.264   3.821   0.341  3.0275  1.2992  0.9530
 6226SOL     OW30310   3.363   1.318   5.215  0.3038  0.1167  0.1908
 6226SOL    HW130311   3.403   1.241   5.256 -0.6976 -1.2468 -1.3760
 6226SOL    HW230312   3.347   1.287   5.125  4.2328  0.4473 -0.6042
 6227SOL     OW30313   0.931   3.585  14.244  0.0428  0.3669  0.3765
 6227SOL    HW130314   0.861   3.524  14.220 -1.1855  0.3127  4.1724
 6227SOL    HW230315   0.923   3.589  14.339  1.5134 -0.5966  0.5394
 6228SOL     OW30316   0.983   4.134   2.175  0.1984  0.2342 -0.1983
 6228SOL    HW130317   0.893   4.162   2.157  0.8092  3.0805  1.0499
 6228SOL    HW230318   1.015   4.217   2.212 -1.7866  0.5834  0.7415
 6229SOL     OW30319   2.919   4.026   1.243 -0.9694 -0.0408 -0.3121
 6229SOL    HW130320   2.860   4.089   1.202 -4.0084 -2.1280  0.8468
 6229SOL    HW230321   2.889   4.029   1.334 -0.1459  0.9362 -0.0605
 6230SOL     OW30322   3.572   2.076  14.340  0.1872  0.5420  0.0723
 6230SOL    HW130323   3.509   2.147  14.351  0.9356  1.2210  0.0113
 6230SOL    HW230324   3.608   2.105  14.256 -0.0318 -1.5545 -0.7502
 6231SOL     OW30325   1.947   2.639   8.035 -1.3030  0.1139 -0.5662
 6231SOL    HW130326   1.872   2.649   8.092  1.2151  2.2359  2.3747
 6231SOL    HW230327   1.913   2.649   7.946 -1.8186 -0.6162 -0.4524
 6232SOL     OW30328   2.619   2.594   8.749 -0.0602  0.0336 -0.1082
 6232SOL    HW130329   2.697   2.616   8.800  1.1276 -0.5863 -1.6557
 6232SOL    HW230330   2.556   2.653   8.789 -0.2221 -0.4180  0.3022
 6233SOL     OW30331   3.502   3.658   2.955  0.1830 -0.0943  0.2527
 6233SOL    HW130332   3.578   3.613   2.918 -0.3869 -0.4759 -0.4503
 6233SOL    HW230333   3.546   3.736   2.990 -0.2406 -0.3788  1.3876
 6234SOL     OW30334   3.460   0.435   4.938 -0.1300  0.2034  0.5212
 6234SOL    HW130335   3.470   0.494   5.012 -0.5990  0.9723 -0.0279
 6234SOL    HW230336   3.499   0.488   4.869 -2.7153 -0.4299 -1.4610
 6235SOL     OW30337   2.641   1.616   8.330  0.7810  0.0320 -0.0111
 6235SOL    HW130338   2.576   1.602   8.261  0.9156  0.6768 -0.2691
 6235SOL    HW230339   2.581   1.655   8.394  2.0463 -0.5844  1.5252
 6236SOL     OW30340   0.890   3.548   5.585 -0.1426 -0.5855 -0.0585
 6236SOL    HW130341   0.961   3.611   5.595  0.7468 -1.3025 -1.9054
 6236SOL    HW230342   0.830   3.608   5.540  0.9433  0.2549 -0.3685
 6237SOL     OW30343   3.233   0.046   7.575 -0.4244  0.6243 -0.0764
 6237SOL    HW130344   3.192   0.132   7.582 -0.1679  0.5700  1.9878
 6237SOL    HW230345   3.247   0.024   7.667 -0.3063 -1.7719 -0.6681
 6238SOL     OW30346   1.355   1.652  12.647  0.1857 -0.1684  0.3958
 6238SOL    HW130347   1.402   1.572  12.621 -0.6274 -0.6325  0.3520
 6238SOL    HW230348   1.353   1.698  12.564  0.7216 -0.7457  0.0612
 6239SOL     OW30349   2.537   2.615   1.823  0.5851  0.0934 -0.4096
 6239SOL    HW130350   2.510   2.623   1.915  1.8848 -0.2115 -0.0092
 6239SOL    HW230351   2.604   2.682   1.837  1.2389 -0.5659 -0.4058
 6240SOL     OW30352   4.358   3.208  15.224  0.6171 -0.5672  0.7436
 6240SOL    HW130353   4.278   3.164  15.252 -0.2484 -0.2966 -1.3367
 6240SOL    HW230354   4.346   3.303  15.222  1.8903 -0.4237 -0.1225
 6241SOL     OW30355   1.966   3.809   7.935  0.0281  0.0827  0.9012
 6241SOL    HW130356   2.009   3.774   8.013  4.6509 -1.2398 -2.2581
 6241SOL    HW230357   2.035   3.864   7.897  0.1930 -0.5246  0.3080
 6242SOL     OW30358   4.425   2.898   5.089  0.1170  0.1305 -0.3648
 6242SOL    HW130359   4.516   2.901   5.060 -0.4859  2.3563 -1.9301
 6242SOL    HW230360   4.414   2.806   5.064  1.2021 -0.0514 -0.1468
 6243SOL     OW30361   1.401   0.173   4.303 -0.3795 -0.6876  0.3488
 6243SOL    HW130362   1.485   0.133   4.279 -0.2398  0.6210 -1.3220
 6243SOL    HW230363   1.343   0.143   4.232  1.1366 -0.7461 -0.8538
 6244SOL     OW30364   3.702   3.766  12.874 -0.1809 -0.1173 -0.0085
 6244SOL    HW130365   3.744   3.769  12.960  0.0627  1.5069 -0.1929
 6244SOL    HW230366   3.785   3.781  12.830 -0.4866  1.9179  0.1178
 6245SOL     OW30367   1.750   1.588   8.434 -0.0159 -0.0830 -0.0401
 6245SOL    HW130368   1.802   1.569   8.356  1.5047 -2.0164  1.4278
 6245SOL    HW230369   1.798   1.536   8.499 -0.9042 -1.6627 -0.6498
 6246SOL     OW30370   1.108   2.138  10.154 -0.8706  0.4274 -0.2367
 6246SOL    HW130371   1.151   2.177  10.078  0.6330  0.0444  0.4207
 6246SOL    HW230372   1.185   2.121  10.209 -0.6164 -2.2115 -1.4095
 6247SOL     OW30373   0.951   1.736  15.046  0.6283 -0.0548 -0.0619
 6247SOL    HW130374   1.010   1.690  14.987  0.0790 -1.1085  0.2105
 6247SOL    HW230375   1.006   1.797  15.096 -0.4270  0.1672  0.8264
 6248SOL     OW30376   4.411   3.289   6.025  0.1961 -0.4534  0.1760
 6248SOL    HW130377   4.319   3.264   6.010 -0.3180  1.1120  0.7082
 6248SOL    HW230378   4.414   3.334   6.109  0.2719  3.2315 -1.7855
 6249SOL     OW30379   4.221   4.060   5.941  0.4207  0.3483  0.7080
 6249SOL    HW130380   4.258   4.077   5.855 -1.9475 -2.5661 -0.8961
 6249SOL    HW230381   4.265   3.982   5.977  0.8260 -0.0227 -0.6068
 6250SOL     OW30382   1.890   0.854  16.950  0.3884  0.0282  0.9598
 6250SOL    HW130383   1.982   0.861  16.974  0.4818 -0.8457  0.8721
 6250SOL    HW230384   1.862   0.939  16.917 -0.9722 -0.6087  0.4794
 6251SOL     OW30385   2.247   0.965   6.824  0.3886 -0.0961 -0.5878
 6251SOL    HW130386   2.325   0.911   6.833 -0.8174 -1.1368  3.5032
 6251SOL    HW230387   2.197   0.929   6.897 -0.5759 -1.3174 -1.8279
 6252SOL     OW30388   3.440   0.616   8.227  0.5055  0.0285  0.8187
 6252SOL    HW130389   3.465   0.708   8.235  0.2383  0.2450 -0.7330
 6252SOL    HW230390   3.345   0.615   8.238  0.3142  3.1446 -0.4555
 6253SOL     OW30391   4.492   2.787   3.308  0.1168 -0.4801 -0.6425
 6253SOL    HW130392   4.481   2.738   3.227 -0.7053  1.5596 -1.7460
 6253SOL    HW230393   4.522   2.870   3.272 -0.5318 -0.0265 -0.1261
 6254SOL     OW30394   2.659   1.928  15.741 -0.0397  0.4677  0.5612
 6254SOL    HW130395   2.753   1.945  15.741 -0.1598  1.0189 -2.0111
 6254SOL    HW230396   2.631   2.008  15.697  1.3009  1.0419  0.7717
 6255SOL     OW30397   1.161   1.444   5.045 -0.6601 -0.7610 -0.0283
 6255SOL    HW130398   1.151   1.351   5.066  0.1493 -0.2335  2.6464
 6255SOL    HW230399   1.221   1.462   5.117 -1.0300  1.2907 -0.2215
 6256SOL     OW30400   1.649   3.071   7.163  0.2587  0.4909 -0.2438
 6256SOL    HW130401   1.625   2.978   7.156  1.3341  0.2131 -0.3174
 6256SOL    HW230402   1.566   3.118   7.166 -0.3482 -0.5471 -0.7054
 6257SOL     OW30403   3.843   4.722   7.679 -0.3177  0.0619 -0.0192
 6257SOL    HW130404   3.819   4.632   7.704  1.3327 -0.2468  0.5126
 6257SOL    HW230405   3.816   0.029   7.759  1.1750 -1.0211  1.1064
 6258SOL     OW30406   1.677   1.933  17.143 -0.3407 -0.1717  0.0081
 6258SOL    HW130407   1.581   1.927  17.140 -0.4164 -0.0962  2.3886
 6258SOL    HW230408   1.685   2.027  17.124 -1.5597 -0.4176 -1.7441
 6259SOL     OW30409   2.936   1.756   4.470 -0.4259 -0.3103  0.0595
 6259SOL    HW130410   2.909   1.675   4.426 -1.4103  0.6018 -1.0028
 6259SOL    HW230411   2.853   1.797   4.494  0.3673  0.4952  1.4248
 6260SOL     OW30412   1.998   3.521   7.172  0.1000  0.1504  0.4178
 6260SOL    HW130413   1.906   3.527   7.200  0.1628  2.7121  0.0608
 6260SOL    HW230414   1.984   3.495   7.081 -2.1846  0.9060  0.5657
 6261SOL     OW30415   2.115   1.322   8.793 -0.2610  0.6981  0.2779
 6261SOL    HW130416   2.072   1.258   8.851 -1.0606  2.1937  1.3300
 6261SOL    HW230417   2.125   1.404   8.841  1.3551  0.7587 -0.1668
 6262SOL     OW30418   1.256   1.430   8.445 -0.1029 -0.6157  0.5240
 6262SOL    HW130419   1.196   1.476   8.504 -0.0228 -1.5675  1.3430
 6262SOL    HW230420   1.332   1.489   8.445  0.4104 -1.2756  1.0198
 6263SOL     OW30421   2.335   2.499   7.211 -1.0663 -0.0519 -0.0227
 6263SOL    HW130422   2.395   2.551   7.265 -0.5655 -0.0655 -0.5633
 6263SOL    HW230423   2.264   2.489   7.274 -1.7834 -0.3658 -0.8956
 6264SOL     OW30424   2.184   3.955  14.622  0.1873  0.0550 -0.3835
 6264SOL    HW130425   2.223   4.005  14.549  0.5098  0.2847 -0.0556
 6264SOL    HW230426   2.209   4.012  14.695  1.5001  0.0622 -0.8288
 6265SOL     OW30427   3.847   0.269   2.100  0.3753 -0.2537 -0.0838
 6265SOL    HW130428   3.929   0.299   2.059  1.1514 -0.0761  1.6303
 6265SOL    HW230429   3.869   0.261   2.192  0.8680 -0.1417 -0.1857
 6266SOL     OW30430   2.775   3.006   9.230  0.3699 -0.1964  0.2915
 6266SOL    HW130431   2.724   2.932   9.196 -0.3825  1.2531 -1.7117
 6266SOL    HW230432   2.863   2.969   9.218  1.1788  1.3118  1.6225
 6267SOL     OW30433   3.543   3.789   9.503  0.3776 -0.1348 -0.1562
 6267SOL    HW130434   3.514   3.878   9.481 -2.4543 -1.1868 -0.7070
 6267SOL    HW230435   3.636   3.811   9.500 -0.2414  2.4881  0.2130
 6268SOL     OW30436   1.864   3.156   7.895  0.4270 -0.4761  0.4356
 6268SOL    HW130437   1.861   3.079   7.837 -1.8994  1.0619 -1.5001
 6268SOL    HW230438   1.814   3.222   7.847  1.4043 -0.3323 -0.3871
 6269SOL     OW30439   3.267   3.399   7.780 -0.0224  0.0415 -0.0879
 6269SOL    HW130440   3.235   3.403   7.870  0.3530 -0.3549  0.0606
 6269SOL    HW230441   3.286   3.305   7.781  0.9520  0.2129 -2.1141
 6270SOL     OW30442   0.759   4.337   1.507 -0.1489  0.9448 -0.5832
 6270SOL    HW130443   0.759   4.252   1.461  2.2094  1.0509 -0.7826
 6270SOL    HW230444   0.666   4.342   1.530  0.0010 -1.7695  0.6033
 6271SOL     OW30445   2.959   1.124   0.185 -0.2405  0.1817  0.3535
 6271SOL    HW130446   2.904   1.184   0.234  0.4493  0.7379  0.4374
 6271SOL    HW230447   2.902   1.097   0.113  0.0028 -0.0987  0.2616
 6272SOL     OW30448   4.394   2.420   4.783 -0.0640 -0.0668  0.1143
 6272SOL    HW130449   4.432   2.333   4.770 -1.2679 -0.3031 -1.7843
 6272SOL    HW230450   4.317   2.391   4.833 -0.7798 -1.0927 -1.5860
 6273SOL     OW30451   1.194   4.253   5.284 -0.1001  0.0726  0.6679
 6273SOL    HW130452   1.256   4.280   5.217 -2.7746  1.0887 -1.4251
 6273SOL    HW230453   1.223   4.162   5.290 -0.2918 -0.2276 -3.3808
 6274SOL     OW30454   3.686   1.120   0.303  0.4850  0.1129  0.3134
 6274SOL    HW130455   3.662   1.028   0.293 -3.9878  1.4041 -1.2863
 6274SOL    HW230456   3.775   1.112   0.336  0.1938 -0.1549  1.0268
 6275SOL     OW30457   0.667   2.050   5.806 -0.1649  0.1807  0.6094
 6275SOL    HW130458   0.725   2.109   5.759  0.0055 -2.2170 -2.2125
 6275SOL    HW230459   0.603   2.110   5.845  1.4566  2.9085 -0.9392
 6276SOL     OW30460   2.819   4.547  12.179  0.1940  0.1504  0.0481
 6276SOL    HW130461   2.797   4.594  12.260 -1.2956  0.5430 -0.5853
 6276SOL    HW230462   2.838   4.465  12.225 -2.6825 -0.7193 -0.2951
 6277SOL     OW30463   0.089   3.830  12.002 -0.1559  0.0064 -0.8075
 6277SOL    HW130464   0.026   3.794  11.940  1.0447  0.5583 -2.3453
 6277SOL    HW230465   0.102   3.747  12.048 -0.6858 -0.1896 -1.0105
 6278SOL     OW30466   2.491   1.945   7.899 -0.6404  0.0779  0.5335
 6278SOL    HW130467   2.500   1.967   7.807  1.3694  1.6080  1.0990
 6278SOL    HW230468   2.551   2.010   7.937  0.8658 -1.4379  0.7382
 6279SOL     OW30469   3.801   4.020   6.728 -0.1289  0.4336 -0.0809
 6279SOL    HW130470   3.729   4.074   6.759  0.9112  1.6154  0.2806
 6279SOL    HW230471   3.763   3.933   6.735 -0.1412  0.4296 -0.1877
 6280SOL     OW30472   3.439   0.674   2.612  0.1920 -0.4340 -0.2832
 6280SOL    HW130473   3.351   0.638   2.609 -0.1566  0.5978 -2.2075
 6280SOL    HW230474   3.432   0.766   2.586 -1.5400 -0.7432 -0.8881
 6281SOL     OW30475   0.177   4.221   1.861  0.3592  0.2066 -0.3051
 6281SOL    HW130476   0.202   4.232   1.952 -2.0842  0.2851  0.3446
 6281SOL    HW230477   0.128   4.302   1.854 -2.1820 -1.3024  0.0716
 6282SOL     OW30478   3.051   0.539   4.061  0.1070  0.0146  0.3826
 6282SOL    HW130479   3.062   0.559   4.154 -0.4202  0.8225  0.2743
 6282SOL    HW230480   3.097   0.607   4.010  0.4452 -0.2409  0.3448
 6283SOL     OW30481   0.913   1.648   5.686 -0.4335 -0.1879  0.0457
 6283SOL    HW130482   0.979   1.594   5.643 -0.9747 -0.1312 -0.8759
 6283SOL    HW230483   0.925   1.722   5.626 -1.8049  0.3532  0.4415
 6284SOL     OW30484   3.952   0.432   6.002  0.0930 -0.1401 -0.6688
 6284SOL    HW130485   3.897   0.358   6.028 -0.4401  1.0634  1.5872
 6284SOL    HW230486   4.000   0.453   6.082  1.3363  0.7326 -1.6439
 6285SOL     OW30487   1.835   3.945  16.381  0.1675  0.0250  0.3873
 6285SOL    HW130488   1.811   3.989  16.299 -0.6442  1.2221  1.2616
 6285SOL    HW230489   1.928   3.941  16.362 -0.1385  1.0164 -1.3705
 6286SOL     OW30490   4.443   0.039   3.503 -0.6038  0.6025  0.0735
 6286SOL    HW130491   4.361   0.065   3.546 -0.7595 -1.8611  1.2680
 6286SOL    HW230492   4.448   0.103   3.432 -2.6829  1.3300  0.5833
 6287SOL     OW30493   1.594   3.030   1.602  0.4026 -0.1864 -0.0783
 6287SOL    HW130494   1.622   3.049   1.512 -0.7821  0.0483 -0.4043
 6287SOL    HW230495   1.506   3.066   1.590  0.7401  0.6310 -0.1035
 6288SOL     OW30496   1.547   1.354   0.412  0.0495  0.6898  0.0118
 6288SOL    HW130497   1.567   1.361   0.318 -0.2587  1.3239 -0.0061
 6288SOL    HW230498   1.492   1.276   0.423  0.6244  0.3552  0.4556
 6289SOL     OW30499   0.933   0.007  14.089  0.1012 -0.5899 -0.3487
 6289SOL    HW130500   0.907   0.062  14.016 -0.8336 -0.4249  0.1111
 6289SOL    HW230501   0.877   4.672  14.062  0.7149 -1.5253  0.8616
 6290SOL     OW30502   2.126   2.371   2.590 -0.4358  0.2314 -0.2645
 6290SOL    HW130503   2.133   2.276   2.576 -2.4162 -0.0056  0.4304
 6290SOL    HW230504   2.183   2.400   2.519 -0.3350 -1.3424 -0.8398
 6291SOL     OW30505   1.084   2.436  11.842  0.2238  0.1069  0.1908
 6291SOL    HW130506   1.097   2.379  11.765  0.4509 -2.2818  1.9985
 6291SOL    HW230507   1.032   2.377  11.896  1.6851 -0.1454  1.3421
 6292SOL     OW30508   1.157   3.559   3.472 -0.0935 -0.0937  0.4855
 6292SOL    HW130509   1.161   3.564   3.377 -2.7311  0.6134  0.3966
 6292SOL    HW230510   1.153   3.464   3.483 -1.2372 -0.0158  0.7972
 6293SOL     OW30511   1.611   1.781   9.382  0.2434  0.3404  0.4053
 6293SOL    HW130512   1.543   1.739   9.434 -1.9282 -0.0239 -2.7600
 6293SOL    HW230513   1.564   1.795   9.300 -2.7468 -1.7394  1.7749
 6294SOL     OW30514   1.116   1.269   1.684  0.1870  0.7438 -0.2251
 6294SOL    HW130515   1.068   1.213   1.745  0.1765  1.9681  0.9122
 6294SOL    HW230516   1.057   1.344   1.684  0.3642  0.8401 -4.3786
 6295SOL     OW30517   0.509   0.387   3.213  0.4394 -0.3904 -0.1486
 6295SOL    HW130518   0.416   0.407   3.223  0.4209 -1.1921  1.2789
 6295SOL    HW230519   0.485   0.297   3.190 -0.2373  0.4677 -2.9009
 6296SOL     OW30520   1.700   2.571  11.847 -0.0516  0.3050  0.2495
 6296SOL    HW130521   1.788   2.552  11.880 -1.2823 -0.6183  2.9732
 6296SOL    HW230522   1.637   2.555  11.917  1.2940 -0.2029  1.3241
 6297SOL     OW30523   0.692   4.506   2.947  0.2835 -0.4418  0.2705
 6297SOL    HW130524   0.600   4.503   2.920  0.6941  1.0675 -1.2399
 6297SOL    HW230525   0.676   4.503   3.042  0.1578  0.5106  0.2784
 6298SOL     OW30526   3.561   0.953  14.494  0.1587  0.1818 -0.3082
 6298SOL    HW130527   3.606   0.868  14.491 -2.4642 -1.1374 -3.3736
 6298SOL    HW230528   3.492   0.938  14.557  0.6320  2.7064  0.7678
 6299SOL     OW30529   3.722   3.554   2.786  0.0891 -0.0601 -0.3864
 6299SOL    HW130530   3.651   3.499   2.753  0.4405 -1.3665  1.0445
 6299SOL    HW230531   3.796   3.518   2.736  0.8425  1.5957 -0.4774
 6300SOL     OW30532   0.103   1.321   9.556  0.1857  0.5474 -0.6283
 6300SOL    HW130533   0.007   1.317   9.553  0.1730  2.0423 -2.2623
 6300SOL    HW230534   0.136   1.334   9.467  0.9215  1.8959 -0.1490
 6301SOL     OW30535   0.937   2.446   7.119  0.1102  0.0275  0.4170
 6301SOL    HW130536   0.967   2.459   7.030  0.2395  0.9163  0.5915
 6301SOL    HW230537   0.958   2.532   7.156 -0.7874 -0.5235  2.2017
 6302SOL     OW30538   2.750   0.988   2.536  0.1869 -0.1528 -0.0580
 6302SOL    HW130539   2.743   1.084   2.535  2.5332  0.0110 -1.6235
 6302SOL    HW230540   2.709   0.973   2.451  3.3411 -2.2268 -1.2335
 6303SOL     OW30541   0.575   2.881   5.672  0.5629 -0.3153 -0.2811
 6303SOL    HW130542   0.587   2.916   5.760 -0.8531 -2.4452  0.7549
 6303SOL    HW230543   0.491   2.919   5.649  0.8719  1.1913  1.1190
 6304SOL     OW30544   0.751   4.339   6.752  0.3073  0.2311 -0.1383
 6304SOL    HW130545   0.738   4.256   6.798 -2.1082  1.0063  0.5910
 6304SOL    HW230546   0.840   4.339   6.717  0.2605 -1.7216 -0.2644
 6305SOL     OW30547   4.680   2.114   6.160 -0.0545  0.3785 -0.1606
 6305SOL    HW130548   4.711   2.194   6.203  0.8435  0.8953 -1.7810
 6305SOL    HW230549   4.679   2.039   6.219  1.2544  0.5508  0.0715
 6306SOL     OW30550   2.812   1.209  10.958  0.0444 -0.6380 -0.3373
 6306SOL    HW130551   2.720   1.191  10.976 -0.5005  0.5533 -1.9727
 6306SOL    HW230552   2.789   1.277  10.895  1.5611  1.0922  0.9450
 6307SOL     OW30553   3.576   1.083   8.560  0.2888  0.4681 -0.0649
 6307SOL    HW130554   3.531   1.088   8.476 -0.0360  0.1784  0.0922
 6307SOL    HW230555   3.505   1.073   8.623  1.2862 -0.2416  0.9499
 6308SOL     OW30556   1.092   0.501   0.280 -0.7001 -0.2706  0.1988
 6308SOL    HW130557   1.087   0.464   0.192 -0.5838 -0.2488  0.1834
 6308SOL    HW230558   1.079   0.593   0.260 -2.5048 -0.6658 -0.4069
 6309SOL     OW30559   1.682   3.566   2.001 -0.0803 -0.5832 -0.0116
 6309SOL    HW130560   1.747   3.610   2.056  1.6290 -0.8734 -1.8179
 6309SOL    HW230561   1.706   3.476   2.025 -1.6053 -0.7146  1.0279
 6310SOL     OW30562   0.700   4.629   6.517 -0.5034 -0.8756 -0.8443
 6310SOL    HW130563   0.787   4.646   6.480  1.1486  1.2386  4.0125
 6310SOL    HW230564   0.656   4.714   6.509  0.4641 -0.3546 -0.7322
 6311SOL     OW30565   0.871   3.429   8.345 -0.3025  0.0377  0.1046
 6311SOL    HW130566   0.790   3.470   8.317 -1.6356 -2.3954  0.3886
 6311SOL    HW230567   0.915   3.423   8.261  0.7735  1.1727  0.5819
 6312SOL     OW30568   4.716   1.261   7.834 -0.1779  0.0009  0.6729
 6312SOL    HW130569   0.026   1.276   7.916  1.8173  1.3262 -0.7363
 6312SOL    HW230570   0.040   1.294   7.769  0.5064  0.9571  1.7880
 6313SOL     OW30571   2.338   1.227   0.063  0.1529 -0.3558 -0.1336
 6313SOL    HW130572   2.283   1.302   0.081  0.3417 -0.4677  0.8803
 6313SOL    HW230573   2.280   1.161   0.024 -0.9814 -0.5393  1.8809
 6314SOL     OW30574   4.077   1.140   2.093  0.5255  0.3395 -1.2914
 6314SOL    HW130575   4.058   1.138   1.999 -0.1176 -2.4832 -1.0869
 6314SOL    HW230576   4.073   1.236   2.096 -0.0595  0.2848 -0.4277
 6315SOL     OW30577   0.468   0.735   9.104 -0.3364 -0.4991 -0.1585
 6315SOL    HW130578   0.502   0.811   9.056  0.9845  0.3076  2.0270
 6315SOL    HW230579   0.377   0.760   9.089 -0.4189 -0.1699  0.8496
 6316SOL     OW30580   1.055   4.167   8.995 -0.0659 -0.2375 -0.3114
 6316SOL    HW130581   1.074   4.228   8.924 -0.2770  1.0748  0.7661
 6316SOL    HW230582   1.141   4.130   9.012 -1.1322 -2.7294 -0.2632
 6317SOL     OW30583   1.365   4.594   1.732  0.6737  0.1076  0.4221
 6317SOL    HW130584   1.328   4.508   1.751  1.2928 -0.5688 -1.4398
 6317SOL    HW230585   1.341   4.598   1.639  2.1758  0.5789  0.0612
 6318SOL     OW30586   3.183   3.144   6.748 -0.0436 -0.3113  0.1346
 6318SOL    HW130587   3.241   3.206   6.793 -0.8706  1.7296 -1.5960
 6318SOL    HW230588   3.239   3.066   6.745 -2.3882 -2.0185  0.7558
 6319SOL     OW30589   0.452   2.184   6.663 -0.4759 -0.2283 -0.6564
 6319SOL    HW130590   0.453   2.131   6.743  0.6715  0.1674 -0.4091
 6319SOL    HW230591   0.535   2.153   6.627  0.0083  0.9458 -0.5294
 6320SOL     OW30592   2.728   0.387   4.305  0.0487  0.7038  0.0998
 6320SOL    HW130593   2.812   0.426   4.325  0.3431  0.4963 -0.7532
 6320SOL    HW230594   2.697   0.374   4.395  0.8926 -1.4742  0.0679
 6321SOL     OW30595   1.059   0.251   9.183  0.3271 -0.2338  0.2459
 6321SOL    HW130596   1.149   0.233   9.213  1.2662  0.8567 -1.9500
 6321SOL    HW230597   1.067   0.233   9.089  0.9953  0.9294  0.0877
 6322SOL     OW30598   3.643   0.122   3.807  0.0257 -0.2227  0.3440
 6322SOL    HW130599   3.560   0.166   3.789  0.6393  0.4016 -0.9865
 6322SOL    HW230600   3.614   0.053   3.866 -1.2657  0.7987  0.9037
 6323SOL     OW30601   3.996   0.638   5.145  0.3169 -0.0540 -0.0124
 6323SOL    HW130602   4.031   0.693   5.075 -1.0058  0.2790 -0.4183
 6323SOL    HW230603   4.078   0.597   5.172 -1.9811 -4.0168  0.9835
 6324SOL     OW30604   4.609   0.561   0.396 -0.1575  0.4801 -0.9060
 6324SOL    HW130605   4.651   0.478   0.372  1.1120  1.1047 -0.8692
 6324SOL    HW230606   4.664   0.626   0.352  2.7441 -1.5983 -0.4038
 6325SOL     OW30607   1.408   0.994  11.555  0.6874  0.4929 -1.1299
 6325SOL    HW130608   1.386   0.984  11.462  0.9273 -0.5076 -1.0742
 6325SOL    HW230609   1.497   1.027  11.550  1.7774 -1.8986  2.6420
 6326SOL     OW30610   0.209   1.953   5.738 -0.8031  0.4793  0.1888
 6326SOL    HW130611   0.199   1.996   5.822  2.0469  0.7993  0.3638
 6326SOL    HW230612   0.199   2.022   5.672 -0.2741  0.5389  0.1708
 6327SOL     OW30613   0.215   0.698   7.206 -0.3245 -0.1258 -0.4381
 6327SOL    HW130614   0.252   0.745   7.131 -0.1641  3.0702  1.6243
 6327SOL    HW230615   0.155   0.644   7.155 -1.2931 -0.1430  0.7082
 6328SOL     OW30616   3.495   0.625  12.127  0.1451 -0.2742 -0.6215
 6328SOL    HW130617   3.414   0.599  12.084 -0.4022 -1.9530  1.4425
 6328SOL    HW230618   3.519   0.714  12.099 -1.2065  0.2549 -0.0622
 6329SOL     OW30619   0.824   4.572   6.194 -0.2565  0.1706  0.2446
 6329SOL    HW130620   0.739   4.614   6.210  0.4011  1.9904 -1.0896
 6329SOL    HW230621   0.809   4.543   6.104  1.2225 -1.9166  0.6805
 6330SOL     OW30622   2.870   0.919   8.735  0.0311 -0.3489  0.4291
 6330SOL    HW130623   2.821   0.940   8.815 -0.2544 -1.3649  0.5224
 6330SOL    HW230624   2.811   0.851   8.705 -1.7497  0.0848  2.8969
 6331SOL     OW30625   0.551   1.375   4.212  0.0440 -0.5365 -0.1201
 6331SOL    HW130626   0.509   1.387   4.127  1.8470  0.7592 -0.8262
 6331SOL    HW230627   0.537   1.280   4.217  1.9457 -0.8636 -1.0350
 6332SOL     OW30628   0.414   4.329  16.025  0.4891  0.0225 -0.1619
 6332SOL    HW130629   0.474   4.256  16.011  0.5029 -0.5512  2.9850
 6332SOL    HW230630   0.358   4.322  15.947  1.1768 -0.1966 -0.6367
 6333SOL     OW30631   4.061   0.256   8.734 -0.5868  0.4780 -0.3997
 6333SOL    HW130632   4.090   0.277   8.822 -2.1976  0.6210  0.0982
 6333SOL    HW230633   4.004   0.329   8.710 -0.6103  0.9479  1.1096
 6334SOL     OW30634   0.241   0.494   4.333 -0.1609 -0.5631  0.3694
 6334SOL    HW130635   0.164   0.440   4.315 -1.1993  1.8309 -2.4401
 6334SOL    HW230636   0.193   0.576   4.334 -0.9251 -1.0237  1.3067
 6335SOL     OW30637   1.954   1.158   6.133  0.4428  0.0343  0.2453
 6335SOL    HW130638   1.996   1.073   6.147 -0.9192 -0.6365  0.2057
 6335SOL    HW230639   1.886   1.142   6.068  1.8178  0.4992 -1.3325
 6336SOL     OW30640   0.589   4.654  14.209  0.1291  0.5007 -0.2155
 6336SOL    HW130641   0.579   4.708  14.288  2.2563  1.5238 -0.6565
 6336SOL    HW230642   0.506   4.654  14.162 -0.6976 -1.1175  1.2461
 6337SOL     OW30643   3.846   4.268  14.568  0.2571 -0.2418 -0.5737
 6337SOL    HW130644   3.785   4.219  14.512  0.0501 -2.4812  1.6244
 6337SOL    HW230645   3.790   4.266  14.645 -0.8202  1.6685 -1.3064
 6338SOL     OW30646   2.647   4.101   0.181 -0.2176  0.1506  0.1416
 6338SOL    HW130647   2.567   4.084   0.130 -0.3010  1.3343 -0.1341
 6338SOL    HW230648   2.609   4.129   0.264  1.0148  0.5171  0.5805
 6339SOL     OW30649   3.971   1.331   3.235 -0.3577 -0.1780 -0.7478
 6339SOL    HW130650   3.918   1.253   3.217 -0.8145  0.1547 -0.8232
 6339SOL    HW230651   3.898   1.393   3.237  1.3444  1.7847  0.3933
 6340SOL     OW30652   2.655   3.240   1.351 -0.2239 -0.3090  0.2568
 6340SOL    HW130653   2.685   3.151   1.372  0.2385  0.3110  2.2377
 6340SOL    HW230654   2.701   3.250   1.268 -1.8283  0.1496 -0.5723
 6341SOL     OW30655   0.100   1.380  14.210 -0.0278 -0.2928  0.2083
 6341SOL    HW130656   0.124   1.410  14.298  2.3024  1.3117 -0.9764
 6341SOL    HW230657   0.006   1.378  14.228 -0.1293 -0.1680 -0.3251
 6342SOL     OW30658   1.786   3.938   2.111  0.4100  0.8194  0.7233
 6342SOL    HW130659   1.811   4.020   2.069  1.7755  0.1764  0.2899
 6342SOL    HW230660   1.870   3.892   2.113  0.2937  0.5076 -1.1711
 6343SOL     OW30661   1.284   0.149   5.387  0.2913  0.3568  0.3451
 6343SOL    HW130662   1.224   0.075   5.381 -0.3062  0.7983  0.8282
 6343SOL    HW230663   1.359   0.094   5.362 -0.6345  0.2185 -2.1067
 6344SOL     OW30664   4.428   0.437   6.707  0.3768  0.8340  0.5144
 6344SOL    HW130665   4.411   0.412   6.798 -3.6762  0.1578 -0.4633
 6344SOL    HW230666   4.468   0.358   6.670 -1.6287 -0.6375  1.4789
 6345SOL     OW30667   2.759   3.206   1.835 -0.6177  0.1771  0.1544
 6345SOL    HW130668   2.782   3.150   1.762  0.0143 -0.5824  0.9315
 6345SOL    HW230669   2.671   3.171   1.851 -0.2154 -0.5498  0.7773
 6346SOL     OW30670   1.466   1.984  14.291 -0.2815  0.4750  0.4712
 6346SOL    HW130671   1.376   1.952  14.288  0.3205 -1.2850  1.0640
 6346SOL    HW230672   1.461   2.079  14.301 -1.9805  0.4860 -0.4455
 6347SOL     OW30673   3.994   4.218  17.107 -0.2511  0.4228 -0.4355
 6347SOL    HW130674   3.943   4.152  17.060 -0.4301 -0.9518  1.7216
 6347SOL    HW230675   3.966   4.193  17.194 -1.4607  2.8085 -0.1324
 6348SOL     OW30676   0.274   3.844  15.591  0.4458 -0.2277  0.0016
 6348SOL    HW130677   0.339   3.776  15.570  3.2210  2.2030  0.6926
 6348SOL    HW230678   0.292   3.917  15.533  1.2860 -0.7669 -0.4140
 6349SOL     OW30679   2.827   0.566   3.865 -0.9912  0.0873  0.3236
 6349SOL    HW130680   2.879   0.551   3.944  1.0231  2.5392 -0.5483
 6349SOL    HW230681   2.759   0.618   3.907 -0.3108 -0.4222  2.0623
 6350SOL     OW30682   2.489   3.467   5.923 -0.2929  0.7332  1.2712
 6350SOL    HW130683   2.451   3.554   5.933  0.2112  0.9636  1.1439
 6350SOL    HW230684   2.568   3.478   5.976  0.5893  0.9306 -0.0925
 6351SOL     OW30685   0.679   3.035   4.404  0.0123  0.0496  0.1386
 6351SOL    HW130686   0.731   2.987   4.468 -0.8580 -0.5840  0.3808
 6351SOL    HW230687   0.620   2.963   4.381  1.2445 -1.4354  1.6299
 6352SOL     OW30688   3.828   3.802   2.842 -0.3953 -0.3365  0.1993
 6352SOL    HW130689   3.840   3.835   2.753 -1.9798  1.3281  0.5873
 6352SOL    HW230690   3.779   3.721   2.829  0.0718 -0.4791 -0.6762
 6353SOL     OW30691   4.509   4.537   9.304 -0.1301 -0.5829 -0.0236
 6353SOL    HW130692   4.491   4.603   9.238 -0.7588 -0.3306  0.3922
 6353SOL    HW230693   4.440   4.556   9.368 -1.7124  1.3154 -2.3022
 6354SOL     OW30694   2.506   3.556  17.150  0.1814  0.1331  0.1979
 6354SOL    HW130695   2.427   3.560  17.203  0.3568  0.4683  0.4335
 6354SOL    HW230696   2.568   3.523  17.215  0.4774 -2.1059 -1.1944
 6355SOL     OW30697   2.837   1.298   5.764 -0.3402  0.2727  0.3436
 6355SOL    HW130698   2.882   1.226   5.719 -0.7418 -0.4647  1.1385
 6355SOL    HW230699   2.819   1.251   5.845  0.6937  1.7939  1.4453
 6356SOL     OW30700   1.484   2.562   1.971 -1.0508  0.1778  0.3497
 6356SOL    HW130701   1.531   2.605   2.042  2.1332 -3.1712  0.2551
 6356SOL    HW230702   1.498   2.631   1.906  1.8115 -1.7076 -1.0442
 6357SOL     OW30703   2.101   4.225   3.031  0.4102  0.2775 -0.6063
 6357SOL    HW130704   2.007   4.219   3.016  0.2336  0.9572  0.1827
 6357SOL    HW230705   2.123   4.316   3.012 -0.4856  0.4289 -0.9165
 6358SOL     OW30706   2.640   2.519   6.196  0.0896 -0.7999  0.1897
 6358SOL    HW130707   2.548   2.535   6.177  0.0439 -1.0237  0.2186
 6358SOL    HW230708   2.638   2.432   6.237  0.3808 -1.2269 -0.7095
 6359SOL     OW30709   1.198   2.734   6.770 -0.4412 -0.2548  0.3713
 6359SOL    HW130710   1.284   2.704   6.740 -0.8450  0.1941 -1.2729
 6359SOL    HW230711   1.216   2.811   6.823  0.3568 -0.4779  0.4170
 6360SOL     OW30712   2.353   1.955  13.904  0.1622  0.2388 -0.2062
 6360SOL    HW130713   2.315   1.873  13.936 -0.9056  0.3704 -1.1247
 6360SOL    HW230714   2.278   2.014  13.897  1.2968  1.7061  0.0358
 6361SOL     OW30715   1.567   4.716  13.934  0.1541 -0.5753 -0.4341
 6361SOL    HW130716   1.595   4.728  13.843  1.8987  4.8613  0.7973
 6361SOL    HW230717   1.659   4.722  13.961 -0.8374  1.5928  2.4790
 6362SOL     OW30718   2.931   1.784   5.852  0.0864 -0.6095 -0.1379
 6362SOL    HW130719   2.988   1.820   5.921 -1.0906  2.6771 -0.8996
 6362SOL    HW230720   2.985   1.714   5.815  1.5872  0.2687  0.4025
 6363SOL     OW30721   3.683   2.982   5.174 -0.0069  0.2581  0.0274
 6363SOL    HW130722   3.681   3.056   5.114  1.5710  0.2934  0.0315
 6363SOL    HW230723   3.742   3.015   5.240  0.0922 -0.2634  0.2028
 6364SOL     OW30724   3.647   1.339   8.650 -0.6511 -0.3367  0.0896
 6364SOL    HW130725   3.641   1.263   8.592  2.8605 -0.2252 -0.4336
 6364SOL    HW230726   3.717   1.309   8.708  1.6945  2.3712 -1.3453
 6365SOL     OW30727   0.682   3.148  14.705  0.7032  0.3169  0.5261
 6365SOL    HW130728   0.589   3.163  14.688  0.5693 -1.0221  0.1157
 6365SOL    HW230729   0.695   3.075  14.645  1.6132  1.7176 -0.9713
 6366SOL     OW30730   3.179   2.529   0.672 -0.1990 -0.6569 -0.6218
 6366SOL    HW130731   3.112   2.493   0.730  1.5945  2.0058  3.0914
 6366SOL    HW230732   3.255   2.502   0.724 -0.8658  1.2617  1.3012
 6367SOL     OW30733   0.081   0.685  11.768 -0.1989  0.6327 -0.3768
 6367SOL    HW130734   0.008   0.637  11.806  0.3196  0.8475  0.8743
 6367SOL    HW230735   0.038   0.769  11.785  1.6136  1.1209  1.7749
 6368SOL     OW30736   4.217   1.653   9.826  0.7383  0.1116 -0.4567
 6368SOL    HW130737   4.197   1.622   9.738  0.5424 -1.2674  0.0633
 6368SOL    HW230738   4.171   1.587   9.878  1.5491 -1.3321 -1.5975
 6369SOL     OW30739   3.289   2.247  17.057 -0.3836  0.6560 -0.0963
 6369SOL    HW130740   3.347   2.191  17.006 -1.9413 -1.1490  0.1164
 6369SOL    HW230741   3.205   2.218  17.019  1.3396 -3.4229 -0.8190
 6370SOL     OW30742   3.101   3.436   8.684 -0.2452  0.0600 -0.0124
 6370SOL    HW130743   3.023   3.488   8.705  1.6202  2.3401  1.2694
 6370SOL    HW230744   3.089   3.363   8.745 -0.1476 -0.9794 -1.2337
 6371SOL     OW30745   0.349   1.265   1.780  0.3473 -0.2735 -0.1603
 6371SOL    HW130746   0.312   1.337   1.729  1.9255  0.8201  0.2632
 6371SOL    HW230747   0.273   1.226   1.824 -1.0256 -2.5505 -4.5074
 6372SOL     OW30748   2.335   4.229   3.718 -0.5607 -0.5473 -0.3373
 6372SOL    HW130749   2.385   4.259   3.643 -0.5492 -0.0833 -0.1429
 6372SOL    HW230750   2.367   4.138   3.717  2.2389  0.4326  1.0541
 6373SOL     OW30751   2.872   1.564   7.238  0.1919  0.4163  0.2466
 6373SOL    HW130752   2.873   1.543   7.332 -1.3522  2.0305  0.6182
 6373SOL    HW230753   2.959   1.597   7.217  0.4618 -1.1466 -1.1060
 6374SOL     OW30754   3.615   4.072   4.026  0.4032 -0.9117  0.8496
 6374SOL    HW130755   3.610   4.004   4.093  2.5635 -0.8036  1.1196
 6374SOL    HW230756   3.572   4.142   4.074 -1.3201 -1.5313  0.1797
 6375SOL     OW30757   2.721   1.705   3.734  0.0691  0.5924  0.2519
 6375SOL    HW130758   2.664   1.701   3.811 -1.2315 -0.6779 -0.7767
 6375SOL    HW230759   2.800   1.735   3.780  1.1347 -3.2377  0.9634
 6376SOL     OW30760   2.624   0.144  11.386 -0.5144 -0.6546 -0.0314
 6376SOL    HW130761   2.540   0.111  11.418 -1.1749  1.8949  0.8339
 6376SOL    HW230762   2.688   0.105  11.445 -0.2310 -2.1095 -1.3144
 6377SOL     OW30763   1.537   0.189  16.384 -0.8037 -0.5255  0.2286
 6377SOL    HW130764   1.490   0.272  16.390  0.8450  0.4464 -0.4106
 6377SOL    HW230765   1.611   0.217  16.331  0.4242 -0.1145  2.1978
 6378SOL     OW30766   1.016   1.870  13.742  0.0119 -0.0116 -0.0725
 6378SOL    HW130767   0.954   1.858  13.670  0.0568  0.6174 -0.2147
 6378SOL    HW230768   0.947   1.847  13.803  0.4216 -3.1930 -0.8089
 6379SOL     OW30769   0.261   3.383   1.907  0.2073  0.4309 -0.2261
 6379SOL    HW130770   0.244   3.476   1.919  2.3120  0.9218 -1.0329
 6379SOL    HW230771   0.308   3.357   1.987  0.0331  1.5735  0.2529
 6380SOL     OW30772   4.304   2.130   2.753  0.0372  0.3252 -0.1520
 6380SOL    HW130773   4.317   2.069   2.825  0.1961  1.7328  0.9996
 6380SOL    HW230774   4.316   2.067   2.681 -1.7034  1.4817 -1.4549
 6381SOL     OW30775   3.851   2.452   4.186  0.2433  0.3157  0.1977
 6381SOL    HW130776   3.900   2.378   4.222  0.8588  0.9223  0.6276
 6381SOL    HW230777   3.869   2.439   4.093 -0.5476 -0.0432  0.1023
 6382SOL     OW30778   3.499   2.047   3.146  0.5520  0.0636  0.2456
 6382SOL    HW130779   3.472   2.122   3.093  0.9975  1.1029  1.4804
 6382SOL    HW230780   3.521   1.983   3.078 -1.9621 -0.2245 -0.2711
 6383SOL     OW30781   1.341   1.720   2.758 -0.3113 -0.3921 -0.0143
 6383SOL    HW130782   1.332   1.625   2.749  1.3574 -0.5819  0.4083
 6383SOL    HW230783   1.386   1.726   2.842  1.7347  1.1108 -1.2304
 6384SOL     OW30784   3.777   2.006   1.537 -0.1616 -0.2002 -0.0665
 6384SOL    HW130785   3.816   2.092   1.528  0.6257 -0.7880 -2.4223
 6384SOL    HW230786   3.851   1.967   1.584  0.5642  0.0119 -1.0257
 6385SOL     OW30787   4.462   1.271   6.518 -0.3941  0.4551 -0.2191
 6385SOL    HW130788   4.439   1.243   6.606 -2.0859 -0.3669 -0.9254
 6385SOL    HW230789   4.381   1.301   6.477  0.1737  1.9957 -0.2102
 6386SOL     OW30790   4.483   1.594   2.668  0.2653 -0.0923 -0.3152
 6386SOL    HW130791   4.444   1.509   2.651  1.3085 -0.6453  0.0806
 6386SOL    HW230792   4.411   1.656   2.656  0.6560  0.3443 -0.4180
 6387SOL     OW30793   1.733   1.739   2.318  0.3134  0.1842 -0.3165
 6387SOL    HW130794   1.791   1.669   2.289  3.9441  2.9004  0.2609
 6387SOL    HW230795   1.790   1.812   2.293 -0.0587  0.1662 -1.2078
 6388SOL     OW30796   1.633   3.094  15.845 -0.9137 -0.5046 -0.2176
 6388SOL    HW130797   1.612   3.156  15.915 -0.5570 -2.6458  1.7607
 6388SOL    HW230798   1.727   3.108  15.831 -0.6063 -1.1207  1.2673
 6389SOL     OW30799   2.823   1.245   9.124  0.1440  0.3232 -0.2549
 6389SOL    HW130800   2.804   1.200   9.042 -0.3203  1.3210 -0.6923
 6389SOL    HW230801   2.789   1.175   9.180  1.9307  1.1734  1.8848
 6390SOL     OW30802   4.735   2.383   7.717 -0.0184  0.7659 -0.3037
 6390SOL    HW130803   4.650   2.361   7.680 -1.3155  2.3270  1.7488
 6390SOL    HW230804   4.718   2.461   7.770 -0.0069 -0.1425  1.0436
 6391SOL     OW30805   1.662   1.809  11.101  0.0133  0.1859 -0.2663
 6391SOL    HW130806   1.746   1.769  11.122  0.2095 -0.0092 -1.4553
 6391SOL    HW230807   1.609   1.797  11.180 -0.9066  0.9198 -0.7582
 6392SOL     OW30808   0.561   0.426   7.173  0.3229  0.2950 -0.1540
 6392SOL    HW130809   0.583   0.500   7.230  1.3930  0.9396 -1.4123
 6392SOL    HW230810   0.627   0.444   7.107  1.6176 -1.4433  0.6718
 6393SOL     OW30811   3.468   3.699  10.125  0.1062 -0.5414  0.2397
 6393SOL    HW130812   3.514   3.751  10.060 -1.8863 -0.7429 -1.3175
 6393SOL    HW230813   3.509   3.612  10.117  1.5608  0.1325  0.2703
 6394SOL     OW30814   4.187   1.123  13.078  0.0074  0.5536  0.3092
 6394SOL    HW130815   4.238   1.186  13.027  0.8512 -0.2333  0.1723
 6394SOL    HW230816   4.235   1.041  13.091 -0.9939  0.1337  1.3282
 6395SOL     OW30817   0.876   3.810   7.280  0.0491 -0.2212  0.1316
 6395SOL    HW130818   0.799   3.774   7.237  0.3639  1.3753 -1.7722
 6395SOL    HW230819   0.873   3.777   7.369  0.2804  0.7509  0.5018
 6396SOL     OW30820   0.267   2.823   7.967  0.6946 -0.0148  0.1808
 6396SOL    HW130821   0.217   2.893   7.926  2.0366  0.0427 -1.3899
 6396SOL    HW230822   0.260   2.856   8.057  1.2765  0.3966  0.0740
 6397SOL     OW30823   3.601   3.404   2.397  0.1084  0.1333  0.2415
 6397SOL    HW130824   3.561   3.396   2.484  1.6736  0.0714  0.9733
 6397SOL    HW230825   3.553   3.482   2.369 -0.0734 -0.3971 -0.9155
 6398SOL     OW30826   4.363   0.546  13.301 -0.6868 -0.0779 -0.1201
 6398SOL    HW130827   4.354   0.451  13.295 -0.1306 -0.0828 -0.8603
 6398SOL    HW230828   4.273   0.574  13.287 -0.3963  0.4957 -0.8284
 6399SOL     OW30829   1.885   1.772  10.078 -0.1476  0.1724  0.1369
 6399SOL    HW130830   1.805   1.721  10.064  2.4761 -3.5933 -1.2085
 6399SOL    HW230831   1.913   1.743  10.165  0.0732  0.0674  0.0312
 6400SOL     OW30832   0.927   1.307  11.008 -0.0346 -0.4304 -0.9305
 6400SOL    HW130833   0.891   1.380  10.958  1.0082 -0.3315 -1.5289
 6400SOL    HW230834   0.871   1.311  11.086 -0.6198  1.9587 -1.4612
 6401SOL     OW30835   2.287   0.908  14.615 -0.5525 -0.3235 -0.1356
 6401SOL    HW130836   2.228   0.843  14.577 -0.4192 -0.7864  0.4517
 6401SOL    HW230837   2.240   0.988  14.596  0.4853 -0.1426 -1.9630
 6402SOL     OW30838   3.536   2.096   3.529  0.3368  0.4950  0.2267
 6402SOL    HW130839   3.555   2.031   3.461 -0.9372 -1.4613  1.7559
 6402SOL    HW230840   3.624   2.133   3.540  0.3950  0.2235  0.6762
 6403SOL     OW30841   1.136   3.145   2.994  0.0124  0.6576 -0.0971
 6403SOL    HW130842   1.178   3.214   2.943 -2.5802  1.6221 -0.9303
 6403SOL    HW230843   1.205   3.080   2.983 -1.7033 -1.2062  0.1326
 6404SOL     OW30844   0.815   0.019   4.017 -0.2163 -0.5268  0.3541
 6404SOL    HW130845   0.782   0.082   4.081  0.4162 -0.4668  0.6242
 6404SOL    HW230846   0.873   4.698   4.066 -1.6324 -2.6937 -0.5665
 6405SOL     OW30847   2.475   0.887  11.660 -0.6786  0.0772 -0.1337
 6405SOL    HW130848   2.506   0.881  11.750 -2.3392  3.1999  0.6264
 6405SOL    HW230849   2.383   0.864  11.672  0.0503 -2.5794  0.4312
 6406SOL     OW30850   0.440   0.085   8.462  0.1913 -0.0879  0.8472
 6406SOL    HW130851   0.436   4.728   8.443  2.2681 -0.2790  1.4232
 6406SOL    HW230852   0.459   0.089   8.555  0.1937 -1.1134  0.8896
 6407SOL     OW30853   0.566   2.508   1.531  0.0718  0.5968 -0.2139
 6407SOL    HW130854   0.537   2.474   1.616  1.5376 -0.1414 -0.0155
 6407SOL    HW230855   0.652   2.467   1.523 -0.2912 -0.0472 -0.9060
 6408SOL     OW30856   2.208   2.499   3.529  0.4076 -0.2836  0.9156
 6408SOL    HW130857   2.120   2.470   3.504 -0.8018  3.6441  0.5877
 6408SOL    HW230858   2.245   2.421   3.572 -0.8598 -1.4436 -0.1023
 6409SOL     OW30859   3.501   1.352   6.472  0.0584 -0.2647 -0.4438
 6409SOL    HW130860   3.493   1.312   6.559  2.3790  0.4016  0.0661
 6409SOL    HW230861   3.501   1.443   6.501  2.0239 -0.5461  0.4642
 6410SOL     OW30862   4.043   2.228   3.524 -0.4296 -0.5185  0.0431
 6410SOL    HW130863   4.073   2.138   3.516 -0.1672 -0.2099 -2.4503
 6410SOL    HW230864   4.118   2.272   3.484 -1.0271  0.9052  0.4750
 6411SOL     OW30865   0.425   3.060   3.490 -0.2724  0.1915 -0.1011
 6411SOL    HW130866   0.467   3.007   3.422 -2.6854 -0.4933 -1.0519
 6411SOL    HW230867   0.454   3.145   3.460 -2.4297  0.5303 -1.2290
 6412SOL     OW30868   3.822   4.386   4.824  0.2271  0.2175 -0.5277
 6412SOL    HW130869   3.801   4.456   4.763 -0.2025  0.6987  0.1663
 6412SOL    HW230870   3.769   4.417   4.898 -0.0805  1.4793 -1.2852
 6413SOL     OW30871   0.285   1.010   4.575 -0.5374  0.5095  0.0952
 6413SOL    HW130872   0.269   0.926   4.619  0.9490  0.0008 -0.3261
 6413SOL    HW230873   0.235   1.081   4.615  2.1860  1.7232  1.3638
 6414SOL     OW30874   0.489   4.588   6.676  0.4256  0.2559  0.4861
 6414SOL    HW130875   0.569   4.566   6.628  0.0624 -1.8601  0.8396
 6414SOL    HW230876   0.499   4.682   6.685  1.5750  0.2154 -0.3613
 6415SOL     OW30877   1.104   3.069   2.442  0.5080 -0.0336 -0.2359
 6415SOL    HW130878   1.132   2.981   2.417 -1.6706 -1.1503  1.2789
 6415SOL    HW230879   1.009   3.064   2.443  0.4915 -0.1481 -1.5296
 6416SOL     OW30880   0.489   3.455   2.406 -0.1515 -0.3177 -0.2033
 6416SOL    HW130881   0.576   3.420   2.386  0.0550 -0.2560  0.6215
 6416SOL    HW230882   0.509   3.546   2.427  3.6796 -0.9313 -1.1740
 6417SOL     OW30883   1.277   1.010  11.311 -0.3779  0.0169  0.0353
 6417SOL    HW130884   1.276   1.101  11.281  0.5046 -0.5472 -1.7737
 6417SOL    HW230885   1.273   0.966  11.226 -1.0660  0.5940 -0.2267
 6418SOL     OW30886   1.951   3.754  14.320  0.2103 -0.6414  0.1110
 6418SOL    HW130887   1.982   3.670  14.351  2.9758  0.7475  1.0755
 6418SOL    HW230888   1.932   3.810  14.395  0.9025  0.6229 -0.6518
 6419SOL     OW30889   1.928   3.113   3.561  0.0226  0.1040  0.5056
 6419SOL    HW130890   1.990   3.144   3.495  1.6433 -1.5523  1.2519
 6419SOL    HW230891   1.966   3.025   3.567 -0.4037 -0.0322  1.2900
 6420SOL     OW30892   1.434   3.131   6.115  0.1680 -0.1200 -0.8089
 6420SOL    HW130893   1.384   3.093   6.043 -0.0374 -1.2162 -0.0858
 6420SOL    HW230894   1.367   3.178   6.164  2.1384  2.5333 -0.6289
 6421SOL     OW30895   3.384   4.161   0.900  0.5699  0.3883 -0.4114
 6421SOL    HW130896   3.355   4.094   0.838  1.2029 -1.0616  0.8847
 6421SOL    HW230897   3.431   4.213   0.835  3.1076 -5.3377 -3.1259
 6422SOL     OW30898   2.086   2.142   6.557 -0.5217 -0.3414 -0.3668
 6422SOL    HW130899   2.006   2.169   6.511 -0.7599  0.8606  0.7510
 6422SOL    HW230900   2.142   2.114   6.484 -0.9604 -1.3779 -0.3187
 6423SOL     OW30901   2.536   4.516   3.688 -0.2585  0.3944 -0.5744
 6423SOL    HW130902   2.580   4.601   3.687 -0.2933  0.4112 -0.6755
 6423SOL    HW230903   2.488   4.530   3.769 -0.3776  3.7277 -1.2267
 6424SOL     OW30904   2.748   3.170   7.111 -0.3297 -0.0378  0.5029
 6424SOL    HW130905   2.791   3.103   7.059  0.1585  1.5652 -1.1541
 6424SOL    HW230906   2.707   3.224   7.044  2.3273 -0.9911 -1.9026
 6425SOL     OW30907   4.086   2.420   4.679 -0.1181 -0.1943 -0.0662
 6425SOL    HW130908   4.029   2.486   4.717  1.2832  0.8693  0.2179
 6425SOL    HW230909   4.124   2.380   4.757  0.4927 -0.9150 -0.7298
 6426SOL     OW30910   3.313   2.398   2.179  0.7762 -0.5650 -0.3629
 6426SOL    HW130911   3.236   2.356   2.217  0.6556  0.7312  0.8036
 6426SOL    HW230912   3.354   2.419   2.263  0.4815  0.0980 -0.3926
 6427SOL     OW30913   3.778   2.157   4.215  0.2847  0.5552  0.4305
 6427SOL    HW130914   3.845   2.121   4.273 -0.1763 -3.9050 -1.7470
 6427SOL    HW230915   3.706   2.187   4.270 -0.5955 -1.5338  0.4413
 6428SOL     OW30916   0.991   2.651  10.411  0.6054  0.8074  0.3021
 6428SOL    HW130917   0.958   2.569  10.446 -1.4719  1.7679  0.5817
 6428SOL    HW230918   0.918   2.709  10.432 -2.1531 -2.0181 -1.4815
 6429SOL     OW30919   2.611   2.421   3.816  0.3367 -0.0604  0.0194
 6429SOL    HW130920   2.652   2.350   3.865  0.3833 -0.3184 -0.3971
 6429SOL    HW230921   2.573   2.362   3.751 -2.4818  1.2201  0.4708
 6430SOL     OW30922   3.926   0.159  15.717  0.0151 -0.2443 -0.0107
 6430SOL    HW130923   3.894   0.069  15.710 -2.5866  0.4835  2.3452
 6430SOL    HW230924   3.869   0.207  15.656  2.3438  2.2850 -0.1970
 6431SOL     OW30925   2.880   1.382   2.148 -0.2571 -0.1530  0.3464
 6431SOL    HW130926   2.815   1.418   2.208  0.2426 -0.5430  1.1242
 6431SOL    HW230927   2.823   1.387   2.071  0.8137 -2.0095 -0.5632
 6432SOL     OW30928   1.360   0.726   9.795 -0.4905 -0.0755 -0.1457
 6432SOL    HW130929   1.382   0.727   9.702  3.6753  0.5923  0.8515
 6432SOL    HW230930   1.421   0.790   9.831 -2.2103  1.0528  0.7682
 6433SOL     OW30931   3.878   0.702   7.031  0.1594  0.1434  0.0341
 6433SOL    HW130932   3.942   0.744   7.088  0.6730 -1.6075  0.7394
 6433SOL    HW230933   3.840   0.777   6.985  0.7533  0.1958 -0.3738
 6434SOL     OW30934   0.874   3.557   6.296  0.0581  0.5604 -0.3969
 6434SOL    HW130935   0.824   3.622   6.247 -1.1294  0.4575  0.6955
 6434SOL    HW230936   0.882   3.597   6.382  2.4836 -2.5809  0.8589
 6435SOL     OW30937   0.464   1.360   1.037 -0.5952 -0.1021  0.3391
 6435SOL    HW130938   0.412   1.372   1.116 -1.8879  0.0376 -0.5302
 6435SOL    HW230939   0.554   1.364   1.067 -0.2757 -1.0988 -0.4760
 6436SOL     OW30940   2.024   0.354   0.567  0.0461  0.0843  0.1556
 6436SOL    HW130941   1.952   0.306   0.608 -0.4099  1.7635  1.2694
 6436SOL    HW230942   2.028   0.299   0.488  2.3794 -0.6974  0.7959
 6437SOL     OW30943   1.479   1.664  16.110  0.4702  0.3971 -0.1935
 6437SOL    HW130944   1.523   1.587  16.074 -1.4751 -0.5623 -0.4996
 6437SOL    HW230945   1.399   1.653  16.058  0.7063  2.1334 -0.9659
 6438SOL     OW30946   4.325   4.064   9.832  0.0809 -0.0473  0.4139
 6438SOL    HW130947   4.293   4.141   9.879 -0.5510 -1.7526  2.7711
 6438SOL    HW230948   4.394   4.047   9.896 -2.0350 -1.6473  2.2446
 6439SOL     OW30949   4.057   2.091  15.666 -0.5512  0.2801 -0.0842
 6439SOL    HW130950   4.103   2.007  15.666  0.5037  0.8501  1.3888
 6439SOL    HW230951   4.127   2.141  15.625 -1.0052  0.9946  0.0262
 6440SOL     OW30952   1.285   1.864  14.963 -0.6777  0.5493 -0.2252
 6440SOL    HW130953   1.233   1.842  14.886  1.0057  0.8483 -1.4303
 6440SOL    HW230954   1.213   1.889  15.022  2.2372  0.2297  3.4520
 6441SOL     OW30955   2.195   0.019   6.765  0.1134  0.5761 -0.1855
 6441SOL    HW130956   2.156   4.671   6.744  3.4158  0.0035 -4.0182
 6441SOL    HW230957   2.243   4.733   6.843 -0.1026  0.3456 -0.1201
 6442SOL     OW30958   4.278   4.128   8.143 -0.3547 -0.2421  0.1876
 6442SOL    HW130959   4.287   4.224   8.143  1.2590 -0.3902  0.5249
 6442SOL    HW230960   4.282   4.109   8.049 -4.1148  1.7970 -0.3586
 6443SOL     OW30961   2.264   4.559   8.192  0.2190  0.2200  0.1006
 6443SOL    HW130962   2.191   4.590   8.139  1.0845  1.2582 -0.4917
 6443SOL    HW230963   2.219   4.565   8.276 -0.3912  1.0207 -0.2886
 6444SOL     OW30964   0.192   4.134  16.751  0.0024 -0.0608  0.2736
 6444SOL    HW130965   0.108   4.117  16.793 -0.9950  1.8564 -0.9532
 6444SOL    HW230966   0.230   4.194  16.815 -1.5533  1.9784 -0.7413
 6445SOL     OW30967   4.039   1.196  16.521  0.8171 -0.1122  0.4125
 6445SOL    HW130968   4.070   1.245  16.597  2.3581 -0.4539  0.0123
 6445SOL    HW230969   3.945   1.202  16.536  0.9330 -0.9269  1.5066
 6446SOL     OW30970   1.202   1.211   9.305  0.2044  0.3598  0.2523
 6446SOL    HW130971   1.142   1.145   9.340  1.1216  0.0583  1.2428
 6446SOL    HW230972   1.259   1.158   9.249  1.7868  1.3260  0.9722
 6447SOL     OW30973   2.464   1.946   0.702  0.3470  0.1574  0.0364
 6447SOL    HW130974   2.496   1.961   0.613 -0.2642  0.2329 -0.1666
 6447SOL    HW230975   2.437   1.854   0.706  0.2334  0.1112 -1.9984
 6448SOL     OW30976   1.030   0.532   6.788  0.1347 -0.0338 -0.3586
 6448SOL    HW130977   1.039   0.499   6.877 -1.0229  0.8316  0.0844
 6448SOL    HW230978   0.939   0.563   6.792  0.6672  1.9275 -3.0580
 6449SOL     OW30979   0.496   2.059  14.379  0.1054  0.2218 -0.3868
 6449SOL    HW130980   0.410   2.017  14.372  0.3971 -0.3806 -0.3161
 6449SOL    HW230981   0.469   2.120  14.447 -1.8629  0.8748 -1.7377
 6450SOL     OW30982   4.359   0.702   6.623  0.7155 -0.2930 -0.2206
 6450SOL    HW130983   4.382   0.613   6.595  2.1465 -0.2217  0.6998
 6450SOL    HW230984   4.272   0.678   6.655  0.6011  1.4785  0.7961
 6451SOL     OW30985   0.856   3.108   3.835  0.1262  0.4040  0.1291
 6451SOL    HW130986   0.768   3.087   3.867 -0.0326 -1.4287 -1.5182
 6451SOL    HW230987   0.839   3.198   3.808 -1.2141 -0.0457 -0.5629
 6452SOL     OW30988   3.597   3.246   6.640  0.5529  0.0627 -0.0151
 6452SOL    HW130989   3.556   3.252   6.554  0.6096 -1.6008 -0.1657
 6452SOL    HW230990   3.663   3.314   6.627  2.7923 -2.4530 -1.9294
 6453SOL     OW30991   0.112   3.790   0.341 -0.0211  0.0727 -0.0182
 6453SOL    HW130992   0.022   3.812   0.365  0.1176  0.2576  0.3441
 6453SOL    HW230993   0.155   3.810   0.425  0.4008  1.7271 -0.6183
 6454SOL     OW30994   2.908   0.396   5.139  0.1922 -0.4191 -0.2228
 6454SOL    HW130995   2.841   0.401   5.072 -0.8632 -2.9994  0.6342
 6454SOL    HW230996   2.965   0.467   5.110  1.3336 -0.5969  1.5896
 6455SOL     OW30997   3.604   1.606  11.979  0.1909  0.4218 -0.1120
 6455SOL    HW130998   3.603   1.558  12.062  0.8050  0.5521 -0.0248
 6455SOL    HW230999   3.545   1.678  12.000  0.9428  0.6597  1.2198
 6456SOL     OW31000   1.472   0.340   3.805  0.1460  0.0231  0.0427
 6456SOL    HW131001   1.437   0.317   3.719  0.7279 -1.4215  0.1829
 6456SOL    HW231002   1.548   0.282   3.810  0.0067 -0.1574  0.0682
 6457SOL     OW31003   0.358   1.595  14.166  0.4521 -0.0505 -0.2920
 6457SOL    HW131004   0.396   1.517  14.126 -0.5561 -0.7781  0.1581
 6457SOL    HW231005   0.426   1.662  14.170  0.3554  0.0312 -0.0178
 6458SOL     OW31006   1.186   1.323  17.061  0.3564  0.2415 -0.4861
 6458SOL    HW131007   1.144   1.404  17.033  1.2744  0.4633 -1.2280
 6458SOL    HW231008   1.186   1.271  16.981 -0.5267 -0.1254 -0.2415
 6459SOL     OW31009   0.489   3.578  11.502  0.8843  0.2085 -0.1374
 6459SOL    HW131010   0.451   3.655  11.543  1.4226 -0.8016  2.2782
 6459SOL    HW231011   0.476   3.603  11.410 -1.3467  2.8859  0.9021
 6460SOL     OW31012   4.671   2.865   9.050 -0.1129 -0.0291 -0.1774
 6460SOL    HW131013   4.678   2.953   9.013  1.1979 -0.5112 -1.0598
 6460SOL    HW231014   4.587   2.845   9.010 -1.0089  1.5162  0.8735
 6461SOL     OW31015   3.380   0.182   2.573  0.4101  0.4961 -0.2853
 6461SOL    HW131016   3.326   0.240   2.628 -0.5894 -0.6864 -0.0290
 6461SOL    HW231017   3.414   0.247   2.511 -2.3849  4.4766  2.3262
 6462SOL     OW31018   1.602   1.525   3.639 -0.0639 -0.2510  0.1263
 6462SOL    HW131019   1.559   1.447   3.675 -0.3178 -0.0164  0.3275
 6462SOL    HW231020   1.695   1.509   3.655 -0.3007 -3.8267 -1.9165
 6463SOL     OW31021   0.763   3.372  14.150 -0.2798  0.3231 -0.3101
 6463SOL    HW131022   0.682   3.326  14.172  0.3447 -0.1646  0.9835
 6463SOL    HW231023   0.810   3.309  14.095  3.0696  1.4776  1.2011
 6464SOL     OW31024   4.464   1.205   4.689  0.5946 -0.0843 -0.4452
 6464SOL    HW131025   4.525   1.277   4.673  2.2152 -0.9323  1.7576
 6464SOL    HW231026   4.387   1.239   4.645 -1.3679 -2.5638  1.0827
 6465SOL     OW31027   2.445   3.890   5.130  0.3521 -0.0178  0.1328
 6465SOL    HW131028   2.420   3.802   5.103  0.7332  0.2255 -1.0050
 6465SOL    HW231029   2.528   3.886   5.178 -0.4575  1.8616  1.7412
 6466SOL     OW31030   2.578   4.657   2.284  0.2363  0.2507 -0.1604
 6466SOL    HW131031   2.641   4.676   2.215  0.6867 -0.4359  0.0714
 6466SOL    HW231032   2.515   4.728   2.270  1.0455  1.0000  0.0240
 6467SOL     OW31033   3.002   0.582   2.096 -0.8280  0.7263 -0.2559
 6467SOL    HW131034   3.030   0.622   2.014 -0.9452  2.3907  0.5239
 6467SOL    HW231035   2.980   0.654   2.155 -1.5968  0.4489 -0.2087
 6468SOL     OW31036   2.269   2.217   8.360  0.1095 -0.4443 -0.0665
 6468SOL    HW131037   2.331   2.285   8.332 -0.9961  0.0252 -1.4068
 6468SOL    HW231038   2.254   2.166   8.280 -0.9384  1.3691 -1.0435
 6469SOL     OW31039   2.470   1.792   6.692 -0.1161 -0.3470 -0.1091
 6469SOL    HW131040   2.432   1.737   6.624 -0.4850  0.0971 -0.2676
 6469SOL    HW231041   2.394   1.846   6.713 -0.8009 -1.3846  0.0810
 6470SOL     OW31042   3.921   2.634   4.810  0.5236  0.0832 -0.0657
 6470SOL    HW131043   3.886   2.675   4.889  1.1503 -0.8554  0.7038
 6470SOL    HW231044   3.964   2.705   4.764 -2.8761  1.1649 -1.6118
 6471SOL     OW31045   3.838   2.395   1.951 -0.0029 -0.2321  0.0700
 6471SOL    HW131046   3.903   2.324   1.959  0.2560 -0.0675 -0.6081
 6471SOL    HW231047   3.760   2.340   1.940  1.7638 -2.8645  0.6361
 6472SOL     OW31048   1.090   2.459   2.312 -0.0246 -0.4657 -0.0392
 6472SOL    HW131049   1.103   2.412   2.394  4.0737  0.1962 -0.3431
 6472SOL    HW231050   1.017   2.416   2.266 -0.1020  1.7839 -2.0098
 6473SOL     OW31051   4.490   1.283   5.483 -0.6383 -0.0885  0.3362
 6473SOL    HW131052   4.399   1.283   5.454 -0.2369  2.3464 -0.9488
 6473SOL    HW231053   4.514   1.359   5.430  0.1033  0.9919  2.2300
 6474SOL     OW31054   3.284   1.994   9.371 -0.3122  0.2393 -0.1803
 6474SOL    HW131055   3.339   1.969   9.296  0.0553  1.8895 -0.4608
 6474SOL    HW231056   3.343   2.052   9.419  0.2803  0.9998 -1.8039
 6475SOL     OW31057   3.753   1.795   8.393 -0.5808 -0.0417  0.4237
 6475SOL    HW131058   3.769   1.820   8.484 -1.6069  3.1327 -0.2797
 6475SOL    HW231059   3.772   1.702   8.402  0.4240  0.1491  0.2875
 6476SOL     OW31060   3.914   3.164  15.356  0.0252 -0.2128 -0.1403
 6476SOL    HW131061   3.995   3.114  15.346  0.4841  0.3208  0.9466
 6476SOL    HW231062   3.947   3.251  15.380 -1.9334 -0.4467  3.2905
 6477SOL     OW31063   3.205   0.714   1.916  0.0054  0.5388  0.6540
 6477SOL    HW131064   3.278   0.775   1.909  0.7665 -0.9022 -3.7686
 6477SOL    HW231065   3.243   0.629   1.938 -0.7426  0.0796  0.1824
 6478SOL     OW31066   2.518   4.407  17.614 -0.3358 -0.0180  0.4362
 6478SOL    HW131067   2.579   4.351  17.566 -0.7522 -0.7504  0.7631
 6478SOL    HW231068   2.561   4.397  17.699 -1.5490 -0.6232  0.9842
 6479SOL     OW31069   1.867   1.339  10.539  0.0617  0.0450 -0.1818
 6479SOL    HW131070   1.906   1.292  10.613  1.8717 -0.5550 -1.5219
 6479SOL    HW231071   1.947   1.337  10.486  0.2207 -2.5881  0.1424
 6480SOL     OW31072   2.608   4.532  14.287 -0.1278  0.0561  0.1576
 6480SOL    HW131073   2.526   4.568  14.322  0.1029  2.2044 -1.5210
 6480SOL    HW231074   2.632   4.478  14.363  1.4263 -1.2531 -1.2716
 6481SOL     OW31075   0.898   1.422  11.898  0.2901  0.3952  0.1747
 6481SOL    HW131076   0.963   1.352  11.900  2.4477  2.3965  0.0745
 6481SOL    HW231077   0.921   1.466  11.981 -1.6028 -0.1054  0.9572
 6482SOL     OW31078   3.375   2.513  14.162  0.6201  0.3355 -0.6730
 6482SOL    HW131079   3.381   2.605  14.135 -0.2991  1.1070  1.7169
 6482SOL    HW231080   3.285   2.487  14.142  0.2574  2.3576 -1.6493
 6483SOL     OW31081   3.568   2.539   4.475 -0.5826  0.0272 -0.4258
 6483SOL    HW131082   3.575   2.546   4.571 -0.9700 -0.3207 -0.3716
 6483SOL    HW231083   3.658   2.553   4.447 -0.3580  0.7147  0.6334
 6484SOL     OW31084   0.869   1.925   9.158 -0.1099  0.0708 -0.5847
 6484SOL    HW131085   0.875   1.832   9.135 -0.9128  0.0304 -0.6453
 6484SOL    HW231086   0.773   1.933   9.152 -0.4983 -2.8580  1.6151
 6485SOL     OW31087   0.111   1.656   5.327  0.4047 -0.4964 -0.0228
 6485SOL    HW131088   0.063   1.716   5.271  0.2624  1.4037  2.1239
 6485SOL    HW231089   0.194   1.705   5.329 -1.1513  2.1173  0.4052
 6486SOL     OW31090   2.046   3.447   5.510 -0.3939 -0.3643  0.4835
 6486SOL    HW131091   2.107   3.519   5.494 -0.7149  0.2059  1.8308
 6486SOL    HW231092   1.994   3.457   5.430  2.0795  2.0125 -0.8459
 6487SOL     OW31093   3.169   0.803  14.968  0.3695 -0.5683 -0.3350
 6487SOL    HW131094   3.179   0.802  15.063  2.5815  0.8432 -0.5477
 6487SOL    HW231095   3.253   0.765  14.943 -0.2731 -1.1819 -1.5899
 6488SOL     OW31096   1.681   2.431  15.670  0.0411 -0.0743  0.3975
 6488SOL    HW131097   1.737   2.414  15.594 -0.7062 -0.4958 -0.0601
 6488SOL    HW231098   1.724   2.511  15.702 -0.3179  0.7138 -1.0964
 6489SOL     OW31099   1.021   1.056  12.644  0.1980 -0.1810  0.6727
 6489SOL    HW131100   1.108   1.073  12.680  0.5919  0.1653 -0.4494
 6489SOL    HW231101   0.968   1.092  12.715  0.2431  0.6831  0.2717
 6490SOL     OW31102   1.066   4.321  10.150  0.1315 -0.3655  0.1299
 6490SOL    HW131103   0.993   4.260  10.153  1.4606 -1.9697  0.2440
 6490SOL    HW231104   1.136   4.259  10.172 -0.1195 -0.4311  0.7297
 6491SOL     OW31105   2.219   2.793   1.998 -0.4942  0.0599 -0.2365
 6491SOL    HW131106   2.278   2.757   2.064  0.1291 -0.7491 -1.2355
 6491SOL    HW231107   2.145   2.733   2.004 -0.6813  0.1427 -1.6450
 6492SOL     OW31108   1.390   1.172  14.498 -0.0639  0.1319  0.0612
 6492SOL    HW131109   1.409   1.132  14.413  1.0862 -0.5370  0.6195
 6492SOL    HW231110   1.381   1.266  14.481 -1.0804 -0.1121 -0.7423
 6493SOL     OW31111   4.623   0.528   2.348 -0.1963 -0.6576  0.7557
 6493SOL    HW131112   4.647   0.618   2.368  0.0058 -0.4392 -0.4570
 6493SOL    HW231113   4.685   0.472   2.395 -0.3135  0.0627  1.7730
 6494SOL     OW31114   1.690   1.612   5.505  0.4885  0.3679  0.1067
 6494SOL    HW131115   1.667   1.531   5.550  0.4513  0.3968  0.1394
 6494SOL    HW231116   1.652   1.685   5.555 -0.1695 -0.5624  0.9560
 6495SOL     OW31117   2.680   0.049   5.050  0.5716 -0.4852  0.0890
 6495SOL    HW131118   2.764   0.074   5.086  0.9122  0.4566 -1.3828
 6495SOL    HW231119   2.618   0.031   5.121  1.2705 -2.2170  0.2577
 6496SOL     OW31120   1.238   1.581  15.955 -0.0349  0.0706 -0.6708
 6496SOL    HW131121   1.199   1.570  16.042  1.4139 -1.6819 -0.2586
 6496SOL    HW231122   1.192   1.522  15.895 -1.4288 -0.0816  0.5680
 6497SOL     OW31123   3.705   4.406   8.521  0.0376  0.0784 -0.0388
 6497SOL    HW131124   3.612   4.410   8.543 -0.6170 -1.3642 -2.4629
 6497SOL    HW231125   3.720   4.491   8.479  1.3868  0.2261  0.7413
 6498SOL     OW31126   1.696   2.457   8.924 -0.0005  0.0087  0.2233
 6498SOL    HW131127   1.623   2.448   8.984 -1.7788 -0.0063 -1.9313
 6498SOL    HW231128   1.762   2.451   8.993  1.6665 -1.1798 -1.4856
 6499SOL     OW31129   1.323   0.913   4.715  0.0668  0.2005 -0.1725
 6499SOL    HW131130   1.355   0.981   4.655  0.9827  1.1761  1.4290
 6499SOL    HW231131   1.230   0.904   4.695  0.9357 -2.5030 -2.8941
 6500SOL     OW31132   2.937   2.728   7.566  0.1300 -0.2500 -0.0105
 6500SOL    HW131133   2.988   2.659   7.523 -0.3046  0.4576 -1.6777
 6500SOL    HW231134   3.002   2.789   7.599 -0.0421 -0.6316  1.0233
 6501SOL     OW31135   4.154   2.685   1.645  0.0813 -0.3860 -0.1465
 6501SOL    HW131136   4.162   2.778   1.623  1.2918 -0.6307 -0.7757
 6501SOL    HW231137   4.206   2.685   1.725  0.9399  2.0237 -0.7061
 6502SOL     OW31138   3.163   4.147   1.308  0.2113 -0.4124  0.0958
 6502SOL    HW131139   3.167   4.140   1.404 -0.3144  1.9279  0.2923
 6502SOL    HW231140   3.096   4.081   1.289  0.0767 -0.7930  1.8932
 6503SOL     OW31141   1.615   3.664   8.838 -0.9963  0.2223 -0.5195
 6503SOL    HW131142   1.558   3.614   8.780 -2.5461  0.1925  1.0422
 6503SOL    HW231143   1.593   3.753   8.812 -0.3653  0.1486 -1.2944
 6504SOL     OW31144   3.915   4.428   7.450  0.0441 -0.1416  0.0386
 6504SOL    HW131145   3.954   4.386   7.526  3.0461  1.2114 -0.7628
 6504SOL    HW231146   3.968   4.390   7.380 -4.4267 -2.1072 -2.3108
 6505SOL     OW31147   2.858   4.524  17.611  0.6124  0.1620 -0.0377
 6505SOL    HW131148   2.952   4.510  17.598  0.5789  0.6469 -0.7879
 6505SOL    HW231149   2.831   4.440  17.573 -0.4442  1.1294 -1.4149
 6506SOL     OW31150   3.075   0.375   2.267  0.0185  0.2927 -0.4531
 6506SOL    HW131151   3.020   0.443   2.229 -0.8827 -0.0679  0.2138
 6506SOL    HW231152   3.159   0.411   2.239 -0.4626  1.2871 -0.5974
 6507SOL     OW31153   4.299   4.734   3.216 -0.5543  0.1018 -0.1223
 6507SOL    HW131154   4.327   4.705   3.129  1.4629  1.7637 -0.0239
 6507SOL    HW231155   4.231   4.670   3.236 -1.6328  1.6104  1.0471
 6508SOL     OW31156   0.860   3.011   2.513 -0.3587 -0.4685 -0.0920
 6508SOL    HW131157   0.818   3.035   2.595  0.3988  0.2442  0.0873
 6508SOL    HW231158   0.794   3.038   2.449 -0.0362 -0.0903 -0.2628
 6509SOL     OW31159   2.103   3.353  15.330 -0.9650 -0.2976 -0.6459
 6509SOL    HW131160   2.151   3.415  15.275  1.2482 -0.5154  1.0563
 6509SOL    HW231161   2.078   3.408  15.403 -0.1347  0.5772 -1.0217
 6510SOL     OW31162   0.403   1.489  11.569  0.2679 -0.6160  0.0758
 6510SOL    HW131163   0.470   1.486  11.637 -0.9759 -3.1324  1.2259
 6510SOL    HW231164   0.458   1.498  11.491  0.9666  1.5715  0.8325
 6511SOL     OW31165   2.078   0.432   0.930 -0.6600  0.6803  0.0399
 6511SOL    HW131166   2.096   0.511   0.879 -0.4137  1.0742  0.7384
 6511SOL    HW231167   2.007   0.400   0.874 -0.8373  1.2852 -0.0902
 6512SOL     OW31168   1.124   1.901   6.117  0.5264 -0.7293 -0.0778
 6512SOL    HW131169   1.029   1.911   6.109  0.8681 -0.7786 -4.1588
 6512SOL    HW231170   1.146   1.879   6.027 -0.5521 -0.9098 -0.2965
 6513SOL     OW31171   3.599   2.960   2.230 -0.2884 -0.0989  0.4100
 6513SOL    HW131172   3.580   3.030   2.168 -1.0503  1.5314  2.5033
 6513SOL    HW231173   3.645   3.005   2.301  1.6470  0.3114 -1.1267
 6514SOL     OW31174   1.051   0.247  10.126 -0.2066  0.1555 -0.2664
 6514SOL    HW131175   0.981   0.184  10.111 -0.1361 -0.3389  1.5152
 6514SOL    HW231176   1.022   0.338  10.119  0.5479  0.4892  0.9802
 6515SOL     OW31177   4.409   3.001   2.464 -0.0006  0.9199 -0.3431
 6515SOL    HW131178   4.364   2.929   2.419  2.1452 -0.7489  0.1483
 6515SOL    HW231179   4.491   2.956   2.484 -1.1053  0.6560  3.5985
 6516SOL     OW31180   3.983   4.189   9.697  0.3785  0.1410 -0.0077
 6516SOL    HW131181   4.077   4.203   9.689  0.4516 -0.6271 -0.4409
 6516SOL    HW231182   3.954   4.207   9.608  0.9471  1.3189  0.0429
 6517SOL     OW31183   3.869   3.182   9.125 -0.4652  0.3588 -0.0203
 6517SOL    HW131184   3.783   3.142   9.111 -0.4615 -0.0245  1.0639
 6517SOL    HW231185   3.879   3.162   9.218  1.1461 -1.4960 -0.5918
 6518SOL     OW31186   0.602   1.976   5.303 -0.0738  0.5279 -0.0554
 6518SOL    HW131187   0.569   2.010   5.220 -1.8096 -1.8911 -0.3534
 6518SOL    HW231188   0.537   2.014   5.363 -1.3797  1.8830 -2.3368
 6519SOL     OW31189   1.313   1.188   2.644  0.3807 -0.2253  0.7028
 6519SOL    HW131190   1.313   1.184   2.548  0.3537 -1.1353  0.7362
 6519SOL    HW231191   1.255   1.119   2.676  0.1922 -0.2614  0.2782
 6520SOL     OW31192   3.698   2.990  15.320  0.3702 -0.1851 -0.4450
 6520SOL    HW131193   3.704   2.949  15.406  0.7492  0.7082 -0.0344
 6520SOL    HW231194   3.757   3.063  15.339 -0.2062 -0.4807  2.5328
 6521SOL     OW31195   1.080   2.879  16.346  0.0551 -0.4223 -0.3567
 6521SOL    HW131196   1.165   2.921  16.358  0.3186 -0.3953 -2.3375
 6521SOL    HW231197   1.061   2.854  16.437  0.8200  1.1234  0.2163
 6522SOL     OW31198   2.610   0.352   4.891 -1.0389  0.2163 -0.6401
 6522SOL    HW131199   2.529   0.398   4.871 -0.6624  0.5521 -1.3976
 6522SOL    HW231200   2.612   0.354   4.987  0.5268 -3.5263 -0.5942
 6523SOL     OW31201   1.990   4.612   4.536  0.4795 -0.1780 -0.3578
 6523SOL    HW131202   2.011   4.696   4.577 -0.2412  0.7824 -1.9340
 6523SOL    HW231203   2.006   4.558   4.613  0.9523  1.4420  0.6722
 6524SOL     OW31204   2.059   2.592   3.269 -0.5111 -0.0592  0.5871
 6524SOL    HW131205   1.982   2.640   3.240 -1.0310 -2.5843 -2.2143
 6524SOL    HW231206   2.110   2.665   3.304  0.2199  0.3577 -1.3794
 6525SOL     OW31207   0.187   1.313   9.269 -0.0205 -0.7480 -0.2846
 6525SOL    HW131208   0.272   1.354   9.254  0.2431 -0.7606  1.2257
 6525SOL    HW231209   0.134   1.372   9.214  0.2958 -1.2265 -1.1111
 6526SOL     OW31210   0.415   0.738  16.107  0.2812  0.0873 -0.2093
 6526SOL    HW131211   0.446   0.821  16.145 -3.5885  2.3359 -1.9487
 6526SOL    HW231212   0.323   0.754  16.088 -0.6665 -1.1541  3.4079
 6527SOL     OW31213   2.661   2.356  13.711 -0.4418 -0.0552  0.4402
 6527SOL    HW131214   2.627   2.432  13.759 -1.0680  0.6617 -1.1288
 6527SOL    HW231215   2.609   2.294  13.763 -1.3551 -0.1614 -0.5921
 6528SOL     OW31216   2.016   2.690   4.878 -0.3416  0.0214 -0.5959
 6528SOL    HW131217   2.031   2.741   4.958 -2.2892 -0.5770  0.1730
 6528SOL    HW231218   2.056   2.742   4.809  0.7141 -0.1364 -0.1003
 6529SOL     OW31219   2.971   0.574  15.317  0.2231 -0.1293 -0.8303
 6529SOL    HW131220   3.021   0.622  15.251  0.1147  0.7176 -0.2953
 6529SOL    HW231221   2.891   0.624  15.305  1.3533  2.3066  1.7536
 6530SOL     OW31222   4.110   1.619  14.054 -0.0577 -0.8589  0.0094
 6530SOL    HW131223   4.124   1.709  14.026 -1.4671 -0.7585 -0.3469
 6530SOL    HW231224   4.049   1.638  14.124 -0.0300  1.4167 -0.5871
 6531SOL     OW31225   4.506   1.018   8.118 -0.5846  0.2558  0.7100
 6531SOL    HW131226   4.563   1.003   8.042 -2.6887  0.0849 -0.8565
 6531SOL    HW231227   4.423   1.023   8.070 -0.2661 -1.2596 -0.0056
 6532SOL     OW31228   0.657   3.711   6.156  0.2489  0.2037 -0.0586
 6532SOL    HW131229   0.638   3.800   6.127  4.1092  1.1501  0.2383
 6532SOL    HW231230   0.581   3.659   6.130  1.6581 -1.5942 -0.5487
 6533SOL     OW31231   3.090   2.523   7.491 -0.3204  0.7243  0.1310
 6533SOL    HW131232   3.082   2.444   7.437  2.2019 -0.0366  0.8714
 6533SOL    HW231233   3.178   2.558   7.479 -0.0684  0.7599  2.1489
 6534SOL     OW31234   1.312   1.336   9.549  0.1236  0.0306 -0.2630
 6534SOL    HW131235   1.301   1.346   9.643  1.5485  2.5078 -0.3563
 6534SOL    HW231236   1.357   1.251   9.548  1.0773  0.5183  1.2123
 6535SOL     OW31237   0.021   1.533   2.649 -0.0886  0.3891 -0.1755
 6535SOL    HW131238   0.066   1.573   2.723 -0.1472  1.6454 -0.8172
 6535SOL    HW231239   4.686   1.593   2.634  0.6895  0.7791 -2.4795
 6536SOL     OW31240   2.609   1.560   7.298  0.3325  0.0182  0.1237
 6536SOL    HW131241   2.573   1.474   7.321 -0.8786  0.6032  0.4352
 6536SOL    HW231242   2.703   1.548   7.288  0.4024  0.9230 -0.2859
 6537SOL     OW31243   3.794   2.454   8.225 -0.0104  0.4417  0.0688
 6537SOL    HW131244   3.737   2.480   8.297 -0.3211  0.5899 -0.2329
 6537SOL    HW231245   3.736   2.475   8.153 -0.9552  0.9405  0.9753
 6538SOL     OW31246   4.612   4.441  12.151  0.2959 -0.2922  0.5384
 6538SOL    HW131247   4.632   4.535  12.155 -0.4143 -0.2283  2.6583
 6538SOL    HW231248   4.533   4.450  12.098 -0.2041 -3.3706  0.7926
 6539SOL     OW31249   1.467   0.380   6.502  0.3590  0.3814 -0.4916
 6539SOL    HW131250   1.462   0.328   6.422  0.6104 -0.6537  0.1699
 6539SOL    HW231251   1.374   0.394   6.520 -0.0828 -0.8900 -1.8168
 6540SOL     OW31252   2.754   1.097   9.339  0.5762 -0.0950  0.5795
 6540SOL    HW131253   2.683   1.131   9.394 -2.0268 -0.3416 -2.6051
 6540SOL    HW231254   2.795   1.026   9.388 -0.5109  0.0010  1.6240
 6541SOL     OW31255   4.482   2.667  11.433  0.3995 -0.4135  0.2790
 6541SOL    HW131256   4.475   2.706  11.346  2.7220  0.7175  0.5787
 6541SOL    HW231257   4.496   2.739  11.494  1.0160 -0.4960  0.2351
 6542SOL     OW31258   3.843   2.466   9.364  0.6046  0.0883  0.1443
 6542SOL    HW131259   3.769   2.405   9.367 -0.3394  1.2024 -1.0735
 6542SOL    HW231260   3.810   2.545   9.407 -0.5821  0.1952 -0.9688
 6543SOL     OW31261   4.654   0.516   3.987 -0.6528 -0.3673  0.4484
 6543SOL    HW131262   4.688   0.482   3.905 -0.9350 -0.2398  0.2794
 6543SOL    HW231263   4.588   0.582   3.967 -0.6391  0.3271  2.6443
 6544SOL     OW31264   2.921   3.437   2.358 -0.0095  0.7031 -0.4508
 6544SOL    HW131265   3.003   3.479   2.384  0.3214  1.2471 -2.3470
 6544SOL    HW231266   2.856   3.508   2.350 -1.1665  0.0515  3.0452
 6545SOL     OW31267   2.617   2.169   3.601 -0.0808  0.5693  0.6489
 6545SOL    HW131268   2.628   2.099   3.665  0.0566 -1.8317 -1.9771
 6545SOL    HW231269   2.668   2.127   3.531 -0.4849  1.1916 -0.0135
 6546SOL     OW31270   4.427   0.813   2.817  0.4891  0.4223  0.1591
 6546SOL    HW131271   4.400   0.731   2.858  0.4542  1.2441  1.7656
 6546SOL    HW231272   4.381   0.876   2.871  0.1378 -0.4164  0.8275
 6547SOL     OW31273   0.211   2.688   2.452 -0.4836 -0.2817  0.1745
 6547SOL    HW131274   0.305   2.674   2.436 -0.4709 -0.5554  0.4829
 6547SOL    HW231275   0.184   2.744   2.379 -1.8664 -1.5640 -0.2873
 6548SOL     OW31276   4.417   2.241  17.235  0.0944  0.1873  0.3674
 6548SOL    HW131277   4.341   2.295  17.259  0.6053  0.9619  0.2368
 6548SOL    HW231278   4.403   2.164  17.290 -2.7451  1.2629  1.1556
 6549SOL     OW31279   2.235   2.870  13.808 -0.0478  0.1673 -0.5417
 6549SOL    HW131280   2.320   2.827  13.804  0.3080  0.8142  0.0883
 6549SOL    HW231281   2.250   2.942  13.869 -0.9530  0.8055 -1.0663
 6550SOL     OW31282   3.276   0.738  11.665  0.0505  0.4388 -0.9419
 6550SOL    HW131283   3.229   0.821  11.658  0.9346  0.5980 -4.7303
 6550SOL    HW231284   3.351   0.787  11.700  1.1857 -1.6778 -0.4467
 6551SOL     OW31285   3.940   3.888   3.201  0.0033  0.5263 -0.4397
 6551SOL    HW131286   3.981   3.886   3.287  0.8655  0.4049 -0.8555
 6551SOL    HW231287   3.878   3.961   3.209 -1.9239 -1.3943  2.1963
 6552SOL     OW31288   2.989   1.017   9.696  0.2888 -0.6160 -1.0135
 6552SOL    HW131289   2.916   0.986   9.642  0.0204 -1.3896 -0.2093
 6552SOL    HW231290   3.052   1.063   9.640  2.6573 -1.0117  1.3425
 6553SOL     OW31291   0.889   1.804  14.511 -0.2179 -0.5489  0.0141
 6553SOL    HW131292   0.894   1.854  14.430 -1.0228  0.8462  0.8145
 6553SOL    HW231293   0.809   1.835  14.555  0.0645 -1.4886  1.1698
 6554SOL     OW31294   1.756   2.630   7.484 -0.3063  0.4736  0.5264
 6554SOL    HW131295   1.836   2.597   7.526 -1.0091  0.4651  1.8712
 6554SOL    HW231296   1.773   2.724   7.482 -1.5819  0.6776 -0.6891
 6555SOL     OW31297   2.779   4.239  17.571  0.8797 -0.3952  0.9243
 6555SOL    HW131298   2.743   4.155  17.599  0.9495 -0.7483 -0.0355
 6555SOL    HW231299   2.821   4.212  17.489 -1.2104 -2.3666  0.4909
 6556SOL     OW31300   2.869   1.638   3.433 -0.3782  0.6852 -0.0036
 6556SOL    HW131301   2.784   1.652   3.391  0.4168 -3.6405 -3.0787
 6556SOL    HW231302   2.920   1.693   3.373 -1.8299  2.8387  0.7118
 6557SOL     OW31303   3.690   2.687   9.137  0.3568  0.1437  0.5760
 6557SOL    HW131304   3.748   2.720   9.069 -0.7995  0.7916 -0.0928
 6557SOL    HW231305   3.608   2.734   9.121 -0.6746 -1.5096  1.0653
 6558SOL     OW31306   2.853   4.023   1.498  0.0246 -0.2486 -0.3812
 6558SOL    HW131307   2.759   4.002   1.504  0.3228 -1.2268  0.6770
 6558SOL    HW231308   2.846   4.115   1.525  1.1717 -0.1091 -0.5928
 6559SOL     OW31309   1.426   0.314   3.121 -0.0424 -0.0492 -0.3861
 6559SOL    HW131310   1.347   0.279   3.163  1.5753 -0.6858  2.0655
 6559SOL    HW231311   1.405   0.281   3.033  1.3513 -0.0030 -0.7353
 6560SOL     OW31312   3.140   2.679   0.060 -0.0691 -0.4425 -0.1087
 6560SOL    HW131313   3.233   2.658   0.048 -0.0688 -0.8500  0.5784
 6560SOL    HW231314   3.097   2.599   0.031 -0.3476 -0.6946  1.0268
 6561SOL     OW31315   1.386   4.670   8.551 -0.2614 -0.1967  0.0276
 6561SOL    HW131316   1.369   4.626   8.634 -2.0619  0.3809 -0.0183
 6561SOL    HW231317   1.321   4.630   8.493 -0.1895 -0.3778  0.0731
 6562SOL     OW31318   2.785   1.744   9.204 -0.0239  0.0029  0.0674
 6562SOL    HW131319   2.834   1.808   9.153  1.3331  1.1346  2.8072
 6562SOL    HW231320   2.851   1.674   9.201 -1.9355 -1.8008 -0.1302
 6563SOL     OW31321   2.801   0.823   2.877  0.1858  0.2953 -0.5016
 6563SOL    HW131322   2.710   0.849   2.891  0.9476  2.8217 -0.3468
 6563SOL    HW231323   2.793   0.739   2.832  0.0383  0.5251 -0.9080
 6564SOL     OW31324   0.923   4.569  15.603  0.6692 -0.1110  0.2201
 6564SOL    HW131325   0.828   4.568  15.615  0.8805  1.0013  2.0464
 6564SOL    HW231326   0.953   4.549  15.692  1.9148  1.3551  0.1250
 6565SOL     OW31327   3.074   0.356  16.303  0.3636 -0.2617  0.0146
 6565SOL    HW131328   3.030   0.274  16.279 -2.3528  0.2474  3.1998
 6565SOL    HW231329   2.996   0.410  16.291  1.5980  1.9911  2.0601
 6566SOL     OW31330   0.392   3.759   0.075  0.0735  0.1826  0.3723
 6566SOL    HW131331   0.408   3.805   0.157  1.5568 -2.0145  1.3121
 6566SOL    HW231332   0.307   3.800   0.061  0.6176  0.8653 -0.8738
 6567SOL     OW31333   2.735   1.576  13.321 -0.0014 -0.2014 -0.3426
 6567SOL    HW131334   2.677   1.628  13.266  1.5046 -1.6781 -3.3240
 6567SOL    HW231335   2.715   1.486  13.294 -3.1887  0.2637  0.4671
 6568SOL     OW31336   3.282   4.678   6.588  0.2726 -0.0629 -1.0796
 6568SOL    HW131337   3.323   0.004   6.529 -0.4664 -0.1320 -1.6686
 6568SOL    HW231338   3.294   4.729   6.668 -0.4836  0.7982 -1.5211
 6569SOL     OW31339   1.156   0.955   2.670 -0.2255 -0.1146  0.0260
 6569SOL    HW131340   1.217   0.893   2.631  1.0319  2.1579 -1.5977
 6569SOL    HW231341   1.111   0.901   2.735  0.7101 -2.3779 -1.2296
 6570SOL     OW31342   1.811   0.722   2.364  0.2460  0.6433  0.1242
 6570SOL    HW131343   1.739   0.775   2.399 -0.0620 -0.2360  0.8358
 6570SOL    HW231344   1.757   0.647   2.339  0.8303  0.5822 -0.9441
 6571SOL     OW31345   1.094   0.580   4.607  0.3469  0.0667  0.3498
 6571SOL    HW131346   1.087   0.508   4.544  0.6720 -0.4080  0.8620
 6571SOL    HW231347   1.178   0.564   4.649  0.2559 -0.8072  0.2034
 6572SOL     OW31348   4.705   2.653   8.522  0.1350 -0.4295  0.5448
 6572SOL    HW131349   4.637   2.711   8.488  1.3176  1.0446  0.6926
 6572SOL    HW231350   0.043   2.702   8.489  0.6068 -0.9128  0.9177
 6573SOL     OW31351   2.356   1.809   4.890  0.5138 -0.5040 -0.1744
 6573SOL    HW131352   2.298   1.736   4.912 -0.1139 -0.2266 -0.9001
 6573SOL    HW231353   2.304   1.886   4.915  2.0158  0.2460  0.6568
 6574SOL     OW31354   1.251   3.875   2.956  0.1333 -0.4333  0.1899
 6574SOL    HW131355   1.310   3.916   3.019  0.0605  0.1325 -0.1157
 6574SOL    HW231356   1.301   3.807   2.911  3.0229  1.4947  0.5224
 6575SOL     OW31357   1.803   0.086  10.986  0.0258 -0.5191  0.2686
 6575SOL    HW131358   1.826   0.150  11.053  0.9840 -1.4075  0.7895
 6575SOL    HW231359   1.755   0.010  11.020  0.1461 -0.1287  1.3284
 6576SOL     OW31360   2.173   2.115   0.505 -0.8363  0.3437 -0.0003
 6576SOL    HW131361   2.243   2.082   0.451 -1.9572 -0.7611 -0.7680
 6576SOL    HW231362   2.161   2.039   0.561  0.4444  1.2323  1.4952
 6577SOL     OW31363   4.402   1.974  10.523 -0.1824 -0.4226 -0.2462
 6577SOL    HW131364   4.489   1.973  10.482  0.2826  0.6425  0.7198
 6577SOL    HW231365   4.430   1.954  10.612 -1.0496 -1.6210 -0.2540
 6578SOL     OW31366   1.080   0.868   4.584  0.1980 -0.5288 -0.0356
 6578SOL    HW131367   1.061   0.878   4.490  1.6252 -1.3250 -0.4104
 6578SOL    HW231368   1.069   0.774   4.598 -0.7903 -0.4180 -0.1100
 6579SOL     OW31369   4.244   0.036   5.586  0.1400 -0.2720  0.0360
 6579SOL    HW131370   4.299   4.700   5.613  1.1663  1.0837  1.5720
 6579SOL    HW231371   4.176   0.030   5.654 -0.8416 -0.2635 -0.9417
 6580SOL     OW31372   2.346   4.619   6.183  0.4779 -0.1389 -0.0381
 6580SOL    HW131373   2.421   4.599   6.239 -0.2617  1.7044  1.5922
 6580SOL    HW231374   2.357   4.713   6.174  0.6112 -0.0395  1.2553
 6581SOL     OW31375   4.590   2.957   4.408  0.1673 -0.3579  0.3201
 6581SOL    HW131376   4.541   2.916   4.337  0.1659  1.0951 -0.5289
 6581SOL    HW231377   4.680   2.937   4.380 -0.6550 -0.5555 -2.1926
 6582SOL     OW31378   2.662   2.802   2.652 -0.2463  0.0351 -0.2007
 6582SOL    HW131379   2.685   2.859   2.726  0.4817 -1.9213  1.0610
 6582SOL    HW231380   2.752   2.776   2.630 -0.9106 -1.7165 -0.7893
 6583SOL     OW31381   3.084   0.439   0.851 -0.2172 -0.1699  0.1220
 6583SOL    HW131382   3.115   0.523   0.817  1.9911 -0.9722  0.1148
 6583SOL    HW231383   3.105   0.430   0.944 -3.5467 -0.6242  0.8111
 6584SOL     OW31384   2.469   4.526   5.578  0.2971 -0.6327 -0.2248
 6584SOL    HW131385   2.477   4.458   5.644  0.6374 -0.0623  0.3286
 6584SOL    HW231386   2.459   4.480   5.494 -0.2107 -2.7527  1.0059
 6585SOL     OW31387   0.507   3.832   1.329 -0.1631 -0.0289 -0.3824
 6585SOL    HW131388   0.574   3.851   1.264 -2.4510 -0.2102 -2.7547
 6585SOL    HW231389   0.511   3.907   1.389 -1.3231 -0.9218  0.8233
 6586SOL     OW31390   3.439   3.135   9.749  0.0394 -0.4514  0.4849
 6586SOL    HW131391   3.372   3.195   9.716 -1.2385 -1.4670  1.2673
 6586SOL    HW231392   3.377   3.084   9.801  1.3100 -2.8130 -0.3182
 6587SOL     OW31393   3.649   4.282   8.898  0.6962  0.1959  0.3548
 6587SOL    HW131394   3.658   4.269   8.992  0.3937  0.4805  0.4246
 6587SOL    HW231395   3.695   4.201   8.877 -1.7146 -1.2675  0.6492
 6588SOL     OW31396   4.641   2.397   3.217 -0.2238 -0.2417 -0.1624
 6588SOL    HW131397   4.732   2.378   3.242  0.0554  1.7113  0.3049
 6588SOL    HW231398   4.647   2.372   3.125  0.8372 -1.7573  0.3119
 6589SOL     OW31399   1.833   0.790  10.335  0.3418 -0.6704 -0.5332
 6589SOL    HW131400   1.860   0.881  10.318  0.3770 -0.6632 -0.4400
 6589SOL    HW231401   1.803   0.759  10.250  0.9584 -4.5906  0.6907
 6590SOL     OW31402   3.102   3.202   1.425  0.1725 -0.3073  0.5784
 6590SOL    HW131403   3.181   3.178   1.474 -0.9973 -0.5318  2.3743
 6590SOL    HW231404   3.129   3.215   1.334  1.0233 -1.5159  0.6448
 6591SOL     OW31405   3.844   1.798   3.521 -0.2529 -0.3017  0.0979
 6591SOL    HW131406   3.882   1.808   3.609  1.2154  0.9928 -0.6777
 6591SOL    HW231407   3.910   1.840   3.467  0.7689  0.1953  1.7287
 6592SOL     OW31408   1.861   4.564   5.569 -0.1806  0.3745 -0.2161
 6592SOL    HW131409   1.837   4.652   5.542 -0.1917 -0.6102 -3.4172
 6592SOL    HW231410   1.923   4.588   5.637 -0.7026 -0.0559  0.4092
 6593SOL     OW31411   0.293   1.867  13.254 -0.3800  0.4674  0.5137
 6593SOL    HW131412   0.324   1.908  13.335 -2.5489  0.9062  1.1096
 6593SOL    HW231413   0.279   1.775  13.276 -1.8742  0.7852  0.8516
 6594SOL     OW31414   3.811   1.356   5.062 -0.2474 -0.0957 -0.1202
 6594SOL    HW131415   3.779   1.431   5.112 -1.4479 -1.5212  1.2558
 6594SOL    HW231416   3.906   1.365   5.062  0.1775 -4.3735  0.8198
 6595SOL     OW31417   0.154   0.181   4.103 -0.6674  0.5596  0.3141
 6595SOL    HW131418   0.082   0.235   4.137 -0.3647  0.8887  0.4276
 6595SOL    HW231419   0.227   0.242   4.096  0.2755 -0.7018 -0.9024
 6596SOL     OW31420   2.851   0.229   3.821  0.2721  0.3890 -0.1613
 6596SOL    HW131421   2.839   0.238   3.916 -0.2311 -2.0619  0.0203
 6596SOL    HW231422   2.858   0.135   3.806 -0.9440  0.4696 -1.1960
 6597SOL     OW31423   3.611   4.271   5.342  0.0986 -0.2417 -0.0326
 6597SOL    HW131424   3.520   4.257   5.314  0.6085  1.0319 -2.2795
 6597SOL    HW231425   3.640   4.319   5.264  1.3520 -1.1556 -0.1290
 6598SOL     OW31426   0.916   0.732   6.226 -0.1125  0.1161  0.2632
 6598SOL    HW131427   0.859   0.656   6.213  2.8043 -2.2262  1.1713
 6598SOL    HW231428   0.941   0.757   6.137  0.1211 -1.8159 -0.2069
 6599SOL     OW31429   4.538   0.121   7.576 -0.2590  0.0442  0.0978
 6599SOL    HW131430   4.626   0.131   7.612 -0.4517  2.3783 -0.0897
 6599SOL    HW231431   4.549   0.154   7.486  1.0874 -1.8767 -0.4487
 6600SOL     OW31432   0.864   0.605   2.775  0.4177  0.3603  0.3627
 6600SOL    HW131433   0.891   0.632   2.687 -1.8206  3.1710  0.5164
 6600SOL    HW231434   0.918   0.527   2.788 -2.0559 -0.9573  2.8142
 6601SOL     OW31435   2.883   3.930   8.831  0.0905  0.1125 -0.6221
 6601SOL    HW131436   2.806   3.884   8.864  0.3132  0.9656  1.0477
 6601SOL    HW231437   2.925   3.957   8.913  0.0513  0.3638 -0.6843
 6602SOL     OW31438   0.931   1.486   6.719  0.1489  0.0856 -0.2244
 6602SOL    HW131439   1.009   1.441   6.749  1.5079  0.2520 -3.4446
 6602SOL    HW231440   0.871   1.485   6.794  0.0366  1.9862 -0.2892
 6603SOL     OW31441   0.547   3.396   9.203 -0.3234 -0.4338  0.8755
 6603SOL    HW131442   0.609   3.414   9.274  1.1950 -0.8053 -0.3724
 6603SOL    HW231443   0.495   3.326   9.241  1.3445 -1.7885  0.6527
 6604SOL     OW31444   3.752   4.062   3.276  0.5815  0.5485 -0.1319
 6604SOL    HW131445   3.675   4.014   3.305  0.7195  0.4230  0.0253
 6604SOL    HW231446   3.716   4.139   3.231  0.5198  0.1470 -0.7675
 6605SOL     OW31447   3.806   3.574   8.862 -0.1437 -0.0200 -0.7699
 6605SOL    HW131448   3.752   3.581   8.784  0.6846 -1.5859 -1.4858
 6605SOL    HW231449   3.736   3.602   8.920  2.1178  1.5054  1.2195
 6606SOL     OW31450   0.892   0.784  15.188  0.0888 -0.0207 -0.1003
 6606SOL    HW131451   0.817   0.821  15.142 -0.9440 -2.0369 -0.0282
 6606SOL    HW231452   0.963   0.824  15.137 -0.7298 -1.1965 -2.1523
 6607SOL     OW31453   1.039   4.672   1.923 -0.2778  0.5192 -0.4155
 6607SOL    HW131454   1.006   4.715   2.001  0.9354  1.5103 -0.4523
 6607SOL    HW231455   1.122   4.718   1.908  0.3322 -0.4060  0.1267
 6608SOL     OW31456   2.294   2.269   3.233  0.4298 -0.2215 -0.2878
 6608SOL    HW131457   2.367   2.210   3.250 -0.5118 -0.9979  1.0047
 6608SOL    HW231458   2.339   2.300   3.154 -0.3685  0.3907 -0.4940
 6609SOL     OW31459   3.211   2.041   2.057  0.2943  0.0568 -0.0057
 6609SOL    HW131460   3.257   2.027   1.974 -0.9239 -0.1500 -0.6472
 6609SOL    HW231461   3.206   1.949   2.083 -1.8239 -0.1463 -1.1241
 6610SOL     OW31462   2.586   1.689   2.187 -0.1139 -0.0651 -0.2568
 6610SOL    HW131463   2.624   1.777   2.187 -2.2493  0.8711 -1.5055
 6610SOL    HW231464   2.495   1.718   2.175 -0.3111  0.2043  1.8904
 6611SOL     OW31465   0.258   2.171   4.783  0.0665  0.0476  0.7254
 6611SOL    HW131466   0.311   2.236   4.738 -2.9335  1.0927 -1.3419
 6611SOL    HW231467   0.233   2.221   4.860  0.4576  0.0344  0.8580
 6612SOL     OW31468   2.432   3.567   8.411 -0.5276  0.7331 -0.3150
 6612SOL    HW131469   2.496   3.497   8.395  0.3095  1.0481  1.6296
 6612SOL    HW231470   2.353   3.514   8.418 -0.3429  0.2842 -1.6377
 6613SOL     OW31471   0.162   2.691   3.969 -0.3915  0.1092 -0.1840
 6613SOL    HW131472   0.225   2.699   3.898 -1.5474  1.7476 -1.0298
 6613SOL    HW231473   0.216   2.693   4.047 -0.3901  1.2629 -0.2138
 6614SOL     OW31474   4.464   0.620   2.162  0.2191  0.2295 -0.0039
 6614SOL    HW131475   4.521   0.580   2.228 -0.1064  0.4511  0.4091
 6614SOL    HW231476   4.459   0.708   2.199 -2.5831 -0.2347  0.7380
 6615SOL     OW31477   3.020   1.621   7.828 -0.0659  0.1761 -0.3621
 6615SOL    HW131478   3.080   1.595   7.759  1.3741  0.0173  0.9426
 6615SOL    HW231479   3.048   1.712   7.842 -1.1388  0.0767  2.3422
 6616SOL     OW31480   2.572   1.773   9.707 -0.1660  0.2060  0.0013
 6616SOL    HW131481   2.551   1.786   9.615  0.0471  2.5348  0.2894
 6616SOL    HW231482   2.618   1.855   9.726  2.5452 -1.4617  0.7252
 6617SOL     OW31483   0.306   0.641   1.269 -0.0140 -0.3489  0.3469
 6617SOL    HW131484   0.361   0.666   1.344 -0.9321  0.5814  0.7062
 6617SOL    HW231485   0.219   0.621   1.303 -0.0934  1.9936  1.4842
 6618SOL     OW31486   2.042   2.212   4.275 -0.2448  0.2869  0.4221
 6618SOL    HW131487   2.006   2.184   4.191 -0.4565 -0.7436  0.8568
 6618SOL    HW231488   2.006   2.148   4.337 -0.1716  0.3305  0.5106
 6619SOL     OW31489   3.399   2.415   2.425  0.4582  0.6595  0.2999
 6619SOL    HW131490   3.430   2.438   2.512  0.0125  0.5606  0.4854
 6619SOL    HW231491   3.447   2.333   2.416 -1.5623 -0.6726  1.7601
 6620SOL     OW31492   1.417   0.528   4.754  0.1925 -0.6418  0.0800
 6620SOL    HW131493   1.454   0.488   4.676 -1.1699 -1.4474 -0.1472
 6620SOL    HW231494   1.499   0.547   4.801  1.0139  1.2711 -2.0969
 6621SOL     OW31495   3.908   3.865   1.811  0.1119 -0.4445 -0.3972
 6621SOL    HW131496   3.970   3.820   1.867  0.7802 -0.8259 -1.4448
 6621SOL    HW231497   3.830   3.811   1.825 -0.1667 -0.0936 -0.5901
 6622SOL     OW31498   2.880   0.782  15.018  0.3010  0.4085  0.9252
 6622SOL    HW131499   2.860   0.875  15.033 -1.6977  0.3011 -1.0880
 6622SOL    HW231500   2.975   0.778  15.024  0.2467 -2.4039 -0.5230
 6623SOL     OW31501   0.178   4.444   6.984  0.8933 -0.2120  0.5611
 6623SOL    HW131502   0.203   4.416   7.072  0.4894 -2.7138 -0.1370
 6623SOL    HW231503   0.104   4.503   6.997 -1.3513 -2.6488 -1.2338
 6624SOL     OW31504   2.466   0.686   5.259  0.3643  0.0874 -0.7739
 6624SOL    HW131505   2.431   0.666   5.346  1.0109 -0.5040 -0.6582
 6624SOL    HW231506   2.388   0.720   5.215  0.6498 -0.0526 -1.3881
 6625SOL     OW31507   1.976   3.268   8.484 -0.4084  0.4283  0.3142
 6625SOL    HW131508   1.971   3.323   8.563  0.7472  0.6193  0.2572
 6625SOL    HW231509   1.941   3.342   8.434 -3.4565 -1.1915  0.1028
 6626SOL     OW31510   3.271   2.983   4.562  0.1148 -0.3940  0.0489
 6626SOL    HW131511   3.298   2.894   4.585  0.0826 -0.8396 -1.5863
 6626SOL    HW231512   3.177   2.979   4.548  0.1803 -0.8068 -0.2776
 6627SOL     OW31513   3.741   2.714  14.148 -0.0721 -0.2161 -0.4268
 6627SOL    HW131514   3.728   2.740  14.240  1.0174 -0.6707 -0.1469
 6627SOL    HW231515   3.778   2.795  14.113 -0.8434  1.4492  2.5499
 6628SOL     OW31516   1.408   2.665  14.706 -0.1370 -0.4263  0.1616
 6628SOL    HW131517   1.316   2.685  14.723 -0.3874 -0.7616 -0.8188
 6628SOL    HW231518   1.436   2.742  14.755 -0.0371 -0.1271 -0.3715
 6629SOL     OW31519   3.156   2.513   9.930 -0.5493  0.3361  0.2019
 6629SOL    HW131520   3.091   2.524  10.000  1.0973  0.1305  1.7719
 6629SOL    HW231521   3.124   2.448   9.869 -0.1469  0.4682 -0.1523
 6630SOL     OW31522   3.857   4.203   8.558 -0.1155  0.0252 -0.5426
 6630SOL    HW131523   3.782   4.260   8.542  0.9631  1.5674 -0.1044
 6630SOL    HW231524   3.911   4.272   8.598  0.5976 -0.4211 -0.7480
 6631SOL     OW31525   3.095   4.488   3.259  0.7937 -0.2552 -0.2116
 6631SOL    HW131526   3.108   4.517   3.169 -0.6295 -3.6150 -1.4620
 6631SOL    HW231527   3.142   4.406   3.271  1.9039  0.5232  0.8600
 6632SOL     OW31528   4.309   3.158   4.560  0.4152 -0.2329 -0.2960
 6632SOL    HW131529   4.309   3.117   4.646 -0.1281 -0.4872 -0.4169
 6632SOL    HW231530   4.297   3.078   4.508  0.4840 -1.2847  1.2920
 6633SOL     OW31531   3.413   4.165   2.145 -0.4294 -0.1560  0.0012
 6633SOL    HW131532   3.330   4.161   2.099 -0.6949 -1.6364  0.6294
 6633SOL    HW231533   3.389   4.105   2.215  1.9113 -0.8478  0.2276
 6634SOL     OW31534   0.407   3.243   2.566 -0.6544 -0.3826 -0.0806
 6634SOL    HW131535   0.393   3.167   2.509 -1.5474  0.2440 -0.6887
 6634SOL    HW231536   0.419   3.315   2.504 -1.6903  0.2730  0.4974
 6635SOL     OW31537   2.878   3.279   9.217  0.3836 -0.3682 -0.1396
 6635SOL    HW131538   2.918   3.254   9.300 -1.1936  1.5649  1.1921
 6635SOL    HW231539   2.831   3.196   9.208 -1.4874  0.5161  1.4057
 6636SOL     OW31540   2.268   0.908  16.679 -0.2230 -0.6397 -0.6323
 6636SOL    HW131541   2.312   0.992  16.693 -0.1966 -1.0238  1.6719
 6636SOL    HW231542   2.313   0.876  16.757  1.4397 -0.9161 -1.6924
 6637SOL     OW31543   0.073   1.022   8.980  0.4331  0.3226 -0.0105
 6637SOL    HW131544   4.734   1.032   9.037 -0.9131 -2.6229 -1.2722
 6637SOL    HW231545   0.030   1.023   8.894 -0.1890 -0.2199  0.2958
 6638SOL     OW31546   2.823   1.854  12.861  0.4763 -0.1354 -0.3175
 6638SOL    HW131547   2.836   1.943  12.826 -2.6780 -1.1318 -4.0059
 6638SOL    HW231548   2.844   1.805  12.782  0.6742 -2.7862  1.3936
 6639SOL     OW31549   2.482   2.871  16.252  0.6577 -0.4688 -0.4629
 6639SOL    HW131550   2.408   2.855  16.192 -0.2821 -2.5027  1.2437
 6639SOL    HW231551   2.538   2.916  16.189  0.9190  1.9591  1.5275
 6640SOL     OW31552   1.799   0.821   4.965 -0.2793 -0.0435 -0.5968
 6640SOL    HW131553   1.799   0.739   5.015 -1.6887  1.6448  2.1535
 6640SOL    HW231554   1.707   0.818   4.937 -0.0364 -0.0961 -1.3745
 6641SOL     OW31555   2.586   0.116  17.730  0.3701 -0.0734  0.4467
 6641SOL    HW131556   2.591   0.036  17.677 -0.9941  0.3667 -0.3500
 6641SOL    HW231557   2.620   0.082   0.066  3.1385 -0.9672 -1.0441
 6642SOL     OW31558   1.565   3.171   3.759 -0.0235 -0.0337 -0.1450
 6642SOL    HW131559   1.612   3.108   3.813  0.9360  0.0312 -0.9121
 6642SOL    HW231560   1.571   3.125   3.676 -0.3727 -1.3487  0.5646
 6643SOL     OW31561   1.895   3.055   5.611 -0.1593  0.0585  0.2612
 6643SOL    HW131562   1.984   3.087   5.629 -0.5652  0.1347  2.1479
 6643SOL    HW231563   1.838   3.132   5.612 -1.4575 -0.9397  2.7048
 6644SOL     OW31564   3.013   1.550  12.872  0.9805  0.3491  0.4256
 6644SOL    HW131565   2.925   1.576  12.899  0.8924  1.8812 -1.3285
 6644SOL    HW231566   3.031   1.480  12.934 -0.1405  0.7515  1.2212
 6645SOL     OW31567   1.753   0.368   3.574  0.6481  0.3010 -0.4772
 6645SOL    HW131568   1.807   0.442   3.601 -1.7555  1.3648  1.4115
 6645SOL    HW231569   1.668   0.412   3.566  1.1819  1.2620 -0.8703
 6646SOL     OW31570   4.105   2.773   8.813 -1.0070 -0.3254  0.7896
 6646SOL    HW131571   4.155   2.713   8.758  0.9913 -0.7150  3.0435
 6646SOL    HW231572   4.100   2.847   8.753  1.7694  0.9727  2.1795
 6647SOL     OW31573   4.306   0.374  14.369 -0.0514 -0.5835 -0.4831
 6647SOL    HW131574   4.283   0.387  14.461 -1.1234  0.0326 -0.8389
 6647SOL    HW231575   4.231   0.318  14.349 -0.5152 -0.4676  0.8814
 6648SOL     OW31576   3.265   3.898   0.120 -0.7409  0.1117 -0.3618
 6648SOL    HW131577   3.192   3.937   0.072 -2.7309 -0.2106  2.3943
 6648SOL    HW231578   3.293   3.842   0.048 -1.0122  1.0668 -1.1919
 6649SOL     OW31579   0.445   3.230   6.309  0.5984 -0.1348  0.1610
 6649SOL    HW131580   0.384   3.270   6.371  0.8263 -1.6880  1.3862
 6649SOL    HW231581   0.524   3.260   6.355  1.0500  0.8916 -1.2527
 6650SOL     OW31582   3.684   2.546   7.553  0.0437  0.0601 -0.3910
 6650SOL    HW131583   3.725   2.465   7.521  0.9104 -0.4544  2.0254
 6650SOL    HW231584   3.699   2.613   7.487 -0.7550 -0.9057 -1.5484
 6651SOL     OW31585   1.563   3.119   4.990 -0.4070 -0.1390 -0.0868
 6651SOL    HW131586   1.629   3.062   4.951  1.0593  0.4909  1.4145
 6651SOL    HW231587   1.506   3.140   4.916 -0.3958 -3.9875 -1.1440
 6652SOL     OW31588   3.099   1.707   7.248 -0.0858  0.3238  0.0313
 6652SOL    HW131589   3.175   1.703   7.189  0.3072 -1.2791  0.6325
 6652SOL    HW231590   3.138   1.695   7.334 -1.9752 -2.8994  0.4713
 6653SOL     OW31591   3.328   2.646   4.369 -0.4281 -0.4664  0.2477
 6653SOL    HW131592   3.406   2.604   4.403 -0.3226  1.4487  2.3828
 6653SOL    HW231593   3.319   2.717   4.433  3.6403  2.0813 -2.0121
 6654SOL     OW31594   0.897   4.511   4.122 -0.3992 -0.1338 -0.1463
 6654SOL    HW131595   0.852   4.439   4.079  1.2095  0.5616 -2.9684
 6654SOL    HW231596   0.833   4.511   4.193 -0.3979 -0.4005 -0.1459
 6655SOL     OW31597   1.690   1.877   8.234 -0.1147 -0.3906 -0.0855
 6655SOL    HW131598   1.767   1.913   8.279 -0.9016  0.5684  0.5077
 6655SOL    HW231599   1.665   1.960   8.192 -0.9233 -1.4711 -1.7091
 6656SOL     OW31600   1.278   2.592   9.988  0.4450 -0.0899  0.0003
 6656SOL    HW131601   1.236   2.607  10.073 -1.8342 -1.2350 -0.9047
 6656SOL    HW231602   1.354   2.542  10.017  1.6683  1.8123  0.0382
 6657SOL     OW31603   0.739   0.954   5.969 -0.1055 -0.1715 -0.7467
 6657SOL    HW131604   0.682   0.980   6.042 -0.6098  2.2794 -2.0210
 6657SOL    HW231605   0.803   1.025   5.971  0.6680 -0.9156  1.8835
 6658SOL     OW31606   4.184   2.798   0.486  0.5501 -0.7115 -0.7598
 6658SOL    HW131607   4.217   2.711   0.463  0.6967 -0.8244 -0.1353
 6658SOL    HW231608   4.258   2.851   0.457 -1.4070  1.9302 -0.9151
 6659SOL     OW31609   2.609   3.470   4.057  0.2002  0.0120  0.1156
 6659SOL    HW131610   2.522   3.508   4.040  0.8230  2.4117  2.3833
 6659SOL    HW231611   2.583   3.377   4.066  0.3315 -0.2688 -2.6246
 6660SOL     OW31612   3.756   1.441   6.955  0.0335  0.1866 -0.4904
 6660SOL    HW131613   3.708   1.421   7.036  0.7605 -0.7332 -0.2829
 6660SOL    HW231614   3.788   1.353   6.934  0.7312  0.9815 -2.6723
 6661SOL     OW31615   0.830   3.792  17.444 -0.4108  0.3004  0.3918
 6661SOL    HW131616   0.785   3.865  17.403 -0.1983  0.8290  1.1003
 6661SOL    HW231617   0.770   3.720  17.424 -0.5488  0.8610 -1.2109
 6662SOL     OW31618   4.593   1.192   0.096  0.3486  0.8000  0.4594
 6662SOL    HW131619   4.596   1.273   0.147 -0.5612 -0.7965  3.0363
 6662SOL    HW231620   4.630   1.214   0.011  1.6485 -0.7711  0.6204
 6663SOL     OW31621   3.930   1.730   4.339  0.3176  0.3289 -0.7750
 6663SOL    HW131622   4.020   1.737   4.306  0.3321  0.9521 -0.5929
 6663SOL    HW231623   3.923   1.804   4.399 -1.1220 -0.0766 -0.4514
 6664SOL     OW31624   2.338   3.876  13.331 -0.3204  0.4812  0.0228
 6664SOL    HW131625   2.379   3.942  13.387 -0.3910  1.0495 -0.6075
 6664SOL    HW231626   2.296   3.822  13.398  2.2304 -0.0300  1.2429
 6665SOL     OW31627   2.055   4.257   4.037  0.1837  0.6703 -0.0327
 6665SOL    HW131628   2.071   4.176   4.085 -2.4569  0.6492  0.7962
 6665SOL    HW231629   2.041   4.217   3.951  1.8760  0.4910 -0.2243
 6666SOL     OW31630   3.196   4.310   5.203  0.0826 -0.0867  0.0291
 6666SOL    HW131631   3.230   4.250   5.270  0.0531  0.5323  0.5903
 6666SOL    HW231632   3.101   4.315   5.211  0.1469 -2.4159  2.4512
 6667SOL     OW31633   2.635   2.733   4.949 -0.0736 -0.1771  0.2657
 6667SOL    HW131634   2.588   2.716   4.868 -3.4417 -0.6803  2.3564
 6667SOL    HW231635   2.662   2.650   4.989  1.1569 -0.3542 -0.9450
 6668SOL     OW31636   0.637   0.903   6.815 -0.6387  0.2282 -0.1970
 6668SOL    HW131637   0.568   0.940   6.760  0.9174  2.9182 -0.3311
 6668SOL    HW231638   0.706   0.968   6.805  1.7236 -2.0551  1.2327
 6669SOL     OW31639   1.392   2.825  13.574 -0.0245  0.2112 -0.3330
 6669SOL    HW131640   1.487   2.821  13.580 -0.2749 -1.4934  2.3282
 6669SOL    HW231641   1.377   2.911  13.534  4.0026  0.6622 -0.8372
 6670SOL     OW31642   2.088   0.638   4.301 -0.7436 -0.6400 -0.2938
 6670SOL    HW131643   2.048   0.612   4.218 -2.6820  2.4595 -0.3414
 6670SOL    HW231644   2.156   0.572   4.310 -0.0395  0.6343  3.6891
 6671SOL     OW31645   0.821   1.434   8.861  0.0340 -0.0288  0.1364
 6671SOL    HW131646   0.799   1.354   8.908 -1.3756 -0.6252 -1.5104
 6671SOL    HW231647   0.759   1.498   8.897 -0.8945 -1.4979  1.1175
 6672SOL     OW31648   3.128   1.505   7.602  0.7178 -0.3008 -0.2927
 6672SOL    HW131649   3.185   1.453   7.658  0.6276 -0.8161 -0.6739
 6672SOL    HW231650   3.185   1.516   7.525 -0.8762 -0.2089 -1.4572
 6673SOL     OW31651   0.247   0.583   2.271  0.0236  0.3096  0.1759
 6673SOL    HW131652   0.226   0.617   2.357 -2.0167  0.5379 -0.4065
 6673SOL    HW231653   0.221   0.657   2.216  3.1615 -0.1351 -1.9079
 6674SOL     OW31654   1.173   2.001  14.167 -0.3374  0.1788 -0.0137
 6674SOL    HW131655   1.212   1.977  14.083  1.9320  1.9142  0.5473
 6674SOL    HW231656   1.080   2.007  14.144 -0.2497 -0.5108 -0.5399
 6675SOL     OW31657   0.097   2.710   7.629  0.1690  0.1326  0.0224
 6675SOL    HW131658   0.020   2.663   7.661  1.6388 -1.2433  1.5890
 6675SOL    HW231659   0.175   2.671   7.670 -0.2008 -0.4079  0.2152
 6676SOL     OW31660   2.086   3.889   3.587  0.3242 -0.0141  0.2459
 6676SOL    HW131661   2.100   3.946   3.663 -0.6094  0.6283 -0.0650
 6676SOL    HW231662   2.067   3.808   3.633  0.4390  0.2909  0.8285
 6677SOL     OW31663   0.596   2.833   4.767 -0.9818 -0.0801 -0.0940
 6677SOL    HW131664   0.536   2.889   4.717 -2.0265  2.8381  4.5090
 6677SOL    HW231665   0.673   2.879   4.733 -0.7876  0.8138  1.5794
 6678SOL     OW31666   1.869   2.627   1.268 -0.3863 -0.1505  0.5460
 6678SOL    HW131667   1.826   2.580   1.339 -1.0327  0.2541  0.4239
 6678SOL    HW231668   1.825   2.577   1.200  1.0974  0.5375 -0.9194
 6679SOL     OW31669   0.702   0.966   5.255 -0.6885  0.4184 -0.2133
 6679SOL    HW131670   0.674   0.926   5.173 -1.7916  2.0854 -0.6488
 6679SOL    HW231671   0.617   0.995   5.289 -0.6002  1.5230 -0.9783
 6680SOL     OW31672   2.554   1.867   7.612  0.1016  0.6501  0.0600
 6680SOL    HW131673   2.577   1.952   7.573 -1.7295  1.4649  0.7334
 6680SOL    HW231674   2.635   1.840   7.655 -0.5387 -3.0482 -1.0609
 6681SOL     OW31675   2.552   2.979  10.883  0.3066  0.3624  0.3210
 6681SOL    HW131676   2.590   3.066  10.875 -2.6227  1.3716 -2.4794
 6681SOL    HW231677   2.461   3.004  10.896  0.6390  1.5212  0.3581
 6682SOL     OW31678   3.118   0.695  13.023  0.2936  0.2967  0.4266
 6682SOL    HW131679   3.150   0.785  13.034 -0.2936  0.6941 -1.1214
 6682SOL    HW231680   3.127   0.688  12.928  1.1443 -3.3825  0.7715
 6683SOL     OW31681   3.445   2.759   0.454  0.3369 -0.4215  0.0475
 6683SOL    HW131682   3.435   2.851   0.427  1.1573 -0.6146 -0.8964
 6683SOL    HW231683   3.524   2.728   0.410  0.7848  1.2887 -0.3655
 6684SOL     OW31684   2.600   1.098   4.341  0.0588 -0.1264 -0.1658
 6684SOL    HW131685   2.557   1.013   4.349 -1.0278  0.4154 -0.2127
 6684SOL    HW231686   2.672   1.075   4.282  0.5059 -2.4669  1.2879
 6685SOL     OW31687   3.670   0.268   8.131  0.3600 -0.2778 -0.1542
 6685SOL    HW131688   3.599   0.218   8.091 -1.1723  1.5122  0.3235
 6685SOL    HW231689   3.748   0.213   8.123  0.7332  0.1533  0.4888
 6686SOL     OW31690   4.674   2.644   8.820  0.2587  0.8842  0.1110
 6686SOL    HW131691   4.678   2.731   8.781  1.2253  0.8896  0.2161
 6686SOL    HW231692   4.584   2.644   8.854  0.0542  0.7377 -0.4348
 6687SOL     OW31693   4.109   4.036  14.932 -0.2001 -0.5290  0.5041
 6687SOL    HW131694   4.078   4.124  14.914  0.2206 -1.0461 -2.6588
 6687SOL    HW231695   4.028   3.992  14.907 -0.2575  0.2205 -0.6232
 6688SOL     OW31696   3.321   1.799   8.043 -0.3579  0.4195 -0.0597
 6688SOL    HW131697   3.246   1.747   8.072  0.0721  0.9153  1.9367
 6688SOL    HW231698   3.340   1.772   7.953  0.6966 -0.5729  0.4644
 6689SOL     OW31699   3.410   2.700   2.182  0.2015 -0.6672  0.2000
 6689SOL    HW131700   3.341   2.729   2.242 -2.8317 -1.9344 -2.7088
 6689SOL    HW231701   3.470   2.645   2.232  1.6337 -0.1939 -1.0016
 6690SOL     OW31702   1.675   1.518  15.568  0.5776  1.3069 -0.0131
 6690SOL    HW131703   1.727   1.439  15.586  0.0194  1.0590  0.5257
 6690SOL    HW231704   1.649   1.489  15.480  1.1801 -1.0974  0.5864
 6691SOL     OW31705   2.145   3.625   5.773 -0.2474  0.5202  0.5416
 6691SOL    HW131706   2.229   3.646   5.731 -0.8168 -1.8426 -1.8344
 6691SOL    HW231707   2.125   3.709   5.813 -0.5403  0.6585  0.0988
 6692SOL     OW31708   1.749   3.575  16.942 -0.1477  0.3676  0.5087
 6692SOL    HW131709   1.835   3.597  16.906 -0.8330  2.0238 -0.1421
 6692SOL    HW231710   1.703   3.587  16.859  4.4310  2.5286 -1.6984
 6693SOL     OW31711   2.758   3.575  10.150 -0.8047 -0.5542 -0.3116
 6693SOL    HW131712   2.850   3.594  10.131 -0.1961 -2.8092  0.3687
 6693SOL    HW231713   2.714   3.546  10.071 -1.3628 -1.6183  0.4029
 6694SOL     OW31714   3.302   0.484   2.223  0.4353  0.1685 -0.3771
 6694SOL    HW131715   3.368   0.417   2.241 -0.5301 -0.4458  0.8854
 6694SOL    HW231716   3.325   0.501   2.132  2.3175 -1.1581 -0.1501
 6695SOL     OW31717   4.379   2.256  15.985  0.2128 -0.3524 -0.6050
 6695SOL    HW131718   4.326   2.263  16.065  0.5780 -1.2006 -0.2810
 6695SOL    HW231719   4.470   2.236  16.010  0.5591  1.2394 -0.6251
 6696SOL     OW31720   0.727   0.172   5.417 -0.2704  0.0580 -0.3925
 6696SOL    HW131721   0.786   0.207   5.351 -1.8451 -2.8713 -3.3308
 6696SOL    HW231722   0.761   0.083   5.411  1.6713  0.7181  0.8317
 6697SOL     OW31723   3.717   3.092  11.770  0.1551 -0.0428  0.2447
 6697SOL    HW131724   3.636   3.046  11.793  0.1225  0.0754  0.3696
 6697SOL    HW231725   3.777   3.065  11.840  0.9404 -2.0903 -1.2184
 6698SOL     OW31726   1.210   2.133   3.728  0.3072 -0.9523  0.0741
 6698SOL    HW131727   1.282   2.088   3.685  0.1684  0.0668 -1.2174
 6698SOL    HW231728   1.226   2.223   3.700  0.7753 -1.1800 -0.3665
 6699SOL     OW31729   0.949   0.300   6.940  0.1013  0.2417 -0.0020
 6699SOL    HW131730   1.030   0.284   6.891  0.5905 -1.2522  1.3066
 6699SOL    HW231731   0.945   0.247   7.020 -1.2434 -3.1192 -2.3261
 6700SOL     OW31732   1.599   4.520   3.855  0.2131 -0.0430 -0.1882
 6700SOL    HW131733   1.627   4.609   3.834 -3.0910  0.9673 -0.4094
 6700SOL    HW231734   1.669   4.492   3.913 -0.5450  0.8946  1.1665
 6701SOL     OW31735   2.049   2.818   7.131  0.1741 -0.1900  0.5981
 6701SOL    HW131736   2.057   2.727   7.102  1.9046  0.7824 -2.0520
 6701SOL    HW231737   2.077   2.805   7.221  1.0928  0.0366  0.3476
 6702SOL     OW31738   2.556   2.904   6.534 -0.6536  0.3133 -0.0359
 6702SOL    HW131739   2.624   2.968   6.514 -0.8175  0.5208  0.0807
 6702SOL    HW231740   2.590   2.816   6.516  0.4826  0.4573  1.3993
 6703SOL     OW31741   1.955   1.271   3.004  0.0345 -0.0302 -0.1898
 6703SOL    HW131742   1.945   1.203   3.070 -1.4454 -0.7799 -1.1844
 6703SOL    HW231743   1.972   1.353   3.051 -0.0032 -0.1225 -0.0153
 6704SOL     OW31744   0.040   2.354   4.036  0.5263  0.1594  0.1368
 6704SOL    HW131745   0.135   2.350   4.025  0.4461 -0.7418 -0.2890
 6704SOL    HW231746   0.026   2.316   4.123  0.7241 -0.8360 -0.2613
 6705SOL     OW31747   0.703   1.089  17.293 -0.0220  0.1763 -0.3890
 6705SOL    HW131748   0.786   1.075  17.247 -0.0864  2.7464 -1.2923
 6705SOL    HW231749   0.733   1.097  17.384  1.0226 -2.3463 -0.5206
 6706SOL     OW31750   3.625   4.565   9.095 -0.2671  0.7052 -0.1102
 6706SOL    HW131751   3.550   4.590   9.150 -1.2335 -0.2790 -0.9613
 6706SOL    HW231752   3.692   4.528   9.152 -2.6180  0.8291  2.7466
 6707SOL     OW31753   0.199   3.150   8.220  0.4404 -0.3842 -0.4758
 6707SOL    HW131754   0.134   3.217   8.198 -0.9869 -1.3258  0.9010
 6707SOL    HW231755   0.248   3.165   8.139 -1.6659 -1.8258 -2.0279
 6708SOL     OW31756   1.853   2.458   4.600 -0.7201 -0.0931  0.3198
 6708SOL    HW131757   1.922   2.468   4.534 -1.6518  1.0716 -0.4797
 6708SOL    HW231758   1.830   2.550   4.612 -0.0270  0.1187  0.0227
 6709SOL     OW31759   3.566   2.497   4.123 -0.2995 -0.6706 -0.0743
 6709SOL    HW131760   3.618   2.571   4.092 -3.7315  0.8541 -2.2387
 6709SOL    HW231761   3.620   2.459   4.192 -1.9161 -0.1787  1.4951
 6710SOL     OW31762   3.995   2.443   0.540  0.0476  0.0703 -0.2096
 6710SOL    HW131763   4.012   2.357   0.579 -0.1661 -0.0176 -0.3100
 6710SOL    HW231764   4.052   2.443   0.464  0.5570 -0.8488  0.1666
 6711SOL     OW31765   4.451   2.361   2.347  0.1056 -0.1161 -0.0506
 6711SOL    HW131766   4.510   2.436   2.340 -1.1642  1.0665  2.0345
 6711SOL    HW231767   4.442   2.345   2.253 -1.9159  0.3657  0.0539
 6712SOL     OW31768   3.533   3.656   1.142  0.1107  0.3208 -0.3491
 6712SOL    HW131769   3.558   3.713   1.214 -0.8735  1.1354 -0.6531
 6712SOL    HW231770   3.569   3.573   1.174  1.9944  1.4379  0.3879
 6713SOL     OW31771   0.685   3.507   8.548  0.3209 -0.0127  0.6955
 6713SOL    HW131772   0.728   3.440   8.494  0.5156  1.0946 -0.5354
 6713SOL    HW231773   0.599   3.491   8.509  0.1939 -0.0620  0.9984
 6714SOL     OW31774   0.112   3.837   0.045  0.1441  0.3774 -0.2617
 6714SOL    HW131775   0.064   3.916   0.021  1.1603  1.0216 -0.1869
 6714SOL    HW231776   0.086   3.839   0.137 -0.3029 -0.2888 -0.3707
 6715SOL     OW31777   4.010   0.742   4.050 -0.0476  0.3395 -0.0804
 6715SOL    HW131778   4.053   0.781   4.126 -1.6064  0.3966  0.7912
 6715SOL    HW231779   4.012   0.646   4.052 -0.3670  0.3137 -1.0420
 6716SOL     OW31780   1.911   1.690  11.110  0.1185 -0.3485  0.0486
 6716SOL    HW131781   1.980   1.737  11.158  3.3982 -4.0306 -1.0327
 6716SOL    HW231782   1.935   1.700  11.018  0.5263 -0.4159  0.1488
 6717SOL     OW31783   4.257   3.307   5.268 -0.3976 -0.0532 -0.1566
 6717SOL    HW131784   4.338   3.257   5.274 -0.1858  0.3092  0.0430
 6717SOL    HW231785   4.275   3.378   5.330  1.2811 -0.3675 -0.2923
 6718SOL     OW31786   0.770   2.432   7.740 -0.2933  0.0486 -0.4809
 6718SOL    HW131787   0.691   2.476   7.709  0.1128  0.4443 -0.9346
 6718SOL    HW231788   0.729   2.352   7.774 -1.6926  1.0620  0.2278
 6719SOL     OW31789   1.514   4.552  15.923 -0.0686 -0.1993 -0.0711
 6719SOL    HW131790   1.555   4.552  16.009  0.0258 -3.2998 -0.1312
 6719SOL    HW231791   1.475   4.639  15.932  1.6946  0.4442  1.3617
 6720SOL     OW31792   2.339   0.849   0.539 -0.6959 -0.2912  0.3422
 6720SOL    HW131793   2.307   0.936   0.561 -1.0135 -1.0313  2.8937
 6720SOL    HW231794   2.431   0.849   0.568 -0.3588 -0.6937 -0.7522
 6721SOL     OW31795   3.382   3.109   3.512  0.0301 -0.3575 -0.5066
 6721SOL    HW131796   3.399   3.032   3.457  0.4176 -0.3079 -0.4503
 6721SOL    HW231797   3.469   3.148   3.517 -0.9639  1.3248  3.3890
 6722SOL     OW31798   1.307   0.681   5.222 -0.3743 -0.7403  0.2662
 6722SOL    HW131799   1.242   0.746   5.248 -0.2797  1.0949 -4.0533
 6722SOL    HW231800   1.281   0.649   5.136  1.4181 -0.1739 -0.4799
 6723SOL     OW31801   1.177   0.088   2.347  0.4197 -0.2289  0.1797
 6723SOL    HW131802   1.228   0.011   2.324  0.5947  0.8326 -3.0914
 6723SOL    HW231803   1.224   0.157   2.299  2.6259  0.1644  2.9355
 6724SOL     OW31804   3.222   1.942   1.555  0.6601 -0.1748 -0.5582
 6724SOL    HW131805   3.214   1.847   1.567  2.2221 -0.3165 -0.5415
 6724SOL    HW231806   3.315   1.955   1.534  0.8434  0.7943  0.8456
 6725SOL     OW31807   2.419   4.451   6.863 -0.0592 -0.1983  0.3625
 6725SOL    HW131808   2.367   4.380   6.900  0.5791 -1.6173 -1.4660
 6725SOL    HW231809   2.470   4.395   6.804 -0.9258  0.1244 -0.6936
 6726SOL     OW31810   1.213   4.529   5.989 -0.0375 -0.1994  0.1779
 6726SOL    HW131811   1.308   4.539   6.001  0.5196 -2.3315 -2.5456
 6726SOL    HW231812   1.178   4.561   6.073  0.9004  2.4235 -0.4190
 6727SOL     OW31813   1.867   1.142   1.562 -0.1728  0.4856  0.1784
 6727SOL    HW131814   1.774   1.120   1.568 -0.0350  0.2233  1.2775
 6727SOL    HW231815   1.855   1.219   1.506 -0.1485  1.0910  1.0235
 6728SOL     OW31816   1.673   2.530   7.241 -0.3686  0.0713  0.0393
 6728SOL    HW131817   1.638   2.460   7.296 -1.8755  0.5369 -0.3122
 6728SOL    HW231818   1.718   2.572   7.314  2.1945 -0.5449 -1.1973
 6729SOL     OW31819   1.838   4.217   4.687  0.2885 -0.8231  0.0412
 6729SOL    HW131820   1.805   4.204   4.598  0.8593 -2.9184  0.1290
 6729SOL    HW231821   1.789   4.145   4.727 -2.6586  1.2150  0.0868
 6730SOL     OW31822   2.615   3.340  14.929 -0.6332 -0.4489  0.0701
 6730SOL    HW131823   2.545   3.305  14.875 -0.2993 -0.7805 -0.1452
 6730SOL    HW231824   2.692   3.290  14.903  0.8332 -0.1264  3.6583
 6731SOL     OW31825   0.586   1.842   1.323 -0.1082  0.1197  0.5379
 6731SOL    HW131826   0.598   1.874   1.413  2.2409 -0.1942  0.3364
 6731SOL    HW231827   0.660   1.876   1.272  0.5869 -0.3373  1.2475
 6732SOL     OW31828   1.957   2.001  15.607  0.8106  0.2700  0.2067
 6732SOL    HW131829   1.935   2.094  15.613  2.2533  0.6623 -0.4360
 6732SOL    HW231830   1.872   1.965  15.634  0.7004  0.8662  0.6528
 6733SOL     OW31831   4.661   1.206   5.688  0.4388  0.2117  0.4333
 6733SOL    HW131832   4.583   1.230   5.638  1.2105 -0.1506 -0.9422
 6733SOL    HW231833   4.662   1.284   5.743  3.0767  0.8093 -0.4775
 6734SOL     OW31834   4.009   2.236   3.060 -0.2966  0.5017  0.0639
 6734SOL    HW131835   3.957   2.164   3.024  0.0393 -0.4280  1.4148
 6734SOL    HW231836   3.952   2.306   3.029 -2.4507 -0.6887  1.2286
 6735SOL     OW31837   1.272   1.751  16.701  0.1423  0.1477 -0.2533
 6735SOL    HW131838   1.238   1.713  16.620  0.3398 -0.4699 -0.0522
 6735SOL    HW231839   1.200   1.802  16.735 -0.2558 -0.2185 -0.5460
 6736SOL     OW31840   0.130   3.319   7.095  0.3022 -0.3667  0.0481
 6736SOL    HW131841   0.204   3.264   7.070  1.1200  0.8175 -0.1229
 6736SOL    HW231842   0.070   3.298   7.023  1.6652  0.3716 -1.2884
 6737SOL     OW31843   4.392   1.058   0.188  0.2222  0.2745  0.1479
 6737SOL    HW131844   4.476   1.086   0.153 -0.6263 -0.2516 -2.3125
 6737SOL    HW231845   4.419   1.008   0.266 -0.4653  0.2810  0.3963
 6738SOL     OW31846   2.395   1.317   7.639  0.3577 -0.3757  0.2707
 6738SOL    HW131847   2.330   1.298   7.571  0.3795 -2.2353  0.7623
 6738SOL    HW231848   2.391   1.408   7.668  2.7132  0.1225 -1.0590
 6739SOL     OW31849   0.029   1.132   3.801  0.2750  0.0826 -0.7282
 6739SOL    HW131850   0.121   1.107   3.809  0.0870 -0.3859 -0.1119
 6739SOL    HW231851   0.007   1.093   3.716 -0.5847 -0.7880 -0.0950
 6740SOL     OW31852   4.264   3.280   3.485 -0.1235 -0.3720  0.3703
 6740SOL    HW131853   4.252   3.365   3.443 -0.3662 -1.3122 -1.4721
 6740SOL    HW231854   4.349   3.253   3.449  0.2223  0.7869  0.3221
 6741SOL     OW31855   3.675   3.736   1.904 -0.0001  0.6323  0.1044
 6741SOL    HW131856   3.579   3.740   1.901 -0.0614 -0.3700  0.6629
 6741SOL    HW231857   3.684   3.641   1.899 -0.2446  0.5357  1.6531
 6742SOL     OW31858   3.671   2.057  13.903  0.2644  0.0099 -0.3917
 6742SOL    HW131859   3.601   2.090  13.848 -1.3810  1.1758  2.4157
 6742SOL    HW231860   3.744   2.115  13.882 -1.1260  1.0085 -2.4863
 6743SOL     OW31861   4.024   3.854   6.149 -0.1514  0.0557 -0.1390
 6743SOL    HW131862   4.023   3.948   6.168  0.2537  0.5190 -2.3573
 6743SOL    HW231863   4.117   3.832   6.141  0.3390  2.0376  0.1150
 6744SOL     OW31864   1.783   1.406   2.405  0.4252 -0.4288 -0.2068
 6744SOL    HW131865   1.804   1.439   2.492 -0.4792  1.6356 -0.7665
 6744SOL    HW231866   1.721   1.336   2.425  0.0786  0.0804  0.5157
 6745SOL     OW31867   0.162   2.572   6.854 -0.2351  0.0910  0.3559
 6745SOL    HW131868   0.224   2.572   6.781 -0.6442 -0.6104  0.0072
 6745SOL    HW231869   0.190   2.490   6.896 -2.5004 -2.1403 -2.4915
 6746SOL     OW31870   3.593   3.822   7.135  0.1566  0.0115 -0.7504
 6746SOL    HW131871   3.639   3.813   7.219 -2.5666  0.3003  0.7971
 6746SOL    HW231872   3.539   3.900   7.149  0.2254 -0.3152  1.3287
 6747SOL     OW31873   3.874   0.121  10.390  0.1198 -0.0828 -0.2102
 6747SOL    HW131874   3.862   0.211  10.421 -0.8106 -0.8638  1.7374
 6747SOL    HW231875   3.794   0.127  10.338 -0.4225  1.3402  0.7960
 6748SOL     OW31876   1.602   1.691   2.548  0.2406 -0.4119  0.0961
 6748SOL    HW131877   1.662   1.716   2.477 -0.5253  0.6290 -0.1859
 6748SOL    HW231878   1.546   1.631   2.498 -0.9777 -0.6551  1.7510
 6749SOL     OW31879   4.357   1.569  14.182 -0.2579 -0.1851 -0.0677
 6749SOL    HW131880   4.335   1.618  14.261 -2.3662  0.6836 -1.2138
 6749SOL    HW231881   4.287   1.592  14.122 -0.4820  0.7644  0.5568
 6750SOL     OW31882   4.334   1.139   6.755 -0.2144 -0.4294  0.1725
 6750SOL    HW131883   4.383   1.074   6.804 -2.1267 -0.5911  1.8755
 6750SOL    HW231884   4.312   1.083   6.680 -1.5468  0.2939  0.0162
 6751SOL     OW31885   1.322   1.756  11.181  0.6057 -0.6128 -0.3723
 6751SOL    HW131886   1.228   1.749  11.193  0.6701  1.1666  1.2706
 6751SOL    HW231887   1.330   1.753  11.086  1.2687  2.0417 -0.3949
 6752SOL     OW31888   3.997   4.197   7.918 -0.7026 -0.4295 -0.5752
 6752SOL    HW131889   4.031   4.205   8.007 -3.3134 -0.3179  0.4311
 6752SOL    HW231890   3.905   4.195   7.944 -1.0396 -3.1063 -2.0366
 6753SOL     OW31891   4.297   0.180  16.067  0.2050  0.1810  0.1595
 6753SOL    HW131892   4.325   0.264  16.105  2.1533  0.1496 -1.2576
 6753SOL    HW231893   4.244   0.212  15.995 -0.3726 -1.9239 -0.3432
 6754SOL     OW31894   0.092   2.317   7.997 -0.0759  0.2560 -0.5851
 6754SOL    HW131895   0.113   2.366   7.917 -3.1715  2.1329 -0.2027
 6754SOL    HW231896   0.112   2.382   8.064  1.0698 -0.1640 -0.5114
 6755SOL     OW31897   0.394   4.293  13.840  0.4197  0.1904  0.3846
 6755SOL    HW131898   0.422   4.201  13.842  3.5144  1.1229  0.1598
 6755SOL    HW231899   0.428   4.321  13.925  1.9486 -0.7102  0.0836
 6756SOL     OW31900   4.179   3.383   4.242 -0.6000 -0.0430  0.0819
 6756SOL    HW131901   4.155   3.391   4.150  1.4993 -0.6578 -0.5134
 6756SOL    HW231902   4.239   3.309   4.239  1.1865  1.3559  0.9604
 6757SOL     OW31903   2.805   2.704   4.104 -0.4073 -0.8624  0.1139
 6757SOL    HW131904   2.836   2.636   4.165  0.4957 -1.1830 -0.7004
 6757SOL    HW231905   2.713   2.680   4.108 -0.6422 -0.2020 -1.5873
 6758SOL     OW31906   2.568   3.224   6.924  0.2374  1.0641  0.3804
 6758SOL    HW131907   2.561   3.301   6.868  1.0291 -0.0689 -1.2812
 6758SOL    HW231908   2.557   3.145   6.870 -0.9859  0.1626  1.9452
 6759SOL     OW31909   2.788   4.233   2.688 -0.0862  0.0478 -0.0447
 6759SOL    HW131910   2.755   4.148   2.718  0.7033 -0.4267 -0.5338
 6759SOL    HW231911   2.708   4.284   2.672  0.9341  0.9865 -2.1662
 6760SOL     OW31912   1.407   2.994   6.482  0.1512  0.1968 -0.1960
 6760SOL    HW131913   1.427   3.009   6.575  0.7386 -0.6208 -0.1834
 6760SOL    HW231914   1.472   3.047   6.435 -1.4715  1.8662 -0.5436
 6761SOL     OW31915   1.092   1.070  14.229  0.2185  0.0993  0.5731
 6761SOL    HW131916   1.080   1.005  14.298 -1.4975  1.9952  2.0397
 6761SOL    HW231917   1.059   1.148  14.274 -1.9853  0.0516 -0.9460
 6762SOL     OW31918   1.472   2.753   8.108 -0.2572 -0.4507 -0.2463
 6762SOL    HW131919   1.406   2.697   8.065  0.1051 -0.6466 -0.5443
 6762SOL    HW231920   1.470   2.819   8.039  1.6398 -0.1438  0.0157
 6763SOL     OW31921   3.432   0.121   8.039 -0.1898  0.0663  0.1684
 6763SOL    HW131922   3.357   0.180   8.037 -0.9277 -0.7813  2.9250
 6763SOL    HW231923   3.414   0.057   7.971  2.6967  0.0742 -0.6237
 6764SOL     OW31924   0.593   1.811   2.328  0.0579 -0.3713  0.0645
 6764SOL    HW131925   0.604   1.768   2.412 -2.0044  2.1257  1.6098
 6764SOL    HW231926   0.680   1.851   2.320  1.4351 -3.1648  1.1287
 6765SOL     OW31927   3.400   3.003   0.379 -0.1456  0.1083 -0.5355
 6765SOL    HW131928   3.484   3.042   0.404 -0.8149  0.5357  1.0676
 6765SOL    HW231929   3.408   3.037   0.290 -1.5514 -0.5330 -0.9016
 6766SOL     OW31930   0.196   4.333   0.978  0.7731 -0.2498 -0.2896
 6766SOL    HW131931   0.199   4.270   1.050  0.9273  0.9677  0.7643
 6766SOL    HW231932   0.123   4.389   1.006  1.4969  1.3208 -1.5381
 6767SOL     OW31933   0.361   2.735  12.316 -0.1919 -0.1727  0.3109
 6767SOL    HW131934   0.337   2.691  12.397 -1.2925  0.7252  0.4855
 6767SOL    HW231935   0.372   2.826  12.345 -2.6624  0.8899 -1.9818
 6768SOL     OW31936   0.522   0.783   8.509  0.3492  0.2963 -0.2663
 6768SOL    HW131937   0.577   0.749   8.580  0.5334  0.4348 -0.3440
 6768SOL    HW231938   0.543   0.723   8.437  0.7079 -0.7570  0.7127
 6769SOL     OW31939   1.262   4.355   3.949  0.3971  0.1226  0.1953
 6769SOL    HW131940   1.221   4.405   3.879 -0.5046 -1.6145 -0.5228
 6769SOL    HW231941   1.204   4.365   4.025 -0.8215 -0.9122 -0.6167
 6770SOL     OW31942   1.936   2.268   8.156  0.1323  0.2516 -0.9035
 6770SOL    HW131943   1.959   2.316   8.235  0.5070 -2.1436  0.4047
 6770SOL    HW231944   2.006   2.204   8.152 -0.6828 -0.7256  0.9612
 6771SOL     OW31945   3.156   1.772  15.777 -0.5166 -0.5424  0.3762
 6771SOL    HW131946   3.072   1.817  15.768 -1.0362 -1.1668  2.2092
 6771SOL    HW231947   3.212   1.848  15.762 -0.4598 -0.4925  0.8654
 6772SOL     OW31948   0.877   4.271  16.241  0.5440 -0.2034  0.0181
 6772SOL    HW131949   0.908   4.331  16.173  0.5476 -0.8440 -0.5493
 6772SOL    HW231950   0.861   4.191  16.191  0.2714 -0.5112  0.6032
 6773SOL     OW31951   4.068   2.059   7.705  0.7840  0.3530 -0.3040
 6773SOL    HW131952   4.102   2.014   7.782  1.8522 -0.3013 -1.1645
 6773SOL    HW231953   3.991   2.101   7.745  0.8838  1.2569 -1.0553
 6774SOL     OW31954   1.946   2.836   4.320  0.2241 -0.0828  0.5036
 6774SOL    HW131955   1.874   2.790   4.276 -1.8453  2.1090  1.6028
 6774SOL    HW231956   1.897   2.863   4.398 -1.0213  1.6937 -0.9231
 6775SOL     OW31957   1.768   0.171  13.892  0.6204 -0.6047  0.4767
 6775SOL    HW131958   1.764   0.177  13.796 -0.9426  0.9406  0.6328
 6775SOL    HW231959   1.690   0.223  13.914  2.3327  2.4027 -0.5601
 6776SOL     OW31960   2.617   4.489   6.058 -0.1851  0.2467  0.6934
 6776SOL    HW131961   2.679   4.528   6.120 -0.5929 -0.2680  1.4186
 6776SOL    HW231962   2.657   4.518   5.975 -0.6492  2.6633  1.2983
 6777SOL     OW31963   2.705   2.618   5.923  0.4121 -0.0934  0.1136
 6777SOL    HW131964   2.665   2.555   5.983  1.2449 -0.6267  0.0959
 6777SOL    HW231965   2.688   2.697   5.975 -1.2261  0.4435 -1.2270
 6778SOL     OW31966   3.215   2.630  15.579 -0.5102  0.3196 -0.0766
 6778SOL    HW131967   3.133   2.676  15.560  0.8646  2.7773 -0.0387
 6778SOL    HW231968   3.246   2.681  15.654  1.6412 -1.3023  0.1330
 6779SOL     OW31969   2.541   4.701   5.789 -0.0877 -0.1778 -0.3673
 6779SOL    HW131970   2.584   0.049   5.786 -0.9690  0.1874 -2.2942
 6779SOL    HW231971   2.553   4.660   5.703 -1.2728  1.3190 -1.2406
 6780SOL     OW31972   0.035   4.433   9.999 -0.0039 -0.3386 -0.1134
 6780SOL    HW131973   4.693   4.474   9.965 -0.8116 -2.9951 -1.4381
 6780SOL    HW231974   4.720   4.376  10.057 -0.6846  0.9355  0.5269
 6781SOL     OW31975   1.044   2.088   2.293  0.7582  0.5222  0.2675
 6781SOL    HW131976   1.071   2.072   2.383  1.2581 -1.7825 -0.2727
 6781SOL    HW231977   1.126   2.110   2.248 -0.3444  1.0078 -1.5191
 6782SOL     OW31978   1.610   4.683   6.698  0.0119  0.7134 -0.8301
 6782SOL    HW131979   1.661   4.613   6.659  0.4729  0.4996  0.1424
 6782SOL    HW231980   1.527   4.641   6.678  0.4852  1.0626 -3.5305
 6783SOL     OW31981   0.512   2.288   5.649  0.9207 -0.2889 -0.4754
 6783SOL    HW131982   0.573   2.353   5.683  0.1417  0.3118 -0.2530
 6783SOL    HW231983   0.458   2.270   5.726 -1.4171  3.6073 -1.2609
 6784SOL     OW31984   1.590   3.281  17.022  0.2772 -0.2006 -0.5162
 6784SOL    HW131985   1.565   3.350  17.083 -0.0360  0.5095 -1.4368
 6784SOL    HW231986   1.512   3.276  16.966 -1.3574  0.6873  1.6493
 6785SOL     OW31987   4.055   1.496  12.059 -0.2352  0.3871 -0.9341
 6785SOL    HW131988   4.139   1.542  12.051  1.1815 -1.9994  0.0698
 6785SOL    HW231989   4.080   1.419  12.110 -3.8142  0.6862  1.2660
 6786SOL     OW31990   3.267   3.926  16.457  0.2394  0.2747  0.4129
 6786SOL    HW131991   3.352   3.892  16.429 -1.8331 -3.7655 -1.0025
 6786SOL    HW231992   3.277   4.021  16.457 -0.1942  0.3200  0.3251
 6787SOL     OW31993   1.889   4.665   2.448  0.1524 -0.7174  0.1243
 6787SOL    HW131994   1.888   4.575   2.481 -1.2166  0.3926  3.1100
 6787SOL    HW231995   1.953   4.713   2.501 -0.3651 -1.1308  1.1274
 6788SOL     OW31996   0.826   1.378   3.997 -0.4755  0.1980 -0.0625
 6788SOL    HW131997   0.758   1.402   3.934 -0.7702 -1.9142 -0.5288
 6788SOL    HW231998   0.778   1.379   4.080 -0.0775 -0.9020  0.1793
 6789SOL     OW31999   4.135   0.481   4.837  0.3836 -0.4393 -0.7198
 6789SOL    HW132000   4.223   0.446   4.845  0.2337 -0.3803  1.1933
 6789SOL    HW232001   4.161   0.571   4.817 -0.1590 -0.4605 -1.5266
 6790SOL     OW32002   3.993   0.014   8.665  0.1018  0.2883 -0.3364
 6790SOL    HW132003   4.052   4.734   8.592  0.4239  0.9101 -0.2292
 6790SOL    HW232004   4.020   0.102   8.690  0.7628  0.2990 -1.0832
 6791SOL     OW32005   4.656   3.053   2.798  0.6214 -0.1766  0.1779
 6791SOL    HW132006   4.577   3.021   2.842  0.3807  0.5816  0.2981
 6791SOL    HW232007   4.701   3.113   2.859 -2.0739  0.4407  1.5560
 6792SOL     OW32008   3.546   3.219  13.099 -0.2975  0.8289 -0.1113
 6792SOL    HW132009   3.492   3.240  13.175 -1.5711  0.8599 -1.0313
 6792SOL    HW232010   3.597   3.145  13.133 -1.1701  0.6181  0.7310
 6793SOL     OW32011   4.681   2.895   8.721 -0.2258  0.0188 -0.4329
 6793SOL    HW132012   0.031   2.867   8.692 -0.5870 -1.6673  0.1169
 6793SOL    HW232013   4.699   2.964   8.785  2.3134 -1.8142  0.7854
 6794SOL     OW32014   4.589   4.276  12.975  0.2171  0.0813 -0.0203
 6794SOL    HW132015   4.635   4.196  12.950  1.1253  0.1390  1.4349
 6794SOL    HW232016   4.641   4.329  13.036 -1.5219  0.4365  1.1459
 6795SOL     OW32017   1.033   1.705   7.579  0.0086  0.0825 -0.1598
 6795SOL    HW132018   1.119   1.691   7.540 -0.6816 -0.0098 -1.6449
 6795SOL    HW232019   1.041   1.789   7.625  1.0797  0.0299 -0.2562
 6796SOL     OW32020   1.589   3.270   7.773  0.4165  0.6489  0.0947
 6796SOL    HW132021   1.567   3.177   7.765 -0.8366  0.6678  3.3732
 6796SOL    HW232022   1.535   3.309   7.705 -0.9140 -0.6120  0.4227
 6797SOL     OW32023   2.853   3.670  15.301  0.0421  0.5000 -0.6561
 6797SOL    HW132024   2.798   3.593  15.316 -1.2735  1.0366 -2.8599
 6797SOL    HW232025   2.942   3.637  15.309 -0.4171 -1.0835 -2.0336
 6798SOL     OW32026   1.049   3.576   7.917 -0.0486  0.2072  0.2577
 6798SOL    HW132027   1.134   3.619   7.923  1.0506 -1.5498 -2.7635
 6798SOL    HW232028   0.998   3.639   7.867 -0.8753 -1.4249 -0.9590
 6799SOL     OW32029   2.018   3.681   9.721 -0.0013 -0.4606 -0.6917
 6799SOL    HW132030   2.031   3.606   9.779 -1.9094 -0.1983  0.0571
 6799SOL    HW232031   2.044   3.638   9.639 -0.5503 -1.0071 -0.5773
 6800SOL     OW32032   2.687   4.292   5.604 -0.1455 -0.1534 -0.2803
 6800SOL    HW132033   2.607   4.304   5.655  0.3098 -2.0536  0.8687
 6800SOL    HW232034   2.692   4.373   5.553  0.5749  0.2375  0.4205
 6801SOL     OW32035   4.048   2.823  10.325 -0.3636 -0.8588 -0.2906
 6801SOL    HW132036   3.991   2.747  10.331 -2.2652  0.6291  0.3693
 6801SOL    HW232037   4.122   2.788  10.375  1.7810 -1.3315 -3.7466
 6802SOL     OW32038   4.084   0.272   4.379 -0.1870 -0.3478  0.1433
 6802SOL    HW132039   4.129   0.354   4.401 -1.8457  1.0541 -1.7196
 6802SOL    HW232040   4.142   0.246   4.307 -0.2828 -2.3159  0.7771
 6803SOL     OW32041   4.109   4.690  15.989  0.1764 -0.4942  0.4843
 6803SOL    HW132042   4.189   0.000  16.011  0.1584 -0.7223  1.0330
 6803SOL    HW232043   4.127   4.658  15.900 -1.7462  2.7533 -1.0766
 6804SOL     OW32044   2.645   3.466   8.084 -0.1351  1.0525 -0.0639
 6804SOL    HW132045   2.697   3.389   8.105 -0.8418  0.1258 -1.6537
 6804SOL    HW232046   2.556   3.434   8.097  0.7283 -1.2692  0.1401
 6805SOL     OW32047   3.357   0.850   3.528 -0.1834 -0.2041 -0.2912
 6805SOL    HW132048   3.277   0.885   3.490 -0.0695 -0.5544 -0.8549
 6805SOL    HW232049   3.381   0.768   3.483  1.4445  0.8983 -1.4246
 6806SOL     OW32050   2.782   3.733   6.931  0.4714 -0.1172  0.4216
 6806SOL    HW132051   2.766   3.688   7.014  0.2047 -0.6138  0.1021
 6806SOL    HW232052   2.787   3.824   6.960  0.7361 -0.3922  1.2608
 6807SOL     OW32053   0.469   1.397  15.789  0.1166  0.6223 -0.3375
 6807SOL    HW132054   0.464   1.318  15.843 -0.1767  0.4399 -0.6351
 6807SOL    HW232055   0.480   1.361  15.701  0.2160  0.1925 -0.1486
 6808SOL     OW32056   1.512   4.313   4.068 -0.2146 -0.0930  0.0534
 6808SOL    HW132057   1.534   4.386   4.009 -1.0965 -0.5902 -0.9009
 6808SOL    HW232058   1.420   4.338   4.079  0.4110  1.9118  0.7666
 6809SOL     OW32059   4.137   4.287   3.104 -0.2590  0.9036 -0.2360
 6809SOL    HW132060   4.161   4.328   3.020  1.3701 -1.3936 -0.8881
 6809SOL    HW232061   4.090   4.210   3.071 -2.3350  1.2912  1.7823
 6810SOL     OW32062   0.217   0.065  17.203  0.0145  0.1102 -0.0177
 6810SOL    HW132063   0.203   4.712  17.173  1.1989 -0.5437  1.3638
 6810SOL    HW232064   0.182   0.060  17.292  0.9339 -0.5179  0.3094
 6811SOL     OW32065   0.159   2.377   4.932 -0.1452 -0.1553 -0.1380
 6811SOL    HW132066   0.063   2.372   4.938 -0.3099  0.5988 -2.2864
 6811SOL    HW232067   0.177   2.461   4.890  1.9258 -0.1391  0.7773
 6812SOL     OW32068   0.517   3.875   9.106  0.6692  0.0163 -0.3543
 6812SOL    HW132069   0.497   3.955   9.153  0.4494 -0.5925  0.5875
 6812SOL    HW232070   0.455   3.887   9.034 -0.7529 -0.0068  0.8611
 6813SOL     OW32071   2.885   2.850   0.531 -0.2153 -0.5044  0.4556
 6813SOL    HW132072   2.901   2.763   0.495 -0.6855 -0.3370 -0.1596
 6813SOL    HW232073   2.964   2.861   0.583  0.4527 -0.8598 -0.4819
 6814SOL     OW32074   2.187   1.114   6.578 -0.6100  0.2077 -0.1154
 6814SOL    HW132075   2.154   1.058   6.648  1.8689 -0.0647  0.8318
 6814SOL    HW232076   2.223   1.189   6.626 -0.1865  0.6420 -1.1098
 6815SOL     OW32077   4.536   3.725   4.342 -0.5908  0.3744 -0.2628
 6815SOL    HW132078   4.570   3.640   4.371  0.3089  0.0982 -2.1657
 6815SOL    HW232079   4.612   3.775   4.314 -1.6011  0.9073 -1.9775
 6816SOL     OW32080   0.600   3.446   7.253 -0.4058  0.0698 -0.2148
 6816SOL    HW132081   0.669   3.382   7.271 -2.1486 -1.0072  2.6769
 6816SOL    HW232082   0.564   3.443   7.341  1.7754 -5.2170  0.4849
 6817SOL     OW32083   4.547   3.512   4.676  0.1948 -0.6912  0.1219
 6817SOL    HW132084   4.576   3.520   4.585 -3.5887  0.3467 -1.0122
 6817SOL    HW232085   4.503   3.596   4.693  0.3050 -0.4270 -0.8620
 6818SOL     OW32086   4.330   3.060   7.418  0.5887  0.1065  0.0389
 6818SOL    HW132087   4.339   2.994   7.486 -2.6121 -0.1032  0.2477
 6818SOL    HW232088   4.421   3.064   7.388 -0.5812  1.4992 -3.3191
 6819SOL     OW32089   4.733   0.403   2.576  0.1624  0.7599 -1.1327
 6819SOL    HW132090   4.731   0.493   2.610  0.2700  0.1917  0.3883
 6819SOL    HW232091   4.703   0.358   2.655  1.7661  1.7207  0.0433
 6820SOL     OW32092   2.311   1.501   2.192  0.2055  0.0292 -0.2770
 6820SOL    HW132093   2.281   1.472   2.278  0.8857  0.7639  0.2072
 6820SOL    HW232094   2.273   1.588   2.195 -0.8010 -0.4572  1.0357
 6821SOL     OW32095   2.509   0.260  14.429  0.3791 -0.4333  0.5102
 6821SOL    HW132096   2.463   0.316  14.366  0.3119 -1.8346 -0.6916
 6821SOL    HW232097   2.590   0.304  14.454  0.1600 -0.3612  1.0815
 6822SOL     OW32098   4.504   4.669   4.525  0.2138 -0.0170 -0.1441
 6822SOL    HW132099   4.476   4.662   4.616 -4.7736  1.0614 -1.5741
 6822SOL    HW232100   4.483   0.025   4.523  0.5224  0.0229 -1.3288
 6823SOL     OW32101   0.572   0.081  14.429  0.2948  0.1204  0.2119
 6823SOL    HW132102   0.487   0.037  14.435  0.8380 -0.7313  1.6575
 6823SOL    HW232103   0.554   0.174  14.415 -2.1698 -0.4973 -0.6649
 6824SOL     OW32104   1.730   3.678   1.720 -0.3003  0.1451  0.5420
 6824SOL    HW132105   1.744   3.772   1.707  3.5530 -0.8075 -2.2373
 6824SOL    HW232106   1.712   3.673   1.814 -0.7604  2.4332  0.5767
 6825SOL     OW32107   2.294   3.578   7.769  0.3177  0.3844  0.1748
 6825SOL    HW132108   2.211   3.563   7.724 -0.8835  1.9516  1.8552
 6825SOL    HW232109   2.313   3.667   7.739 -0.7826  0.1670 -1.1771
 6826SOL     OW32110   2.684   3.811   4.698 -0.1309 -0.2288 -0.3444
 6826SOL    HW132111   2.744   3.752   4.653 -3.2367 -2.5342 -1.4689
 6826SOL    HW232112   2.612   3.825   4.636 -0.6903 -0.2205  0.2983
 6827SOL     OW32113   0.135   0.814  16.116 -0.2193 -0.3067  0.6920
 6827SOL    HW132114   0.068   0.846  16.055  0.0648 -1.5897 -0.2865
 6827SOL    HW232115   0.095   0.737  16.158  2.3932 -1.1352  1.6475
 6828SOL     OW32116   0.730   1.221   4.438 -0.5017  0.1529 -0.8180
 6828SOL    HW132117   0.706   1.299   4.489  1.1538  0.7624 -0.9849
 6828SOL    HW232118   0.663   1.157   4.462 -0.3208 -0.7340 -2.6769
 6829SOL     OW32119   4.054   2.299   4.228  0.0614  0.4159  0.2398
 6829SOL    HW132120   4.111   2.236   4.184 -2.0901 -0.0960 -1.7656
 6829SOL    HW232121   4.115   2.346   4.286 -0.1067  1.8256 -0.7319
 6830SOL     OW32122   2.872   3.221   2.524  0.4192 -0.3199 -0.1920
 6830SOL    HW132123   2.881   3.287   2.454  0.5549 -0.8256 -0.6498
 6830SOL    HW232124   2.920   3.264   2.595 -1.8846 -0.1653  1.2487
 6831SOL     OW32125   0.459   4.097   4.613  0.0053 -0.3049 -0.3923
 6831SOL    HW132126   0.467   4.188   4.640 -1.3178 -0.2680 -0.0896
 6831SOL    HW232127   0.459   4.052   4.698  1.9228 -1.3745 -0.9664
 6832SOL     OW32128   1.022   2.644   8.847 -0.0254  0.1932 -0.3682
 6832SOL    HW132129   0.992   2.704   8.915 -3.0949 -0.2795 -1.3132
 6832SOL    HW232130   1.083   2.591   8.898 -2.0875  0.5751  2.4694
 6833SOL     OW32131   4.686   4.655   1.358 -0.5983  0.1456  0.6839
 6833SOL    HW132132   4.693   4.567   1.394 -1.1109  0.0467  0.5497
 6833SOL    HW232133   4.730   4.709   1.424  2.6283  0.6291 -1.8917
 6834SOL     OW32134   3.298   1.568  14.509 -0.0592  0.1065 -0.3494
 6834SOL    HW132135   3.297   1.657  14.473  0.6122  1.1326  2.1029
 6834SOL    HW232136   3.381   1.573  14.557 -0.2892 -1.4289  0.2101
 6835SOL     OW32137   0.296   2.433   3.197  0.2048  0.1818  0.7445
 6835SOL    HW132138   0.381   2.389   3.205 -0.6874 -1.8987 -1.1874
 6835SOL    HW232139   0.275   2.454   3.288 -0.5002  0.1556  0.5865
 6836SOL     OW32140   3.452   3.327   6.394 -0.5823 -0.0308  0.3112
 6836SOL    HW132141   3.360   3.327   6.420 -0.2335  1.3904  1.5193
 6836SOL    HW232142   3.442   3.256   6.330  1.8341 -0.8484  0.8513
 6837SOL     OW32143   1.258   3.171   1.281  0.6054  0.0697  0.7025
 6837SOL    HW132144   1.179   3.121   1.260  2.0237 -2.5961  1.6481
 6837SOL    HW232145   1.320   3.100   1.295  0.1881 -0.0684  1.8454
 6838SOL     OW32146   3.403   3.232   5.578  0.2960 -0.3070 -0.2507
 6838SOL    HW132147   3.308   3.228   5.580  0.1426  1.8387 -2.8849
 6838SOL    HW232148   3.412   3.295   5.650  1.9595  1.2998 -1.8503
 6839SOL     OW32149   0.197   3.906  16.044 -0.2028 -0.2567 -0.0274
 6839SOL    HW132150   0.196   3.877  16.135  0.4221 -0.0922  0.0264
 6839SOL    HW232151   0.108   3.886  16.013  0.2042  3.1501 -3.3460
 6840SOL     OW32152   2.453   2.362   8.209 -0.9158 -0.2085  0.0926
 6840SOL    HW132153   2.432   2.429   8.144  0.7447  0.5848  0.3829
 6840SOL    HW232154   2.534   2.393   8.250 -0.4176 -0.2152 -0.9085
 6841SOL     OW32155   1.839   2.758   2.619 -0.8454  0.1836 -0.5157
 6841SOL    HW132156   1.863   2.682   2.565 -0.6611 -1.3493  1.7458
 6841SOL    HW232157   1.771   2.722   2.676 -1.8454  0.9613 -1.2105
 6842SOL     OW32158   2.418   4.129  13.404 -0.3190  0.6540 -0.0230
 6842SOL    HW132159   2.464   4.144  13.487 -0.2213  1.8256 -0.2955
 6842SOL    HW232160   2.455   4.199  13.351 -0.7952  0.0499 -1.1461
 6843SOL     OW32161   0.515   4.352   4.693 -0.0046 -0.3534  0.1797
 6843SOL    HW132162   0.561   4.407   4.630 -0.9318 -2.4670 -2.3363
 6843SOL    HW232163   0.582   4.338   4.760 -0.1304  0.0986  0.4003
 6844SOL     OW32164   1.558   0.663   6.207  0.0099  0.2247 -0.1480
 6844SOL    HW132165   1.532   0.575   6.181 -1.4737  0.5819  0.0756
 6844SOL    HW232166   1.560   0.658   6.303  0.6624  2.2290 -0.0523
 6845SOL     OW32167   1.619   4.666   8.114  0.4010  0.4771 -0.2947
 6845SOL    HW132168   1.642   0.016   8.146  0.3879  0.8804 -1.3797
 6845SOL    HW232169   1.707   4.632   8.101 -0.1810 -1.2447  0.2341
 6846SOL     OW32170   1.460   2.592   2.931 -0.6739 -0.5288 -0.4978
 6846SOL    HW132171   1.513   2.560   3.004 -0.6298 -1.3289 -0.8810
 6846SOL    HW232172   1.456   2.684   2.959  1.2657 -0.5789 -0.0540
 6847SOL     OW32173   3.570   3.627   4.379  0.1635  0.0887 -0.7515
 6847SOL    HW132174   3.562   3.584   4.294 -1.6797  0.3730 -0.7249
 6847SOL    HW232175   3.640   3.689   4.361  0.9414  0.5950  3.8902
 6848SOL     OW32176   2.363   3.253   6.510 -0.2497 -0.0457 -0.0024
 6848SOL    HW132177   2.325   3.224   6.427  1.5783 -1.2773 -0.4165
 6848SOL    HW232178   2.454   3.261   6.482  0.0021  0.9712  1.1304
 6849SOL     OW32179   0.042   2.987  16.307  1.1650 -0.3320  0.6635
 6849SOL    HW132180   0.040   2.959  16.215  2.9016 -1.9075  1.1204
 6849SOL    HW232181   0.135   3.009  16.307  0.4573  2.6937  2.8570
 6850SOL     OW32182   1.157   1.561   3.665 -0.0441  0.1285  0.2903
 6850SOL    HW132183   1.074   1.596   3.632 -1.1688 -0.8685  2.0830
 6850SOL    HW232184   1.148   1.592   3.755 -0.8267 -0.6872  0.4969
 6851SOL     OW32185   0.520   1.973   6.141  0.2422  0.1774  0.3570
 6851SOL    HW132186   0.564   1.923   6.210 -0.0489 -0.8830 -0.2422
 6851SOL    HW232187   0.501   2.057   6.184 -1.3571  0.8774 -1.7700
 6852SOL     OW32188   3.586   3.651   8.701  0.2128 -0.2472  0.4464
 6852SOL    HW132189   3.510   3.621   8.652  0.1875  2.8445 -1.4295
 6852SOL    HW232190   3.600   3.740   8.667 -1.2837 -0.4378 -0.6513
 6853SOL     OW32191   4.554   1.648   2.938 -0.3434  0.0113  0.4571
 6853SOL    HW132192   4.610   1.712   2.894 -0.6579  0.3762  0.5901
 6853SOL    HW232193   4.523   1.593   2.865  2.4741  1.7110 -2.0274
 6854SOL     OW32194   1.998   1.080   7.068  0.4536 -0.4582 -0.2888
 6854SOL    HW132195   1.911   1.046   7.045  0.1866  0.0900 -0.0843
 6854SOL    HW232196   2.047   0.998   7.075  1.6765  0.1230 -2.0862
 6855SOL     OW32197   4.219   1.351   8.281 -0.4811  0.3090  0.6421
 6855SOL    HW132198   4.308   1.317   8.289 -0.7759 -0.4837  0.5017
 6855SOL    HW232199   4.165   1.273   8.272 -1.7102  1.2291  0.1614
 6856SOL     OW32200   1.556   1.786   3.554  0.4044 -0.4329 -0.1674
 6856SOL    HW132201   1.574   1.712   3.612  0.7688 -0.0036  0.2640
 6856SOL    HW232202   1.599   1.760   3.472  1.1478 -0.1896  0.1460
 6857SOL     OW32203   0.524   1.783   8.875  0.1125 -0.3475  0.1927
 6857SOL    HW132204   0.576   1.790   8.795  1.2079 -0.9646  0.8524
 6857SOL    HW232205   0.437   1.816   8.851 -1.0630 -2.7483  1.2159
 6858SOL     OW32206   2.437   1.405   5.855  0.1606  0.0590  0.1726
 6858SOL    HW132207   2.434   1.396   5.950  1.2575  2.3669  0.4278
 6858SOL    HW232208   2.361   1.354   5.828  0.6503  1.1013 -3.2194
 6859SOL     OW32209   2.324   4.672   7.001 -0.0004  0.2042  0.0530
 6859SOL    HW132210   2.373   4.606   6.952 -0.9119  1.0902 -2.0364
 6859SOL    HW232211   2.394   4.736   6.996  0.8308 -0.5665  1.8944
 6860SOL     OW32212   3.142   0.645   6.043  0.0380 -0.5151 -0.1344
 6860SOL    HW132213   3.151   0.641   6.138 -2.9669 -0.5324  0.1662
 6860SOL    HW232214   3.060   0.694   6.043  0.8271  0.7983 -0.8435
 6861SOL     OW32215   1.851   4.518   8.079  0.5500 -0.6474 -0.4987
 6861SOL    HW132216   1.866   4.450   8.145 -3.1711  1.4665  2.5314
 6861SOL    HW232217   1.813   4.469   8.006 -1.6326  2.3715 -1.3990
 6862SOL     OW32218   0.622   0.343  10.341 -0.1950  0.9077 -0.3920
 6862SOL    HW132219   0.646   0.275  10.278  1.5764 -0.3845  1.6493
 6862SOL    HW232220   0.692   0.328  10.405 -1.1411 -0.5138  0.3058
 6863SOL     OW32221   0.319   3.310   5.988  0.1644  0.0184  0.7193
 6863SOL    HW132222   0.228   3.295   5.960  0.7554 -0.8588 -0.7477
 6863SOL    HW232223   0.347   3.373   5.921 -0.1801 -1.8698 -1.2090
 6864SOL     OW32224   1.072   4.488   9.952  0.1156  0.4542 -0.2418
 6864SOL    HW132225   1.064   4.430  10.028  0.4108  0.4544 -0.2087
 6864SOL    HW232226   1.132   4.550   9.994 -0.1142  0.0333  0.7257
 6865SOL     OW32227   0.597   3.986  10.154 -0.6417  0.4207 -0.4974
 6865SOL    HW132228   0.576   3.971  10.061  0.8777  1.3443 -0.9872
 6865SOL    HW232229   0.535   4.057  10.170 -0.1641  0.8275 -0.4477
 6866SOL     OW32230   0.987   1.172   7.150 -0.2873  0.0026  0.2315
 6866SOL    HW132231   0.972   1.173   7.244  0.1428 -0.0289  0.2991
 6866SOL    HW232232   0.902   1.200   7.117  0.1537  0.1948 -0.7581
 6867SOL     OW32233   3.498   4.530   7.675  0.6143 -0.0751  0.2725
 6867SOL    HW132234   3.480   4.441   7.647  0.8809 -0.1902  0.4624
 6867SOL    HW232235   3.560   4.561   7.609 -1.3857  0.6554 -1.2342
 6868SOL     OW32236   4.183   4.228   2.494 -0.3011 -0.1296  0.4228
 6868SOL    HW132237   4.153   4.186   2.575  1.6335 -0.7622  0.7978
 6868SOL    HW232238   4.097   4.248   2.457  0.8765  2.2545 -1.0223
 6869SOL     OW32239   0.286   0.234   6.596 -0.2826 -0.0351 -0.1659
 6869SOL    HW132240   0.291   0.280   6.680 -0.0517  0.8569 -0.6654
 6869SOL    HW232241   0.364   0.179   6.601 -0.1986  0.0697 -0.3333
 6870SOL     OW32242   0.136   0.007  14.567  0.1589 -0.3745  0.1710
 6870SOL    HW132243   0.103   0.055  14.643 -0.5589 -0.0941 -0.3086
 6870SOL    HW232244   0.051   4.716  14.533 -0.9509  2.4099  0.5551
 6871SOL     OW32245   0.024   2.135   7.625  0.1916 -0.2108  0.7378
 6871SOL    HW132246   0.028   2.229   7.644 -0.4413 -0.1386  0.5083
 6871SOL    HW232247   0.012   2.130   7.531 -4.3003 -1.7847  1.3802
 6872SOL     OW32248   1.715   3.793   0.996 -0.5235 -0.1733  0.1052
 6872SOL    HW132249   1.737   3.715   1.047 -1.2243  1.6163  3.2046
 6872SOL    HW232250   1.793   3.839   1.029  0.0781 -3.1191  2.7756
 6873SOL     OW32251   1.165   1.722  14.029 -0.1605 -0.5950  0.1122
 6873SOL    HW132252   1.217   1.737  13.950  0.0718  1.3528  0.6484
 6873SOL    HW232253   1.081   1.687  13.999 -0.8735  0.6361  0.7163
 6874SOL     OW32254   0.414   0.267  14.027  0.0340  0.0620  0.6320
 6874SOL    HW132255   0.495   0.282  14.077  1.2762  0.1936 -1.4494
 6874SOL    HW232256   0.399   0.335  13.962 -1.8943 -1.0034 -0.0330
 6875SOL     OW32257   1.037   3.026   3.650 -0.0040 -0.2727 -0.6050
 6875SOL    HW132258   1.128   3.019   3.678 -0.2352 -0.2304  0.1359
 6875SOL    HW232259   0.989   3.063   3.724  1.0674 -1.0340  0.4651
 6876SOL     OW32260   0.615   1.229  12.817 -0.1169  0.0782 -0.3354
 6876SOL    HW132261   0.690   1.174  12.840 -1.3456 -1.1212  0.7237
 6876SOL    HW232262   0.546   1.202  12.877 -0.7507  1.9831 -0.1979
 6877SOL     OW32263   0.468   2.568   3.647  0.8110  0.4187  0.1513
 6877SOL    HW132264   0.537   2.507   3.674 -0.9523 -1.5849  0.1624
 6877SOL    HW232265   0.501   2.592   3.561 -0.6170 -0.8044 -0.7187
 6878SOL     OW32266   2.708   2.735   6.738 -0.3048  0.1775  0.6226
 6878SOL    HW132267   2.789   2.705   6.697 -1.4125 -1.9846 -0.0036
 6878SOL    HW232268   2.714   2.685   6.820  0.2985 -0.3803  0.2347
 6879SOL     OW32269   0.955   2.371   4.692  0.4345  0.3741  0.3511
 6879SOL    HW132270   1.004   2.302   4.646  0.2245 -0.4437  1.3646
 6879SOL    HW232271   0.991   2.356   4.779  0.1368 -0.5612  0.3239
 6880SOL     OW32272   3.920   2.722   8.194  0.5007 -0.1382  0.1945
 6880SOL    HW132273   3.898   2.629   8.200  1.7224 -0.4819 -0.7536
 6880SOL    HW232274   3.893   2.762   8.276 -1.3158 -2.7067  0.8761
 6881SOL     OW32275   1.152   2.918   6.177 -0.7661 -0.2815 -0.1762
 6881SOL    HW132276   1.093   2.990   6.199  1.5751  1.6472 -0.2460
 6881SOL    HW232277   1.201   2.952   6.103  1.2890 -2.2169  0.3020
 6882SOL     OW32278   3.575   0.308  11.881 -0.0554  0.2763  0.8421
 6882SOL    HW132279   3.568   0.402  11.868  1.3822  0.1275 -1.0942
 6882SOL    HW232280   3.612   0.274  11.799 -1.4050 -1.1901  0.8570
 6883SOL     OW32281   2.143   0.466   4.979 -0.2137  0.2470  0.4617
 6883SOL    HW132282   2.203   0.402   4.939  0.2168  0.6987  0.3904
 6883SOL    HW232283   2.063   0.439   4.935 -0.3088 -0.2500  0.9402
 6884SOL     OW32284   4.467   0.877  16.548 -0.3680  0.5343  0.3845
 6884SOL    HW132285   4.457   0.956  16.602  1.1401  0.8728  0.1594
 6884SOL    HW232286   4.554   0.900  16.515 -0.7212 -1.2889 -1.8239
 6885SOL     OW32287   1.034   1.626   0.762  0.3669  0.6407  0.2440
 6885SOL    HW132288   1.110   1.568   0.754  2.4348  3.2740  0.9603
 6885SOL    HW232289   1.061   1.710   0.726  1.4597 -1.3461 -3.6556
 6886SOL     OW32290   1.222   2.518   6.122 -0.1394 -0.2864  0.2967
 6886SOL    HW132291   1.297   2.460   6.110  0.4567  0.6877 -0.5956
 6886SOL    HW232292   1.252   2.599   6.082 -1.6885 -0.1100 -0.5378
 6887SOL     OW32293   2.468   3.572   9.831 -0.3361  0.1799  0.1318
 6887SOL    HW132294   2.462   3.639   9.899  2.2461  0.2726  0.2836
 6887SOL    HW232295   2.529   3.509   9.869 -2.2927 -2.7106 -1.5740
 6888SOL     OW32296   3.432   4.201  17.533  0.3371 -0.4479  0.4839
 6888SOL    HW132297   3.491   4.157  17.471  0.1051  1.3479 -1.0192
 6888SOL    HW232298   3.449   4.156  17.615 -2.7511 -0.6011  1.0256
 6889SOL     OW32299   0.906   0.966   0.201 -0.5115 -0.2537 -0.4669
 6889SOL    HW132300   0.938   1.050   0.236 -1.4028 -1.4027  3.1813
 6889SOL    HW232301   0.906   0.907   0.276 -0.7648  2.3639  1.6030
 6890SOL     OW32302   0.459   1.066   8.675  0.0337 -0.6363  0.4334
 6890SOL    HW132303   0.455   0.973   8.698  1.9805 -0.5629  1.0374
 6890SOL    HW232304   0.404   1.099   8.746 -0.2801  2.9976 -1.5136
 6891SOL     OW32305   0.919   3.542   0.921  0.6048 -0.0740 -0.0769
 6891SOL    HW132306   0.930   3.458   0.964 -0.1867  0.4153  1.0863
 6891SOL    HW232307   0.927   3.511   0.831  1.2441  0.3618 -0.1722
 6892SOL     OW32308   1.795   1.609   6.572 -0.1132  0.1570 -0.0912
 6892SOL    HW132309   1.805   1.679   6.637  0.8317 -2.1466  2.2572
 6892SOL    HW232310   1.714   1.650   6.542 -0.8761 -0.1129  1.5700
 6893SOL     OW32311   1.104   4.138  14.308  0.1139  0.0673 -0.5322
 6893SOL    HW132312   1.110   4.211  14.246 -0.1815  0.7226  0.2098
 6893SOL    HW232313   1.010   4.126  14.319  0.2541 -1.1582 -0.6175
 6894SOL     OW32314   1.173   3.506   6.820  0.7210 -0.0290 -0.5942
 6894SOL    HW132315   1.194   3.532   6.910 -2.0126 -0.1576  0.0585
 6894SOL    HW232316   1.086   3.469   6.830  1.2341 -0.4855  2.1804
 6895SOL     OW32317   1.415   3.503   1.369 -0.1607  0.6206  0.1826
 6895SOL    HW132318   1.398   3.450   1.447  0.1444  0.0192 -0.1622
 6895SOL    HW232319   1.333   3.503   1.321 -0.6337  2.7518  0.9835
 6896SOL     OW32320   3.105   1.144   6.846  0.2185 -0.2381  0.1274
 6896SOL    HW132321   3.031   1.182   6.894  1.2045  0.1021  1.3931
 6896SOL    HW232322   3.161   1.109   6.915 -1.4877 -1.2654  1.0060
 6897SOL     OW32323   1.556   2.926  11.278  0.3308 -0.0093 -0.0803
 6897SOL    HW132324   1.517   2.995  11.332  0.2291 -3.0494  3.7201
 6897SOL    HW232325   1.512   2.935  11.193  0.1753  0.4434  0.0456
 6898SOL     OW32326   4.233   1.424   3.542 -0.4691 -0.1761  0.1640
 6898SOL    HW132327   4.205   1.341   3.504 -0.8320 -0.4719  1.0708
 6898SOL    HW232328   4.324   1.405   3.564  0.2257  1.0866 -1.5912
 6899SOL     OW32329   1.348   1.503  14.864  0.2680 -0.0200 -0.4449
 6899SOL    HW132330   1.330   1.418  14.825 -2.5039 -0.0844  0.9655
 6899SOL    HW232331   1.262   1.543  14.882  0.7132  0.3846  0.7555
 6900SOL     OW32332   2.347   2.358   0.048 -0.5076  0.0787  0.0155
 6900SOL    HW132333   2.436   2.333   0.076 -0.0610  1.2156 -0.3787
 6900SOL    HW232334   2.364   2.443   0.008  0.8332 -0.4745 -0.6324
 6901SOL     OW32335   1.084   0.941   4.287 -0.3153  0.0008 -0.0230
 6901SOL    HW132336   1.066   1.033   4.306 -0.9914  0.5750 -3.4677
 6901SOL    HW232337   1.172   0.943   4.250 -0.2337 -0.0704  0.1662
 6902SOL     OW32338   0.605   1.696   8.607  0.6576  0.2715  0.4629
 6902SOL    HW132339   0.600   1.602   8.625 -0.9972  0.3525  0.3861
 6902SOL    HW232340   0.603   1.699   8.512 -0.9812 -0.2559  0.4878
 6903SOL     OW32341   2.055   2.534   2.043 -0.1368  0.3936  0.7869
 6903SOL    HW132342   1.971   2.571   2.068 -0.1743 -0.4582  1.8969
 6903SOL    HW232343   2.065   2.492   2.129 -0.4352 -1.3187 -0.0174
 6904SOL     OW32344   1.054   2.314  14.439 -0.1868 -0.6688  0.1158
 6904SOL    HW132345   1.117   2.378  14.471  2.8206 -4.3746  1.5816
 6904SOL    HW232346   0.978   2.355  14.480 -0.3512  0.0270 -0.8675
 6905SOL     OW32347   1.714   2.493   3.614  0.5594 -0.1357 -0.2813
 6905SOL    HW132348   1.779   2.554   3.650  0.6292 -0.2250 -0.2546
 6905SOL    HW232349   1.668   2.540   3.544 -1.3332 -1.6743 -0.0432
 6906SOL     OW32350   2.408   3.653   5.652 -0.5728  0.5144  0.6031
 6906SOL    HW132351   2.466   3.579   5.631  1.5875  1.7183  2.3291
 6906SOL    HW232352   2.467   3.718   5.690  2.1538 -1.6805  0.1324
 6907SOL     OW32353   4.328   4.195   5.742 -0.1045  0.1208  0.4510
 6907SOL    HW132354   4.316   4.210   5.648  1.8966 -2.9787 -0.2897
 6907SOL    HW232355   4.386   4.268   5.761  0.7396 -0.8296  1.4560
 6908SOL     OW32356   2.328   4.474   7.337  1.0563  0.0185  0.5636
 6908SOL    HW132357   2.315   4.558   7.291 -0.2969 -0.3635  0.2469
 6908SOL    HW232358   2.276   4.422   7.276  1.1477  1.0445 -0.4063
 6909SOL     OW32359   2.008   4.353   7.642  0.8148  0.2908  0.2465
 6909SOL    HW132360   2.063   4.321   7.571 -0.4615  0.2000 -0.6958
 6909SOL    HW232361   1.947   4.406   7.591  0.3371 -1.1972 -0.7377
 6910SOL     OW32362   0.617   3.802   7.899 -0.2212  0.1273  0.4873
 6910SOL    HW132363   0.668   3.827   7.976  2.3226 -0.9940 -0.8002
 6910SOL    HW232364   0.658   3.720   7.869 -0.3702 -0.4467  1.8724
 6911SOL     OW32365   2.829   4.714   3.770  0.5458  0.8943 -0.2716
 6911SOL    HW132366   2.836   4.655   3.694  3.0398 -1.5229  1.7998
 6911SOL    HW232367   2.808   4.650   3.837 -1.4814  2.8847  0.9818
 6912SOL     OW32368   4.392   3.288   9.558  0.0548 -0.0926  0.2124
 6912SOL    HW132369   4.444   3.367   9.540  0.3185 -0.0216  1.2466
 6912SOL    HW232370   4.450   3.230   9.608  1.9321  0.5108 -1.2624
 6913SOL     OW32371   1.355   0.340  15.252 -0.1569 -0.5826 -0.1514
 6913SOL    HW132372   1.376   0.387  15.171  2.7097 -1.3394  0.1726
 6913SOL    HW232373   1.439   0.361  15.292 -0.5013  1.6594 -0.5729
 6914SOL     OW32374   3.778   4.324   1.658 -0.0010 -0.5366  0.7414
 6914SOL    HW132375   3.795   4.242   1.703 -2.6403 -1.1579  0.6102
 6914SOL    HW232376   3.851   4.336   1.597 -2.7175 -2.0481 -2.8110
 6915SOL     OW32377   3.915   1.227  13.125  0.3865  0.1664 -0.2373
 6915SOL    HW132378   3.957   1.277  13.195  0.2715  0.5890 -0.4739
 6915SOL    HW232379   3.991   1.171  13.108 -0.8692 -1.8454  0.6601
 6916SOL     OW32380   1.939   3.932   5.542  0.3474  0.4795 -0.0709
 6916SOL    HW132381   1.861   3.971   5.504  0.8546  0.7613 -0.8190
 6916SOL    HW232382   1.943   3.854   5.487 -2.9063 -0.2196  0.6947
 6917SOL     OW32383   3.660   1.068   2.558 -0.1272  0.0600  0.1120
 6917SOL    HW132384   3.616   1.132   2.613  0.9266 -0.1768  1.2195
 6917SOL    HW232385   3.701   1.016   2.628 -1.0846  0.0879  0.6836
 6918SOL     OW32386   0.238   1.554   9.016  0.2616  0.0779 -0.4570
 6918SOL    HW132387   0.202   1.583   8.932 -1.0731 -1.7076 -0.4883
 6918SOL    HW232388   0.212   1.463   9.010 -1.8381  0.5579  1.2234
 6919SOL     OW32389   4.697   3.510  13.257 -0.1033  0.5247 -0.3102
 6919SOL    HW132390   0.018   3.578  13.223  0.2453  0.0736 -0.6181
 6919SOL    HW232391   4.615   3.559  13.264  0.4127  1.2452  0.7200
 6920SOL     OW32392   2.847   4.408  11.922  0.2513  0.3973  0.2025
 6920SOL    HW132393   2.900   4.469  11.871 -1.3431 -0.0913 -2.0426
 6920SOL    HW232394   2.808   4.467  11.986  0.9825  0.5887  0.4703
 6921SOL     OW32395   3.848   3.291   7.269 -0.0794 -0.3807 -0.4108
 6921SOL    HW132396   3.910   3.357   7.299  0.0276 -0.8275  0.3448
 6921SOL    HW232397   3.775   3.308   7.328  0.3222  3.2761 -0.9734
 6922SOL     OW32398   1.809   3.227  14.569 -0.5608 -0.5899  0.0904
 6922SOL    HW132399   1.831   3.163  14.636  1.4331 -1.9771 -1.8875
 6922SOL    HW232400   1.893   3.270  14.557  0.3898 -2.9438 -1.5784
 6923SOL     OW32401   4.415   2.374   3.639  0.2346 -0.3075 -0.0825
 6923SOL    HW132402   4.323   2.396   3.652  0.7120  1.3212  0.4984
 6923SOL    HW232403   4.439   2.435   3.570 -0.7564  1.4853  1.1676
 6924SOL     OW32404   3.492   3.573   4.829  0.4194 -0.0667 -0.7618
 6924SOL    HW132405   3.463   3.546   4.742 -2.7460  0.1371  0.2584
 6924SOL    HW232406   3.443   3.654   4.837 -2.6573 -1.9240 -1.0222
 6925SOL     OW32407   0.018   1.666   4.613  0.3246  0.2670  0.7235
 6925SOL    HW132408   0.027   1.713   4.696 -1.6871 -1.5027  1.9643
 6925SOL    HW232409   0.109   1.645   4.596 -0.2034 -0.2859 -1.4258
 6926SOL     OW32410   1.358   3.526   3.034  0.1651 -0.0200 -0.5297
 6926SOL    HW132411   1.393   3.593   2.975  0.5448  0.7007  0.5217
 6926SOL    HW232412   1.438   3.487   3.068 -0.5188  0.6987  1.9181
 6927SOL     OW32413   2.377   2.890  11.238 -0.5641 -0.5542 -0.3966
 6927SOL    HW132414   2.401   2.982  11.235 -0.5808 -0.5756 -1.1728
 6927SOL    HW232415   2.364   2.865  11.330 -1.5197  1.4264 -0.0107
 6928SOL     OW32416   2.451   0.539   8.021 -0.9599  0.2117  0.0243
 6928SOL    HW132417   2.492   0.527   7.935  0.7561 -1.8223  1.1184
 6928SOL    HW232418   2.406   0.623   8.019  3.0028  2.3502 -0.5026
 6929SOL     OW32419   3.691   2.727   2.117  0.0441  0.1387  0.0573
 6929SOL    HW132420   3.673   2.816   2.145  0.6370  0.3264 -0.1460
 6929SOL    HW232421   3.673   2.731   2.023  1.6125 -0.1830 -0.2745
 6930SOL     OW32422   4.378   1.257   5.058 -0.3133  0.6695 -0.8297
 6930SOL    HW132423   4.309   1.258   4.991 -2.2872  3.8524  1.2560
 6930SOL    HW232424   4.335   1.197   5.118  1.1440 -0.8781 -1.3445
 6931SOL     OW32425   4.060   0.335   3.651  0.3195  0.1948  0.1965
 6931SOL    HW132426   4.060   0.423   3.613 -2.2099  0.8083  1.6472
 6931SOL    HW232427   3.972   0.306   3.627  0.0615 -0.2673  1.7684
 6932SOL     OW32428   1.920   1.546  12.083 -0.2871  0.1842 -0.5039
 6932SOL    HW132429   1.981   1.568  12.013  0.1940  1.3665  0.2804
 6932SOL    HW232430   1.891   1.458  12.058 -0.2619  0.5683 -1.8752
 6933SOL     OW32431   0.835   3.605   4.588 -0.0375 -0.0183 -0.2723
 6933SOL    HW132432   0.814   3.676   4.528  1.7500 -0.3748 -1.2969
 6933SOL    HW232433   0.816   3.536   4.525 -2.0558  0.6264 -0.3612
 6934SOL     OW32434   0.736   2.732   8.553 -0.6010 -0.3748 -0.0780
 6934SOL    HW132435   0.795   2.803   8.578 -1.8409  0.0122  1.6855
 6934SOL    HW232436   0.772   2.663   8.608 -0.1441  0.9258  1.2498
 6935SOL     OW32437   4.489   1.318  10.203  0.1224  0.6019 -0.7656
 6935SOL    HW132438   4.433   1.396  10.198 -0.1392  0.4429 -0.2198
 6935SOL    HW232439   4.484   1.285  10.292  0.2469 -0.5278 -1.1788
 6936SOL     OW32440   4.380   4.586   0.678  0.1027  0.4957  0.7519
 6936SOL    HW132441   4.445   4.516   0.689 -1.8182 -1.6656 -1.5547
 6936SOL    HW232442   4.324   4.563   0.752 -1.2404  1.0219 -0.1141
 6937SOL     OW32443   0.034   1.629  16.557  0.2654 -0.5140 -0.0964
 6937SOL    HW132444   0.015   1.547  16.601 -2.1306  0.0225 -0.1341
 6937SOL    HW232445   0.071   1.669  16.636 -1.7916  2.6532 -0.7226
 6938SOL     OW32446   0.407   2.665   9.610  0.1114 -0.1486  0.0297
 6938SOL    HW132447   0.314   2.659   9.587  0.1838  0.9192 -0.5560
 6938SOL    HW232448   0.420   2.576   9.643 -0.1657 -0.3767 -0.4708
 6939SOL     OW32449   1.483   2.674  17.378 -0.0317  0.0941  0.0491
 6939SOL    HW132450   1.569   2.664  17.418 -1.3088 -2.2653  2.1980
 6939SOL    HW232451   1.449   2.748  17.429  0.0892 -2.9047  4.4792
 6940SOL     OW32452   4.649   2.562   3.902 -0.0584  0.5721 -0.0284
 6940SOL    HW132453   0.000   2.590   3.923 -1.0918  2.9400  1.1582
 6940SOL    HW232454   4.658   2.468   3.919 -0.4825  0.6473  0.6050
 6941SOL     OW32455   2.280   1.678   6.277 -0.3788  0.4948 -0.1811
 6941SOL    HW132456   2.270   1.747   6.211 -1.3520  1.7094  1.2382
 6941SOL    HW232457   2.187   1.665   6.295 -0.1653 -1.7600 -0.7686
 6942SOL     OW32458   3.386   0.393   7.783 -0.0700 -0.3208  0.3458
 6942SOL    HW132459   3.398   0.487   7.791  0.4169 -0.3459 -0.0579
 6942SOL    HW232460   3.340   0.377   7.865  1.3673 -1.2002  0.9763
 6943SOL     OW32461   0.587   0.693   2.777  0.3192 -0.4667  0.0059
 6943SOL    HW132462   0.544   0.645   2.707 -0.8126  0.3507  0.1259
 6943SOL    HW232463   0.678   0.668   2.764  0.3004  0.4186 -1.8157
 6944SOL     OW32464   2.565   1.640   9.069 -0.0984 -0.0163 -0.1340
 6944SOL    HW132465   2.488   1.681   9.108 -1.6662 -1.3936 -1.8243
 6944SOL    HW232466   2.634   1.696   9.105 -0.3468  1.5585 -2.0931
 6945SOL     OW32467   2.550   4.391   8.725 -0.5761  0.0752 -0.3546
 6945SOL    HW132468   2.630   4.428   8.763  0.3032 -0.7627 -1.4097
 6945SOL    HW232469   2.587   4.339   8.654  0.2102 -1.4923  1.2064
 6946SOL     OW32470   2.896   3.704   0.274  0.1719 -0.1819 -0.4602
 6946SOL    HW132471   2.942   3.695   0.357 -1.9400  0.7656  0.8130
 6946SOL    HW232472   2.886   3.800   0.272 -0.7376 -0.2971 -1.5509
 6947SOL     OW32473   3.813   0.579   3.808  0.3620 -0.8673  0.4670
 6947SOL    HW132474   3.718   0.579   3.819  0.2496 -3.1128 -0.4069
 6947SOL    HW232475   3.832   0.494   3.848  2.4477 -0.5739  0.1349
 6948SOL     OW32476   2.813   1.309   1.727 -0.2051 -0.4510  0.5494
 6948SOL    HW132477   2.773   1.348   1.650  1.3548  0.7865  0.3800
 6948SOL    HW232478   2.787   1.363   1.801 -0.5744  0.5918 -0.3449
 6949SOL     OW32479   4.598   4.619  14.557  0.7374  0.6497  0.1546
 6949SOL    HW132480   4.513   4.636  14.516  0.4224 -0.5870  0.2994
 6949SOL    HW232481   4.582   4.653  14.645  2.1887  1.2926  0.1690
 6950SOL     OW32482   1.004   3.126   6.279  0.2710 -0.2019 -0.0172
 6950SOL    HW132483   1.041   3.183   6.212  0.3182 -1.2356 -0.8716
 6950SOL    HW232484   0.928   3.174   6.313  0.1155 -0.3164 -0.1993
 6951SOL     OW32485   2.246   1.271  13.505  0.2490 -0.4266 -0.6579
 6951SOL    HW132486   2.298   1.350  13.523  0.7963 -1.0067  0.2987
 6951SOL    HW232487   2.203   1.242  13.586 -0.8345 -0.3953 -1.2268
 6952SOL     OW32488   4.401   1.336   3.269 -0.1211 -0.0499  0.2049
 6952SOL    HW132489   4.317   1.334   3.315  0.4854  2.9411  1.4231
 6952SOL    HW232490   4.432   1.418   3.307  1.1312  0.2612 -1.4781
 6953SOL     OW32491   1.595   1.718   6.467  0.6666  0.1886  0.2367
 6953SOL    HW132492   1.622   1.762   6.386 -0.3802  1.1754  0.4276
 6953SOL    HW232493   1.546   1.789   6.508 -1.7338 -1.7671  0.7946
 6954SOL     OW32494   2.732   2.148   4.962 -0.7733 -0.2597 -0.3559
 6954SOL    HW132495   2.763   2.074   4.910  0.1336  0.0422 -0.2506
 6954SOL    HW232496   2.805   2.182   5.014 -0.3420 -1.3678 -0.2373
 6955SOL     OW32497   1.563   2.284   6.509 -0.5294 -0.2343 -0.2020
 6955SOL    HW132498   1.591   2.293   6.418  0.8234  0.9387  0.3339
 6955SOL    HW232499   1.639   2.248   6.554 -0.5399 -0.5846 -0.4721
 6956SOL     OW32500   3.088   2.661   8.832 -0.0084  0.1761 -0.0833
 6956SOL    HW132501   3.023   2.707   8.886 -0.6111 -2.1683  1.1707
 6956SOL    HW232502   3.070   2.569   8.851  0.1184 -0.0451 -1.0495
 6957SOL     OW32503   2.029   1.236   7.678  0.4186  0.1146  0.4177
 6957SOL    HW132504   2.070   1.149   7.671  0.7195  0.2309  0.7179
 6957SOL    HW232505   2.061   1.275   7.597 -0.7062  1.0671  0.4411
 6958SOL     OW32506   1.013   2.622   9.879 -0.4021 -0.6644  0.5195
 6958SOL    HW132507   1.092   2.602   9.929  0.5109 -2.5969 -1.7092
 6958SOL    HW232508   1.052   2.667   9.804 -0.6528  0.9643  1.3743
 6959SOL     OW32509   0.927   0.969   0.540  0.0104  0.0697  0.2424
 6959SOL    HW132510   1.011   0.950   0.582 -0.7978 -1.4568  1.1775
 6959SOL    HW232511   0.870   0.893   0.557  1.7824 -1.1173  0.8679
 6960SOL     OW32512   3.684   2.934  15.045  0.6046 -0.5875  0.6078
 6960SOL    HW132513   3.668   2.961  15.136  0.0958  1.5401 -0.1376
 6960SOL    HW232514   3.589   2.938  15.037  0.6773  0.1160  0.1389
 6961SOL     OW32515   3.727   4.122   3.775  0.2695 -0.3051  0.3911
 6961SOL    HW132516   3.678   4.093   3.852  1.2709  0.8036  1.4132
 6961SOL    HW232517   3.712   4.042   3.724 -0.1215 -0.1115  0.2016
 6962SOL     OW32518   2.980   4.730  12.031  0.5073 -0.2971  0.0678
 6962SOL    HW132519   3.072   4.704  12.040 -0.0646 -1.3929  2.5296
 6962SOL    HW232520   2.944   4.652  12.073  1.6225 -0.1985  1.2135
 6963SOL     OW32521   3.573   0.885   2.924  0.4515  0.0369  0.1283
 6963SOL    HW132522   3.628   0.937   2.866  0.2992  0.2604  0.1864
 6963SOL    HW232523   3.613   0.924   3.002 -1.3913  0.0710  1.0588
 6964SOL     OW32524   1.032   3.973  16.287 -0.5866  0.0041 -0.2496
 6964SOL    HW132525   0.992   4.023  16.215  0.4677  1.9402  0.4966
 6964SOL    HW232526   1.083   4.037  16.337  1.1304 -1.6194  0.0185
 6965SOL     OW32527   2.719   0.475   3.213 -0.0548 -0.8692 -0.5284
 6965SOL    HW132528   2.685   0.472   3.124 -2.0173  1.7008  0.1237
 6965SOL    HW232529   2.654   0.530   3.257  0.9509  0.2144 -0.4130
 6966SOL     OW32530   3.582   1.184   4.686  0.4834  0.1384 -0.1084
 6966SOL    HW132531   3.612   1.135   4.609  1.2361  0.9956 -0.3526
 6966SOL    HW232532   3.648   1.252   4.699 -0.4369  0.9129  0.4378
 6967SOL     OW32533   0.396   2.980  12.671  0.0552 -0.2872 -0.3700
 6967SOL    HW132534   0.473   2.977  12.728  1.0069 -2.5732 -1.7682
 6967SOL    HW232535   0.343   2.911  12.711  0.5131 -1.0925 -1.1399
 6968SOL     OW32536   0.918   1.080   5.375  0.0529  0.7118 -0.3542
 6968SOL    HW132537   0.891   1.087   5.467  2.9085  0.7700  0.4924
 6968SOL    HW232538   0.833   1.055   5.340  1.0599 -1.9872 -0.8913
 6969SOL     OW32539   1.082   0.373   3.875  0.2055  0.4425  0.1306
 6969SOL    HW132540   1.052   0.397   3.788  0.3879  0.8256  0.1746
 6969SOL    HW232541   1.162   0.324   3.855 -0.3288 -0.1248 -0.6177
 6970SOL     OW32542   2.025   3.047   1.759  0.3476 -0.0466  0.5572
 6970SOL    HW132543   1.973   3.123   1.733  1.9199  0.4795 -1.0147
 6970SOL    HW232544   2.031   2.997   1.678 -1.3644 -0.3203  0.5908
 6971SOL     OW32545   0.708   0.436   4.139  0.2832  0.7524  0.3577
 6971SOL    HW132546   0.698   0.521   4.096  1.8178 -0.3623 -2.1957
 6971SOL    HW232547   0.621   0.398   4.149 -0.7423  3.0845  0.1734
 6972SOL     OW32548   3.813   3.519  13.138 -0.0965  0.3851 -0.0205
 6972SOL    HW132549   3.882   3.557  13.084  3.3942 -1.9327  2.7318
 6972SOL    HW232550   3.767   3.598  13.166  2.2049  1.7654 -0.1702
 6973SOL     OW32551   1.268   3.726   2.594  0.1766  0.1189  0.1179
 6973SOL    HW132552   1.290   3.806   2.547 -1.1122 -0.4047 -1.3562
 6973SOL    HW232553   1.173   3.737   2.593  0.4384  2.4983  2.5010
 6974SOL     OW32554   4.138   2.976   1.568  0.1979 -0.2965  0.0630
 6974SOL    HW132555   4.207   3.041   1.583 -1.3863  2.1289 -3.1709
 6974SOL    HW232556   4.073   3.045   1.554  1.5904  0.9442 -0.3546
 6975SOL     OW32557   3.248   0.810  17.348  0.1166 -0.1669 -0.2766
 6975SOL    HW132558   3.214   0.725  17.318 -0.7078 -0.7702  2.4069
 6975SOL    HW232559   3.309   0.820  17.275  0.1958 -1.3108 -0.3650
 6976SOL     OW32560   1.532   3.613  17.412 -0.2867 -0.2277 -0.4595
 6976SOL    HW132561   1.442   3.615  17.443 -1.0049  0.4466 -2.5822
 6976SOL    HW232562   1.536   3.562  17.331  0.3828 -0.8552 -0.0368
 6977SOL     OW32563   3.876   3.676   5.976 -0.3286  0.1590 -0.2432
 6977SOL    HW132564   3.784   3.663   6.001  0.0491 -0.2423  0.8826
 6977SOL    HW232565   3.886   3.764   6.013 -0.4082 -0.3729  1.0233
 6978SOL     OW32566   1.767   3.076   6.897 -0.2482 -0.6098  0.2338
 6978SOL    HW132567   1.748   3.044   6.985 -1.6892 -1.9842 -0.5589
 6978SOL    HW232568   1.746   3.169   6.905  0.7747 -0.2155 -1.5675
 6979SOL     OW32569   0.492   2.411   0.123 -0.7162 -0.3461 -0.2473
 6979SOL    HW132570   0.577   2.421   0.167 -0.1324 -3.5667 -0.6371
 6979SOL    HW232571   0.504   2.481   0.060  0.0553 -1.0399 -0.8723
 6980SOL     OW32572   2.929   1.365  14.703  0.3833 -0.1832  0.3818
 6980SOL    HW132573   3.024   1.359  14.691  0.6332  1.9212  1.3011
 6980SOL    HW232574   2.918   1.450  14.746 -1.3924 -0.6802  0.9017
 6981SOL     OW32575   1.219   3.249   1.851 -0.1145 -0.3027 -0.1325
 6981SOL    HW132576   1.215   3.215   1.940 -1.3271  1.7116  0.6064
 6981SOL    HW232577   1.277   3.322   1.872 -0.2573 -0.5542  1.1198
 6982SOL     OW32578   3.854   3.196   4.553 -0.0382  0.9002  0.1501
 6982SOL    HW132579   3.840   3.291   4.552  1.2853  1.0607 -2.7294
 6982SOL    HW232580   3.786   3.166   4.613 -0.6308  1.1107 -0.4072
 6983SOL     OW32581   4.209   4.252   6.602  0.2321 -0.0088  0.0787
 6983SOL    HW132582   4.292   4.245   6.648  0.3712  2.6978  0.2734
 6983SOL    HW232583   4.154   4.176   6.620 -1.3861  1.1860  0.2343
 6984SOL     OW32584   3.213   4.666  17.182 -0.6003 -0.2730 -0.0070
 6984SOL    HW132585   3.172   4.662  17.268  1.8613  1.3663  1.2459
 6984SOL    HW232586   3.180   0.015  17.155 -0.7904 -0.2458  0.3248
 6985SOL     OW32587   2.527   1.031   9.660 -0.4041  0.7386  0.3935
 6985SOL    HW132588   2.600   1.090   9.678 -0.5243  1.0697 -0.2198
 6985SOL    HW232589   2.508   1.029   9.566 -1.3156 -2.7893  0.6658
 6986SOL     OW32590   3.250   0.969   6.228 -0.0594 -0.0951 -0.3629
 6986SOL    HW132591   3.170   0.932   6.266 -1.3721  0.6607 -2.4451
 6986SOL    HW232592   3.279   1.019   6.304 -1.9509 -0.9281  0.9368
 6987SOL     OW32593   1.407   2.386   3.372 -0.0346  0.7757  0.5455
 6987SOL    HW132594   1.366   2.392   3.285  1.9056  0.1661 -0.4221
 6987SOL    HW232595   1.399   2.474   3.410  1.5429  1.5593 -0.9199
 6988SOL     OW32596   0.668   0.285   9.375 -0.5506 -0.4995 -0.0094
 6988SOL    HW132597   0.586   0.259   9.334  2.0139 -2.1672 -3.9889
 6988SOL    HW232598   0.714   0.210   9.412 -2.4186 -1.1764  0.9382
 6989SOL     OW32599   0.882   1.898   1.202  0.0982  0.5462  0.5205
 6989SOL    HW132600   0.907   1.876   1.292 -2.5501  2.2356  1.6927
 6989SOL    HW232601   0.923   1.821   1.164 -1.7528 -0.3972  0.4311
 6990SOL     OW32602   0.357   2.961   8.856 -0.0831 -0.2114  0.3670
 6990SOL    HW132603   0.345   2.913   8.773  1.4130 -1.5097  0.9027
 6990SOL    HW232604   0.410   2.902   8.910  0.2523 -1.0860 -0.9074
 6991SOL     OW32605   3.580   4.119  11.898 -0.1117 -0.0396 -0.3956
 6991SOL    HW132606   3.585   4.153  11.809  0.5300 -0.4088 -0.5019
 6991SOL    HW232607   3.491   4.149  11.917 -0.1472  0.6748 -1.6498
 6992SOL     OW32608   2.298   4.338   3.330  0.2810  0.2355  0.3718
 6992SOL    HW132609   2.293   4.247   3.302  0.6961  0.0974  0.7353
 6992SOL    HW232610   2.338   4.327   3.417  0.1106  1.9913  0.6681
 6993SOL     OW32611   2.830   2.485   5.479 -0.1413  0.9078 -0.1932
 6993SOL    HW132612   2.750   2.498   5.530  0.3867 -0.6165  1.0188
 6993SOL    HW232613   2.891   2.446   5.541  0.9001  0.5562 -1.4499
 6994SOL     OW32614   3.923   1.973   4.469  0.3608 -0.0086 -0.3619
 6994SOL    HW132615   3.899   1.927   4.550 -0.0020 -2.5755 -1.9151
 6994SOL    HW232616   3.993   2.036   4.488 -2.3194  2.7554  0.4303
 6995SOL     OW32617   2.624   3.086   7.730 -0.1436 -0.0858 -0.4296
 6995SOL    HW132618   2.658   3.027   7.662 -1.9311 -0.4128 -1.0537
 6995SOL    HW232619   2.682   3.059   7.801 -0.4743 -0.8043 -0.4291
 6996SOL     OW32620   2.122   1.752   5.430  0.6082  0.2247  0.1813
 6996SOL    HW132621   2.154   1.768   5.341  3.2682 -1.0832  0.9212
 6996SOL    HW232622   2.031   1.726   5.419  0.6157 -0.0421  0.7468
 6997SOL     OW32623   1.257   4.435   4.927 -0.8591  0.0303  0.2206
 6997SOL    HW132624   1.316   4.492   4.878 -1.3661  0.9402  0.6783
 6997SOL    HW232625   1.259   4.361   4.865 -0.3129 -0.7626  1.1839
 6998SOL     OW32626   2.786   2.686   8.427 -0.3191 -0.4132 -0.1599
 6998SOL    HW132627   2.730   2.729   8.491 -0.3583  1.0256 -1.1733
 6998SOL    HW232628   2.866   2.664   8.475  0.5372  1.8502 -0.5823
 6999SOL     OW32629   1.972   1.798   5.755 -0.2294  0.4008 -0.0470
 6999SOL    HW132630   2.044   1.745   5.788 -0.6378  0.0269  0.2585
 6999SOL    HW232631   1.909   1.732   5.786 -1.5942  1.0444 -1.4499
 7000SOL     OW32632   0.692   1.700   5.392 -0.2935 -0.2010 -0.2065
 7000SOL    HW132633   0.684   1.796   5.398  0.0733 -0.2530  1.1457
 7000SOL    HW232634   0.736   1.681   5.309 -0.5109 -3.1047  0.3690
 7001SOL     OW32635   4.409   0.922   0.427 -0.0429 -0.6766  0.4031
 7001SOL    HW132636   4.341   0.970   0.474  0.3194  0.9125 -0.7216
 7001SOL    HW232637   4.379   0.831   0.422 -2.5155  0.2423 -1.3566
 7002SOL     OW32638   1.335   0.300   5.628  0.1574 -0.6942 -0.2450
 7002SOL    HW132639   1.430   0.292   5.637  0.2547  0.3441 -0.3947
 7002SOL    HW232640   1.325   0.261   5.542 -0.6299 -1.0441  0.0074
 7003SOL     OW32641   2.561   4.353   3.959  0.7869 -0.1695  0.0533
 7003SOL    HW132642   2.498   4.388   3.896  1.0596  0.6771  0.2597
 7003SOL    HW232643   2.538   4.260   3.959 -0.6559  0.1870  1.1164
 7004SOL     OW32644   3.140   0.802   7.061  0.3066  0.3000 -0.2364
 7004SOL    HW132645   3.122   0.743   6.988 -0.0984  1.0045 -0.7119
 7004SOL    HW232646   3.232   0.783   7.076  0.0990 -1.0547 -0.6602
 7005SOL     OW32647   1.155   3.869   1.546 -0.3266  0.1016  0.1712
 7005SOL    HW132648   1.230   3.809   1.551  2.2781  3.0094 -3.8076
 7005SOL    HW232649   1.178   3.931   1.616 -0.2907  0.6564 -0.3349
 7006SOL     OW32650   3.779   4.072   5.445  0.6374  0.2034 -0.4737
 7006SOL    HW132651   3.696   4.115   5.424 -1.0545 -3.1480 -0.6289
 7006SOL    HW232652   3.833   4.123   5.386  0.5852  1.4353  0.5477
 7007SOL     OW32653   1.757   0.077   5.576 -0.2447  0.1136  0.0926
 7007SOL    HW132654   1.802   0.073   5.661  2.7980 -0.9472 -1.5691
 7007SOL    HW232655   1.696   0.149   5.590 -1.5279 -1.1473  1.0660
 7008SOL     OW32656   0.669   1.447  17.314 -0.1576 -0.5443  0.2949
 7008SOL    HW132657   0.669   1.379  17.381  0.1602  0.1327  0.9792
 7008SOL    HW232658   0.755   1.434  17.275  0.2113 -3.0873  1.8924
 7009SOL     OW32659   2.971   3.276   7.970  0.8258  0.0689 -0.0646
 7009SOL    HW132660   3.052   3.323   7.993  0.6531 -0.0166  0.7219
 7009SOL    HW232661   2.908   3.306   8.035 -0.2973 -2.5241  0.0353
 7010SOL     OW32662   3.383   0.931   2.509  0.7714 -0.1349  0.3103
 7010SOL    HW132663   3.343   0.906   2.426 -0.9032  2.6381  0.2853
 7010SOL    HW232664   3.464   0.974   2.481 -0.2987  1.0259 -0.9694
 7011SOL     OW32665   2.413   4.173   7.493  0.5756  0.1541  0.1679
 7011SOL    HW132666   2.391   4.245   7.553  1.7860  0.6646  0.0118
 7011SOL    HW232667   2.494   4.202   7.450 -0.1622  0.2144 -1.1958
 7012SOL     OW32668   4.649   0.545   2.915  0.1999  0.3746  0.2197
 7012SOL    HW132669   4.563   0.584   2.927  0.4762  1.4855 -1.3501
 7012SOL    HW232670   4.682   0.598   2.843  0.1952  1.1426  0.7857
 7013SOL     OW32671   4.248   2.565   5.159 -0.1235  0.0229 -0.3909
 7013SOL    HW132672   4.248   2.644   5.213 -0.6093 -0.5467  0.4521
 7013SOL    HW232673   4.289   2.604   5.082 -1.5314  2.5531  0.1360
 7014SOL     OW32674   3.636   1.536   8.978 -0.4909  0.4598  0.2494
 7014SOL    HW132675   3.561   1.593   8.994 -0.6268 -0.1814  1.9246
 7014SOL    HW232676   3.586   1.455   8.965  1.0463  0.1490 -3.5350
 7015SOL     OW32677   4.088   3.650  15.805  1.3191  0.1455 -0.7178
 7015SOL    HW132678   4.067   3.557  15.796  1.9409  0.0472 -1.1227
 7015SOL    HW232679   4.183   3.650  15.793  1.2096 -0.6107 -1.5649
 7016SOL     OW32680   3.720   0.859  15.894  0.2525  0.0449 -0.6239
 7016SOL    HW132681   3.681   0.790  15.948 -0.4262 -1.3106 -2.8105
 7016SOL    HW232682   3.696   0.938  15.942  1.0085 -0.7289  1.0282
 7017SOL     OW32683   2.832   2.042   5.741 -1.0963  0.4253  0.3674
 7017SOL    HW132684   2.801   2.079   5.823 -0.2744  0.0408  0.8513
 7017SOL    HW232685   2.820   1.951   5.766 -2.1439  0.3566 -0.3807
 7018SOL     OW32686   1.411   2.799   4.811  0.0058  0.0996 -0.3718
 7018SOL    HW132687   1.333   2.743   4.815 -0.2466  0.4580 -0.2049
 7018SOL    HW232688   1.467   2.748   4.870  0.1482 -0.1627 -0.7338
 7019SOL     OW32689   2.140   1.161   5.032 -0.3961  0.2100  0.2054
 7019SOL    HW132690   2.081   1.101   5.076  0.7384 -0.9428  0.1332
 7019SOL    HW232691   2.222   1.152   5.079 -1.6941 -0.8251  2.2831
 7020SOL     OW32692   1.850   3.108   6.438  0.8803  0.0513 -0.9473
 7020SOL    HW132693   1.874   3.060   6.359  3.1259 -0.4933  0.0822
 7020SOL    HW232694   1.892   3.062   6.511  1.7209 -0.5241 -1.7998
 7021SOL     OW32695   0.006   4.243   7.730  0.1006 -0.3964 -0.2050
 7021SOL    HW132696   0.092   4.219   7.765  0.2832 -0.2897 -0.5730
 7021SOL    HW232697   4.687   4.175   7.765 -0.6068  0.4934  0.3854
 7022SOL     OW32698   4.081   4.666   7.117 -0.4679 -0.4057  0.0333
 7022SOL    HW132699   4.071   4.580   7.076  2.0656 -0.7132  0.0200
 7022SOL    HW232700   4.145   4.647   7.186 -1.6348  1.3134  1.5778
 7023SOL     OW32701   3.802   1.438   6.645  0.4700 -0.4743  0.7425
 7023SOL    HW132702   3.765   1.467   6.728 -2.0226 -1.7210  0.0645
 7023SOL    HW232703   3.734   1.374   6.622  0.6466 -1.6668  3.5190
 7024SOL     OW32704   4.283   1.945   2.973  0.0038 -0.2211 -0.1453
 7024SOL    HW132705   4.217   1.925   3.039 -0.1925  0.4543 -0.1360
 7024SOL    HW232706   4.345   1.881   3.009  0.8042  1.7466  1.9893
 7025SOL     OW32707   1.467   1.282   7.293 -0.3929  0.2551  0.4941
 7025SOL    HW132708   1.533   1.336   7.248 -1.2516 -0.3209 -1.4685
 7025SOL    HW232709   1.397   1.298   7.230 -0.2123  0.1935  0.2778
 7026SOL     OW32710   4.615   2.929   2.086  0.0907 -0.0585 -1.2279
 7026SOL    HW132711   4.619   2.963   1.996 -3.2392  0.7056 -1.1084
 7026SOL    HW232712   4.521   2.939   2.103  0.0515 -0.7195 -1.0620
 7027SOL     OW32713   2.142   4.372   5.552  0.3101  0.1594  0.2692
 7027SOL    HW132714   2.166   4.435   5.484 -1.6744  1.3444  0.6779
 7027SOL    HW232715   2.191   4.299   5.515 -0.2812 -0.9247  1.6525
 7028SOL     OW32716   0.147   2.748  11.821  0.0008  0.2263  0.3641
 7028SOL    HW132717   0.174   2.718  11.908  0.7849  0.5679  0.2374
 7028SOL    HW232718   0.167   2.841  11.829  0.6880  0.1068  0.1067
 7029SOL     OW32719   0.018   1.288   5.234  0.4496  0.1022  0.2667
 7029SOL    HW132720   0.024   1.376   5.196 -1.2385  0.1311  0.0855
 7029SOL    HW232721   0.058   1.243   5.160 -1.4847  0.0313 -0.7518
 7030SOL     OW32722   0.833   3.296   5.592  0.4432  0.4892  0.4187
 7030SOL    HW132723   0.789   3.296   5.677 -1.8699  2.8588 -0.7599
 7030SOL    HW232724   0.874   3.382   5.598 -1.0284  1.0618  2.2975
 7031SOL     OW32725   2.911   2.077   7.838  0.3208 -0.3315 -0.1015
 7031SOL    HW132726   2.876   2.166   7.846 -1.9592 -1.2066 -0.3491
 7031SOL    HW232727   2.989   2.075   7.893  1.9435 -0.8530 -2.4360
 7032SOL     OW32728   3.814   0.216   3.612  0.2353 -0.0293  0.3080
 7032SOL    HW132729   3.777   0.165   3.684 -0.0478  1.4016  1.1677
 7032SOL    HW232730   3.741   0.271   3.583  1.9193  1.3676 -1.2840
 7033SOL     OW32731   0.884   0.947   3.167 -0.1375  0.4965 -0.1617
 7033SOL    HW132732   0.889   1.027   3.115 -0.1925 -0.8808 -2.3049
 7033SOL    HW232733   0.974   0.913   3.170 -0.6741 -1.1672 -2.1388
 7034SOL     OW32734   2.583   3.325   9.473 -0.5893 -0.9975 -0.3455
 7034SOL    HW132735   2.536   3.256   9.520 -0.7437 -1.2630 -0.8882
 7034SOL    HW232736   2.520   3.396   9.482  0.3729 -0.3538  1.1841
 7035SOL     OW32737   2.915   4.233   7.130  0.2964  0.0950  0.2840
 7035SOL    HW132738   2.925   4.314   7.180 -0.8068  2.3918 -3.2684
 7035SOL    HW232739   2.981   4.237   7.061 -0.0679 -0.4754 -0.0996
 7036SOL     OW32740   4.686   0.779  12.220  0.3008  0.7977  0.1735
 7036SOL    HW132741   4.683   0.710  12.153  0.0689  0.8479  0.1319
 7036SOL    HW232742   4.627   0.749  12.289  0.3610  0.5787  0.1295
 7037SOL     OW32743   3.520   0.802   4.133  0.4693 -0.4827  0.1041
 7037SOL    HW132744   3.565   0.836   4.056  2.8339 -0.4748  1.4781
 7037SOL    HW232745   3.548   0.711   4.131 -0.0176 -0.5997 -1.1833
 7038SOL     OW32746   3.602   4.560   5.288 -0.1565  0.1623 -0.0731
 7038SOL    HW132747   3.681   4.515   5.260  0.6802  0.6475  1.5125
 7038SOL    HW232748   3.539   4.554   5.216  0.8019 -0.3935 -0.8690
 7039SOL     OW32749   0.840   0.372   4.480 -0.1859  0.0409 -0.6740
 7039SOL    HW132750   0.900   0.409   4.415  0.8399 -0.9970 -0.3123
 7039SOL    HW232751   0.877   0.284   4.480  1.7277  0.8418 -0.8277
 7040SOL     OW32752   0.340   4.032   8.421  0.4412 -0.1508 -0.1867
 7040SOL    HW132753   0.418   3.986   8.391  1.6082  1.0333  1.0483
 7040SOL    HW232754   0.293   3.958   8.460  2.0346 -1.4067 -0.6245
 7041SOL     OW32755   1.505   2.303   8.755  0.4033  0.3249  0.2774
 7041SOL    HW132756   1.586   2.270   8.794  0.6572 -0.6810 -1.1278
 7041SOL    HW232757   1.521   2.396   8.771  0.6519  0.4557 -0.7413
 7042SOL     OW32758   3.178   2.958   5.412  0.2330 -0.0169 -0.4320
 7042SOL    HW132759   3.227   3.008   5.347 -2.0579  3.8645  0.8244
 7042SOL    HW232760   3.185   2.870   5.375  1.0841 -0.4723  0.8102
 7043SOL     OW32761   2.920   3.762   7.815 -0.0512 -0.7762 -0.0034
 7043SOL    HW132762   2.933   3.852   7.844  2.2383 -0.9967 -0.3849
 7043SOL    HW232763   3.009   3.759   7.782  0.3523 -0.9222  1.1085
 7044SOL     OW32764   2.368   1.329   2.412  0.0900  0.3541  0.0629
 7044SOL    HW132765   2.398   1.374   2.491  0.9863  0.1500 -0.1577
 7044SOL    HW232766   2.325   1.253   2.451 -0.5104  0.9585  0.5787
 7045SOL     OW32767   0.138   4.501   0.119 -0.8214 -0.0832  0.0183
 7045SOL    HW132768   0.051   4.524   0.087 -0.5389 -0.0877 -0.7714
 7045SOL    HW232769   0.143   4.561   0.193 -0.3017  0.7395 -0.6699
 7046SOL     OW32770   0.076   0.715   7.624 -0.1283  0.5620  0.0078
 7046SOL    HW132771   0.169   0.693   7.624 -0.3457 -0.3649  1.0850
 7046SOL    HW232772   0.071   0.783   7.557  1.4818 -0.3222 -0.9990
 7047SOL     OW32773   2.392   0.795   7.294 -0.2805 -0.4718 -0.3496
 7047SOL    HW132774   2.453   0.781   7.221  1.7720 -2.3024  1.7569
 7047SOL    HW232775   2.439   0.860   7.345  0.4926 -1.3397  0.0318
 7048SOL     OW32776   2.270   1.892   6.094 -0.1765  0.1251 -0.1847
 7048SOL    HW132777   2.342   1.912   6.034  0.7590  0.5771  1.0853
 7048SOL    HW232778   2.205   1.960   6.078  0.6593  0.5767 -1.5733
 7049SOL     OW32779   2.735   3.111  16.702  0.3752 -0.5383 -0.2244
 7049SOL    HW132780   2.776   3.176  16.645  0.3580  0.2321  0.6367
 7049SOL    HW232781   2.751   3.034  16.647  0.2781 -2.4608  2.4488
 7050SOL     OW32782   0.992   0.820  11.103 -0.2175 -0.3770  0.9899
 7050SOL    HW132783   1.087   0.808  11.105 -0.2322 -0.8845 -1.4228
 7050SOL    HW232784   0.994   0.915  11.091  0.3740 -0.7066 -1.6467
 7051SOL     OW32785   2.881   3.336   6.632  0.6208  0.2849 -0.6955
 7051SOL    HW132786   2.815   3.404   6.616  1.9383  1.4674 -1.1617
 7051SOL    HW232787   2.906   3.356   6.722 -0.4564 -0.2305 -0.2822
 7052SOL     OW32788   1.290   2.628   3.388  0.1269 -0.3678  0.5370
 7052SOL    HW132789   1.368   2.653   3.436  0.2414  0.6912 -0.1998
 7052SOL    HW232790   1.230   2.682   3.439 -0.3306  0.8409 -1.2909
 7053SOL     OW32791   3.740   3.604   1.601 -0.7575 -0.4181  0.1202
 7053SOL    HW132792   3.742   3.559   1.685 -0.7220 -0.5072  0.0725
 7053SOL    HW232793   3.652   3.640   1.596 -0.6337  0.0014  0.9601
 7054SOL     OW32794   4.211   1.151   3.945 -0.2982  0.4327 -0.1438
 7054SOL    HW132795   4.193   1.219   3.880  0.6286 -0.2071 -1.0564
 7054SOL    HW232796   4.131   1.140   3.998 -0.6485  0.7944 -0.6005
 7055SOL     OW32797   0.838   2.630   0.970  0.1519  0.1163 -0.2102
 7055SOL    HW132798   0.791   2.557   1.011  1.3289 -0.4542  0.1497
 7055SOL    HW232799   0.834   2.705   1.029 -1.5552 -0.2826  0.1863
 7056SOL     OW32800   3.552   3.760   6.511  0.3492 -0.6949 -0.5933
 7056SOL    HW132801   3.540   3.711   6.430 -0.8841 -0.0376 -0.8141
 7056SOL    HW232802   3.511   3.844   6.489 -3.4726 -2.4712 -0.3159
 7057SOL     OW32803   1.318   1.488   4.480 -0.7923 -0.3359  0.7057
 7057SOL    HW132804   1.223   1.477   4.480 -0.5261 -2.4885 -0.4535
 7057SOL    HW232805   1.335   1.442   4.398  0.5868 -0.2689  0.9545
 7058SOL     OW32806   2.536   0.859   4.489  0.0708  0.0143 -0.2058
 7058SOL    HW132807   2.478   0.802   4.438 -0.1205 -1.0218  1.1435
 7058SOL    HW232808   2.477   0.874   4.563  1.3910 -0.8833  1.0388
 7059SOL     OW32809   2.808   2.292   8.954  0.1819  1.0015  0.0418
 7059SOL    HW132810   2.799   2.236   9.031  0.6414  2.0511  0.8513
 7059SOL    HW232811   2.749   2.254   8.889 -1.0392  2.6231  0.1990
 7060SOL     OW32812   3.036   2.644   4.713  0.3329  0.2383  0.0164
 7060SOL    HW132813   3.060   2.617   4.802  0.7339  1.6390  0.3317
 7060SOL    HW232814   3.059   2.564   4.666 -2.5315 -0.6820  0.1986
 7061SOL     OW32815   0.300   0.074   0.630  0.0763 -0.0976 -0.5336
 7061SOL    HW132816   0.231   0.082   0.695  1.4689  1.8300  0.7143
 7061SOL    HW232817   0.253   0.120   0.561 -0.4496 -0.1135 -0.1865
 7062SOL     OW32818   3.102   0.176  13.305 -0.7555 -0.0433 -0.5686
 7062SOL    HW132819   3.020   0.200  13.262 -1.0072  0.9824  0.4998
 7062SOL    HW232820   3.120   0.090  13.266 -0.1665  0.2169 -0.8658
 7063SOL     OW32821   4.212   3.628  15.448 -0.0172 -0.0211  0.2064
 7063SOL    HW132822   4.205   3.722  15.466  1.5098  0.2871 -0.8172
 7063SOL    HW232823   4.129   3.587  15.473 -0.3169  1.0621  0.9992
 7064SOL     OW32824   3.927   3.954   7.012  0.1787 -0.3525 -0.7284
 7064SOL    HW132825   3.895   3.912   6.931 -0.6920  1.3980 -1.2880
 7064SOL    HW232826   3.874   3.904   7.074 -1.1226  0.6953 -0.9970
 7065SOL     OW32827   0.540   1.683   2.076 -0.3746  0.0321 -0.3958
 7065SOL    HW132828   0.559   1.734   2.155  0.3436  0.5736 -0.9187
 7065SOL    HW232829   0.628   1.668   2.040 -0.7856  0.7572 -1.6971
 7066SOL     OW32830   4.661   4.410   2.661 -0.2856  0.5109  0.1637
 7066SOL    HW132831   4.603   4.482   2.686 -2.6028 -0.7485 -1.7015
 7066SOL    HW232832   4.731   4.455   2.613  0.1044 -0.6499 -0.3546
 7067SOL     OW32833   2.462   1.468   6.283 -0.2689  0.2956 -0.0846
 7067SOL    HW132834   2.407   1.546   6.279  1.4892  1.6150  1.5551
 7067SOL    HW232835   2.401   1.405   6.323 -1.3998  0.5391 -1.4419
 7068SOL     OW32836   2.532   3.595   2.872 -0.5024 -0.0604 -0.0950
 7068SOL    HW132837   2.549   3.660   2.803  1.2717 -0.5547 -0.1191
 7068SOL    HW232838   2.604   3.533   2.864 -1.0357 -0.7652  0.5637
 7069SOL     OW32839   0.633   2.748   6.923  0.2698 -0.3040 -0.4566
 7069SOL    HW132840   0.561   2.735   6.861  0.3394 -2.1374 -0.1631
 7069SOL    HW232841   0.688   2.685   6.874 -2.5071 -3.3864  0.3890
 7070SOL     OW32842   4.231   3.686   6.406 -0.0517  0.2669 -0.0955
 7070SOL    HW132843   4.147   3.660   6.369  0.4849  0.5178 -1.4839
 7070SOL    HW232844   4.285   3.619   6.364  1.2108  1.1249  0.1466
 7071SOL     OW32845   0.035   1.488   1.314  0.0499  0.4264 -0.1136
 7071SOL    HW132846   4.737   1.564   1.359  1.3285 -0.6062  2.6665
 7071SOL    HW232847   0.064   1.426   1.381  0.5082  0.0505 -0.6575
 7072SOL     OW32848   1.603   3.199   6.401  0.3302  0.1225 -0.1215
 7072SOL    HW132849   1.689   3.172   6.432 -0.1958 -1.3214  0.0660
 7072SOL    HW232850   1.629   3.245   6.321  3.8512 -1.7179 -0.0165
 7073SOL     OW32851   1.237   2.378   4.326  0.3967 -0.6324  0.3719
 7073SOL    HW132852   1.261   2.470   4.316 -0.3237 -0.3919  0.8448
 7073SOL    HW232853   1.232   2.349   4.235  0.4037  0.6385 -0.0413
 7074SOL     OW32854   1.011   0.611   4.018 -0.7350  0.0758  0.2813
 7074SOL    HW132855   1.022   0.524   3.978 -0.1079 -0.0412  0.7021
 7074SOL    HW232856   0.997   0.669   3.944  2.6035 -0.3631 -0.7244
 7075SOL     OW32857   4.649   0.596   1.704  0.0352  0.3855  0.1147
 7075SOL    HW132858   4.593   0.535   1.752  1.1387 -0.7324 -0.0120
 7075SOL    HW232859   4.636   0.670   1.763 -0.2112 -0.4940  1.1509
 7076SOL     OW32860   2.736   1.041   3.959 -0.4067 -0.5620  0.4877
 7076SOL    HW132861   2.799   0.995   3.904 -2.7046 -1.5046 -1.3542
 7076SOL    HW232862   2.721   0.955   3.998 -1.8975 -0.9654 -0.9913
 7077SOL     OW32863   4.695   4.004   3.428  0.1619 -0.3584  0.1267
 7077SOL    HW132864   0.044   4.021   3.465  0.2410 -1.0125  0.2552
 7077SOL    HW232865   4.641   4.060   3.483 -0.9649 -1.6481  0.3330
 7078SOL     OW32866   2.386   3.931  17.168  0.4239 -0.0627 -0.4204
 7078SOL    HW132867   2.407   3.984  17.244 -0.3858 -2.8066  1.6987
 7078SOL    HW232868   2.467   3.941  17.117  0.7512  0.9742  0.3139
 7079SOL     OW32869   0.382   3.253   8.036  0.0179 -0.3143  0.3431
 7079SOL    HW132870   0.339   3.204   7.966 -1.3376  1.0921  0.1798
 7079SOL    HW232871   0.394   3.344   8.009 -1.3923  0.5318  2.6020
 7080SOL     OW32872   2.943   0.095   2.821 -0.1396 -0.1225 -0.4980
 7080SOL    HW132873   2.877   0.064   2.883 -0.0519 -2.9499 -1.8129
 7080SOL    HW232874   3.006   0.024   2.812 -0.6336 -0.4815 -1.1380
 7081SOL     OW32875   4.734   0.779   0.327  0.2016 -0.2777 -0.1014
 7081SOL    HW132876   0.005   0.856   0.383 -0.7838 -0.1032 -0.1943
 7081SOL    HW232877   4.731   0.812   0.238  2.7842  2.9356  0.9940
 7082SOL     OW32878   0.940   4.078   3.270 -0.2539  0.1349 -0.2166
 7082SOL    HW132879   0.952   3.983   3.261  1.1734  0.3629 -0.8082
 7082SOL    HW232880   0.854   4.093   3.231 -0.4417  1.8515  0.8675
 7083SOL     OW32881   1.753   3.283   1.146 -0.5145 -0.0688  0.2970
 7083SOL    HW132882   1.720   3.325   1.066  0.7939 -2.2621 -1.3880
 7083SOL    HW232883   1.784   3.201   1.107  0.0888  1.0502 -1.5973
 7084SOL     OW32884   2.155   4.267   5.007 -0.9821  0.2078  0.0919
 7084SOL    HW132885   2.164   4.248   4.913 -2.0982  0.0468  0.0186
 7084SOL    HW232886   2.177   4.360   5.010 -0.6133  0.1355 -0.3160
 7085SOL     OW32887   4.183   4.636   8.862  0.7721  0.0922 -0.1273
 7085SOL    HW132888   4.117   4.581   8.903 -0.4502  2.1768  0.6868
 7085SOL    HW232889   4.131   4.684   8.798 -1.7189 -0.2342  1.6600
 7086SOL     OW32890   4.416   2.506   6.737 -0.6101  0.0173  0.6501
 7086SOL    HW132891   4.501   2.550   6.738  0.8835 -2.8540 -0.2991
 7086SOL    HW232892   4.414   2.443   6.809  0.6413  0.8980  1.4619
 7087SOL     OW32893   4.163   4.522  12.019  0.1911  0.5955 -0.1886
 7087SOL    HW132894   4.093   4.547  11.960  0.1863 -3.1486 -1.7652
 7087SOL    HW232895   4.123   4.449  12.067 -0.1276  0.9809  0.1284
 7088SOL     OW32896   2.996   3.576   0.024  0.4003 -0.8711  0.5732
 7088SOL    HW132897   2.953   3.611   0.102  0.2236 -0.1910  0.1769
 7088SOL    HW232898   2.972   3.484   0.033 -2.2522 -0.2006  0.4072
 7089SOL     OW32899   0.151   0.941   1.608 -0.8712  0.1894  0.0041
 7089SOL    HW132900   0.238   0.932   1.648  0.6265 -0.7125 -3.4384
 7089SOL    HW232901   0.120   1.011   1.666  2.8304  0.5475  1.5515
 7090SOL     OW32902   3.964   0.445  11.705 -0.0648  0.4781  0.1408
 7090SOL    HW132903   3.923   0.432  11.791 -1.1977  1.6448 -0.2131
 7090SOL    HW232904   3.950   0.540  11.705  0.1072  0.5074 -2.0788
 7091SOL     OW32905   1.097   0.184   8.638 -0.2040  0.4280  0.5225
 7091SOL    HW132906   1.156   0.219   8.571 -1.7383 -0.6223 -1.3729
 7091SOL    HW232907   1.016   0.219   8.600  1.7203  1.4143 -2.6983
 7092SOL     OW32908   3.897   3.206  16.898  0.3260 -0.1200  0.1059
 7092SOL    HW132909   3.888   3.274  16.831 -0.5576 -2.6786 -2.3654
 7092SOL    HW232910   3.827   3.229  16.959 -0.0131  0.1850 -0.3984
 7093SOL     OW32911   3.063   3.643   9.086 -0.3559  0.3138 -0.6246
 7093SOL    HW132912   2.975   3.630   9.122  0.0387  1.1609  0.6451
 7093SOL    HW232913   3.070   3.570   9.025  2.1973  0.3706 -0.4035
 7094SOL     OW32914   0.895   3.790   1.650 -0.2514 -0.1221  0.4337
 7094SOL    HW132915   0.968   3.831   1.602 -1.5470  1.9379  0.2148
 7094SOL    HW232916   0.826   3.774   1.585  0.1335 -2.1551  0.5362
 7095SOL     OW32917   2.557   1.573  11.951  0.0231 -0.1802  0.3225
 7095SOL    HW132918   2.537   1.490  11.994 -0.0034 -0.7395 -0.7534
 7095SOL    HW232919   2.582   1.620  12.030 -0.8019 -1.8255  1.5406
 7096SOL     OW32920   1.404   1.051   5.140 -0.5649 -0.6056  0.3031
 7096SOL    HW132921   1.421   1.110   5.066  1.0368 -0.0598  1.1104
 7096SOL    HW232922   1.359   0.980   5.093  0.2543 -2.2542  2.0202
 7097SOL     OW32923   4.419   3.263   1.953 -0.1090 -0.4438  0.7907
 7097SOL    HW132924   4.421   3.339   1.895 -2.2084  0.1804  1.5372
 7097SOL    HW232925   4.495   3.270   2.010  0.2555 -0.5296  0.3159
 7098SOL     OW32926   1.508   1.647  15.225 -0.6833  0.0096  0.0925
 7098SOL    HW132927   1.570   1.717  15.246  0.2492 -0.8464  0.1963
 7098SOL    HW232928   1.498   1.661  15.130  2.6879 -0.7917 -0.3911
 7099SOL     OW32929   3.909   2.124   8.774  0.8741 -0.2711  0.5346
 7099SOL    HW132930   3.820   2.098   8.797  1.4288 -1.3614  1.4765
 7099SOL    HW232931   3.911   2.083   8.688  0.4822  0.2411  0.2867
 7100SOL     OW32932   3.975   3.161   6.236 -0.1300  0.4466  0.1492
 7100SOL    HW132933   3.973   3.071   6.266  0.4181  0.4236  0.1235
 7100SOL    HW232934   3.935   3.149   6.150  0.2721  0.8876 -0.1062
 7101SOL     OW32935   2.704   3.913   4.940 -0.6210 -0.3719  0.0484
 7101SOL    HW132936   2.705   3.907   4.844  1.6989 -0.2800  0.0698
 7101SOL    HW232937   2.615   3.941   4.961 -1.5036 -2.0873 -1.3371
 7102SOL     OW32938   0.683   3.647  14.052 -0.0057  0.1263 -0.0014
 7102SOL    HW132939   0.734   3.586  14.106 -1.7030 -0.0588  1.3922
 7102SOL    HW232940   0.593   3.634  14.081  0.2790 -0.0865  0.7697
 7103SOL     OW32941   0.188   4.173   4.338 -0.6607  0.2813 -0.3278
 7103SOL    HW132942   0.216   4.245   4.393  0.3722 -1.3175  1.2356
 7103SOL    HW232943   0.096   4.155   4.361  0.1627 -0.5588  2.2173
 7104SOL     OW32944   2.701   0.827   5.336  0.7187 -0.1090  0.0672
 7104SOL    HW132945   2.765   0.757   5.323  0.1345 -0.6587  0.1770
 7104SOL    HW232946   2.612   0.795   5.325  0.7162 -0.3457  0.7312
 7105SOL     OW32947   3.048   2.090  11.916 -0.0421  0.4732 -0.1575
 7105SOL    HW132948   3.105   2.166  11.905  1.8861 -0.6058  2.1703
 7105SOL    HW232949   3.058   2.050  11.830  1.3021 -1.0437  0.6880
 7106SOL     OW32950   2.789   2.440   6.880  0.4500 -0.7419  0.9194
 7106SOL    HW132951   2.882   2.456   6.893  0.9870 -2.6047 -0.5819
 7106SOL    HW232952   2.795   2.346   6.864  1.5567 -0.5937  0.4442
 7107SOL     OW32953   3.076   3.910   1.696 -0.2313  0.2294 -0.3889
 7107SOL    HW132954   3.006   3.930   1.634  0.4663 -0.1141 -1.2831
 7107SOL    HW232955   3.127   3.850   1.641 -1.3594 -0.7663 -0.3487
 7108SOL     OW32956   3.036   3.284   5.328 -0.5725  0.1747  0.1684
 7108SOL    HW132957   3.113   3.329   5.295 -0.3102  0.0966  0.6809
 7108SOL    HW232958   3.064   3.251   5.413 -0.1298  0.7255  0.2370
 7109SOL     OW32959   0.625   2.567   3.936  0.0498 -0.7623 -0.7544
 7109SOL    HW132960   0.637   2.615   3.854  1.3222  0.4876  0.1652
 7109SOL    HW232961   0.702   2.512   3.948  0.7182  0.5013  0.6354
 7110SOL     OW32962   4.342   3.082  16.251 -0.2486 -0.1668 -0.4353
 7110SOL    HW132963   4.349   3.177  16.248  1.2050 -0.3495 -2.5295
 7110SOL    HW232964   4.247   3.072  16.258  0.0686 -1.0767  2.5867
 7111SOL     OW32965   0.540   0.094   7.487  0.7650  0.3456  0.2480
 7111SOL    HW132966   0.544   0.179   7.532  2.5387 -0.4376  1.5240
 7111SOL    HW232967   0.625   0.056   7.507  0.7296  0.4297  0.5604
 7112SOL     OW32968   3.572   1.490   7.436  0.3662  0.1151  0.1375
 7112SOL    HW132969   3.634   1.436   7.387 -0.5719 -0.7305 -0.1369
 7112SOL    HW232970   3.585   1.453   7.524  2.6319  0.7064  0.0469
 7113SOL     OW32971   1.995   0.359   7.738 -0.0425 -0.0774 -0.3913
 7113SOL    HW132972   2.081   0.394   7.764 -0.4926 -0.6128  1.8218
 7113SOL    HW232973   2.003   0.265   7.719  0.4483  0.2427 -1.7881
 7114SOL     OW32974   2.431   0.196   7.080 -0.0668 -0.4112  0.0556
 7114SOL    HW132975   2.445   0.200   7.174  0.1287  2.9026 -0.0837
 7114SOL    HW232976   2.336   0.207   7.076 -0.3188 -2.4068  0.9386
 7115SOL     OW32977   4.113   4.437   3.446 -0.0723 -0.2411 -0.9835
 7115SOL    HW132978   4.022   4.419   3.466 -0.5025  1.2580 -1.6405
 7115SOL    HW232979   4.104   4.490   3.367  0.9404 -0.0424 -0.9623
 7116SOL     OW32980   0.635   2.852   9.058 -0.7887  0.3462 -0.1995
 7116SOL    HW132981   0.563   2.823   9.114 -0.5869  0.4419  0.1061
 7116SOL    HW232982   0.635   2.944   9.084 -1.3458  0.1790  0.3877
 7117SOL     OW32983   2.519   0.796   6.249 -0.1987  0.3634 -0.5775
 7117SOL    HW132984   2.565   0.760   6.174 -0.6324  0.9478 -1.1276
 7117SOL    HW232985   2.430   0.765   6.229  0.3070 -0.1670 -1.9872
 7118SOL     OW32986   0.690   3.499  14.645 -0.1283  0.3229  0.4424
 7118SOL    HW132987   0.760   3.440  14.674 -0.6292 -0.3494  0.2787
 7118SOL    HW232988   0.730   3.586  14.648  1.0962 -0.2715  0.9803
 7119SOL     OW32989   3.998   2.758   7.261  0.1062  0.4434 -0.3845
 7119SOL    HW132990   4.040   2.674   7.278  0.5775  0.8684  0.5691
 7119SOL    HW232991   4.020   2.773   7.169 -0.7907  2.9980 -0.1844
 7120SOL     OW32992   0.031   3.047  12.178 -0.0356 -0.3110 -0.2126
 7120SOL    HW132993   0.106   3.068  12.233  0.4335 -1.5447 -0.4068
 7120SOL    HW232994   0.003   2.958  12.199  0.1257 -0.4942 -0.7953
 7121SOL     OW32995   3.440   3.120  17.585 -0.4274  0.5347  0.3477
 7121SOL    HW132996   3.389   3.048  17.549  0.7773  0.4328 -1.1505
 7121SOL    HW232997   3.528   3.094  17.559 -0.7533  1.6077 -1.8293
 7122SOL     OW32998   4.478   4.512   3.405 -0.3471  0.8241 -0.1091
 7122SOL    HW132999   4.397   4.461   3.401  0.6371 -0.8169  0.7595
 7122SOL    HW233000   4.444   4.597   3.434  0.0136  0.2836  1.9188
 7123SOL     OW33001   3.054   1.278  12.576  0.1849 -0.4125 -0.0908
 7123SOL    HW133002   3.021   1.234  12.654  0.4287 -0.4230  0.0062
 7123SOL    HW233003   3.027   1.370  12.577  0.2846 -0.4211  3.8066
 7124SOL     OW33004   1.887   1.546   5.337  0.1742 -0.1037  0.1121
 7124SOL    HW133005   1.887   1.599   5.257 -0.6696 -1.4239 -0.7526
 7124SOL    HW233006   1.801   1.567   5.374 -0.6495 -2.1119 -0.6812
 7125SOL     OW33007   3.173   1.062  10.052  0.1917  0.4025 -0.1290
 7125SOL    HW133008   3.158   1.138   9.996 -1.8818  0.4194  0.4508
 7125SOL    HW233009   3.182   1.109  10.135  0.4734 -0.9531  0.6049
 7126SOL     OW33010   0.147   0.731   4.967 -0.3393  0.3497 -0.2006
 7126SOL    HW133011   0.149   0.743   5.062 -3.3354 -1.5248  0.0787
 7126SOL    HW233012   0.101   0.811   4.943 -1.2948 -1.0606 -3.1002
 7127SOL     OW33013   2.134   2.112   4.673 -0.0295  0.1161  0.2151
 7127SOL    HW133014   2.132   2.201   4.709  1.2141  0.6247 -0.9591
 7127SOL    HW233015   2.048   2.089   4.706  0.7800 -2.9005  0.1748
 7128SOL     OW33016   4.626   1.133   0.911 -0.1036  0.4767  0.5380
 7128SOL    HW133017   4.657   1.223   0.899  0.1474  0.4581  1.0304
 7128SOL    HW233018   4.570   1.129   0.833  0.3605 -0.3909  0.2542
 7129SOL     OW33019   1.553   1.730  11.339  0.2643 -0.5605 -0.3242
 7129SOL    HW133020   1.466   1.726  11.299  0.2410  2.7299 -0.6015
 7129SOL    HW233021   1.531   1.802  11.397 -0.0355 -1.2310  0.3941
 7130SOL     OW33022   2.437   2.222   7.374 -0.0759 -0.1610 -0.1500
 7130SOL    HW133023   2.484   2.181   7.302 -0.4334 -0.6847 -0.0825
 7130SOL    HW233024   2.499   2.289   7.404  1.2139 -1.4168  0.0386
 7131SOL     OW33025   2.381   0.115   2.245  0.1829 -0.4666 -0.4057
 7131SOL    HW133026   2.292   0.084   2.230 -0.0782 -0.3873  0.9976
 7131SOL    HW233027   2.374   0.195   2.193 -0.4346 -1.0813 -1.2675
 7132SOL     OW33028   1.770   4.450   3.256 -0.1009 -0.0207  0.7826
 7132SOL    HW133029   1.780   4.390   3.182 -0.6911 -1.2106  1.6624
 7132SOL    HW233030   1.860   4.447   3.289  0.7541  1.0025 -1.5474
 7133SOL     OW33031   4.022   4.577  14.873 -0.1846 -0.1915 -0.5367
 7133SOL    HW133032   3.929   4.599  14.878  0.1878  1.1462  0.4835
 7133SOL    HW233033   4.024   4.492  14.829  0.6125  0.2715 -1.3838
 7134SOL     OW33034   1.550   0.894  11.215 -0.0641  0.2356 -0.1816
 7134SOL    HW133035   1.638   0.863  11.238 -1.3888 -2.1807  1.5718
 7134SOL    HW233036   1.577   0.930  11.130 -1.3504 -1.7920 -1.4766
 7135SOL     OW33037   1.908   3.476  10.478 -0.8556 -0.0418 -0.2865
 7135SOL    HW133038   1.897   3.425  10.558 -1.1612  1.5089  0.6695
 7135SOL    HW233039   1.846   3.549  10.486 -2.0228 -1.2251  1.5721
 7136SOL     OW33040   0.487   3.547   8.974 -0.1553 -0.0841  0.1718
 7136SOL    HW133041   0.481   3.637   9.006  1.7697  0.7720 -1.8537
 7136SOL    HW233042   0.512   3.506   9.057  0.5829 -1.3428 -0.6774
 7137SOL     OW33043   3.871   1.640  14.755  0.4010  0.1669 -0.3345
 7137SOL    HW133044   3.938   1.572  14.746  1.4346  0.7893  2.6714
 7137SOL    HW233045   3.881   1.681  14.669  1.5363  2.0804  0.7003
 7138SOL     OW33046   1.553   3.342  13.859  0.3569 -0.1257 -0.1123
 7138SOL    HW133047   1.611   3.381  13.924 -0.6027  0.6447  0.2783
 7138SOL    HW233048   1.493   3.415  13.844  0.2314  0.2188  2.2001
 7139SOL     OW33049   3.203   4.149   7.413 -1.1052 -0.4657 -0.1578
 7139SOL    HW133050   3.222   4.242   7.398  0.3588 -0.8868 -0.9000
 7139SOL    HW233051   3.207   4.137   7.507  0.5346  2.6653  0.1483
 7140SOL     OW33052   1.211   3.326  11.813  0.2092 -0.2176 -0.4243
 7140SOL    HW133053   1.148   3.332  11.884  2.1525  2.7619  1.0730
 7140SOL    HW233054   1.285   3.274  11.845  1.4168  1.6985 -0.0747
 7141SOL     OW33055   3.371   1.363  15.814 -0.5810 -0.3655  0.1353
 7141SOL    HW133056   3.336   1.281  15.849 -1.9145 -0.1918 -0.7909
 7141SOL    HW233057   3.460   1.342  15.785 -0.7738  0.5262 -1.0741
 7142SOL     OW33058   4.549   2.555   7.372 -0.2249 -0.3067  0.1965
 7142SOL    HW133059   4.481   2.548   7.305 -0.8968  1.1466  0.7377
 7142SOL    HW233060   4.537   2.467   7.407 -0.3339 -1.4781 -2.7510
 7143SOL     OW33061   1.185   0.146   4.131 -0.1932 -0.1688 -0.0528
 7143SOL    HW133062   1.225   0.163   4.046 -1.7796 -0.5041 -0.8578
 7143SOL    HW233063   1.111   0.208   4.130  0.1581  0.2824  1.8496
 7144SOL     OW33064   0.145   1.609  13.804 -0.1675 -0.1912 -0.4218
 7144SOL    HW133065   0.068   1.573  13.849 -1.8431  0.5451 -2.6740
 7144SOL    HW233066   0.120   1.602  13.712  0.1680  1.0992 -0.6005
 7145SOL     OW33067   0.141   1.225   6.231 -0.3355 -0.1721  0.2271
 7145SOL    HW133068   0.138   1.198   6.322  1.6328 -1.9283 -0.2142
 7145SOL    HW233069   0.128   1.139   6.190 -0.1269 -0.8904  1.6929
 7146SOL     OW33070   2.554   4.573   7.578  1.1474  0.2331 -0.1637
 7146SOL    HW133071   2.526   4.617   7.497 -1.6401  0.6368  1.0137
 7146SOL    HW233072   2.642   4.545   7.553  0.9117 -0.6442  0.0182
 7147SOL     OW33073   1.417   4.041  11.384  0.6797  0.1307  0.0397
 7147SOL    HW133074   1.349   4.023  11.449 -1.7263  5.2414 -1.0594
 7147SOL    HW233075   1.457   4.123  11.413  1.6799 -1.6816  3.8178
 7148SOL     OW33076   2.299   3.242  10.235 -0.6616  0.1642  0.1340
 7148SOL    HW133077   2.263   3.161  10.272  0.5895 -0.7594 -0.6541
 7148SOL    HW233078   2.274   3.305  10.302 -1.5546  1.9875 -1.8947
 7149SOL     OW33079   3.460   0.298   6.705 -0.2659  0.0857  0.1061
 7149SOL    HW133080   3.379   0.261   6.741 -0.2264 -2.0161 -1.9406
 7149SOL    HW233081   3.516   0.223   6.722 -1.1033 -0.4418  0.5242
 7150SOL     OW33082   4.082   2.288   2.710 -0.1249 -0.1003 -0.5913
 7150SOL    HW133083   4.170   2.249   2.715 -0.1978 -0.3081 -0.9290
 7150SOL    HW233084   4.039   2.230   2.773  0.4037  0.4672  0.3041
 7151SOL     OW33085   3.317   2.961   3.754 -0.1776 -0.4572 -0.3493
 7151SOL    HW133086   3.388   3.001   3.704  1.1697  0.0288  1.9509
 7151SOL    HW233087   3.370   2.925   3.825 -1.2647 -2.0937 -0.3645
 7152SOL     OW33088   2.235   2.478   7.950 -0.6327 -0.0185 -0.7450
 7152SOL    HW133089   2.210   2.513   8.035 -1.2824 -0.4443 -0.7595
 7152SOL    HW233090   2.244   2.547   7.885  0.0668  1.3833  0.8452
 7153SOL     OW33091   4.382   4.643  13.124 -0.4825 -0.4940  0.2422
 7153SOL    HW133092   4.378   4.706  13.196  0.7622  0.8604 -0.8688
 7153SOL    HW233093   4.344   4.701  13.058  2.2665 -0.8225 -1.6204
 7154SOL     OW33094   3.274   1.052   3.932 -0.1201 -0.3346  0.3437
 7154SOL    HW133095   3.347   1.060   3.871  0.2673  1.1880  1.0116
 7154SOL    HW233096   3.211   1.115   3.896 -0.0721 -1.0479 -1.0206
 7155SOL     OW33097   0.668   0.596   8.321  0.2009 -0.1721 -0.2059
 7155SOL    HW133098   0.702   0.519   8.367 -1.4839 -1.3252 -0.9201
 7155SOL    HW233099   0.744   0.654   8.331 -1.0989  1.2699  1.3520
 7156SOL     OW33100   2.882   4.275   5.156  0.4878 -0.1261  0.6692
 7156SOL    HW133101   2.816   4.337   5.124 -0.1381 -2.2756 -2.1431
 7156SOL    HW233102   2.890   4.210   5.087  0.0079  1.3207 -0.7446
 7157SOL     OW33103   1.781   1.356  15.148  0.6055 -0.5976  0.5184
 7157SOL    HW133104   1.846   1.329  15.084  0.5767  1.5349 -0.4328
 7157SOL    HW233105   1.796   1.451  15.150 -0.3868 -0.4705  2.0768
 7158SOL     OW33106   2.627   4.438   8.002  0.4788 -0.2319  0.2385
 7158SOL    HW133107   2.641   4.368   7.937  1.2380  1.2719 -1.2056
 7158SOL    HW233108   2.616   4.496   7.927  0.6578 -0.7913 -0.2275
 7159SOL     OW33109   1.374   2.186  10.825 -0.5204  1.0015  1.0987
 7159SOL    HW133110   1.415   2.209  10.742  0.9797 -2.2392  0.9408
 7159SOL    HW233111   1.431   2.110  10.839  0.0484  1.2397  0.0508
 7160SOL     OW33112   1.068   2.754   8.207 -0.2289  0.5007 -0.5905
 7160SOL    HW133113   1.129   2.696   8.162 -0.1572 -0.0479  0.2288
 7160SOL    HW233114   0.995   2.695   8.220  1.6228 -1.9859 -1.5940
 7161SOL     OW33115   2.735   0.717   0.405 -0.7749  0.2391 -0.2408
 7161SOL    HW133116   2.671   0.773   0.448  0.4630  2.5593 -1.4236
 7161SOL    HW233117   2.737   0.636   0.456 -0.5892 -0.2601 -1.0264
 7162SOL     OW33118   0.370   2.016  13.528 -0.6477 -0.1824 -0.2960
 7162SOL    HW133119   0.441   1.979  13.580 -0.8154  0.8079  0.6322
 7162SOL    HW233120   0.299   1.955  13.546 -1.2618  0.5864 -0.1090
 7163SOL     OW33121   4.428   0.930   6.899 -0.3980  0.3216  0.4831
 7163SOL    HW133122   4.378   0.903   6.976  0.0125  0.9678  0.9810
 7163SOL    HW233123   4.487   0.858   6.878  0.9825  2.1129 -1.8164
 7164SOL     OW33124   3.446   3.495   8.235  0.0468 -0.3687 -0.2090
 7164SOL    HW133125   3.484   3.520   8.151  0.5588  0.3597  0.2380
 7164SOL    HW233126   3.399   3.573   8.264 -1.6728 -1.3344 -0.4274
 7165SOL     OW33127   1.289   2.093   2.135 -0.2115  0.7782  0.2367
 7165SOL    HW133128   1.306   2.000   2.146  1.4416  1.2220  1.3943
 7165SOL    HW233129   1.377   2.128   2.118  0.1092 -0.9253 -1.6671
 7166SOL     OW33130   0.286   1.970   2.442  0.4141  0.2929 -0.2464
 7166SOL    HW133131   0.256   2.037   2.504 -0.2880 -0.6537  0.4331
 7166SOL    HW233132   0.205   1.938   2.402 -0.1271  0.8006  0.4410
 7167SOL     OW33133   4.613   3.552   3.439 -0.0462 -0.4654  0.1627
 7167SOL    HW133134   4.607   3.473   3.493 -3.5592 -1.4022 -1.5645
 7167SOL    HW233135   4.655   3.603   3.509  1.2444 -0.2116 -0.7997
 7168SOL     OW33136   1.424   2.552   7.623 -0.5396 -0.6013 -0.9590
 7168SOL    HW133137   1.512   2.519   7.608  0.9338  1.1153  3.9972
 7168SOL    HW233138   1.385   2.466   7.641 -0.3740 -0.6342 -0.7596
 7169SOL     OW33139   1.106   3.615   4.385  0.6482 -0.3218 -0.0223
 7169SOL    HW133140   1.030   3.630   4.329 -1.0244 -1.0341  2.0681
 7169SOL    HW233141   1.110   3.692   4.442 -2.5233 -0.2732  0.0970
 7170SOL     OW33142   0.429   3.042  15.460 -0.3814 -0.0788  0.1717
 7170SOL    HW133143   0.523   3.025  15.461 -0.1728  1.0944  0.9075
 7170SOL    HW233144   0.399   2.960  15.421 -2.2786  1.0046 -0.6430
 7171SOL     OW33145   1.506   3.263   9.471 -0.0131 -0.1111 -0.2245
 7171SOL    HW133146   1.454   3.270   9.391 -1.2789  0.5022  0.6458
 7171SOL    HW233147   1.523   3.356   9.487  1.7795 -0.4683 -0.0199
 7172SOL     OW33148   0.362   2.639  14.486  0.0559 -0.5534  0.6214
 7172SOL    HW133149   0.375   2.686  14.403 -2.8439 -2.3439 -0.8534
 7172SOL    HW233150   0.267   2.637  14.494 -0.1515 -0.8992 -1.8481
 7173SOL     OW33151   3.926   3.047  10.243 -0.5390  0.5227  0.0194
 7173SOL    HW133152   3.935   3.066  10.336 -1.2723  0.5586  0.0794
 7173SOL    HW233153   3.976   2.965  10.245 -2.6534 -0.7518  0.5247
 7174SOL     OW33154   0.065   2.343   6.310  0.4480 -0.2380  0.0272
 7174SOL    HW133155   4.732   2.406   6.325  2.3958  1.5964  1.2839
 7174SOL    HW233156   0.120   2.335   6.388 -1.2846  0.9753  1.3506
 7175SOL     OW33157   1.183   3.365   1.002  0.2126  0.0316 -0.0171
 7175SOL    HW133158   1.108   3.312   1.032 -1.7244  3.3679  1.0486
 7175SOL    HW233159   1.255   3.302   0.997 -2.0385 -2.4395 -1.4373
 7176SOL     OW33160   0.790   4.335   2.764 -0.3883  0.3600 -0.0447
 7176SOL    HW133161   0.882   4.323   2.785 -0.8937  0.2972  2.0934
 7176SOL    HW233162   0.754   4.357   2.850 -0.8649 -0.4387 -0.0366
 7177SOL     OW33163   1.926   1.755   7.599 -0.1846 -0.3639 -0.1798
 7177SOL    HW133164   1.903   1.844   7.628 -0.0416 -0.7608  1.1770
 7177SOL    HW233165   1.974   1.720   7.674  1.6902 -1.1568 -1.7427
 7178SOL     OW33166   3.517   1.909   4.261 -0.5824 -0.1595  0.0702
 7178SOL    HW133167   3.577   1.880   4.192 -0.7555  0.2176 -0.2366
 7178SOL    HW233168   3.562   1.902   4.346 -0.2290 -2.4070 -0.2881
 7179SOL     OW33169   4.177   1.343  16.718 -0.5915 -0.1021 -0.3601
 7179SOL    HW133170   4.233   1.420  16.709 -0.6662 -0.0565 -0.4368
 7179SOL    HW233171   4.205   1.308  16.803 -1.2230 -1.4843 -0.7066
 7180SOL     OW33172   2.813   2.412   4.744  0.5374  0.1372  0.1495
 7180SOL    HW133173   2.726   2.371   4.740  1.0349 -0.9507  0.4863
 7180SOL    HW233174   2.789   2.496   4.703 -2.2099 -0.2631  0.8955
 7181SOL     OW33175   2.673   1.692  11.729 -0.1651 -0.6142  0.1585
 7181SOL    HW133176   2.648   1.759  11.793 -0.0702 -2.2386  1.8863
 7181SOL    HW233177   2.647   1.612  11.774 -1.3062 -0.5572 -0.3935
 7182SOL     OW33178   0.910   3.085   1.271  0.5707 -0.7193  0.7652
 7182SOL    HW133179   0.853   3.012   1.297 -0.1596 -0.2605  0.4445
 7182SOL    HW233180   0.864   3.161   1.306 -1.0206 -1.1647 -0.3438
 7183SOL     OW33181   0.505   2.081   8.034 -0.1117  0.4073 -0.2093
 7183SOL    HW133182   0.485   2.015   7.968 -0.2980 -2.6316  2.8287
 7183SOL    HW233183   0.584   2.048   8.077 -0.9287  0.0454  1.0156
 7184SOL     OW33184   0.638   2.109   8.649  0.4530  0.2148  0.0854
 7184SOL    HW133185   0.598   2.193   8.629 -0.2201 -0.0161  0.4632
 7184SOL    HW233186   0.566   2.057   8.615  0.2858 -0.0778  0.8760
 7185SOL     OW33187   3.490   1.463   1.708  0.4485 -0.4496  0.2133
 7185SOL    HW133188   3.584   1.449   1.720  0.2787 -1.3982  0.3982
 7185SOL    HW233189   3.493   1.446   1.614 -1.8898  2.1151 -0.3104
 7186SOL     OW33190   2.471   2.878   7.040 -0.6482 -0.0646 -0.3300
 7186SOL    HW133191   2.487   2.902   6.949  0.0835  2.4570  0.4785
 7186SOL    HW233192   2.404   2.943   7.063 -0.4079 -0.1001  0.4662
 7187SOL     OW33193   0.240   4.280   4.794  0.0722  0.2735 -0.6658
 7187SOL    HW133194   0.189   4.244   4.721 -1.8764  0.1435  0.7477
 7187SOL    HW233195   0.331   4.288   4.767 -0.0941  2.6236 -0.5011
 7188SOL     OW33196   0.472   2.556   7.374  0.0224  0.8707  0.1188
 7188SOL    HW133197   0.467   2.643   7.413  3.9680  1.4401 -0.6829
 7188SOL    HW233198   0.535   2.566   7.303  1.4808 -0.6837  1.1860
 7189SOL     OW33199   2.244   1.422   4.523  0.7529  0.4906  0.2726
 7189SOL    HW133200   2.256   1.393   4.614 -0.3287 -0.6421  0.0502
 7189SOL    HW233201   2.263   1.516   4.526  1.2907  0.4004 -0.1830
 7190SOL     OW33202   1.068   3.831   4.591 -0.3604  0.2905 -0.3476
 7190SOL    HW133203   1.097   3.915   4.556  1.2358 -0.0074  0.2443
 7190SOL    HW233204   1.023   3.847   4.674  0.6809  0.1491  0.2386
 7191SOL     OW33205   1.619   0.321   5.654 -0.1082  0.0483  0.5922
 7191SOL    HW133206   1.645   0.391   5.594 -1.3156  0.8958  1.0651
 7191SOL    HW233207   1.681   0.329   5.727 -0.6993 -0.0684  1.0998
 7192SOL     OW33208   4.522   0.542   6.171  0.0810  0.4620  0.6870
 7192SOL    HW133209   4.454   0.495   6.123  1.6974 -2.7216  1.5653
 7192SOL    HW233210   4.570   0.468   6.207 -0.8111 -1.4225 -2.0013
 7193SOL     OW33211   3.848   2.841   8.930  0.3234 -0.3121  0.2256
 7193SOL    HW133212   3.924   2.805   8.884 -0.1785 -0.1518 -0.7188
 7193SOL    HW233213   3.841   2.926   8.887 -0.8636 -0.8733 -0.7004
 7194SOL     OW33214   2.834   0.090   0.695  0.1236 -0.4739  0.1279
 7194SOL    HW133215   2.785   0.014   0.727  0.6034 -0.1949  1.5117
 7194SOL    HW233216   2.884   0.040   0.631  3.1849 -0.1035  2.1922
 7195SOL     OW33217   0.566   2.284   9.023 -0.0049 -0.2254 -0.1974
 7195SOL    HW133218   0.533   2.372   9.038  0.7824 -0.1707  1.2821
 7195SOL    HW233219   0.489   2.245   8.981 -1.3368  1.8351  0.3505
 7196SOL     OW33220   1.271   4.022   9.078 -0.3826 -1.0572  0.5641
 7196SOL    HW133221   1.288   3.992   9.167 -3.5214 -4.1606  0.1250
 7196SOL    HW233222   1.252   3.938   9.035 -1.2655 -2.4163  3.6125
 7197SOL     OW33223   4.271   3.065   1.846 -0.5566  1.0477  0.2523
 7197SOL    HW133224   4.329   3.138   1.871 -0.5894  1.6436 -1.4551
 7197SOL    HW233225   4.332   3.003   1.808 -0.8516  0.1668  1.2092
 7198SOL     OW33226   3.157   0.541  17.288 -0.3460  0.7259 -0.2673
 7198SOL    HW133227   3.146   0.499  17.203  1.6510  3.6703 -1.9655
 7198SOL    HW233228   3.135   0.474  17.353 -0.4623 -1.2329 -2.3365
 7199SOL     OW33229   1.728   0.737   1.892  0.2679  0.4504  0.1079
 7199SOL    HW133230   1.765   0.797   1.827  1.5129  1.3207  1.5951
 7199SOL    HW233231   1.769   0.758   1.976  2.1968  1.3036 -1.0403
 7200SOL     OW33232   4.722   0.062   5.578  1.1553 -0.5248 -0.1193
 7200SOL    HW133233   0.042   0.136   5.558  0.1521  0.3766  0.3390
 7200SOL    HW233234   0.034   4.732   5.530  0.8339  0.5942 -1.9782
 7201SOL     OW33235   4.144   4.299   9.140  0.3761  0.7610  0.0391
 7201SOL    HW133236   4.189   4.215   9.134 -1.3240  0.0919 -3.1830
 7201SOL    HW233237   4.216   4.355   9.112  1.4641 -1.3328 -1.2538
 7202SOL     OW33238   3.215   1.881   3.781 -0.3495  0.7251 -0.1689
 7202SOL    HW133239   3.170   1.959   3.815 -0.9507  1.2227 -2.1128
 7202SOL    HW233240   3.166   1.877   3.699 -0.5981  1.5295 -0.0629
 7203SOL     OW33241   1.081   3.012  15.607  0.2242  0.2258  0.4277
 7203SOL    HW133242   1.148   2.973  15.552  0.9815  0.7061  1.0061
 7203SOL    HW233243   1.128   3.086  15.645 -0.8637  1.5561 -0.7825
 7204SOL     OW33244   1.796   3.899   3.883  0.0905 -0.4412  0.3295
 7204SOL    HW133245   1.751   3.830   3.933 -1.1850  0.6165  0.6393
 7204SOL    HW233246   1.726   3.923   3.823  1.3442 -1.7271 -1.6333
 7205SOL     OW33247   2.415   2.641   9.488  0.1504  0.1269 -0.6542
 7205SOL    HW133248   2.399   2.732   9.516 -0.9284  0.4194 -2.2390
 7205SOL    HW233249   2.323   2.619   9.471 -0.5166  0.4683  2.4025
 7206SOL     OW33250   1.583   2.161   2.250 -0.0586 -0.2774  0.4864
 7206SOL    HW133251   1.551   2.070   2.251  2.6497 -1.1855  2.8516
 7206SOL    HW233252   1.647   2.155   2.179 -1.8411 -1.1851 -1.0730
 7207SOL     OW33253   0.086   2.001   3.997 -0.1611 -0.0147 -0.0268
 7207SOL    HW133254   4.734   2.035   3.999 -0.6318 -1.4788  2.8208
 7207SOL    HW233255   0.120   2.071   4.052  0.5778 -0.6000  0.2656
 7208SOL     OW33256   3.788   1.647   7.752 -0.7257 -0.4937 -0.1085
 7208SOL    HW133257   3.860   1.668   7.693 -2.3476  1.4408 -1.3743
 7208SOL    HW233258   3.739   1.729   7.756 -2.8657 -1.8050  0.3966
 7209SOL     OW33259   2.174   2.856   9.166 -0.8593 -0.2513  0.2794
 7209SOL    HW133260   2.218   2.928   9.211 -1.2999 -0.8143  1.5919
 7209SOL    HW233261   2.236   2.783   9.171  0.7872  1.0817 -0.3188
 7210SOL     OW33262   2.050   2.533   5.731  0.3294  0.4753  0.0890
 7210SOL    HW133263   2.054   2.596   5.659  1.8209  1.5430  1.0993
 7210SOL    HW233264   2.095   2.462   5.686 -2.5400 -0.9291 -0.5881
 7211SOL     OW33265   3.914   1.039   0.424 -0.3443  0.9044  0.2150
 7211SOL    HW133266   3.959   0.981   0.485 -1.6316  0.2965  0.5804
 7211SOL    HW233267   3.873   1.105   0.480 -1.0290  1.4408 -0.9265
 7212SOL     OW33268   3.799   1.440   3.866 -0.5136 -0.1279  0.5673
 7212SOL    HW133269   3.793   1.485   3.782 -0.4602  0.0761  0.6710
 7212SOL    HW233270   3.736   1.481   3.926 -0.3924  1.6992 -0.5515
 7213SOL     OW33271   1.867   1.048   5.630  0.5612 -0.4621  0.8685
 7213SOL    HW133272   1.885   1.126   5.577 -0.1143 -0.4531  0.6509
 7213SOL    HW233273   1.794   1.009   5.581  0.6027  1.8820 -1.0864
 7214SOL     OW33274   4.520   4.021   8.042  0.5554 -0.0699 -0.4630
 7214SOL    HW133275   4.593   3.996   8.099  0.2719  1.1435  0.4358
 7214SOL    HW233276   4.461   4.051   8.111  0.3446 -0.7266 -0.3602
 7215SOL     OW33277   0.903   0.132   7.152  0.0028 -0.2889  0.2254
 7215SOL    HW133278   0.976   0.072   7.169 -0.4606 -0.2838  2.1440
 7215SOL    HW233279   0.838   0.109   7.218 -2.4910  1.1188 -1.7663
 7216SOL     OW33280   2.572   0.250   2.485  0.4871  0.2896 -0.6898
 7216SOL    HW133281   2.659   0.216   2.507  0.0088 -0.5997 -0.1660
 7216SOL    HW233282   2.513   0.178   2.462  1.3525 -1.0309  1.2022
 7217SOL     OW33283   1.193   0.013   9.467  0.2565 -0.2148  0.4529
 7217SOL    HW133284   1.219   0.016   9.559  1.4518 -1.1269  0.1443
 7217SOL    HW233285   1.268   0.059   9.429 -1.3196 -1.2143 -3.8654
 7218SOL     OW33286   0.606   2.294  13.714  0.0618  0.6420 -0.6599
 7218SOL    HW133287   0.513   2.295  13.737  0.0324 -0.2995 -0.7133
 7218SOL    HW233288   0.648   2.232  13.774 -2.2101  0.1291  0.4172
 7219SOL     OW33289   2.576   1.430   8.653  0.0772  0.1954 -0.2923
 7219SOL    HW133290   2.534   1.430   8.567 -1.6881  0.4796  0.5664
 7219SOL    HW233291   2.522   1.489   8.707  0.4772 -0.1539  0.4804
 7220SOL     OW33292   4.023   3.669   3.031 -0.0192  0.0993 -0.3345
 7220SOL    HW133293   3.994   3.729   3.100 -0.0428 -1.7061  1.2245
 7220SOL    HW233294   3.946   3.649   2.979 -0.5765 -1.4532  1.0785
 7221SOL     OW33295   4.217   3.736   3.773 -0.0526 -0.1648 -0.2244
 7221SOL    HW133296   4.128   3.709   3.794 -0.4254 -0.6048 -2.3840
 7221SOL    HW233297   4.223   3.830   3.793  0.5586 -0.5414  1.3406
 7222SOL     OW33298   0.328   1.731   5.025  0.0793 -0.3369 -0.0253
 7222SOL    HW133299   0.313   1.783   5.103 -0.4477  0.6899 -0.8133
 7222SOL    HW233300   0.309   1.791   4.953  0.6183  0.7973  0.7851
 7223SOL     OW33301   1.760   1.868   7.206  0.5736 -0.0258 -0.2978
 7223SOL    HW133302   1.667   1.870   7.229  0.3717  1.7810 -1.2870
 7223SOL    HW233303   1.791   1.950   7.245 -0.7363  0.0307  0.6339
 7224SOL     OW33304   3.825   2.647   4.367 -0.0609 -0.0935  0.2153
 7224SOL    HW133305   3.853   2.582   4.303  0.9871  0.8818 -0.3055
 7224SOL    HW233306   3.848   2.731   4.327  0.7157 -1.0208 -1.2939
 7225SOL     OW33307   2.047   1.489   9.556 -0.4547  0.2643 -0.0206
 7225SOL    HW133308   2.007   1.576   9.561 -1.2244 -0.0774 -0.2361
 7225SOL    HW233309   2.017   1.442   9.634 -1.4857 -1.7015 -1.6206
 7226SOL     OW33310   0.701   2.990   6.385  0.4363 -0.8675 -0.1254
 7226SOL    HW133311   0.612   2.956   6.398  0.8664 -2.3303 -1.0191
 7226SOL    HW233312   0.762   2.931   6.429  1.3776  0.0496 -0.1995
 7227SOL     OW33313   2.970   4.340   2.181 -0.0682 -0.1469 -0.0123
 7227SOL    HW133314   2.960   4.318   2.273  0.7033  1.6284  0.4814
 7227SOL    HW233315   2.889   4.382   2.152  0.7191  1.1844 -0.2702
 7228SOL     OW33316   1.132   3.635   6.199 -0.5905 -0.0382  0.0269
 7228SOL    HW133317   1.205   3.696   6.209 -1.3793  0.9073 -0.0252
 7228SOL    HW233318   1.074   3.680   6.260 -0.4393 -0.6994  0.6554
 7229SOL     OW33319   2.444   2.972   3.477  0.6933 -0.0086  0.0712
 7229SOL    HW133320   2.535   2.995   3.493 -0.3858  2.4580  2.5866
 7229SOL    HW233321   2.419   3.058   3.445  3.2851  0.2457 -1.2176
 7230SOL     OW33322   4.024   0.928  11.885  0.0096  0.0197 -0.0600
 7230SOL    HW133323   4.077   0.955  11.809 -1.0142 -0.0054 -0.7828
 7230SOL    HW233324   3.994   1.014  11.912 -1.8891 -0.0068 -2.0600
 7231SOL     OW33325   1.152   0.219   4.825 -0.1162 -0.5162 -0.3168
 7231SOL    HW133326   1.214   0.199   4.895  1.6966  1.9873 -1.1817
 7231SOL    HW233327   1.082   0.261   4.874  0.0381 -2.2790  1.3727
 7232SOL     OW33328   1.895   2.621  12.648 -0.5268 -0.1418 -0.2689
 7232SOL    HW133329   1.819   2.570  12.620 -0.4991 -0.6824  0.6409
 7232SOL    HW233330   1.889   2.612  12.743 -0.0053 -0.3569 -0.2543
 7233SOL     OW33331   3.103   0.754   8.595 -0.1983  0.1719  0.3879
 7233SOL    HW133332   3.088   0.669   8.552  2.1132  0.6059 -1.2766
 7233SOL    HW233333   3.021   0.802   8.589 -0.1006  0.1857 -1.0003
 7234SOL     OW33334   1.075   1.425  17.706 -0.1776 -0.4327 -0.6385
 7234SOL    HW133335   1.051   1.468   0.041  2.0823 -1.1638  0.4172
 7234SOL    HW233336   0.991   1.392  17.674  0.1244  1.5918 -3.4306
 7235SOL     OW33337   1.211   1.904   1.910  0.0055 -0.0630 -0.3249
 7235SOL    HW133338   1.184   1.890   1.819 -0.5365 -2.4600  0.2240
 7235SOL    HW233339   1.234   1.997   1.901 -0.5907  0.0588 -0.6267
 7236SOL     OW33340   2.119   2.675   9.911 -0.1529 -0.1279  0.2270
 7236SOL    HW133341   2.200   2.666   9.859  0.0653  2.0186  0.2083
 7236SOL    HW233342   2.050   2.664   9.846  0.6038  0.7306 -0.7277
 7237SOL     OW33343   2.844   1.118  10.585 -0.7422 -0.5701 -0.5312
 7237SOL    HW133344   2.940   1.118  10.583 -0.7344  0.5669  0.0277
 7237SOL    HW233345   2.827   1.129  10.491 -2.8450  0.4115 -0.0263
 7238SOL     OW33346   3.564   4.582   4.795  0.3233 -0.5510  0.7957
 7238SOL    HW133347   3.480   4.622   4.772 -0.4210 -1.0837  2.5780
 7238SOL    HW233348   3.618   4.642   4.743  0.6219 -0.0680  1.6751
 7239SOL     OW33349   1.599   2.050   7.443  0.6851 -0.2814  0.0968
 7239SOL    HW133350   1.686   2.084   7.463  0.1617  0.5734  0.9187
 7239SOL    HW233351   1.601   1.955   7.459 -1.1553 -0.1570  1.0212
 7240SOL     OW33352   3.059   2.979   2.578  0.3169  0.6335  0.9538
 7240SOL    HW133353   3.013   3.062   2.589 -1.2605 -0.0642 -0.3150
 7240SOL    HW233354   3.093   2.994   2.490  2.1321 -0.5279  1.4418
 7241SOL     OW33355   3.556   4.393   7.905 -0.3146  0.4466  0.0652
 7241SOL    HW133356   3.500   4.431   7.838 -0.3950  1.0815  0.5002
 7241SOL    HW233357   3.646   4.420   7.888  0.6888 -0.8931  3.1921
 7242SOL     OW33358   2.900   1.621  14.848  0.1587  0.2814  0.5373
 7242SOL    HW133359   2.969   1.686  14.840 -1.1233  1.4917 -0.6007
 7242SOL    HW233360   2.845   1.661  14.915 -0.8692  0.6752 -0.5375
 7243SOL     OW33361   4.184   1.184   5.631  0.4080  0.0230  0.3734
 7243SOL    HW133362   4.231   1.158   5.710  0.4259 -3.0409 -0.6618
 7243SOL    HW233363   4.101   1.142   5.650  0.7730 -0.6774  0.4015
 7244SOL     OW33364   2.336   2.958   4.547  0.2374  0.1335 -0.4339
 7244SOL    HW133365   2.413   2.956   4.491 -0.6399  0.3570 -1.6547
 7244SOL    HW233366   2.358   3.037   4.597  1.0612  0.2440 -0.9753
 7245SOL     OW33367   2.700   4.717   2.902 -0.1910 -0.2142  0.1813
 7245SOL    HW133368   2.696   4.621   2.899 -0.7751 -0.1629 -0.8267
 7245SOL    HW233369   2.748   4.726   2.984  1.1579  3.2287 -0.9802
 7246SOL     OW33370   2.284   3.672  17.260  0.1689  0.5271  0.0579
 7246SOL    HW133371   2.204   3.667  17.207 -0.1531  3.6480  0.2783
 7246SOL    HW233372   2.309   3.764  17.254 -1.2729  1.0063  1.5215
 7247SOL     OW33373   0.678   2.120   6.517 -0.2139 -0.2202 -0.4093
 7247SOL    HW133374   0.683   2.026   6.534 -0.2582 -0.4537 -1.6881
 7247SOL    HW233375   0.742   2.139   6.449 -1.6520 -0.2421 -1.7589
 7248SOL     OW33376   4.283   3.906  14.673 -0.2359  0.1072 -0.3080
 7248SOL    HW133377   4.218   3.975  14.660  1.9022  1.5816 -3.0165
 7248SOL    HW233378   4.358   3.939  14.624 -0.1535  0.0695 -0.2065
 7249SOL     OW33379   4.257   3.992  12.161  0.5498  0.0766  0.5289
 7249SOL    HW133380   4.162   4.002  12.173  0.3997 -0.0915 -0.4976
 7249SOL    HW233381   4.295   4.077  12.182  1.2004 -0.4045  1.2925
 7250SOL     OW33382   1.335   4.021   5.094  0.4061  0.3487 -0.2077
 7250SOL    HW133383   1.295   4.026   5.008 -0.6463  1.1511  0.3320
 7250SOL    HW233384   1.302   3.940   5.132 -1.1807  0.6645 -0.9426
 7251SOL     OW33385   3.863   2.455   2.969 -0.2503 -0.4750  0.0406
 7251SOL    HW133386   3.933   2.504   2.925  0.6421 -2.3957 -0.6575
 7251SOL    HW233387   3.786   2.485   2.920 -0.2176 -1.0836 -0.3750
 7252SOL     OW33388   1.750   0.863   1.619 -0.4147  0.3109  0.8677
 7252SOL    HW133389   1.695   0.936   1.647  0.7225  1.0093  1.2859
 7252SOL    HW233390   1.746   0.870   1.523  1.7446 -0.1637  0.7374
 7253SOL     OW33391   2.965   1.672   1.946 -0.8675  0.0963 -0.4267
 7253SOL    HW133392   2.933   1.682   1.856  1.1691 -0.0946 -1.1710
 7253SOL    HW233393   2.901   1.605   1.970 -1.7269  0.9074 -0.4538
 7254SOL     OW33394   3.039   3.530   0.742 -0.3661  0.1931  0.2265
 7254SOL    HW133395   3.102   3.470   0.783  1.1731  0.5985 -1.5313
 7254SOL    HW233396   2.995   3.562   0.821 -1.7980  1.4281 -1.0879
 7255SOL     OW33397   2.869   1.762   6.736  0.2434  0.1948 -0.0466
 7255SOL    HW133398   2.802   1.802   6.791 -0.1199  1.2827 -1.2829
 7255SOL    HW233399   2.895   1.843   6.693  0.1929  0.2661  0.0581
 7256SOL     OW33400   2.571   3.144   7.310  0.1542 -0.1081  0.0126
 7256SOL    HW133401   2.631   3.149   7.236 -0.9419  3.2963 -0.6530
 7256SOL    HW233402   2.546   3.052   7.303  0.5333 -0.2493  0.5593
 7257SOL     OW33403   3.471   4.140   1.482  0.5523 -0.3699 -0.0820
 7257SOL    HW133404   3.375   4.134   1.485  0.6709 -1.7771  1.0473
 7257SOL    HW233405   3.485   4.081   1.556  0.4985  0.2728  0.4354
 7258SOL     OW33406   0.119   1.718   5.820  0.7087 -0.2212  0.7898
 7258SOL    HW133407   0.204   1.681   5.844  0.9509  0.2899  0.6990
 7258SOL    HW233408   0.149   1.791   5.767 -2.0292  0.4574  0.1642
 7259SOL     OW33409   3.167   3.176   2.797 -0.0479 -0.1968  0.4462
 7259SOL    HW133410   3.140   3.099   2.848 -0.7312 -0.0899  0.2396
 7259SOL    HW233411   3.230   3.136   2.737  1.0155  1.5558  0.3990
 7260SOL     OW33412   0.030   1.123   4.199 -0.5694 -0.1351 -0.3092
 7260SOL    HW133413   4.737   1.166   4.278  0.2482 -0.4665  0.1891
 7260SOL    HW233414   0.078   1.048   4.235 -0.7200  0.0657  0.3035
 7261SOL     OW33415   2.305   1.234   8.617 -0.1126 -0.0517 -0.5285
 7261SOL    HW133416   2.259   1.250   8.699  0.8331  2.4099 -0.4825
 7261SOL    HW233417   2.255   1.282   8.551 -0.5338  0.7324  0.3631
 7262SOL     OW33418   1.644   4.256   6.210 -0.0248  0.1208  0.0765
 7262SOL    HW133419   1.688   4.293   6.134  0.5930  1.4228  1.0672
 7262SOL    HW233420   1.720   4.255   6.268  1.0271  1.9085 -1.2909
 7263SOL     OW33421   3.782   0.589   3.338  0.2340 -0.0320  0.1915
 7263SOL    HW133422   3.807   0.637   3.417  0.6872  0.1065 -0.0365
 7263SOL    HW233423   3.698   0.567   3.379 -0.0691 -0.5642 -0.7024
 7264SOL     OW33424   4.642   1.803  15.480  0.5475 -0.6894  0.3637
 7264SOL    HW133425   4.728   1.812  15.520  0.4539 -0.0682  0.4328
 7264SOL    HW233426   4.612   1.894  15.479 -2.5125 -1.6967  1.8358
 7265SOL     OW33427   3.854   1.844  10.672 -0.1591 -0.1668  0.2055
 7265SOL    HW133428   3.831   1.802  10.755 -1.4146 -0.2553 -0.2001
 7265SOL    HW233429   3.775   1.845  10.619 -0.6196  0.2930  0.9034
 7266SOL     OW33430   0.597   4.255   8.091 -0.1324 -0.4649 -0.7024
 7266SOL    HW133431   0.532   4.309   8.135 -0.6795 -0.1462 -1.9025
 7266SOL    HW233432   0.635   4.322   8.034  2.7153 -2.3372 -1.0519
 7267SOL     OW33433   1.044   4.247   8.277 -0.5018  0.2135  0.3138
 7267SOL    HW133434   1.072   4.331   8.241 -0.9690  1.1342  2.0874
 7267SOL    HW233435   0.998   4.212   8.201  1.2582 -2.7706  0.6049
 7268SOL     OW33436   1.895   0.548   9.593 -0.3076  0.1108 -0.1925
 7268SOL    HW133437   1.920   0.599   9.515  0.1923  1.0635  0.5968
 7268SOL    HW233438   1.806   0.578   9.609  0.0767  0.9536  0.3304
 7269SOL     OW33439   2.386   4.075  16.003  0.0110  0.0253 -0.2318
 7269SOL    HW133440   2.347   3.989  16.019  0.5599 -0.0982  0.4400
 7269SOL    HW233441   2.448   4.082  16.075  0.1561 -0.5837 -0.2965
 7270SOL     OW33442   3.671   2.350   3.226  0.0870  0.2324  0.1381
 7270SOL    HW133443   3.606   2.408   3.266 -0.8633  0.0306 -1.1015
 7270SOL    HW233444   3.714   2.410   3.165  2.2416 -0.4569  1.0085
 7271SOL     OW33445   0.688   1.539   6.829 -0.4710 -0.3299 -0.2414
 7271SOL    HW133446   0.625   1.468   6.815  0.1320 -1.1647  1.2554
 7271SOL    HW233447   0.635   1.619   6.832  1.4486  0.8613  1.8203
 7272SOL     OW33448   1.038   0.025   4.678 -0.9146 -0.3045  0.2893
 7272SOL    HW133449   1.089   0.089   4.729 -0.9686  0.2964 -0.4012
 7272SOL    HW233450   1.095   0.026   4.601 -3.8592 -1.8007 -1.9162
 7273SOL     OW33451   4.704   2.854   5.446  0.0973 -0.0479 -0.2643
 7273SOL    HW133452   0.039   2.793   5.430 -0.2857 -0.4679 -0.3731
 7273SOL    HW233453   4.707   2.916   5.373  1.7859  1.5416  1.1254
 7274SOL     OW33454   0.107   0.234   2.385  0.0917 -0.2007  0.6570
 7274SOL    HW133455   0.127   0.168   2.451 -1.1756  0.5790  1.8064
 7274SOL    HW233456   0.051   0.293   2.435  0.8576  0.6193  0.5567
 7275SOL     OW33457   1.103   1.004   3.519  0.3559 -0.5699  0.2277
 7275SOL    HW133458   1.072   1.045   3.600  0.5129  0.1869 -0.0980
 7275SOL    HW233459   1.065   1.056   3.448  1.7240 -1.9954 -1.5606
 7276SOL     OW33460   3.026   0.401   3.650  0.1536 -0.0393 -0.1251
 7276SOL    HW133461   2.979   0.467   3.700 -0.8717 -1.3750  0.6978
 7276SOL    HW233462   2.973   0.332   3.691 -0.9235  1.3001  0.7125
 7277SOL     OW33463   2.492   3.307  15.607 -0.2514  0.2477  0.7567
 7277SOL    HW133464   2.426   3.375  15.588 -1.7042 -1.6224 -0.8475
 7277SOL    HW233465   2.574   3.347  15.637 -0.3989  0.6930  0.5733
 7278SOL     OW33466   4.689   3.671   7.007 -0.1474  0.0190 -0.1859
 7278SOL    HW133467   0.045   3.652   7.016  0.5195  1.9744 -3.0406
 7278SOL    HW233468   4.693   3.766   7.012 -0.0118 -0.0067  0.1803
 7279SOL     OW33469   1.434   3.010  12.194 -0.3813 -0.4607  0.3971
 7279SOL    HW133470   1.393   3.039  12.113 -1.5119  3.3398  2.3358
 7279SOL    HW233471   1.382   3.058  12.258  1.8238  0.2819  1.6367
 7280SOL     OW33472   3.544   2.229   6.376 -0.0316  0.0737  0.0837
 7280SOL    HW133473   3.560   2.280   6.297 -0.7133  2.5303  1.4969
 7280SOL    HW233474   3.623   2.245   6.428  0.5980 -0.2572 -0.7748
 7281SOL     OW33475   1.267   1.648  10.125 -0.0567  0.3156  0.0253
 7281SOL    HW133476   1.249   1.627  10.033 -0.7108  0.6684  0.0715
 7281SOL    HW233477   1.185   1.687  10.154  0.2727 -0.2395  1.7079
 7282SOL     OW33478   1.039   3.191   4.067 -0.0189  0.0005  0.7726
 7282SOL    HW133479   1.121   3.142   4.055  0.3129  0.5374  0.8405
 7282SOL    HW233480   1.008   3.162   3.981  3.6262  0.6081 -0.7687
 7283SOL     OW33481   3.664   1.596   4.297  0.2614 -0.1958  0.1054
 7283SOL    HW133482   3.756   1.622   4.284 -0.2007  0.8203 -1.1787
 7283SOL    HW233483   3.667   1.501   4.290  0.4196 -0.1503 -0.4519
 7284SOL     OW33484   1.572   2.971   6.708  0.1436  0.1221 -0.4161
 7284SOL    HW133485   1.652   3.002   6.667 -0.6147  0.4363 -1.6578
 7284SOL    HW233486   1.611   2.915   6.776 -0.1938  0.3150 -0.0586
 7285SOL     OW33487   1.463   1.175   4.101  0.3109  0.0918 -0.1774
 7285SOL    HW133488   1.447   1.107   4.035 -2.1311  0.6471 -0.1566
 7285SOL    HW233489   1.425   1.127   4.175 -1.2483  1.5064 -0.0509
 7286SOL     OW33490   0.619   3.115   5.469  0.0898 -0.2126 -0.6216
 7286SOL    HW133491   0.686   3.183   5.469  0.5586 -0.6997 -3.0972
 7286SOL    HW233492   0.651   3.048   5.530 -2.6853  0.8287  1.9924
 7287SOL     OW33493   1.437   1.327   3.133  0.0711 -0.3900  0.4373
 7287SOL    HW133494   1.346   1.349   3.111  0.3205  0.4640  0.2377
 7287SOL    HW233495   1.477   1.411   3.157  1.2336 -1.3229  1.7387
 7288SOL     OW33496   0.949   3.225   4.602 -0.2105  0.3607  0.1533
 7288SOL    HW133497   0.905   3.292   4.550 -0.4515 -0.1766 -0.3261
 7288SOL    HW233498   0.977   3.283   4.673  1.5120 -0.1398 -0.1289
 7289SOL     OW33499   4.425   4.170   5.117 -0.1911 -0.0209  0.4042
 7289SOL    HW133500   4.424   4.078   5.144  1.3428  0.9007  3.6360
 7289SOL    HW233501   4.415   4.157   5.023  2.2761 -1.8521  0.4010
 7290SOL     OW33502   3.050   4.390  10.018 -0.2919  0.4021 -0.2567
 7290SOL    HW133503   3.124   4.330  10.011 -1.1525 -0.6202 -0.5858
 7290SOL    HW233504   3.076   4.460   9.958  3.6819  0.5454  1.6706
 7291SOL     OW33505   0.632   1.045   7.870  0.4135 -0.0201 -0.1547
 7291SOL    HW133506   0.580   1.103   7.926  0.5036  0.1187 -0.2164
 7291SOL    HW233507   0.720   1.079   7.884 -0.3699  0.8982  2.6380
 7292SOL     OW33508   3.871   2.935  17.332 -0.6881 -0.4749  0.5306
 7292SOL    HW133509   3.941   2.933  17.267 -2.3344 -1.9913 -1.2137
 7292SOL    HW233510   3.806   2.880  17.287 -0.9006 -0.4714  0.8290
 7293SOL     OW33511   4.255   1.601   8.552  0.0805  0.0875 -0.0750
 7293SOL    HW133512   4.229   1.518   8.592  1.0007  0.3583  1.0668
 7293SOL    HW233513   4.317   1.633   8.617  1.0398 -1.3598 -0.2699
 7294SOL     OW33514   4.649   2.978   1.819  0.3381 -0.0645  0.4141
 7294SOL    HW133515   4.631   3.051   1.760  2.7037 -0.1414 -0.4181
 7294SOL    HW233516   4.615   2.905   1.767  1.6524 -0.0286 -0.4983
 7295SOL     OW33517   3.493   3.321   7.167 -0.5591 -0.2252  0.0044
 7295SOL    HW133518   3.405   3.329   7.131 -0.9406  2.9499  1.6529
 7295SOL    HW233519   3.481   3.298   7.260 -2.9592 -0.2573 -0.3187
 7296SOL     OW33520   3.496   3.991   6.353  0.8277  0.4059 -0.4600
 7296SOL    HW133521   3.474   4.032   6.437  1.0720 -1.1196  0.3579
 7296SOL    HW233522   3.503   4.071   6.301 -1.5208 -0.4305 -2.0149
 7297SOL     OW33523   2.526   0.231   5.556 -0.2843 -0.3376  0.0719
 7297SOL    HW133524   2.437   0.217   5.524  0.5075 -0.3849 -2.0772
 7297SOL    HW233525   2.517   0.248   5.650 -0.3060  1.7913 -0.3260
 7298SOL     OW33526   3.423   4.254   4.168 -0.1505 -0.0051 -0.0408
 7298SOL    HW133527   3.499   4.311   4.182  0.1337 -0.5801  0.7385
 7298SOL    HW233528   3.368   4.275   4.244 -1.7421  0.5267 -1.3282
 7299SOL     OW33529   2.274   2.965   5.971 -0.3493  0.1292 -0.7800
 7299SOL    HW133530   2.210   3.034   5.952  0.9449  1.4699 -0.2420
 7299SOL    HW233531   2.225   2.887   5.944 -2.5005  1.2886 -0.1785
 7300SOL     OW33532   2.227   0.019   7.341 -0.0364 -0.1551 -0.2629
 7300SOL    HW133533   2.186   0.098   7.306  1.1166 -1.1055 -3.7847
 7300SOL    HW233534   2.301   0.048   7.394 -0.2812 -1.1976  0.6329
 7301SOL     OW33535   2.542   1.092  12.112 -0.3678 -0.0223  0.3054
 7301SOL    HW133536   2.519   1.028  12.180  1.5451 -0.8708  0.1744
 7301SOL    HW233537   2.578   1.024  12.055 -2.4495 -2.8044  2.2891
 7302SOL     OW33538   1.031   1.985   7.215  0.4605  0.3328  0.8446
 7302SOL    HW133539   0.990   2.017   7.135  0.3008  3.2498  2.0624
 7302SOL    HW233540   1.090   1.920   7.180  1.4177  1.5992  0.1019
 7303SOL     OW33541   0.824   0.123   9.155 -0.7034 -0.3815  0.8999
 7303SOL    HW133542   0.915   0.148   9.172 -0.8158  0.0573  0.8361
 7303SOL    HW233543   0.777   0.201   9.183 -1.3503 -0.5060  0.1571
 7304SOL     OW33544   0.375   3.223  14.868 -0.1082  0.0111  0.1920
 7304SOL    HW133545   0.452   3.243  14.921 -1.1906 -1.4665  2.3139
 7304SOL    HW233546   0.371   3.304  14.817 -1.4021 -0.3250 -0.2335
 7305SOL     OW33547   3.808   1.633   2.860  0.3358 -0.1983 -0.4445
 7305SOL    HW133548   3.821   1.545   2.826 -0.3595  0.4157 -2.2833
 7305SOL    HW233549   3.748   1.668   2.794 -0.8013 -0.2568  0.5538
 7306SOL     OW33550   2.135   0.490  17.374  0.0469 -0.3487  0.4598
 7306SOL    HW133551   2.154   0.582  17.355  0.3734 -0.3727  0.6681
 7306SOL    HW233552   2.077   0.497  17.450 -0.4466  0.2022  0.0270
 7307SOL     OW33553   2.930   3.065   6.636  0.4163 -0.6682 -0.1404
 7307SOL    HW133554   2.911   3.156   6.611  0.0401 -0.4402  0.9937
 7307SOL    HW233555   3.020   3.059   6.668 -0.7137 -2.0954  2.7381
 7308SOL     OW33556   2.949   0.527   7.702  0.0168  0.3169 -0.2745
 7308SOL    HW133557   2.918   0.579   7.628  0.2915  1.0858  0.1451
 7308SOL    HW233558   2.981   0.596   7.761 -1.0457  0.0853  0.5795
 7309SOL     OW33559   4.698   1.558   7.611 -0.9967  0.8841  0.5624
 7309SOL    HW133560   4.676   1.570   7.703 -0.5017  0.9531  0.6745
 7309SOL    HW233561   4.703   1.463   7.604 -2.0112  0.8339  0.5894
 7310SOL     OW33562   0.152   1.652   8.766  0.0199  0.0986 -0.5019
 7310SOL    HW133563   0.072   1.600   8.756  0.0999 -0.0436 -0.4046
 7310SOL    HW233564   0.123   1.722   8.708  0.0184 -1.9275 -2.9655
 7311SOL     OW33565   1.968   1.536   1.936  1.2071  0.8285 -0.1357
 7311SOL    HW133566   1.965   1.540   2.032 -1.1472  1.7960 -0.2484
 7311SOL    HW233567   1.944   1.626   1.916 -3.4065 -0.8640 -2.3400
 7312SOL     OW33568   3.831   1.868   9.020  0.8180  0.0822  0.2091
 7312SOL    HW133569   3.759   1.852   8.959  1.3505 -0.0616 -0.3930
 7312SOL    HW233570   3.801   1.941   9.073  0.6587 -0.5106  0.9347
 7313SOL     OW33571   0.186   3.934   5.372  0.3395  0.0029  0.0910
 7313SOL    HW133572   0.204   3.847   5.337 -2.6098 -0.6738  0.1941
 7313SOL    HW233573   0.259   3.950   5.432 -0.4735  0.2614  1.0346
 7314SOL     OW33574   1.414   2.529   2.346 -0.2217  0.4976  0.1119
 7314SOL    HW133575   1.355   2.549   2.418 -0.3344 -0.9351  0.4259
 7314SOL    HW233576   1.347   2.519   2.277  0.6968  0.2522 -0.7469
 7315SOL     OW33577   2.514   1.029  17.037  0.2599 -0.1537 -0.4423
 7315SOL    HW133578   2.518   0.936  17.015  1.2188 -0.3398  0.5566
 7315SOL    HW233579   2.603   1.059  17.020 -0.1226 -0.6397 -3.3792
 7316SOL     OW33580   4.591   1.269   7.230 -0.0239 -0.2051  0.1423
 7316SOL    HW133581   4.668   1.300   7.277  1.5963  0.0656 -2.6316
 7316SOL    HW233582   4.526   1.276   7.300  2.6243  2.5257  2.3335
 7317SOL     OW33583   0.153   3.049   3.546  0.2735  0.5736  0.1135
 7317SOL    HW133584   0.241   3.051   3.508 -0.6102 -0.3610 -1.9650
 7317SOL    HW233585   0.106   2.978   3.503  0.7923 -0.2772  0.9206
 7318SOL     OW33586   4.152   3.815   7.094 -0.2701  0.2327 -0.0623
 7318SOL    HW133587   4.082   3.800   7.031 -2.9556  3.3571  2.1933
 7318SOL    HW233588   4.224   3.804   7.031 -0.2656  1.8280 -0.3564
 7319SOL     OW33589   3.351   2.207   8.323  0.4369  0.0962  0.3716
 7319SOL    HW133590   3.394   2.124   8.302  1.0995  0.7753 -0.9887
 7319SOL    HW233591   3.263   2.173   8.336  0.1982 -0.0499 -1.5503
 7320SOL     OW33592   2.951   2.573  14.655  0.7828 -0.6704  0.2299
 7320SOL    HW133593   2.930   2.501  14.596 -0.9375  0.7784 -0.9254
 7320SOL    HW233594   2.897   2.543  14.728  2.0337 -1.8687  0.6733
 7321SOL     OW33595   4.636   2.861   8.357  0.0154 -0.6076 -0.0542
 7321SOL    HW133596   4.581   2.783   8.354  0.9591 -1.2641 -0.1328
 7321SOL    HW233597   4.596   2.922   8.419 -0.6391 -2.1896  1.0688
 7322SOL     OW33598   3.955   2.585   0.166  0.6709  0.0245  0.0016
 7322SOL    HW133599   3.982   2.495   0.187 -1.6182 -1.1822 -2.1446
 7322SOL    HW233600   3.958   2.632   0.249 -0.1772 -2.7203  1.6126
 7323SOL     OW33601   2.281   4.723   3.271  0.1285 -0.0956 -0.2804
 7323SOL    HW133602   2.341   4.649   3.267 -0.0656 -0.4059  2.6246
 7323SOL    HW233603   2.314   0.021   3.188  0.4400  1.8376  0.6654
 7324SOL     OW33604   3.868   0.432  15.830 -0.4487  0.2970 -0.3122
 7324SOL    HW133605   3.836   0.342  15.823  1.1678 -0.6086  3.7241
 7324SOL    HW233606   3.928   0.435  15.755 -0.5133  2.7971 -0.2682
 7325SOL     OW33607   3.101   3.647  15.627 -0.2403 -0.0776  0.2757
 7325SOL    HW133608   3.164   3.616  15.563  1.7386  0.6501  1.8803
 7325SOL    HW233609   3.030   3.585  15.611 -0.3652  0.6775 -2.2001
 7326SOL     OW33610   3.866   2.911   6.703 -0.6736 -0.0991  0.3596
 7326SOL    HW133611   3.866   3.004   6.725  0.8896  0.0543 -0.3324
 7326SOL    HW233612   3.956   2.898   6.675  0.6607  0.2158  4.4721
 7327SOL     OW33613   1.837   3.949  10.667 -0.1276 -0.2051 -0.5310
 7327SOL    HW133614   1.799   4.036  10.664  0.8720  0.3055  1.4181
 7327SOL    HW233615   1.926   3.972  10.694 -0.3200  0.8434 -0.8178
 7328SOL     OW33616   0.978   2.603   5.200  0.2048  0.4294  0.1557
 7328SOL    HW133617   1.039   2.622   5.129  2.0651 -2.1068  1.0974
 7328SOL    HW233618   0.988   2.672   5.266  1.5427  0.9675 -0.6063
 7329SOL     OW33619   1.953   1.281   5.302 -0.1501 -0.0932  0.3738
 7329SOL    HW133620   1.961   1.376   5.292  0.4513 -0.2218 -0.3450
 7329SOL    HW233621   2.041   1.245   5.311  0.7061  2.4094  2.2211
 7330SOL     OW33622   1.586   3.094   2.530  0.1834  0.4865  0.8616
 7330SOL    HW133623   1.669   3.076   2.573 -0.1430 -0.7380  0.9547
 7330SOL    HW233624   1.538   3.012   2.539 -1.3530  1.4421  1.4083
 7331SOL     OW33625   0.239   1.349  15.606 -0.3281  0.8891 -0.9343
 7331SOL    HW133626   0.145   1.342  15.595 -0.2995  0.1334 -0.6840
 7331SOL    HW233627   0.236   1.357  15.701  1.2640 -0.5461 -0.7612
 7332SOL     OW33628   0.189   1.227   2.564 -0.1955  0.3691 -0.0359
 7332SOL    HW133629   0.204   1.247   2.472  0.1596  0.4435  0.0388
 7332SOL    HW233630   0.260   1.274   2.608  2.0607 -1.7835 -1.3758
 7333SOL     OW33631   1.209   0.178   3.267 -0.1424 -0.4884 -0.1868
 7333SOL    HW133632   1.173   0.178   3.356  0.8467  0.3355  0.2101
 7333SOL    HW233633   1.171   0.097   3.232  1.1479 -1.0198 -0.3579
 7334SOL     OW33634   2.041   0.424   2.721  0.3972  0.1521 -0.2135
 7334SOL    HW133635   1.961   0.440   2.671  1.6238 -0.8216 -2.4840
 7334SOL    HW233636   2.028   0.475   2.801  2.7142  0.7190 -0.1935
 7335SOL     OW33637   4.309   0.745   6.229 -0.0486  0.2316  0.2710
 7335SOL    HW133638   4.379   0.808   6.210  0.1506 -0.6493 -1.9003
 7335SOL    HW233639   4.367   0.670   6.244 -0.8032 -0.9177 -2.6450
 7336SOL     OW33640   3.330   0.429  16.320 -0.1633  0.3980 -0.6322
 7336SOL    HW133641   3.240   0.397  16.315  0.3991 -0.8029 -3.0426
 7336SOL    HW233642   3.347   0.450  16.228  3.0226 -4.2741 -1.1146
 7337SOL     OW33643   3.796   3.184   6.823 -0.9792 -0.0015 -0.3034
 7337SOL    HW133644   3.779   3.245   6.894  2.2551  0.1950  0.2884
 7337SOL    HW233645   3.722   3.205   6.765 -1.9253 -2.1569  0.1107
 7338SOL     OW33646   2.508   2.179  14.711 -0.0637  0.2933  0.5075
 7338SOL    HW133647   2.489   2.218  14.626 -1.0732 -0.4228  0.4118
 7338SOL    HW233648   2.453   2.101  14.718  0.0527  0.1977  0.3611
 7339SOL     OW33649   0.732   2.215   6.053 -0.0489  0.1536 -0.1745
 7339SOL    HW133650   0.785   2.191   6.129  1.0510  1.8663 -0.4011
 7339SOL    HW233651   0.661   2.151   6.053  0.4110 -0.3576 -0.7103
 7340SOL     OW33652   4.160   2.607   1.387 -0.3616  0.5827 -1.2081
 7340SOL    HW133653   4.152   2.649   1.472  1.1970  0.0074 -0.7750
 7340SOL    HW233654   4.237   2.558   1.415 -0.6148  1.0319  0.2577
 7341SOL     OW33655   2.171   4.014   2.430 -0.1708 -0.3451  0.7050
 7341SOL    HW133656   2.190   4.057   2.347  1.4377 -1.7153  0.3696
 7341SOL    HW233657   2.076   4.015   2.418 -0.0861  2.5044  0.2026
 7342SOL     OW33658   1.115   1.744   9.265  0.4265  0.0501 -0.3655
 7342SOL    HW133659   1.085   1.782   9.347  0.8313  1.8740 -1.0438
 7342SOL    HW233660   1.045   1.712   9.208 -0.2517 -0.2245  0.6181
 7343SOL     OW33661   2.078   0.735   8.303  0.3475  0.1433  0.0820
 7343SOL    HW133662   2.116   0.660   8.349 -0.7853 -1.2018 -1.1964
 7343SOL    HW233663   2.127   0.718   8.222  0.0483 -0.7826  0.0964
 7344SOL     OW33664   3.777   0.303   7.841  0.3691  0.7802  0.4357
 7344SOL    HW133665   3.719   0.371   7.875 -0.2868  1.3226 -1.7927
 7344SOL    HW233666   3.717   0.231   7.861  0.1258  0.9970  0.4792
 7345SOL     OW33667   4.017   3.328   2.872 -0.2204  0.0507 -0.2690
 7345SOL    HW133668   4.107   3.295   2.870 -0.2336  0.0541 -0.9709
 7345SOL    HW233669   3.999   3.384   2.797 -0.6833 -0.6767 -0.6978
 7346SOL     OW33670   1.114   2.944   9.308  0.3995  0.3038 -0.5882
 7346SOL    HW133671   1.028   2.962   9.270  0.0544  0.3055  0.1924
 7346SOL    HW233672   1.123   3.025   9.358 -1.2922 -0.2842  0.6700
 7347SOL     OW33673   1.170   2.011   4.160  0.5559 -0.2509  0.1276
 7347SOL    HW133674   1.158   1.941   4.225 -1.9920  1.2727  1.3054
 7347SOL    HW233675   1.183   1.965   4.077  0.6437 -1.5246  0.8480
 7348SOL     OW33676   1.390   3.214   4.517  0.2109 -0.2626 -1.3632
 7348SOL    HW133677   1.341   3.262   4.450 -1.6830  0.3006  0.4027
 7348SOL    HW233678   1.356   3.125   4.510  4.2750 -1.9892  1.0381
 7349SOL     OW33679   3.224   1.542  16.315 -0.0035 -0.4960  0.8447
 7349SOL    HW133680   3.306   1.496  16.334  0.2450 -1.1154 -1.7135
 7349SOL    HW233681   3.215   1.557  16.409  1.3845 -1.4877  1.1363
 7350SOL     OW33682   3.082   0.135   7.858  0.0239  0.0641 -0.3138
 7350SOL    HW133683   3.089   0.185   7.777  1.6937  0.8955  0.3413
 7350SOL    HW233684   3.162   0.087   7.876  0.9092  1.1010 -1.5242
 7351SOL     OW33685   3.309   4.536   6.245  0.2303 -0.4070  0.1224
 7351SOL    HW133686   3.392   4.522   6.291  1.6844 -0.6234 -2.5680
 7351SOL    HW233687   3.330   4.507   6.156 -0.2625  0.0729 -0.1526
 7352SOL     OW33688   2.635   4.476   4.724 -0.0952  0.2237 -0.0924
 7352SOL    HW133689   2.596   4.517   4.647  0.5097 -1.6888 -1.4165
 7352SOL    HW233690   2.627   4.385   4.698 -1.5445 -0.2747  2.0917
 7353SOL     OW33691   2.575   2.262   2.000 -0.3713 -0.1144 -0.0809
 7353SOL    HW133692   2.617   2.263   1.914 -0.4059 -1.2814 -0.1096
 7353SOL    HW233693   2.486   2.291   1.979  0.8528  1.5474 -2.8784
 7354SOL     OW33694   1.845   2.568  17.179 -0.7454 -0.1979 -0.2888
 7354SOL    HW133695   1.787   2.643  17.167 -1.1417  0.4224  5.7146
 7354SOL    HW233696   1.790   2.490  17.189 -2.3187  1.2463  2.4281
 7355SOL     OW33697   4.689   2.061   2.136 -0.2278  0.3103  0.1522
 7355SOL    HW133698   4.702   2.152   2.163  1.9781  0.0572 -0.0600
 7355SOL    HW233699   4.664   2.078   2.045  1.6872  0.3107 -0.3745
 7356SOL     OW33700   0.340   4.677  14.405  0.1486  0.2499  0.2694
 7356SOL    HW133701   0.322   4.584  14.390 -1.7523  0.5692  0.4803
 7356SOL    HW233702   0.274   4.707  14.468 -0.6127  0.7101 -0.7436
 7357SOL     OW33703   2.655   2.871  17.243  0.3033  0.7271 -0.2535
 7357SOL    HW133704   2.588   2.938  17.253 -0.5808 -0.0440 -0.9623
 7357SOL    HW233705   2.726   2.920  17.203  0.6714  0.9122  0.6457
 7358SOL     OW33706   0.358   3.816   8.586 -0.5218  0.3889  0.4607
 7358SOL    HW133707   0.334   3.731   8.622 -0.3848 -0.3476 -1.1611
 7358SOL    HW233708   0.444   3.801   8.547 -1.6125  1.4936 -2.3700
 7359SOL     OW33709   4.640   2.464   5.010 -0.6335  0.0492  0.0844
 7359SOL    HW133710   4.690   2.498   5.084  1.2507  0.5187 -1.4078
 7359SOL    HW233711   4.562   2.418   5.042 -1.3037  1.0883 -0.0179
 7360SOL     OW33712   4.014   2.626   7.930 -0.2748  0.2292  0.6426
 7360SOL    HW133713   4.046   2.626   8.020 -1.0262  0.1949  0.9087
 7360SOL    HW233714   3.993   2.716   7.908  0.8401  0.1622 -0.6922
 7361SOL     OW33715   0.998   0.534  10.042 -0.2645 -0.3806 -0.1037
 7361SOL    HW133716   1.083   0.579  10.038 -0.4382  0.0322  0.9649
 7361SOL    HW233717   0.974   0.520   9.951 -0.0644  2.1712 -0.5578
 7362SOL     OW33718   1.556   0.039   0.697  0.0836  0.2841  0.1820
 7362SOL    HW133719   1.580   4.691   0.734 -2.7267  0.3517  2.1939
 7362SOL    HW233720   1.599   0.035   0.612  0.5286 -1.9384  0.5095
 7363SOL     OW33721   2.080   4.421   9.574  0.8469  0.6073  0.1024
 7363SOL    HW133722   2.087   4.490   9.508 -2.9015  1.8177  0.9984
 7363SOL    HW233723   2.085   4.342   9.519 -0.2298  0.8600 -0.3513
 7364SOL     OW33724   0.471   1.605   1.349  0.1076  0.6273  0.5589
 7364SOL    HW133725   0.496   1.696   1.332 -0.6774  0.7375  0.0398
 7364SOL    HW233726   0.400   1.594   1.286  0.5462  2.5943 -0.2963
 7365SOL     OW33727   3.746   4.697   8.585  0.4627 -1.0335 -0.2005
 7365SOL    HW133728   3.840   4.710   8.593  0.4317  0.8296 -2.8347
 7365SOL    HW233729   3.719   4.670   8.673 -1.7306  0.3582 -0.4114
 7366SOL     OW33730   1.798   3.542  13.178  0.3990 -0.2247  0.2690
 7366SOL    HW133731   1.845   3.588  13.248  0.6149  0.9478 -0.6475
 7366SOL    HW233732   1.704   3.553  13.197  0.4145 -0.4160  0.4546
 7367SOL     OW33733   2.984   2.092   1.900 -0.2860  0.4961  0.3029
 7367SOL    HW133734   3.035   2.072   1.979 -1.4957 -1.8336  0.4967
 7367SOL    HW233735   2.969   2.185   1.920 -0.6731  0.2438  1.1878
 7368SOL     OW33736   4.295   3.724  15.058  0.5247 -0.3339 -0.0654
 7368SOL    HW133737   4.314   3.777  14.981  0.8835  1.5939  1.3528
 7368SOL    HW233738   4.264   3.791  15.119  2.0191 -0.2509  0.6124
 7369SOL     OW33739   4.419   4.090   5.421  0.4885  0.1977  0.2613
 7369SOL    HW133740   4.504   4.048   5.419 -0.0872 -0.9311 -0.4719
 7369SOL    HW233741   4.449   4.167   5.469  1.0617 -0.3394  0.7633
 7370SOL     OW33742   2.312   2.419   2.387  0.3039 -0.1013  0.0004
 7370SOL    HW133743   2.385   2.481   2.391 -0.6781  1.0856 -0.6184
 7370SOL    HW233744   2.347   2.344   2.340  3.6480  0.1892  2.0146
 7371SOL     OW33745   0.619   4.608   4.266 -0.1801 -0.9371  0.2046
 7371SOL    HW133746   0.636   4.689   4.217 -0.9636  0.0421  1.5392
 7371SOL    HW233747   0.550   4.570   4.213  2.3309 -0.4057 -3.4717
 7372SOL     OW33748   4.247   0.808   4.339 -0.6654  0.5004  0.4019
 7372SOL    HW133749   4.274   0.879   4.397  0.3171 -0.2174  0.8304
 7372SOL    HW233750   4.330   0.772   4.307  0.2934  1.0848  2.1982
 7373SOL     OW33751   3.839   2.074   2.906  0.3203 -0.0431 -1.0125
 7373SOL    HW133752   3.780   2.012   2.948  0.6518 -0.2257 -0.8137
 7373SOL    HW233753   3.770   2.093   2.842  0.0984  2.1528 -0.1062
 7374SOL     OW33754   2.063   0.685  12.661  0.1367 -0.2873 -0.2532
 7374SOL    HW133755   1.983   0.713  12.617  1.5313  1.0696 -1.9083
 7374SOL    HW233756   2.081   0.756  12.723  1.7619 -0.1681 -0.8668
 7375SOL     OW33757   0.505   4.259   2.043 -0.1408 -0.3030  0.0495
 7375SOL    HW133758   0.417   4.223   2.056  0.0794 -1.0860 -0.6112
 7375SOL    HW233759   0.503   4.347   2.080 -1.0971 -1.1548  2.0101
 7376SOL     OW33760   3.611   0.239  15.769 -0.6487  0.4709  0.2595
 7376SOL    HW133761   3.586   0.282  15.851  0.8363  1.0625  0.4205
 7376SOL    HW233762   3.554   0.285  15.709 -1.1680 -0.3176  0.1523
 7377SOL     OW33763   2.197   1.490   6.763 -0.7972  0.6304  0.2003
 7377SOL    HW133764   2.113   1.521   6.797 -0.1725  0.6912  1.6926
 7377SOL    HW233765   2.240   1.502   6.847  0.5724 -1.7683 -0.1771
 7378SOL     OW33766   2.221   0.637  17.710  0.3648  0.2070  0.0827
 7378SOL    HW133767   2.194   0.676   0.046 -1.6145 -0.5428 -0.2049
 7378SOL    HW233768   2.168   0.559  17.695  0.7054 -0.4293  2.2317
 7379SOL     OW33769   2.239   0.244   4.560  0.5734  0.0244 -0.8188
 7379SOL    HW133770   2.154   0.245   4.516  0.9762 -3.2480 -1.6340
 7379SOL    HW233771   2.256   0.153   4.537  0.3452  0.1204 -1.3664
 7380SOL     OW33772   1.917   1.041   9.211 -0.2250  0.4704 -0.3435
 7380SOL    HW133773   1.850   0.980   9.243 -0.4742  0.3341 -1.1210
 7380SOL    HW233774   1.974   1.058   9.286  2.1013 -0.2103 -1.9439
 7381SOL     OW33775   2.330   3.259   4.944  0.0259 -0.0560 -0.0419
 7381SOL    HW133776   2.357   3.299   5.027  0.7074 -1.9880  0.6760
 7381SOL    HW233777   2.408   3.246   4.890 -0.3065  0.6058 -0.6725
 7382SOL     OW33778   4.215   1.779   2.399  0.3933 -0.0019 -0.7275
 7382SOL    HW133779   4.248   1.715   2.337  0.3949  0.1494 -0.8812
 7382SOL    HW233780   4.274   1.763   2.473 -0.3107 -1.0082 -0.3791
 7383SOL     OW33781   1.254   2.817   2.342  0.6540  1.0653 -0.0580
 7383SOL    HW133782   1.194   2.776   2.405 -1.0081  2.4592 -0.7539
 7383SOL    HW233783   1.214   2.824   2.256 -1.4718 -0.8477  0.7798
 7384SOL     OW33784   4.051   1.251   6.806  0.4401 -0.0869  0.3041
 7384SOL    HW133785   4.047   1.346   6.795 -1.5009 -0.2979 -0.7747
 7384SOL    HW233786   4.139   1.236   6.772 -0.0486 -0.3859 -0.8171
 7385SOL     OW33787   2.990   3.383  11.252  0.0945  0.3468 -0.5334
 7385SOL    HW133788   3.027   3.468  11.276 -0.7507  1.9977 -5.1410
 7385SOL    HW233789   3.054   3.330  11.205 -0.7625  0.4039 -1.7690
 7386SOL     OW33790   2.844   1.122   7.462  0.1850 -0.0654  0.3332
 7386SOL    HW133791   2.915   1.163   7.510 -0.7605  0.1365  1.5513
 7386SOL    HW233792   2.770   1.176   7.490  0.5193 -0.5201  2.0806
 7387SOL     OW33793   2.782   0.755  16.748  0.0707  0.2234 -0.1558
 7387SOL    HW133794   2.819   0.799  16.825  1.0086 -2.9986  1.2190
 7387SOL    HW233795   2.793   0.667  16.783  0.8933  0.8113  1.0991
 7388SOL     OW33796   0.401   4.540   8.397 -0.1061  0.6982  0.2399
 7388SOL    HW133797   0.368   4.480   8.464 -0.7422  1.3381  0.4955
 7388SOL    HW233798   0.405   4.477   8.325  0.0261  1.5960 -0.5363
 7389SOL     OW33799   3.555   1.166  16.389  0.0353  0.4394  0.1030
 7389SOL    HW133800   3.591   1.137  16.305  1.7968  1.6193  0.4419
 7389SOL    HW233801   3.629   1.207  16.436 -1.1382  0.3972  1.9782
 7390SOL     OW33802   0.073   3.644   6.209  0.2335 -0.1359 -0.0000
 7390SOL    HW133803   0.146   3.658   6.270 -0.6878 -2.3911  1.6164
 7390SOL    HW233804   0.124   3.620   6.132  0.6471  0.2306  0.1574
 7391SOL     OW33805   4.641   2.616   7.812  0.1186 -0.1192  0.4108
 7391SOL    HW133806   4.551   2.629   7.842 -0.1695  0.3363 -0.6463
 7391SOL    HW233807   4.683   2.642   7.894  1.1709 -1.5664  0.3315
 7392SOL     OW33808   3.108   1.162   5.742  0.1660  0.1707 -0.7203
 7392SOL    HW133809   3.100   1.187   5.834  0.0540  1.2497 -1.0210
 7392SOL    HW233810   3.152   1.242   5.714  0.6489 -0.2601 -1.1824
 7393SOL     OW33811   0.541   1.236   5.743  0.4260 -0.2875 -0.6515
 7393SOL    HW133812   0.585   1.163   5.699  0.7417 -0.5893  0.1579
 7393SOL    HW233813   0.503   1.271   5.662  0.6524 -1.0389 -1.0828
 7394SOL     OW33814   0.990   4.616   8.960  0.3919  0.2377  0.3192
 7394SOL    HW133815   0.897   4.629   8.976  0.4693 -1.1323  1.8517
 7394SOL    HW233816   1.015   4.709   8.964 -1.4466  0.6513  2.1682
 7395SOL     OW33817   2.327   2.860   4.908 -0.5512 -0.2300  0.0078
 7395SOL    HW133818   2.250   2.858   4.851 -0.2020 -1.5553 -0.4226
 7395SOL    HW233819   2.372   2.783   4.874 -1.1844 -0.8738  0.6398
 7396SOL     OW33820   0.262   1.557   3.125 -0.2669  0.2225  0.4131
 7396SOL    HW133821   0.300   1.579   3.210  0.6794 -2.0970  0.6121
 7396SOL    HW233822   0.253   1.462   3.127 -0.7772  0.2632 -0.0276
 7397SOL     OW33823   3.950   1.902   3.756 -0.3119  0.2399 -0.4361
 7397SOL    HW133824   4.012   1.869   3.820 -0.7107  0.2712 -0.0327
 7397SOL    HW233825   3.909   1.969   3.810 -1.2455  1.7268 -2.9832
 7398SOL     OW33826   2.830   4.064   6.485  0.2425 -0.3091 -0.4370
 7398SOL    HW133827   2.737   4.068   6.504  0.3014 -1.1028  0.0571
 7398SOL    HW233828   2.828   3.979   6.441 -1.1418 -1.1830  1.3043
 7399SOL     OW33829   3.770   3.657   4.180 -0.4086  0.8365  0.2827
 7399SOL    HW133830   3.752   3.584   4.121 -1.5180 -0.7376  2.5734
 7399SOL    HW233831   3.840   3.624   4.235  0.0235 -2.3121 -2.1477
 7400SOL     OW33832   0.454   2.653   4.559 -0.0787  0.7187  0.7865
 7400SOL    HW133833   0.408   2.737   4.556  1.9714  1.7078 -3.2134
 7400SOL    HW233834   0.545   2.681   4.547 -0.4111  0.8362 -1.3276
 7401SOL     OW33835   1.832   0.118  14.828  0.2622 -0.1202 -0.1215
 7401SOL    HW133836   1.888   0.112  14.750 -0.2571  0.3447 -0.5318
 7401SOL    HW233837   1.900   0.081  14.884  1.5872  0.4926 -1.3082
 7402SOL     OW33838   0.639   0.950   3.259 -0.4737  0.3295  0.8103
 7402SOL    HW133839   0.732   0.945   3.238  0.2070 -0.1423  3.9398
 7402SOL    HW233840   0.602   0.872   3.218  0.4231  1.0431 -1.3722
 7403SOL     OW33841   2.615   0.493   7.300 -0.1698  0.2382  0.0361
 7403SOL    HW133842   2.536   0.439   7.308  0.8684 -1.1989  0.6892
 7403SOL    HW233843   2.667   0.450   7.232 -0.2650 -0.9322  0.7106
 7404SOL     OW33844   4.396   2.042   1.914 -0.3510  0.3955 -0.5686
 7404SOL    HW133845   4.399   2.081   1.827 -0.9754 -0.4629 -0.9843
 7404SOL    HW233846   4.317   1.987   1.915  0.2011 -0.3721  0.5141
 7405SOL     OW33847   3.074   0.107  17.586 -0.2164 -0.4378 -0.0873
 7405SOL    HW133848   3.062   0.140  17.497  0.4084 -2.0876 -0.7647
 7405SOL    HW233849   3.024   0.173  17.636  0.0008  0.9857 -1.7488
 7406SOL     OW33850   3.007   3.951   9.066 -0.1557 -0.1757 -0.3305
 7406SOL    HW133851   3.085   4.005   9.082  1.2198 -2.0314 -0.7135
 7406SOL    HW233852   3.045   3.863   9.071  0.9131  0.2799 -0.4690
 7407SOL     OW33853   0.129   2.514  12.889 -0.1246  0.4638  0.4379
 7407SOL    HW133854   0.042   2.525  12.929  0.0174  0.8385  0.6458
 7407SOL    HW233855   0.178   2.586  12.928  0.3871  0.3146  0.0603
 7408SOL     OW33856   0.151   2.307  12.341  0.2518 -0.1436 -0.2129
 7408SOL    HW133857   0.174   2.370  12.273  0.3038 -0.0912 -0.1469
 7408SOL    HW233858   0.178   2.347  12.424  1.0913  1.9739 -1.4926
 7409SOL     OW33859   2.833   2.837   1.507  0.4829 -0.1652  0.2198
 7409SOL    HW133860   2.851   2.750   1.471  0.8073  0.1126 -0.2839
 7409SOL    HW233861   2.867   2.832   1.597  0.2620 -0.3469  0.2934
 7410SOL     OW33862   2.635   4.380   0.114  0.5837 -0.5647  0.6228
 7410SOL    HW133863   2.709   4.436   0.135 -0.6015  0.8330  1.0459
 7410SOL    HW233864   2.659   4.295   0.151 -2.2428 -3.2319 -3.6632
 7411SOL     OW33865   4.071   2.430   5.681  0.3155 -0.0803  0.0098
 7411SOL    HW133866   4.138   2.445   5.748 -0.3696 -2.9962  1.3098
 7411SOL    HW233867   4.126   2.414   5.604 -0.4946 -0.3885 -0.4993
 7412SOL     OW33868   3.962   2.897   7.829  0.1244 -0.3379  0.3031
 7412SOL    HW133869   3.985   2.984   7.861  0.4283  0.2188 -1.4385
 7412SOL    HW233870   3.869   2.915   7.841  0.6824  2.5436  0.2603
 7413SOL     OW33871   0.602   1.111   4.198 -0.2716  0.1555 -0.2577
 7413SOL    HW133872   0.693   1.089   4.179 -1.1122 -0.8604 -3.0729
 7413SOL    HW233873   0.585   1.073   4.284  0.9209 -2.0375 -0.9903
 7414SOL     OW33874   0.851   4.072  16.070  0.0232  0.8966 -0.2709
 7414SOL    HW133875   0.804   4.101  15.992  0.1850 -1.4809 -1.2497
 7414SOL    HW233876   0.814   3.984  16.072  0.8066  0.5531 -0.8380
 7415SOL     OW33877   3.778   3.089   8.806  0.4668 -0.6816 -0.1200
 7415SOL    HW133878   3.716   3.075   8.877  2.0134  0.1264  1.3901
 7415SOL    HW233879   3.796   3.183   8.811  0.3937 -0.7526  1.4603
 7416SOL     OW33880   0.219   2.635  16.885 -0.2417 -0.8704  0.2519
 7416SOL    HW133881   0.181   2.578  16.951 -1.2267  0.1180  0.5335
 7416SOL    HW233882   0.200   2.720  16.925  0.3479 -1.3258  1.4858
 7417SOL     OW33883   1.750   0.996   6.966  0.0505  0.0426 -0.3795
 7417SOL    HW133884   1.666   0.980   7.007 -0.2587  0.8126 -0.7013
 7417SOL    HW233885   1.726   1.042   6.885 -0.6667 -0.1298 -0.2594
 7418SOL     OW33886   0.514   1.950   4.562 -0.6087  0.0729  0.4119
 7418SOL    HW133887   0.484   1.975   4.649 -1.2095 -0.0665  0.2410
 7418SOL    HW233888   0.523   2.032   4.514  0.2425 -0.2907 -0.0594
 7419SOL     OW33889   1.145   0.422  17.433 -0.1215  0.4407 -0.2629
 7419SOL    HW133890   1.094   0.399  17.511 -1.3856 -0.3516 -1.3434
 7419SOL    HW233891   1.219   0.473  17.467  1.2363 -1.9516  0.4436
 7420SOL     OW33892   1.758   1.391   9.852  0.4815 -0.0916  0.0688
 7420SOL    HW133893   1.768   1.475   9.897 -0.0444 -0.2777  0.5379
 7420SOL    HW233894   1.832   1.340   9.884  0.7201  1.2070  1.5879
 7421SOL     OW33895   4.479   2.655   8.318  0.4322 -0.1933  0.3290
 7421SOL    HW133896   4.490   2.616   8.231 -2.3399  1.7028 -0.8766
 7421SOL    HW233897   4.389   2.687   8.322 -0.6277 -3.1646  0.0058
 7422SOL     OW33898   1.293   1.170   0.593 -0.3342 -0.2963  0.2484
 7422SOL    HW133899   1.381   1.163   0.630  1.2445  1.1424 -3.2492
 7422SOL    HW233900   1.239   1.102   0.634  0.7627 -0.2954  1.7011
 7423SOL     OW33901   3.641   1.222   3.905 -0.4467 -0.3332 -0.3505
 7423SOL    HW133902   3.673   1.297   3.854  0.0036 -0.3043 -0.0223
 7423SOL    HW233903   3.686   1.246   3.986 -0.4710 -0.1943 -0.3784
 7424SOL     OW33904   1.340   2.690   5.935 -0.3267  0.1776  0.0333
 7424SOL    HW133905   1.248   2.716   5.926 -0.0268  1.0795 -0.3941
 7424SOL    HW233906   1.369   2.710   5.846  0.1467 -1.9257 -0.2977
 7425SOL     OW33907   2.616   4.658   1.341 -0.2502  0.5888  1.0004
 7425SOL    HW133908   2.694   4.617   1.378 -0.7666 -1.6788 -0.4213
 7425SOL    HW233909   2.573   4.691   1.420  0.9189  2.1574  0.9986
 7426SOL     OW33910   0.650   2.318  14.033 -0.0677 -0.4783  0.0297
 7426SOL    HW133911   0.690   2.292  14.116  0.8845  0.0265 -0.2748
 7426SOL    HW233912   0.646   2.413  14.040  0.1555 -0.4643 -0.0208
 7427SOL     OW33913   2.733   0.119  14.548  0.6281  0.2541 -0.1568
 7427SOL    HW133914   2.739   0.188  14.615  0.2302 -0.0245  0.1724
 7427SOL    HW233915   2.660   0.154  14.496 -0.9254 -1.0712  1.1405
 7428SOL     OW33916   3.418   1.156   3.529 -0.4881  0.3638 -0.2244
 7428SOL    HW133917   3.405   1.072   3.487 -1.9456 -0.2968  1.5433
 7428SOL    HW233918   3.328   1.187   3.537  0.5240  2.6113  2.5033
 7429SOL     OW33919   1.793   3.082   4.270 -0.3305  0.6605  0.2399
 7429SOL    HW133920   1.860   3.105   4.205  0.2592 -1.0225  0.2578
 7429SOL    HW233921   1.831   3.100   4.356 -1.2929  2.8274  0.2126
 7430SOL     OW33922   0.393   3.769   1.636  0.1781  0.6977 -0.1574
 7430SOL    HW133923   0.336   3.829   1.589  0.0729  0.6834 -0.0480
 7430SOL    HW233924   0.335   3.699   1.667  0.0403  1.7864  2.0714
 7431SOL     OW33925   3.241   1.737   1.966  0.1096 -0.3671 -0.2045
 7431SOL    HW133926   3.154   1.699   1.957 -0.0997  0.2653 -0.8468
 7431SOL    HW233927   3.269   1.715   1.878 -0.7327 -1.7880 -0.1082
 7432SOL     OW33928   0.377   4.379   3.775  0.6183  0.0967  0.0224
 7432SOL    HW133929   0.327   4.358   3.696  0.6950  1.2908 -0.3485
 7432SOL    HW233930   0.318   4.448   3.804 -2.0633 -1.5198 -1.5716
 7433SOL     OW33931   2.976   2.429   2.522 -0.1351  0.3256  0.6154
 7433SOL    HW133932   2.979   2.525   2.516  0.8879  0.2172 -0.5170
 7433SOL    HW233933   3.061   2.421   2.565  0.7614  0.8486 -1.0693
 7434SOL     OW33934   1.134   2.877   2.114 -0.6324  0.5978 -0.2488
 7434SOL    HW133935   1.169   2.851   2.029  1.2929 -1.8003  1.2773
 7434SOL    HW233936   1.073   2.948   2.094  0.6539  0.9344 -2.9731
 7435SOL     OW33937   1.390   0.387   3.461  0.0728  0.2374  0.0794
 7435SOL    HW133938   1.425   0.358   3.376  1.6653  0.0940  0.7879
 7435SOL    HW233939   1.451   0.458   3.482  0.0392  0.2230  0.2225
 7436SOL     OW33940   0.459   2.402  14.848  0.2220  0.2036  0.5001
 7436SOL    HW133941   0.493   2.485  14.814 -1.1904 -0.2485 -1.9878
 7436SOL    HW233942   0.530   2.389  14.912  0.0363 -0.6673  0.5328
 7437SOL     OW33943   4.667   2.350   2.574 -0.2525 -0.1789 -0.9754
 7437SOL    HW133944   4.624   2.317   2.653  1.9883 -1.5004 -0.3117
 7437SOL    HW233945   4.633   2.292   2.506 -0.9415 -0.5865 -0.2796
 7438SOL     OW33946   4.369   2.250  12.281  0.0746 -0.6179 -0.2129
 7438SOL    HW133947   4.282   2.224  12.311 -0.6672  2.5762  0.4511
 7438SOL    HW233948   4.406   2.300  12.354 -0.4851 -0.6234  0.0739
 7439SOL     OW33949   1.275   1.590   9.704 -0.0169 -0.3567  0.4918
 7439SOL    HW133950   1.307   1.517   9.758 -0.6896 -1.3338 -0.4410
 7439SOL    HW233951   1.198   1.601   9.759  0.0516  4.0554 -0.2858
 7440SOL     OW33952   4.273   0.898   2.459 -0.0222 -0.0658  0.3082
 7440SOL    HW133953   4.263   0.889   2.365  2.8461  1.8323 -0.1935
 7440SOL    HW233954   4.185   0.911   2.493 -0.4793 -1.9608 -0.1514
 7441SOL     OW33955   0.552   1.685   4.864 -0.1517 -0.0398 -0.3251
 7441SOL    HW133956   0.487   1.702   4.933 -1.0974 -1.7691 -0.8014
 7441SOL    HW233957   0.606   1.618   4.907  0.3253  1.2973  1.1726
 7442SOL     OW33958   0.402   2.656   5.061 -0.2758 -0.1502  0.1462
 7442SOL    HW133959   0.367   2.644   4.973 -1.3315 -1.6194  0.7630
 7442SOL    HW233960   0.477   2.598   5.047  1.1637  1.4485  1.3166
 7443SOL     OW33961   1.416   3.192   7.117  0.1687 -0.4046  0.5531
 7443SOL    HW133962   1.334   3.173   7.163  0.5610  0.5157  1.6240
 7443SOL    HW233963   1.384   3.178   7.028 -1.4337  0.9361  0.9373
 7444SOL     OW33964   3.430   4.041   3.614 -0.7561  0.0575 -0.6949
 7444SOL    HW133965   3.351   4.007   3.656  0.5631 -1.3966  0.6477
 7444SOL    HW233966   3.440   4.118   3.671 -0.5567  0.4226 -1.2260
 7445SOL     OW33967   3.908   3.473   7.614 -0.0085  0.0897  0.1583
 7445SOL    HW133968   3.951   3.388   7.623 -0.8623 -0.3141  0.4055
 7445SOL    HW233969   3.846   3.453   7.544 -2.4127  0.2394  2.2365
 7446SOL     OW33970   0.159   3.415   5.326  0.0337  0.3355  0.0204
 7446SOL    HW133971   0.070   3.409   5.292 -0.3291 -0.3002  1.1146
 7446SOL    HW233972   0.152   3.349   5.395  1.8135 -0.3428 -0.4356
 7447SOL     OW33973   4.471   4.636  12.846 -0.1656  0.1399 -0.0685
 7447SOL    HW133974   4.431   4.586  12.917  1.0281  0.1166  0.5867
 7447SOL    HW233975   4.439   4.591  12.768  1.2748 -0.9459 -0.0335
 7448SOL     OW33976   1.357   3.466   1.941  0.3726  0.0303  0.5208
 7448SOL    HW133977   1.408   3.547   1.939  0.9017 -0.3465 -0.9658
 7448SOL    HW233978   1.293   3.485   2.011 -1.0914 -0.4205 -0.7043
 7449SOL     OW33979   0.856   1.917   5.010  0.2940 -0.6749 -0.1834
 7449SOL    HW133980   0.856   1.887   4.919 -0.2360  1.2810 -0.8195
 7449SOL    HW233981   0.947   1.943   5.024  0.0233  0.9835 -1.5146
 7450SOL     OW33982   1.212   4.507  11.126  0.2981  0.3968 -0.2798
 7450SOL    HW133983   1.159   4.555  11.189  0.6435  0.0505  0.2744
 7450SOL    HW233984   1.176   4.538  11.043  1.0177  0.6587 -0.4889
 7451SOL     OW33985   0.547   4.713  11.265 -0.5743  0.1196  0.2237
 7451SOL    HW133986   0.488   4.709  11.341 -1.1697  2.0423 -0.1579
 7451SOL    HW233987   0.504   4.645  11.213  0.0771  1.8309 -2.5222
 7452SOL     OW33988   1.215   2.305   8.353  0.0800 -0.4846 -0.4380
 7452SOL    HW133989   1.231   2.306   8.447  2.0983 -0.3179 -0.7696
 7452SOL    HW233990   1.171   2.221   8.338  0.7125 -1.1994  1.7431
 7453SOL     OW33991   4.247   4.323   7.095  0.2665 -0.2042  0.1194
 7453SOL    HW133992   4.318   4.369   7.049 -0.0071 -0.8468 -0.9501
 7453SOL    HW233993   4.199   4.276   7.027  1.6902 -2.2756  0.5408
 7454SOL     OW33994   1.814   4.172   1.408  0.4396  0.0324 -0.7791
 7454SOL    HW133995   1.736   4.186   1.462  1.7147  2.2173  0.4729
 7454SOL    HW233996   1.786   4.088   1.371  2.4644 -1.1110  0.2603
 7455SOL     OW33997   0.738   2.184   7.063 -0.0149  0.4441  0.2708
 7455SOL    HW133998   0.765   2.264   7.107  1.5991  0.6871 -1.1362
 7455SOL    HW233999   0.816   2.153   7.015  0.0565 -1.8782  1.8622
 7456SOL     OW34000   0.996   2.300  14.785 -0.4490 -0.5002 -0.4547
 7456SOL    HW134001   1.090   2.278  14.785 -0.7680 -1.8446  0.4395
 7456SOL    HW234002   0.970   2.248  14.861  2.8109 -0.8293  0.4420
 7457SOL     OW34003   1.345   1.221  14.792  0.5385 -0.0030 -0.4811
 7457SOL    HW134004   1.375   1.174  14.715  1.2079  1.7626 -1.3014
 7457SOL    HW234005   1.252   1.204  14.774 -0.1904  1.3108  1.9786
 7458SOL     OW34006   3.700   4.180   8.261  0.3822  0.1584 -0.2188
 7458SOL    HW134007   3.640   4.122   8.308  1.9486 -0.5422  0.9554
 7458SOL    HW234008   3.748   4.227   8.330  2.5591 -1.6782 -0.4642
 7459SOL     OW34009   0.285   1.647   9.764  0.5095 -0.0601  0.0888
 7459SOL    HW134010   0.205   1.624   9.812  2.2651  1.2327  3.5952
 7459SOL    HW234011   0.352   1.610   9.821  0.0667 -1.0079 -0.0110
 7460SOL     OW34012   3.802   2.373   7.360 -0.7251  0.0027  0.1797
 7460SOL    HW134013   3.891   2.344   7.341 -1.1603 -0.8504 -0.5004
 7460SOL    HW234014   3.772   2.402   7.274  2.2857 -2.0274 -1.5360
 7461SOL     OW34015   0.033   4.333   3.767 -0.2564  0.2269  0.3060
 7461SOL    HW134016   0.094   4.390   3.814 -2.5816  3.2273 -0.3842
 7461SOL    HW234017   0.007   4.393   3.698 -1.6537 -0.5186  0.1843
 7462SOL     OW34018   0.385   4.050   1.087  0.4941  0.2016  0.2204
 7462SOL    HW134019   0.421   3.985   1.026 -1.7082 -1.8112  1.0763
 7462SOL    HW234020   0.469   4.095   1.099  0.7781  0.3899 -2.3972
 7463SOL     OW34021   2.044   4.501  11.118 -0.0678 -0.0339 -0.2334
 7463SOL    HW134022   2.068   4.537  11.204  1.2421  1.1808 -1.1208
 7463SOL    HW234023   2.020   4.411  11.140 -0.4547  0.1382  0.0525
 7464SOL     OW34024   4.403   0.631   5.108 -0.1379 -0.1787 -0.1244
 7464SOL    HW134025   4.440   0.717   5.088 -1.7767  0.5882  0.1275
 7464SOL    HW234026   4.442   0.567   5.049  0.2771  0.6266 -0.7214
 7465SOL     OW34027   3.573   0.088   8.890 -0.4963  0.4227  0.0183
 7465SOL    HW134028   3.523   0.065   8.811 -0.5171  0.4489  0.0238
 7465SOL    HW234029   3.608   0.007   8.928 -2.0139  0.4388  1.4663
 7466SOL     OW34030   0.791   3.476   1.615  0.1730  0.1780  0.2107
 7466SOL    HW134031   0.875   3.490   1.569 -0.6194  0.6077 -1.1109
 7466SOL    HW234032   0.743   3.557   1.596 -1.3632 -0.9107 -0.5491
 7467SOL     OW34033   0.963   1.480   2.663  0.1779 -0.2300 -0.6025
 7467SOL    HW134034   1.057   1.492   2.655  0.0597  1.3396  0.4336
 7467SOL    HW234035   0.926   1.545   2.723 -1.6735 -0.7679 -1.1539
 7468SOL     OW34036   3.168   4.520   2.301  0.3410 -0.4889 -0.2719
 7468SOL    HW134037   3.171   4.611   2.331  1.1550 -1.4210  2.5471
 7468SOL    HW234038   3.107   4.522   2.228  1.6292 -1.7377 -1.4010
 7469SOL     OW34039   4.649   4.164   1.275 -0.8568 -0.2193  0.1270
 7469SOL    HW134040   0.003   4.134   1.283 -1.1092 -1.0822 -0.3037
 7469SOL    HW234041   4.641   4.215   1.356 -2.3272  0.7105 -0.6252
 7470SOL     OW34042   0.616   1.503   3.213  0.6692  0.0883 -0.1314
 7470SOL    HW134043   0.608   1.592   3.181  0.7144  0.1092 -0.0850
 7470SOL    HW234044   0.539   1.509   3.270  0.1504 -1.5635 -0.6409
 7471SOL     OW34045   1.114   1.632   5.288 -0.3512 -0.5567  0.5794
 7471SOL    HW134046   1.101   1.718   5.327 -0.6768  0.0259 -0.8069
 7471SOL    HW234047   1.040   1.627   5.228 -1.7811  0.7470  2.2346
 7472SOL     OW34048   1.355   2.646   1.667  0.2580  0.8114 -0.8907
 7472SOL    HW134049   1.341   2.558   1.703 -0.7613  1.1770 -0.3927
 7472SOL    HW234050   1.444   2.634   1.634  1.1627 -3.2921  2.9857
 7473SOL     OW34051   3.448   4.110  16.279  0.2315  0.1269  0.4312
 7473SOL    HW134052   3.478   4.177  16.218  1.8635 -2.3503 -1.4810
 7473SOL    HW234053   3.455   4.027  16.232  3.6206  0.9952 -0.6013
 7474SOL     OW34054   0.350   3.570   4.824 -0.7677 -0.3258 -0.4917
 7474SOL    HW134055   0.431   3.620   4.814 -1.4482  0.9705  0.3842
 7474SOL    HW234056   0.382   3.500   4.881  1.5941  0.8141 -0.4190
 7475SOL     OW34057   1.495   2.307   3.730  0.4856  0.0860 -0.4784
 7475SOL    HW134058   1.420   2.357   3.697  0.6642 -0.3485 -1.5192
 7475SOL    HW234059   1.570   2.360   3.703  1.1311 -0.3127  0.5580
 7476SOL     OW34060   4.351   3.428  12.196  0.1934 -0.5289  0.2007
 7476SOL    HW134061   4.319   3.340  12.179  0.6581 -0.7022  0.2213
 7476SOL    HW234062   4.275   3.481  12.172 -0.6111 -1.4013  0.8063
 7477SOL     OW34063   2.717   0.212  15.107 -0.2893 -0.4693 -0.1122
 7477SOL    HW134064   2.788   0.244  15.163 -0.7744  0.1981  0.1292
 7477SOL    HW234065   2.689   0.285  15.051  1.0448 -0.6547 -1.0300
 7478SOL     OW34066   2.426   1.590   8.814  0.6411  0.1617 -0.0764
 7478SOL    HW134067   2.455   1.681   8.804 -0.8010  0.2090 -3.6750
 7478SOL    HW234068   2.459   1.585   8.904  2.2038 -1.4135 -0.7608
 7479SOL     OW34069   2.546   0.720  14.617 -0.1676 -0.5480 -0.0588
 7479SOL    HW134070   2.482   0.653  14.592  0.0642 -0.6090 -0.4962
 7479SOL    HW234071   2.486   0.794  14.610  0.7795  0.1552 -0.7076
 7480SOL     OW34072   3.613   0.216  13.413  0.1951 -0.1484  0.1860
 7480SOL    HW134073   3.655   0.211  13.327 -0.7761 -0.0171 -0.2942
 7480SOL    HW234074   3.524   0.235  13.384  0.4929 -0.1010 -0.6756
 7481SOL     OW34075   4.544   2.614   2.060 -0.1064  0.1109 -0.1415
 7481SOL    HW134076   4.579   2.701   2.078 -0.5297  0.0666  0.9097
 7481SOL    HW234077   4.528   2.595   2.152  0.0499  0.0976 -0.1157
 7482SOL     OW34078   3.408   2.941   4.941  0.0896  0.4866 -0.5656
 7482SOL    HW134079   3.479   2.932   5.005 -0.3792 -3.3560 -0.5866
 7482SOL    HW234080   3.398   2.852   4.909 -0.1327  0.7908 -1.3524
 7483SOL     OW34081   3.365   0.176   6.429  0.0697 -0.0751 -0.0773
 7483SOL    HW134082   3.450   0.181   6.385  0.0195 -1.6158 -0.3212
 7483SOL    HW234083   3.388   0.234   6.502 -0.9707 -0.8430  0.8522
 7484SOL     OW34084   1.140   1.333   6.485  0.4491  0.1943 -0.2108
 7484SOL    HW134085   1.171   1.422   6.466  2.5161 -0.5948 -0.5433
 7484SOL    HW234086   1.159   1.287   6.403 -0.7214 -0.5118 -0.0819
 7485SOL     OW34087   0.741   0.957   2.848 -0.3294 -0.3381 -0.0425
 7485SOL    HW134088   0.750   0.976   2.755 -0.6565 -1.1260 -0.2377
 7485SOL    HW234089   0.646   0.947   2.857 -0.3333  0.2236  0.5649
 7486SOL     OW34090   1.106   1.192   6.165 -0.1338  0.3045  0.3392
 7486SOL    HW134091   1.029   1.144   6.135 -0.5869  0.8745  0.6015
 7486SOL    HW234092   1.077   1.282   6.178  0.3467  0.5083  0.0407
 7487SOL     OW34093   0.257   4.190   7.810  0.1196 -0.1262 -0.4285
 7487SOL    HW134094   0.332   4.242   7.781  0.7230 -0.8938 -0.2173
 7487SOL    HW234095   0.304   4.112   7.837  3.9918  1.5637 -2.1547
 7488SOL     OW34096   1.097   2.025   0.078 -0.2126 -0.3047  0.0116
 7488SOL    HW134097   1.136   2.098   0.029 -0.1931 -0.0211  0.4537
 7488SOL    HW234098   1.105   1.955   0.013  2.3199  1.1817 -1.3121
 7489SOL     OW34099   0.839   0.666   4.892 -0.1423 -0.6861 -0.0938
 7489SOL    HW134100   0.843   0.657   4.797 -2.8643 -0.3862 -0.2261
 7489SOL    HW234101   0.809   0.578   4.919 -1.8982  0.4922  1.8484
 7490SOL     OW34102   3.059   2.328   7.260 -0.3173 -0.1544 -0.7205
 7490SOL    HW134103   3.141   2.297   7.220  0.2920  1.7750 -0.9867
 7490SOL    HW234104   3.025   2.245   7.291 -1.7988  1.3297  1.6181
 7491SOL     OW34105   1.679   4.724   6.029 -0.4496 -0.5878 -0.2509
 7491SOL    HW134106   1.738   4.652   6.051 -0.5834 -0.6783 -0.1840
 7491SOL    HW234107   1.658   0.012   6.119  1.4295 -0.3689  0.1307
 7492SOL     OW34108   3.323   3.405  10.000  0.2954 -0.8066  0.0865
 7492SOL    HW134109   3.404   3.426   9.954 -0.9755  0.2905 -1.6542
 7492SOL    HW234110   3.357   3.330  10.048  0.9223  0.6407  1.9096
 7493SOL     OW34111   3.467   4.227   7.223  0.2715 -0.2056 -0.3255
 7493SOL    HW134112   3.441   4.138   7.199 -1.3349 -0.0894  1.0239
 7493SOL    HW234113   3.559   4.219   7.195 -0.6356 -1.0704 -3.0276
 7494SOL     OW34114   4.108   1.102   7.033 -0.1413  0.1639  0.6368
 7494SOL    HW134115   4.075   1.175   6.979  0.6798 -1.7661 -2.4787
 7494SOL    HW234116   4.022   1.079   7.067  1.3376 -4.1967  1.3887
 7495SOL     OW34117   1.798   0.970   3.285 -0.5174 -0.1799  0.0599
 7495SOL    HW134118   1.741   1.020   3.226  0.2238  0.0387 -0.4601
 7495SOL    HW234119   1.848   1.041   3.324  1.1527 -2.7742  2.6368
 7496SOL     OW34120   1.907   3.388   6.461  0.9078 -0.3973  0.0765
 7496SOL    HW134121   1.918   3.293   6.454 -1.7737 -0.9786  3.8703
 7496SOL    HW234122   1.853   3.400   6.383  0.5666  2.2179  0.7256
 7497SOL     OW34123   0.693   2.204   8.374  0.0971 -0.4464  0.0848
 7497SOL    HW134124   0.778   2.199   8.418  0.6218  3.2155 -0.5607
 7497SOL    HW234125   0.630   2.241   8.436  0.9953  0.4174  0.4830
 7498SOL     OW34126   2.676   2.757   3.034  0.1878  0.1535  0.2104
 7498SOL    HW134127   2.641   2.742   3.122 -0.6672 -1.1902 -0.3721
 7498SOL    HW234128   2.752   2.699   3.030  0.7828  0.8313  1.7488
 7499SOL     OW34129   1.189   0.561  16.534 -0.1052 -0.0942  0.0970
 7499SOL    HW134130   1.178   0.522  16.447  0.1356  0.0505  0.0026
 7499SOL    HW234131   1.278   0.530  16.547 -0.0077  0.5777  1.0054
 7500SOL     OW34132   1.596   2.475   3.139 -0.2110 -0.0044  0.2370
 7500SOL    HW134133   1.578   2.563   3.173 -0.3468  0.0963 -0.0911
 7500SOL    HW234134   1.673   2.455   3.192 -1.5656 -3.0030  1.0530
 7501SOL     OW34135   0.187   0.365   8.757  0.5913  0.5824 -0.8391
 7501SOL    HW134136   0.135   0.315   8.820  0.4129  1.6805 -0.1129
 7501SOL    HW234137   0.163   0.329   8.672  2.0500 -1.3938 -0.4072
 7502SOL     OW34138   3.177   1.880   7.768 -0.1949  0.2159 -0.5116
 7502SOL    HW134139   3.097   1.906   7.722  0.0353 -1.5839 -1.9027
 7502SOL    HW234140   3.174   1.948   7.836  0.3439 -1.3086  1.0255
 7503SOL     OW34141   2.642   2.141  15.541 -0.0388 -0.3675 -0.0704
 7503SOL    HW134142   2.719   2.151  15.487  0.8361  1.2544  1.4799
 7503SOL    HW234143   2.588   2.085  15.485  0.2179  0.5115 -1.1796
 7504SOL     OW34144   4.269   3.398   2.625 -0.2207  0.4872 -0.3956
 7504SOL    HW134145   4.318   3.472   2.588  1.0169 -0.5837 -0.8976
 7504SOL    HW234146   4.340   3.334   2.624  0.0764  0.8106  0.2968
 7505SOL     OW34147   3.516   1.414   1.439  0.4252  0.4457 -0.1374
 7505SOL    HW134148   3.537   1.326   1.408  2.5945  2.0162 -3.1212
 7505SOL    HW234149   3.588   1.466   1.404  1.6558 -0.4225  1.0675
 7506SOL     OW34150   3.696   1.930   5.241  0.2781 -0.2242  0.1570
 7506SOL    HW134151   3.624   1.987   5.267 -0.0317 -0.6828  0.3236
 7506SOL    HW234152   3.651   1.869   5.181  0.4164 -1.9045  1.7594
 7507SOL     OW34153   0.834   1.445   3.363 -0.1367  0.5047  0.4468
 7507SOL    HW134154   0.768   1.465   3.297 -0.2261 -0.4717  0.2404
 7507SOL    HW234155   0.807   1.353   3.361 -1.2658  0.8253  1.0208
 7508SOL     OW34156   0.971   0.827  16.814  0.0266  0.0969 -0.2766
 7508SOL    HW134157   1.056   0.798  16.846 -2.2713 -1.5486  4.3455
 7508SOL    HW234158   0.993   0.845  16.722 -1.0291 -0.1193 -0.5684
 7509SOL     OW34159   0.415   4.447   9.662  0.2425 -0.2601  0.3956
 7509SOL    HW134160   0.435   4.422   9.572 -2.7739  1.3525 -0.7448
 7509SOL    HW234161   0.490   4.505   9.673 -1.5422  1.9351  1.0477
 7510SOL     OW34162   2.282   1.090   1.980  0.0656 -0.4041 -0.3039
 7510SOL    HW134163   2.246   1.173   2.011  1.5131  0.5556 -1.1797
 7510SOL    HW234164   2.206   1.033   1.964 -1.0824  0.3103  2.6110
 7511SOL     OW34165   1.261   0.373   7.326  0.0138 -0.2348  0.5028
 7511SOL    HW134166   1.303   0.415   7.252  0.1811 -0.1955  0.6206
 7511SOL    HW234167   1.170   0.366   7.297  0.4380  0.1459 -0.8730
 7512SOL     OW34168   0.937   2.395  10.497 -0.0345  0.0258 -0.2651
 7512SOL    HW134169   0.868   2.334  10.521 -1.0846  1.1535 -0.4363
 7512SOL    HW234170   0.978   2.345  10.426  3.1000 -0.6244  1.9926
 7513SOL     OW34171   4.307   1.713   1.951 -0.7503 -0.1486 -0.4439
 7513SOL    HW134172   4.213   1.732   1.946 -0.6197  0.7121  0.4023
 7513SOL    HW234173   4.310   1.655   2.027  1.6135 -0.1960 -0.5887
 7514SOL     OW34174   1.882   2.733   1.586  0.2310 -0.2181 -0.0467
 7514SOL    HW134175   1.937   2.655   1.584  3.2351  1.9138 -0.7078
 7514SOL    HW234176   1.926   2.799   1.532 -0.8057  1.2160  0.8453
 7515SOL     OW34177   1.401   0.494   5.425 -0.5223 -0.3302  0.3752
 7515SOL    HW134178   1.321   0.467   5.470  0.0384 -1.4790  0.6743
 7515SOL    HW234179   1.361   0.560   5.370 -1.6441  0.1826  1.8019
 7516SOL     OW34180   2.241   4.055  13.671 -0.1237  0.3045  0.1205
 7516SOL    HW134181   2.279   4.143  13.673  2.4084 -0.7923  0.4223
 7516SOL    HW234182   2.246   4.024  13.761 -1.8316 -1.9089 -0.5602
 7517SOL     OW34183   0.690   2.336   3.695  0.3271 -0.3050  0.2526
 7517SOL    HW134184   0.730   2.349   3.781  0.5929 -0.8156  0.2078
 7517SOL    HW234185   0.718   2.247   3.671 -0.1385 -0.6715  1.0921
 7518SOL     OW34186   0.929   2.752   6.146 -0.1931  0.2519  0.1368
 7518SOL    HW134187   0.979   2.829   6.171 -1.3074  0.4924  1.6086
 7518SOL    HW234188   0.963   2.694   6.214 -1.2723 -0.9687 -0.3475
 7519SOL     OW34189   0.142   1.705   2.096 -0.1808  0.6528  0.4386
 7519SOL    HW134190   0.133   1.780   2.037  0.6649  0.2046 -0.2738
 7519SOL    HW234191   0.197   1.647   2.042 -1.2258 -0.8524  0.9839
 7520SOL     OW34192   3.444   1.532  14.967  0.3559 -0.3395  0.6851
 7520SOL    HW134193   3.464   1.541  14.874  0.3120  2.0072  0.9234
 7520SOL    HW234194   3.357   1.492  14.965  0.7493 -1.1367 -0.6605
 7521SOL     OW34195   2.083   4.179   2.676 -0.5899  0.2568 -0.1909
 7521SOL    HW134196   2.027   4.103   2.660 -1.5063  1.0649 -0.8236
 7521SOL    HW234197   2.151   4.139   2.730 -0.4033  0.1805 -0.4842
 7522SOL     OW34198   4.525   3.644   6.546 -0.3981 -0.0243  0.2580
 7522SOL    HW134199   4.466   3.571   6.525 -0.1429 -1.0582  3.1314
 7522SOL    HW234200   4.533   3.692   6.464 -0.0496 -0.9954 -0.2761
 7523SOL     OW34201   4.047   0.986   4.221  0.1412 -0.0201  0.4096
 7523SOL    HW134202   4.075   1.077   4.221 -0.3829  0.1412  0.5293
 7523SOL    HW234203   4.116   0.945   4.273  0.3795 -0.3032 -0.1375
 7524SOL     OW34204   2.452   0.475   6.996  0.2994 -0.2504 -0.0870
 7524SOL    HW134205   2.467   0.386   7.027 -0.9821 -0.4003  0.0663
 7524SOL    HW234206   2.499   0.476   6.912  1.1536  1.1026  0.4026
 7525SOL     OW34207   3.154   1.941   3.086 -0.2817 -0.2468 -0.3069
 7525SOL    HW134208   3.130   1.970   2.997  1.2105 -3.4660 -1.7443
 7525SOL    HW234209   3.192   2.018   3.129 -1.2854  0.1701 -0.1671
 7526SOL     OW34210   2.534   3.945   1.240  0.2851  0.0237 -0.0531
 7526SOL    HW134211   2.520   3.883   1.168 -2.7787  1.3794 -0.6209
 7526SOL    HW234212   2.512   4.034   1.213 -1.7469 -0.1880  0.8682
 7527SOL     OW34213   0.189   1.767   7.537  0.0215  0.2820 -0.0974
 7527SOL    HW134214   0.237   1.840   7.498  1.3129 -0.2591  0.4784
 7527SOL    HW234215   0.098   1.796   7.532 -0.0597  0.3076  1.7969
 7528SOL     OW34216   2.035   0.479   8.697 -0.3818 -0.2807 -0.3221
 7528SOL    HW134217   2.029   0.389   8.728  1.3176 -0.3471 -0.1712
 7528SOL    HW234218   2.083   0.521   8.768  0.2245  0.9660 -1.4636
 7529SOL     OW34219   4.628   4.042  17.306  0.6559 -0.2968  0.1083
 7529SOL    HW134220   4.556   4.104  17.319 -0.2503 -0.8715 -2.2301
 7529SOL    HW234221   4.614   3.987  17.383 -0.3227 -0.2906 -0.0620
 7530SOL     OW34222   0.100   3.573   7.890  0.2001  0.5632 -0.0046
 7530SOL    HW134223   0.028   3.588   7.951 -1.4976  0.8163 -2.0722
 7530SOL    HW234224   0.062   3.506   7.832  0.6952 -0.1737  0.5215
 7531SOL     OW34225   0.373   4.480   2.617  0.3410 -0.2017  0.4152
 7531SOL    HW134226   0.281   4.464   2.597 -0.1845  2.9139  0.3480
 7531SOL    HW234227   0.423   4.433   2.550 -1.7760 -3.5075  1.1530
 7532SOL     OW34228   1.121   1.836   4.343  0.2092  0.0170  0.4892
 7532SOL    HW134229   1.033   1.855   4.377  0.9062  1.9840  1.1824
 7532SOL    HW234230   1.163   1.830   4.429  1.5689 -2.3664 -0.3228
 7533SOL     OW34231   4.645   2.589  12.056 -0.1093 -0.3819 -0.5872
 7533SOL    HW134232   4.647   2.497  12.031 -1.2419  0.1035 -2.4465
 7533SOL    HW234233   4.564   2.619  12.014 -1.8736  0.1006  3.1995
 7534SOL     OW34234   0.733   3.839  16.218  0.1769  0.1293  0.4968
 7534SOL    HW134235   0.723   3.891  16.298  1.6285 -1.8152  1.9447
 7534SOL    HW234236   0.750   3.753  16.255  2.0653  0.5969  0.7441
 7535SOL     OW34237   0.162   0.350   2.154 -0.4956 -0.4326  0.1420
 7535SOL    HW134238   0.188   0.436   2.186  1.0873 -0.0703 -2.1188
 7535SOL    HW234239   0.149   0.307   2.239 -2.7619 -1.0452 -0.5222
 7536SOL     OW34240   0.411   2.586   5.971  0.0853 -0.0609  0.4779
 7536SOL    HW134241   0.496   2.626   5.991 -0.8224  1.5450  1.1284
 7536SOL    HW234242   0.413   2.588   5.875  2.1343 -1.1884  0.5064
 7537SOL     OW34243   2.584   1.017   5.584 -0.4020  0.1982  0.5961
 7537SOL    HW134244   2.610   0.926   5.596  2.7461  1.1993  1.3787
 7537SOL    HW234245   2.669   1.061   5.572  0.8082 -1.9141  1.4425
 7538SOL     OW34246   3.284   1.260   2.373 -0.2593  0.0814 -0.0727
 7538SOL    HW134247   3.357   1.202   2.394  0.2882  1.7818  2.6815
 7538SOL    HW234248   3.246   1.246   2.286 -2.7240 -0.7037  1.1039
 7539SOL     OW34249   2.706   4.537   7.173  0.1798  0.2555 -0.1476
 7539SOL    HW134250   2.795   4.512   7.196 -0.2419 -1.1496 -0.0355
 7539SOL    HW234251   2.716   4.561   7.081  1.1763  2.5064  0.5477
 7540SOL     OW34252   1.871   3.033   2.617 -0.3851 -0.0805  0.3549
 7540SOL    HW134253   1.841   2.942   2.607 -0.6338  0.1418 -0.8203
 7540SOL    HW234254   1.929   3.055   2.545  2.7022  0.2942  2.9265
 7541SOL     OW34255   4.028   2.357   9.936  0.5867  1.1138  0.2289
 7541SOL    HW134256   3.945   2.325   9.903  1.7441 -0.8009 -0.8032
 7541SOL    HW234257   4.087   2.288   9.905  1.8615  2.8316 -1.1806
 7542SOL     OW34258   1.369   0.994   2.361 -0.3379 -0.1809 -0.3204
 7542SOL    HW134259   1.285   0.997   2.316  0.7028 -1.9846 -2.4318
 7542SOL    HW234260   1.402   1.080   2.334 -0.4545 -0.9241 -2.8495
 7543SOL     OW34261   0.573   2.654  15.412 -0.0614 -0.1912  0.4305
 7543SOL    HW134262   0.500   2.600  15.442 -0.2417 -0.3954 -0.3646
 7543SOL    HW234263   0.578   2.709  15.490  1.5434  0.2700 -0.0025
 7544SOL     OW34264   0.566   2.931   8.347 -0.1861 -0.2600 -0.5841
 7544SOL    HW134265   0.493   2.985   8.378 -0.8421 -0.8474 -1.0987
 7544SOL    HW234266   0.638   2.993   8.334 -0.5769  0.4725  0.7260
 7545SOL     OW34267   4.663   0.784  14.462 -0.1740  0.0331  0.1256
 7545SOL    HW134268   4.730   0.715  14.451 -1.7654 -1.2092 -1.9057
 7545SOL    HW234269   4.613   0.753  14.537  2.0338 -0.7784  1.2780
 7546SOL     OW34270   0.202   4.004  13.108  0.0400 -0.3241 -0.2156
 7546SOL    HW134271   0.262   4.078  13.105  0.7109 -0.8193  1.2136
 7546SOL    HW234272   0.118   4.045  13.087 -1.2674 -2.9317 -0.1280
 7547SOL     OW34273   1.114   2.734   7.776  0.2494 -0.1991 -0.1118
 7547SOL    HW134274   1.092   2.812   7.827 -0.0507 -0.0895 -0.4072
 7547SOL    HW234275   1.190   2.699   7.823 -1.7732 -1.6504  2.0900
 7548SOL     OW34276   0.084   0.515   6.679 -0.3678  0.0045 -0.1031
 7548SOL    HW134277   0.026   0.491   6.607  0.6508  0.7800 -1.1857
 7548SOL    HW234278   0.052   0.446   6.737  0.0036  0.4988  0.6944
 7549SOL     OW34279   2.443   1.569   8.146 -0.1132 -0.2241  0.1131
 7549SOL    HW134280   2.367   1.627   8.138  0.4186  0.7018  1.8180
 7549SOL    HW234281   2.464   1.568   8.052 -0.1696  0.7244  0.0908
 7550SOL     OW34282   3.269   0.574   9.115 -0.0295  0.3922 -0.4163
 7550SOL    HW134283   3.357   0.575   9.078  0.7546  1.1141  1.4473
 7550SOL    HW234284   3.214   0.582   9.037 -0.2862  0.4739 -0.2266
 7551SOL     OW34285   1.452   0.074   9.392  0.4846  0.9243  0.0385
 7551SOL    HW134286   1.523   0.011   9.401  0.7609  1.3394  0.7328
 7551SOL    HW234287   1.456   0.087   9.487  0.8503  2.5596 -0.2078
 7552SOL     OW34288   1.940   2.088   5.090  0.1136  0.0890 -0.2900
 7552SOL    HW134289   2.007   2.122   5.029 -1.9080  0.9142 -2.0500
 7552SOL    HW234290   1.856   2.125   5.062 -1.2041 -1.9426  0.9894
 7553SOL     OW34291   2.168   2.153   2.916 -0.4259 -0.3714 -0.1902
 7553SOL    HW134292   2.077   2.174   2.940 -0.1874 -0.3280  0.6865
 7553SOL    HW234293   2.173   2.065   2.952  1.8821 -1.1052 -2.3918
 7554SOL     OW34294   2.588   1.000   6.898  0.0783 -0.3492 -0.1265
 7554SOL    HW134295   2.578   0.935   6.829  2.3848 -2.8170  1.8435
 7554SOL    HW234296   2.672   0.977   6.937  0.0810 -0.8907 -0.4559
 7555SOL     OW34297   4.126   3.102   7.238 -0.6413  0.6327  0.3231
 7555SOL    HW134298   4.188   3.105   7.311  1.8318 -1.3222 -1.6909
 7555SOL    HW234299   4.060   3.168   7.257 -0.9944  0.3793 -0.0272
 7556SOL     OW34300   2.633   1.479   5.670  0.0795 -0.3632  0.3018
 7556SOL    HW134301   2.571   1.442   5.733 -0.3998  1.0403  0.6544
 7556SOL    HW234302   2.704   1.417   5.686  1.4437  1.5443  1.6358
 7557SOL     OW34303   0.170   4.586  15.921 -0.6096 -0.4195  0.2586
 7557SOL    HW134304   0.173   4.674  15.883  0.5875  0.0577  1.4759
 7557SOL    HW234305   0.241   4.556  15.866 -1.6362 -1.9473 -0.2408
 7558SOL     OW34306   3.935   0.437   7.612 -0.2126  0.0754 -0.4051
 7558SOL    HW134307   3.894   0.397   7.688  1.5672 -2.5605 -0.7910
 7558SOL    HW234308   3.953   0.528   7.632 -2.0578  0.6048 -1.1751
 7559SOL     OW34309   0.862   2.311   2.233  0.0273  0.3221  0.2972
 7559SOL    HW134310   0.882   2.229   2.188 -2.5281 -0.5198  0.7400
 7559SOL    HW234311   0.794   2.296   2.298 -1.9291  0.3362 -1.7360
 7560SOL     OW34312   2.193   0.475  16.045  0.7204 -0.2127  0.2576
 7560SOL    HW134313   2.156   0.550  15.998 -2.0010 -1.4229  0.4720
 7560SOL    HW234314   2.261   0.450  15.982  0.7381 -1.2028  0.6617
 7561SOL     OW34315   4.135   3.530   9.463  0.2163  0.0343  0.1370
 7561SOL    HW134316   4.204   3.537   9.397  0.4134  1.9071  0.5609
 7561SOL    HW234317   4.154   3.439   9.489 -1.6825 -1.2393 -2.9749
 7562SOL     OW34318   1.225   0.865   8.070 -0.6730  0.1914 -0.1855
 7562SOL    HW134319   1.299   0.925   8.067 -0.6121  0.1303  0.0571
 7562SOL    HW234320   1.158   0.913   8.023 -0.9241  0.2055  0.1885
 7563SOL     OW34321   3.030   1.741  16.790 -0.1949  0.2003 -0.4708
 7563SOL    HW134322   3.012   1.744  16.884 -0.9346 -1.7638 -0.5615
 7563SOL    HW234323   3.032   1.830  16.753 -1.8954  1.7688  3.1602
 7564SOL     OW34324   2.210   3.373   2.462 -0.1948 -0.1148 -0.4377
 7564SOL    HW134325   2.266   3.322   2.520 -0.3892  0.0896 -0.0714
 7564SOL    HW234326   2.195   3.307   2.394 -1.7379 -0.6775  0.4750
 7565SOL     OW34327   0.507   1.284   4.961  0.1328 -0.0711 -0.0235
 7565SOL    HW134328   0.464   1.328   5.034 -1.6380  0.2599 -1.2675
 7565SOL    HW234329   0.534   1.204   5.008 -2.1877 -0.1682  1.1690
 7566SOL     OW34330   1.255   1.827   3.911 -0.1845  0.5400 -0.0549
 7566SOL    HW134331   1.333   1.772   3.921 -0.2813  0.6990  1.5590
 7566SOL    HW234332   1.251   1.833   3.816 -0.2601 -1.1147 -0.1548
 7567SOL     OW34333   0.130   1.042   9.371  0.5188 -0.3081  0.3870
 7567SOL    HW134334   0.039   1.065   9.391  0.1850 -1.5793  0.3372
 7567SOL    HW234335   0.163   1.117   9.322  0.4818  1.0390  2.4252
 7568SOL     OW34336   1.599   3.451  14.442  0.4080  0.0348 -0.1461
 7568SOL    HW134337   1.514   3.465  14.483 -1.1302  0.2992 -3.4197
 7568SOL    HW234338   1.655   3.418  14.512 -0.8931  2.9127  2.2480
 7569SOL     OW34339   3.204   2.240   9.121 -0.0676 -0.7671 -0.1211
 7569SOL    HW134340   3.188   2.164   9.064 -1.5565 -0.3975 -0.2035
 7569SOL    HW234341   3.119   2.255   9.162 -0.2748 -0.9482 -0.4799
 7570SOL     OW34342   2.171   0.467   3.938 -0.0395  0.0077  0.0996
 7570SOL    HW134343   2.212   0.385   3.912  1.1966  1.5574 -2.9038
 7570SOL    HW234344   2.242   0.517   3.977  1.8067 -1.3141 -1.6175
 7571SOL     OW34345   3.598   0.397   6.309 -0.4657 -0.0013 -0.3771
 7571SOL    HW134346   3.589   0.305   6.287 -1.4449 -0.3282  1.3715
 7571SOL    HW234347   3.583   0.446   6.228  3.1981  1.0171 -0.4839
 7572SOL     OW34348   2.437   4.037   2.153 -0.1018  0.1143  0.4345
 7572SOL    HW134349   2.429   3.982   2.231  0.1776 -1.5794 -0.7476
 7572SOL    HW234350   2.532   4.028   2.156  0.2353  3.2172 -0.4021
 7573SOL     OW34351   2.301   4.430  15.630  0.1141  0.4649  0.3359
 7573SOL    HW134352   2.335   4.487  15.562 -0.7733  1.4855  0.7470
 7573SOL    HW234353   2.240   4.370  15.587  0.3230  0.1394  0.4931
 7574SOL     OW34354   4.006   0.219   4.955  0.2310  0.3442 -0.0560
 7574SOL    HW134355   3.997   0.227   5.050 -2.1333 -1.0895 -0.1592
 7574SOL    HW234356   4.054   0.298   4.931  0.5965  0.0735 -0.2245
 7575SOL     OW34357   1.817   3.420   9.597 -0.9659 -0.0819 -0.5756
 7575SOL    HW134358   1.739   3.473   9.581 -1.8342 -1.2998 -0.3605
 7575SOL    HW234359   1.841   3.426   9.690  0.8892  1.4592 -1.1550
 7576SOL     OW34360   1.987   0.091  11.651 -0.1292  0.8882 -0.2394
 7576SOL    HW134361   2.015   0.004  11.681  1.7910  1.2084 -1.1310
 7576SOL    HW234362   2.068   0.113  11.606  0.4838 -0.5089  0.1607
 7577SOL     OW34363   3.691   3.079   5.912  0.5159 -0.2013 -0.4519
 7577SOL    HW134364   3.637   3.014   5.956 -1.2281 -0.0247 -2.3188
 7577SOL    HW234365   3.644   3.088   5.829  1.2105  0.7332 -0.7457
 7578SOL     OW34366   4.726   0.309  11.310 -0.0111 -0.0856  0.5194
 7578SOL    HW134367   0.070   0.352  11.282 -0.6678  0.6067 -0.3548
 7578SOL    HW234368   0.027   0.226  11.336  1.3103  0.4304  0.2353
 7579SOL     OW34369   0.240   2.758   3.464  0.3761 -0.1015 -0.0477
 7579SOL    HW134370   0.172   2.690   3.465 -0.9010  1.1908  0.3313
 7579SOL    HW234371   0.258   2.761   3.558 -1.2470  0.6393  0.2400
 7580SOL     OW34372   3.911   1.202  10.380 -0.5689 -0.5934  0.5991
 7580SOL    HW134373   3.831   1.157  10.406 -0.1473 -0.0279  2.8733
 7580SOL    HW234374   3.975   1.147  10.426  2.5568  1.6573 -1.0787
 7581SOL     OW34375   1.353   1.762   2.088  0.0466 -0.2006 -0.5504
 7581SOL    HW134376   1.310   1.803   2.013 -0.4418  1.5759  0.6986
 7581SOL    HW234377   1.333   1.670   2.068 -1.7677  0.1683 -0.4226
 7582SOL     OW34378   2.952   3.795   4.512 -0.1935 -0.2318  0.0353
 7582SOL    HW134379   2.979   3.811   4.603  0.5075 -0.0352 -0.2100
 7582SOL    HW234380   3.010   3.721   4.495 -1.4178 -1.5261  1.4262
 7583SOL     OW34381   1.237   3.049  12.011 -0.4581  0.4505  0.2040
 7583SOL    HW134382   1.159   3.042  12.066  0.8853 -1.5945  1.8481
 7583SOL    HW234383   1.218   2.988  11.939 -0.5430  0.9080 -0.1620
 7584SOL     OW34384   4.646   3.527   5.538  0.0921 -0.3235 -0.2609
 7584SOL    HW134385   4.709   3.492   5.601 -2.7835  0.4536  3.0790
 7584SOL    HW234386   4.568   3.480   5.566  0.5904 -1.1637 -0.2859
 7585SOL     OW34387   0.348   2.185   8.908  0.5829  0.1081 -0.6218
 7585SOL    HW134388   0.273   2.168   8.965 -0.9923 -1.5473 -3.1643
 7585SOL    HW234389   0.334   2.107   8.853 -1.8866  1.1348 -1.4552
 7586SOL     OW34390   2.214   2.700   3.741  0.4249 -0.2973  0.5869
 7586SOL    HW134391   2.269   2.660   3.673 -0.9220 -0.1131 -0.6010
 7586SOL    HW234392   2.244   2.670   3.827  0.5123  0.0740  0.6876
 7587SOL     OW34393   2.496   2.899   9.741  0.0885 -0.6368 -0.1345
 7587SOL    HW134394   2.551   2.925   9.667  0.5379  0.8728  0.7256
 7587SOL    HW234395   2.554   2.929   9.811  1.3980  3.1929 -2.8384
 7588SOL     OW34396   2.804   4.372   3.342  0.2378  0.1227  0.2172
 7588SOL    HW134397   2.888   4.378   3.296  1.5143 -2.0302  2.2818
 7588SOL    HW234398   2.748   4.347   3.268  1.2175  0.1979 -0.5484
 7589SOL     OW34399   4.618   0.728   7.218 -0.4210 -0.5753 -0.1844
 7589SOL    HW134400   4.664   0.811   7.205 -0.7862 -0.6376 -1.8423
 7589SOL    HW234401   4.643   0.681   7.138 -0.2218 -0.1446 -0.3764
 7590SOL     OW34402   3.565   3.312   0.688  0.4099  0.0188  0.2275
 7590SOL    HW134403   3.530   3.385   0.637 -0.1306 -1.0713 -0.9350
 7590SOL    HW234404   3.548   3.363   0.768 -2.3253 -1.5943  0.6548
 7591SOL     OW34405   0.463   4.528   6.957  0.0797 -0.2124  0.1909
 7591SOL    HW134406   0.380   4.481   6.958 -1.4950  2.5665 -0.2936
 7591SOL    HW234407   0.462   4.552   6.865 -0.6514 -0.2464  0.1941
 7592SOL     OW34408   4.282   0.929   3.009 -0.2277 -0.2444  0.3895
 7592SOL    HW134409   4.189   0.944   3.029 -1.2402 -2.0308 -3.0484
 7592SOL    HW234410   4.313   0.952   3.097 -0.2641  0.4275  0.2328
 7593SOL     OW34411   3.609   2.340   5.443 -0.3738  0.0057 -0.9940
 7593SOL    HW134412   3.609   2.428   5.483 -1.2297 -0.7749  0.7382
 7593SOL    HW234413   3.669   2.361   5.372  0.8018  1.6706  0.4637
 7594SOL     OW34414   4.351   2.159   8.794  0.2692  0.7926  0.3797
 7594SOL    HW134415   4.295   2.220   8.841 -1.3710  0.7657 -1.5431
 7594SOL    HW234416   4.408   2.218   8.746  1.8167 -0.6607  0.4188
 7595SOL     OW34417   3.308   4.390  17.163  0.1975 -0.4140 -0.0335
 7595SOL    HW134418   3.268   4.477  17.174 -0.2401 -0.8681  1.9037
 7595SOL    HW234419   3.231   4.333  17.171 -0.7567  0.6837 -1.2360
 7596SOL     OW34420   2.712   0.175   6.898  0.2364  0.4135  0.2485
 7596SOL    HW134421   2.663   0.135   6.826 -0.3193  1.8952 -0.2040
 7596SOL    HW234422   2.698   0.105   6.961  0.1769 -0.5579 -0.8470
 7597SOL     OW34423   4.617   4.628   8.281  0.2975 -0.0245  0.0207
 7597SOL    HW134424   4.670   4.558   8.319  0.7236 -0.8331 -2.0774
 7597SOL    HW234425   4.635   4.608   8.189  3.0899  1.8789  0.1497
 7598SOL     OW34426   4.075   3.781   8.607 -0.0609 -0.2304 -0.5325
 7598SOL    HW134427   4.021   3.711   8.569 -0.1215  0.1199 -1.0882
 7598SOL    HW234428   4.028   3.855   8.569 -1.1812 -0.0850  1.1379
 7599SOL     OW34429   2.684   2.929   5.714 -0.2286  0.0539  0.1173
 7599SOL    HW134430   2.591   2.944   5.733 -1.0234 -2.8988 -1.5276
 7599SOL    HW234431   2.697   2.973   5.630  0.2179  0.5084  0.4257
 7600SOL     OW34432   0.235   0.653   5.713 -0.1514 -0.3105 -0.2269
 7600SOL    HW134433   0.154   0.626   5.757  1.1152 -2.4050  0.8509
 7600SOL    HW234434   0.265   0.566   5.687 -2.1858 -0.6519 -1.4664
 7601SOL     OW34435   3.066   2.290  13.516 -0.2273 -0.3676  0.5038
 7601SOL    HW134436   2.978   2.263  13.543  0.1843  0.1942  2.4191
 7601SOL    HW234437   3.098   2.200  13.524 -1.0725 -0.6628  0.5189
 7602SOL     OW34438   2.649   4.139   6.178 -0.3450 -0.2753 -0.1194
 7602SOL    HW134439   2.681   4.057   6.217  0.2912  0.1553  0.2618
 7602SOL    HW234440   2.693   4.204   6.232  1.1844 -0.3382 -1.2653
 7603SOL     OW34441   3.128   4.094   4.014  0.0533 -0.0396 -0.1102
 7603SOL    HW134442   3.175   4.146   3.949  0.8350 -3.8422 -2.5448
 7603SOL    HW234443   3.110   4.012   3.969  1.1810 -1.4960  2.0725
 7604SOL     OW34444   1.135   1.261  12.302 -0.4221  0.2895  0.2187
 7604SOL    HW134445   1.053   1.299  12.334 -2.1734 -1.8889 -1.7703
 7604SOL    HW234446   1.185   1.332  12.261 -2.4631  1.1979 -0.6754
 7605SOL     OW34447   0.442   3.634  10.024 -0.5564 -0.2597 -0.0918
 7605SOL    HW134448   0.463   3.592  10.107  1.6828 -0.0462 -0.5428
 7605SOL    HW234449   0.521   3.606   9.977 -0.0273 -0.6014  0.9943
 7606SOL     OW34450   1.402   3.063   3.501 -0.3017  0.0276  0.1122
 7606SOL    HW134451   1.490   3.026   3.493  0.0455  0.0682  3.8363
 7606SOL    HW234452   1.376   3.054   3.409  1.8982 -1.1295 -0.4197
 7607SOL     OW34453   1.574   4.243  11.495  0.4167 -0.2183  0.2119
 7607SOL    HW134454   1.636   4.178  11.526  0.4986 -0.8919 -1.3745
 7607SOL    HW234455   1.643   4.281  11.441  1.4499  0.8350  2.2889
 7608SOL     OW34456   2.637   1.445   2.300 -0.2174  0.6182  0.2782
 7608SOL    HW134457   2.611   1.532   2.270  0.8790  0.3300 -1.4616
 7608SOL    HW234458   2.575   1.396   2.247 -0.3810 -0.2264  1.2424
 7609SOL     OW34459   3.557   1.401   5.402 -0.0930 -0.1779 -0.1677
 7609SOL    HW134460   3.513   1.387   5.319 -0.8052  1.5196 -0.0693
 7609SOL    HW234461   3.554   1.311   5.434  1.3835  0.5433  2.0435
 7610SOL     OW34462   1.848   2.890   4.587 -0.1117 -0.2452  0.1430
 7610SOL    HW134463   1.811   2.973   4.616  0.7908  0.2245 -0.0501
 7610SOL    HW234464   1.790   2.823   4.623 -0.7430 -0.7686 -1.8184
 7611SOL     OW34465   2.395   1.099  17.277 -0.2350  0.0357 -0.4664
 7611SOL    HW134466   2.479   1.103  17.322 -1.5214 -2.8189  2.1607
 7611SOL    HW234467   2.414   1.065  17.190  0.2057  0.0876 -0.3895
 7612SOL     OW34468   4.014   2.977  16.572  0.2717  0.4498 -0.1237
 7612SOL    HW134469   3.943   3.041  16.561 -0.0333 -0.0088 -0.8449
 7612SOL    HW234470   4.066   3.009  16.645  1.8086 -1.5247 -0.3669
 7613SOL     OW34471   2.449   4.152  13.964 -0.5597  0.0519 -0.4468
 7613SOL    HW134472   2.473   4.062  13.944  1.4736  0.6559 -0.7345
 7613SOL    HW234473   2.535   4.189  13.980 -0.6502 -0.5267  1.3320
 7614SOL     OW34474   4.224   0.400   3.971 -0.7356  0.4578 -0.5593
 7614SOL    HW134475   4.244   0.487   3.935 -0.8491  1.8088  2.6503
 7614SOL    HW234476   4.277   0.334   3.927 -1.9924 -1.3399  0.6041
 7615SOL     OW34477   4.564   3.201   5.476 -0.7015 -0.1500 -0.0333
 7615SOL    HW134478   4.530   3.174   5.390 -0.5037 -2.0599  0.4732
 7615SOL    HW234479   4.497   3.162   5.533 -0.2106  1.7466  1.8116
 7616SOL     OW34480   1.432   1.450   9.040 -0.3609 -0.6450  0.6580
 7616SOL    HW134481   1.431   1.540   9.008  1.7065 -0.6562  0.5633
 7616SOL    HW234482   1.449   1.403   8.958 -0.3809  0.0184  0.2794
 7617SOL     OW34483   3.817   3.946  10.174 -0.4161  0.4171  0.4525
 7617SOL    HW134484   3.833   3.892  10.097 -0.8729  0.4965  0.3019
 7617SOL    HW234485   3.889   3.916  10.230 -0.1983 -0.9188 -0.5463
 7618SOL     OW34486   3.812   1.695   9.473 -0.2993 -0.7163 -0.5505
 7618SOL    HW134487   3.720   1.669   9.460 -0.5818  1.1528 -2.2736
 7618SOL    HW234488   3.841   1.699   9.382  3.4433 -1.2494  0.6342
 7619SOL     OW34489   0.278   3.716   3.322  0.4226 -0.3658  0.4577
 7619SOL    HW134490   0.289   3.676   3.236  0.9106  0.9728 -0.1105
 7619SOL    HW234491   0.219   3.789   3.302  2.1027  1.1785  1.1471
 7620SOL     OW34492   0.758   2.241   4.981  0.2539  0.2337 -0.2380
 7620SOL    HW134493   0.793   2.251   4.893  1.4845  0.1318  0.2347
 7620SOL    HW234494   0.794   2.156   5.009 -1.1085  0.0109  0.8167
 7621SOL     OW34495   2.498   4.306   3.534  0.3187 -0.0091 -0.8511
 7621SOL    HW134496   2.522   4.390   3.572  3.0996 -0.8028 -0.8308
 7621SOL    HW234497   2.582   4.260   3.526 -1.0856 -2.4462 -1.4464
 7622SOL     OW34498   4.581   4.199   2.471 -0.0346  0.2103 -0.2099
 7622SOL    HW134499   4.611   4.255   2.542 -0.8056  0.6247 -0.2022
 7622SOL    HW234500   4.542   4.263   2.410 -1.4264 -0.2158  0.2285
 7623SOL     OW34501   0.097   0.799   5.496 -0.3311  0.2353 -0.2602
 7623SOL    HW134502   0.149   0.776   5.573 -0.3295 -2.6208 -1.1445
 7623SOL    HW234503   0.022   0.846   5.535 -0.8123  2.2069 -3.5706
 7624SOL     OW34504   3.865   0.488   4.734 -0.0724 -0.5809 -0.0931
 7624SOL    HW134505   3.837   0.500   4.825 -2.1273  3.0410 -1.2327
 7624SOL    HW234506   3.957   0.462   4.740  0.0770 -0.1999 -0.7847
 7625SOL     OW34507   0.659   3.713   1.504 -0.5226  0.2195 -0.7333
 7625SOL    HW134508   0.569   3.715   1.535  0.3020 -1.1207  1.7982
 7625SOL    HW234509   0.633   3.713   1.412  0.6309 -1.8252 -1.0620
 7626SOL     OW34510   3.886   3.925  14.828  0.3504 -0.4592  0.3179
 7626SOL    HW134511   3.910   3.841  14.867 -2.9156 -0.9946  1.2275
 7626SOL    HW234512   3.933   3.918  14.745  0.6390  2.4674  0.2420
 7627SOL     OW34513   2.056   2.994   2.430 -0.4809 -0.0810 -0.1376
 7627SOL    HW134514   2.083   2.903   2.431 -1.2887 -0.3044  1.0871
 7627SOL    HW234515   1.978   2.991   2.374  0.1009 -0.6722 -0.9191
 7628SOL     OW34516   3.381   4.199  14.486  0.2420  0.0870 -0.0061
 7628SOL    HW134517   3.306   4.173  14.540 -0.6535  1.9363 -0.3375
 7628SOL    HW234518   3.393   4.120  14.433 -0.4365 -0.4756  0.6827
 7629SOL     OW34519   3.291   1.484  13.728  0.7193  0.2712 -0.0532
 7629SOL    HW134520   3.284   1.396  13.690  0.2397 -0.3754  1.5200
 7629SOL    HW234521   3.209   1.525  13.702  0.8744  1.3042  1.0952
 7630SOL     OW34522   2.439   3.579   7.208  0.1739  0.2896 -0.5618
 7630SOL    HW134523   2.499   3.571   7.282 -1.3592 -0.8963  0.5538
 7630SOL    HW234524   2.419   3.486   7.200 -1.2235  0.5223  0.2886
 7631SOL     OW34525   2.291   2.693   1.714 -0.0658 -0.0393  0.5818
 7631SOL    HW134526   2.384   2.669   1.724 -0.4841 -0.8473  2.3926
 7631SOL    HW234527   2.290   2.776   1.762  0.1871  0.0468  0.4396
 7632SOL     OW34528   1.108   0.480   9.650 -0.3782  0.7071  0.2235
 7632SOL    HW134529   1.026   0.524   9.674 -0.4126  0.3401  0.7681
 7632SOL    HW234530   1.159   0.553   9.614 -0.0006 -0.2883 -1.2726
 7633SOL     OW34531   4.692   0.463   6.440  0.1678  0.0069  0.1491
 7633SOL    HW134532   0.017   0.391   6.427  0.8647  0.1949  2.3056
 7633SOL    HW234533   4.619   0.410   6.471  0.1145  0.6240  1.0735
 7634SOL     OW34534   0.511   0.239  13.266 -0.1128 -0.5243 -0.6259
 7634SOL    HW134535   0.464   0.251  13.184  0.5577 -0.7718 -1.0396
 7634SOL    HW234536   0.496   0.145  13.267  0.9594 -0.6672  1.8719
 7635SOL     OW34537   3.470   4.005   1.731  1.0478 -0.0671 -0.6371
 7635SOL    HW134538   3.545   4.035   1.782 -0.5214 -0.9641  2.1840
 7635SOL    HW234539   3.446   3.920   1.766 -1.2910  1.2379  0.9058
 7636SOL     OW34540   2.443   4.422  13.708 -0.3547  0.0142  0.5186
 7636SOL    HW134541   2.369   4.397  13.764 -1.2826 -2.0225 -1.6078
 7636SOL    HW234542   2.450   4.516  13.723 -1.9828  0.2910 -0.4021
 7637SOL     OW34543   2.952   4.269   4.266 -0.2898 -0.1838 -0.2490
 7637SOL    HW134544   2.896   4.202   4.306 -1.6892  1.1470  0.0446
 7637SOL    HW234545   3.037   4.226   4.258 -0.4902 -0.5846 -0.1998
 7638SOL     OW34546   1.704   1.062   8.309 -0.1205 -0.0185 -0.3273
 7638SOL    HW134547   1.691   1.050   8.215  0.7221  1.0605 -0.5891
 7638SOL    HW234548   1.772   1.000   8.334 -1.1226 -0.8684  0.3108
 7639SOL     OW34549   3.476   3.646   3.917  0.3174 -0.5311  0.5952
 7639SOL    HW134550   3.508   3.584   3.983 -0.7028  0.7595  2.3326
 7639SOL    HW234551   3.385   3.661   3.941 -0.7490 -3.0410 -1.9544
 7640SOL     OW34552   1.446   2.089   4.081 -0.4793 -0.1570 -0.2832
 7640SOL    HW134553   1.366   2.036   4.079  0.0545 -0.9924  0.1597
 7640SOL    HW234554   1.492   2.045   4.010 -1.7085  0.4600 -1.4550
 7641SOL     OW34555   2.744   0.809   7.261  0.1303  0.1594  0.5658
 7641SOL    HW134556   2.812   0.769   7.207  0.4773 -0.4450  1.4503
 7641SOL    HW234557   2.677   0.814   7.192  1.5552  1.4890 -0.7259
 7642SOL     OW34558   4.692   3.432   5.876  0.6708 -0.5505  0.2916
 7642SOL    HW134559   4.629   3.419   5.805 -0.5465 -0.8617  1.4143
 7642SOL    HW234560   4.707   3.342   5.906  2.3963 -0.9334 -1.7204
 7643SOL     OW34561   2.361   0.272   3.806  0.1785 -0.2718 -0.4234
 7643SOL    HW134562   2.433   0.335   3.807  1.5121 -1.7887 -0.3507
 7643SOL    HW234563   2.337   0.271   3.713 -0.3707  2.1681 -0.2977
 7644SOL     OW34564   1.586   3.066   9.659 -0.1303  0.4611  0.4216
 7644SOL    HW134565   1.535   3.140   9.627 -1.1801 -0.2584  0.4264
 7644SOL    HW234566   1.551   2.992   9.609 -0.1857  0.8447 -0.1048
 7645SOL     OW34567   1.824   2.503   4.097 -0.2572 -0.0625  0.5858
 7645SOL    HW134568   1.844   2.465   4.012 -0.6956  0.6329  0.1690
 7645SOL    HW234569   1.730   2.496   4.083  0.2026 -2.1312 -1.5223
 7646SOL     OW34570   2.525   0.437   5.160  0.1728 -0.0102  0.2591
 7646SOL    HW134571   2.440   0.420   5.200  0.0674 -0.1843 -0.0357
 7646SOL    HW234572   2.538   0.528   5.187  1.8670 -1.2169  3.4619
 7647SOL     OW34573   2.712   3.749   8.922  0.2240  0.4455 -0.6848
 7647SOL    HW134574   2.617   3.761   8.923  0.2752  0.4310  3.3545
 7647SOL    HW234575   2.730   3.692   8.996  0.3300  0.8722 -0.3790
 7648SOL     OW34576   4.574   1.516   5.375  0.4668 -0.3057  0.4180
 7648SOL    HW134577   4.653   1.486   5.330  0.5229 -0.5273  0.6602
 7648SOL    HW234578   4.616   1.535   5.459  3.3438  0.2893 -1.1623
 7649SOL     OW34579   4.364   1.568   2.180 -0.4642  0.1429 -0.1012
 7649SOL    HW134580   4.448   1.613   2.175 -1.7022  2.4628  0.3572
 7649SOL    HW234581   4.388   1.483   2.217  0.6455 -0.0721 -1.3115
 7650SOL     OW34582   0.393   0.908   2.844  0.3126  0.2478  0.2125
 7650SOL    HW134583   0.304   0.875   2.858 -0.5027  1.7792 -1.3513
 7650SOL    HW234584   0.449   0.831   2.853 -0.8076 -0.5551  0.2854
 7651SOL     OW34585   1.196   2.137   8.940  0.1883 -0.5705  0.0117
 7651SOL    HW134586   1.254   2.111   8.869 -0.4818 -3.9767  0.6928
 7651SOL    HW234587   1.226   2.085   9.015  0.7933 -0.2079  0.0225
 7652SOL     OW34588   0.680   0.796   5.055 -0.6677 -0.3163 -0.2456
 7652SOL    HW134589   0.740   0.751   4.997  0.1658  3.3257 -2.2167
 7652SOL    HW234590   0.593   0.762   5.033 -0.8105  1.7736 -2.9576
 7653SOL     OW34591   2.064   2.737   2.346 -0.1289 -0.2252  0.6112
 7653SOL    HW134592   2.008   2.736   2.268  0.9957  0.8085 -0.2221
 7653SOL    HW234593   2.015   2.685   2.409 -2.0126  2.9406  1.7500
 7654SOL     OW34594   3.317   3.619   6.704 -0.1548 -0.4068  0.0777
 7654SOL    HW134595   3.250   3.612   6.636 -0.5770 -0.7996  0.5398
 7654SOL    HW234596   3.380   3.674   6.657  0.8620 -0.8159  0.9646
 7655SOL     OW34597   0.125   0.427   7.938  0.1233 -0.4647 -0.2884
 7655SOL    HW134598   0.206   0.396   7.897 -1.1777 -0.7893 -2.5773
 7655SOL    HW234599   0.066   0.410   7.865  0.2137  1.1543 -0.7428
 7656SOL     OW34600   3.576   1.697   6.277 -0.0842  0.1993 -0.6724
 7656SOL    HW134601   3.605   1.788   6.286  5.6345 -1.7292  0.6294
 7656SOL    HW234602   3.616   1.669   6.360  0.1458 -2.1060 -1.5543
 7657SOL     OW34603   1.679   1.206   3.508  0.1940 -0.0511 -0.1373
 7657SOL    HW134604   1.773   1.192   3.520  0.2678  0.1706 -0.4647
 7657SOL    HW234605   1.651   1.190   3.598  1.0348  0.6359  0.2516
 7658SOL     OW34606   3.533   3.537   9.873  0.2339 -0.0505 -0.1360
 7658SOL    HW134607   3.564   3.626   9.889  0.0528  0.3804 -2.1584
 7658SOL    HW234608   3.440   3.547   9.850  0.1396 -3.0494 -1.0961
 7659SOL     OW34609   0.073   3.723   2.498 -0.2375  0.5478 -0.0046
 7659SOL    HW134610   0.145   3.760   2.448 -0.8747 -0.8089 -1.8875
 7659SOL    HW234611   0.034   3.805   2.529 -0.1785  0.4247  0.4072
 7660SOL     OW34612   3.339   1.650  11.841 -0.1677  0.5697 -0.3835
 7660SOL    HW134613   3.393   1.713  11.889  0.1124  1.0360 -1.3115
 7660SOL    HW234614   3.280   1.702  11.788 -0.8585 -1.0243 -1.1800
 7661SOL     OW34615   2.920   4.653   0.518 -0.3418 -0.0566  0.1209
 7661SOL    HW134616   3.006   4.620   0.489  0.7486 -0.9872  4.4506
 7661SOL    HW234617   2.857   4.589   0.485 -0.3215 -0.2033  0.3661
 7662SOL     OW34618   0.691   1.438   1.388 -0.7798 -0.3171  0.6386
 7662SOL    HW134619   0.701   1.402   1.300  2.1833 -0.5783  1.1019
 7662SOL    HW234620   0.619   1.501   1.383  0.7510  1.2803 -1.2813
 7663SOL     OW34621   1.268   4.128   6.172 -0.6228 -0.3738  0.4812
 7663SOL    HW134622   1.303   4.196   6.114  1.1324 -2.7952 -1.2986
 7663SOL    HW234623   1.330   4.116   6.244  0.4316 -2.3638 -0.7789
 7664SOL     OW34624   2.714   4.107   2.381  0.0299 -0.6139  0.8867
 7664SOL    HW134625   2.799   4.069   2.361 -0.0118 -0.3736  0.2289
 7664SOL    HW234626   2.716   4.193   2.339 -1.0986 -1.1209 -0.2145
 7665SOL     OW34627   1.301   1.896   4.589  0.2060 -0.0519 -0.0136
 7665SOL    HW134628   1.340   1.980   4.565  1.5056 -0.6303  0.0947
 7665SOL    HW234629   1.250   1.925   4.664  1.5993  0.3720  0.7597
 7666SOL     OW34630   3.504   3.264  10.889  0.5901  0.6358 -0.3135
 7666SOL    HW134631   3.591   3.227  10.875  0.2948 -0.0724 -0.2909
 7666SOL    HW234632   3.457   3.192  10.933  0.8408  0.8249  0.2674
 7667SOL     OW34633   0.534   2.570   9.200 -0.1184 -0.0406 -0.0715
 7667SOL    HW134634   0.628   2.551   9.189 -0.6716 -3.8351  1.6330
 7667SOL    HW234635   0.549   2.642   9.261 -2.1134  0.6699 -0.4302
 7668SOL     OW34636   4.097   2.253   3.862  0.2437  0.3764  0.2557
 7668SOL    HW134637   4.001   2.245   3.860  0.1856  0.7301  1.2219
 7668SOL    HW234638   4.122   2.227   3.774  0.3607  1.6130 -0.0824
 7669SOL     OW34639   4.247   0.961   1.921 -0.6403  0.2773 -0.5746
 7669SOL    HW134640   4.264   0.874   1.886  0.5164  0.3343 -0.1368
 7669SOL    HW234641   4.174   1.002   1.874  0.0752  2.8882  0.5759
 7670SOL     OW34642   0.183   2.488   2.943  0.4331  0.5205  0.5171
 7670SOL    HW134643   0.203   2.465   3.033 -1.9310  0.9590  1.1518
 7670SOL    HW234644   0.264   2.484   2.891 -0.4449  0.0847 -0.8180
 7671SOL     OW34645   2.245   3.763   2.509  0.1006 -0.0925  0.0038
 7671SOL    HW134646   2.336   3.776   2.483  0.5876 -1.6232  0.9299
 7671SOL    HW234647   2.212   3.852   2.500 -1.6310 -0.6744  0.4747
 7672SOL     OW34648   1.996   2.331   1.818  0.7903 -0.3783 -0.3119
 7672SOL    HW134649   1.984   2.382   1.898 -1.2201 -0.9090 -0.2805
 7672SOL    HW234650   2.045   2.392   1.763  0.3134  0.6844  0.4505
 7673SOL     OW34651   3.090   3.758   9.438 -0.4332 -0.6619 -0.3971
 7673SOL    HW134652   3.137   3.751   9.356 -0.1336 -1.1760 -0.1828
 7673SOL    HW234653   3.162   3.785   9.495 -2.5599 -0.2475  2.1333
 7674SOL     OW34654   1.510   3.942   6.650  0.3125  0.0675  0.3692
 7674SOL    HW134655   1.429   3.910   6.611  0.7427 -0.1516 -0.3388
 7674SOL    HW234656   1.561   3.968   6.574 -1.6206  3.7094  0.3453
 7675SOL     OW34657   1.023   4.267   6.730  0.4284 -0.1046  0.4803
 7675SOL    HW134658   1.100   4.221   6.697  0.0420  0.6536 -1.4939
 7675SOL    HW234659   1.007   4.206   6.802 -0.4904 -1.0793 -0.5445
 7676SOL     OW34660   1.118   2.702  17.333 -0.4821  0.4235 -0.3235
 7676SOL    HW134661   1.088   2.774  17.387  1.6541  0.2809  1.0618
 7676SOL    HW234662   1.157   2.647  17.401 -1.2511  0.2653 -0.0064
 7677SOL     OW34663   3.608   2.443   1.746 -0.2183 -0.2252 -0.1946
 7677SOL    HW134664   3.677   2.486   1.696 -2.2552  1.1133 -1.8708
 7677SOL    HW234665   3.566   2.519   1.787 -1.0361 -1.8389  1.9561
 7678SOL     OW34666   1.467   4.524   7.342 -0.0338  0.1568  0.3775
 7678SOL    HW134667   1.467   4.617   7.364  1.4149  0.2329  0.0821
 7678SOL    HW234668   1.375   4.501   7.340  0.1930 -0.5161 -1.8853
 7679SOL     OW34669   2.510   3.264   0.439 -0.0198 -0.2663  0.0049
 7679SOL    HW134670   2.594   3.223   0.419  0.8793  1.3271  0.4782
 7679SOL    HW234671   2.446   3.193   0.433 -0.3469  0.0494 -0.2250
 7680SOL     OW34672   0.945   4.734   2.176 -0.2261 -0.0271  0.1930
 7680SOL    HW134673   0.898   4.658   2.211  0.7508 -0.1989  1.1161
 7680SOL    HW234674   0.996   0.017   2.254  1.0150 -1.4401 -0.2682
 7681SOL     OW34675   3.228   3.211   4.102  0.0511 -0.1035  0.4697
 7681SOL    HW134676   3.268   3.148   4.162 -1.5187 -2.2522 -0.7624
 7681SOL    HW234677   3.199   3.156   4.029 -1.1943 -1.4980  2.0298
 7682SOL     OW34678   3.526   3.187  15.099  0.2159  0.5211 -0.7333
 7682SOL    HW134679   3.478   3.156  15.022 -0.1136 -0.2524 -0.2136
 7682SOL    HW234680   3.606   3.229  15.066 -0.1291  0.6832 -1.3542
 7683SOL     OW34681   4.008   1.322  15.024 -0.0349 -0.3864  0.1784
 7683SOL    HW134682   4.089   1.365  14.997 -1.0827  1.5034  0.0086
 7683SOL    HW234683   3.950   1.336  14.949  1.8824  1.4595 -0.9503
 7684SOL     OW34684   1.795   3.634   4.786 -0.2149  0.0550 -0.3100
 7684SOL    HW134685   1.773   3.714   4.737 -0.9528  0.7586  1.1485
 7684SOL    HW234686   1.877   3.661   4.827 -0.8379  1.4626  0.0401
 7685SOL     OW34687   3.447   4.603   1.678 -0.1035 -0.0243 -0.2151
 7685SOL    HW134688   3.502   4.535   1.640 -0.1474  0.3927 -1.0181
 7685SOL    HW234689   3.466   4.665   1.608  0.8003 -0.3200 -0.2325
 7686SOL     OW34690   1.561   3.490   8.632  0.3424 -0.4519 -0.3161
 7686SOL    HW134691   1.648   3.526   8.613  0.5327  0.2859  1.9585
 7686SOL    HW234692   1.579   3.397   8.625 -0.4975 -0.5292 -1.5107
 7687SOL     OW34693   2.039   0.103   4.859 -0.2213 -0.2619  0.6698
 7687SOL    HW134694   2.018   0.097   4.953  0.1871  1.7022  0.8924
 7687SOL    HW234695   1.952   0.077   4.829  0.8931 -2.6248 -0.4872
 7688SOL     OW34696   3.203   1.477   8.392  0.0432 -0.7132  0.1891
 7688SOL    HW134697   3.136   1.468   8.325  0.2651 -1.1007  0.0178
 7688SOL    HW234698   3.276   1.443   8.340  0.5367  0.1723  0.2922
 7689SOL     OW34699   2.236   1.833  12.094 -0.0300 -0.2196 -0.4669
 7689SOL    HW134700   2.255   1.779  12.170 -0.5939 -2.2149 -1.7413
 7689SOL    HW234701   2.161   1.786  12.056 -1.3748  0.6843  1.0693
 7690SOL     OW34702   0.940   0.138   6.133  0.7690  0.1080  0.0412
 7690SOL    HW134703   0.947   0.054   6.178  2.7579  0.5467  0.5535
 7690SOL    HW234704   0.853   0.158   6.169  1.1209  2.9128 -0.6591
 7691SOL     OW34705   1.896   2.269   6.033  0.0560  0.6638  0.8937
 7691SOL    HW134706   1.857   2.291   5.948 -0.2659  0.1362  0.9033
 7691SOL    HW234707   1.881   2.175   6.044 -1.6592  0.7364 -0.7715
 7692SOL     OW34708   3.748   3.214  10.105 -0.0292 -0.0607  0.1237
 7692SOL    HW134709   3.775   3.289  10.158  1.5960 -0.9500  0.5621
 7692SOL    HW234710   3.811   3.148  10.133 -2.3052 -2.3330 -0.0714
 7693SOL     OW34711   0.125   1.622   6.230 -0.4199 -0.2951  0.2614
 7693SOL    HW134712   0.185   1.548   6.235  0.3201  0.2805 -0.2005
 7693SOL    HW234713   0.048   1.579   6.192  0.2249 -1.5530  0.3817
 7694SOL     OW34714   1.962   2.703  15.489 -0.1196 -0.4256 -0.3735
 7694SOL    HW134715   2.000   2.688  15.575 -0.9632 -0.9679 -0.0924
 7694SOL    HW234716   1.946   2.616  15.452 -0.2504 -0.0122 -1.3141
 7695SOL     OW34717   2.239   2.057   4.948 -0.5528 -0.0020 -0.1993
 7695SOL    HW134718   2.252   2.128   5.011  0.1579 -1.1556  0.9650
 7695SOL    HW234719   2.276   2.096   4.869 -0.1338 -0.6836 -0.3391
 7696SOL     OW34720   1.120   2.991  10.985 -0.3308 -0.5499  0.5810
 7696SOL    HW134721   1.172   2.957  10.912 -1.8530 -1.1724 -0.2156
 7696SOL    HW234722   1.160   3.077  11.001 -0.3990 -0.5863  0.9409
 7697SOL     OW34723   3.660   2.237   2.653 -0.4407  0.5383 -0.3806
 7697SOL    HW134724   3.594   2.279   2.708 -0.4662 -1.9674  1.5545
 7697SOL    HW234725   3.726   2.304   2.637  1.5899 -0.7982  2.3056
 7698SOL     OW34726   1.815   1.051   8.779 -0.0145 -0.2755  0.5879
 7698SOL    HW134727   1.750   1.119   8.795 -1.2662 -0.9541 -1.5414
 7698SOL    HW234728   1.874   1.072   8.851 -3.7936  3.5084  2.5656
 7699SOL     OW34729   4.667   4.115   5.986 -0.1808  0.6580  0.1847
 7699SOL    HW134730   4.691   4.023   5.997 -0.6750  0.5879  0.6876
 7699SOL    HW234731   4.608   4.141   6.057 -0.1530 -0.8217  0.7526
 7700SOL     OW34732   3.241   0.156   3.136  0.7707 -0.0426 -0.3392
 7700SOL    HW134733   3.170   0.216   3.114  1.5678  1.0418  0.0079
 7700SOL    HW234734   3.214   0.108   3.214  3.1427 -1.7741 -0.5754
 7701SOL     OW34735   1.908   4.249   8.171  0.1472  0.6677  0.3073
 7701SOL    HW134736   1.948   4.291   8.247  2.0198  0.0745 -0.3413
 7701SOL    HW234737   1.982   4.210   8.123 -0.0409  1.8870 -0.9900
 7702SOL     OW34738   4.544   2.843   7.357 -0.1296 -0.2940  0.2559
 7702SOL    HW134739   4.630   2.833   7.316 -1.1268 -1.2508 -1.5532
 7702SOL    HW234740   4.531   2.755   7.393 -0.9339  0.1515  1.0587
 7703SOL     OW34741   3.467   3.201  10.110  0.7951 -0.2120 -0.1961
 7703SOL    HW134742   3.561   3.217  10.101  0.8449  0.2661  1.2761
 7703SOL    HW234743   3.473   3.110  10.079 -0.3982  0.1415 -1.5017
 7704SOL     OW34744   1.390   3.632   8.306  0.0931 -0.3375  0.4652
 7704SOL    HW134745   1.297   3.634   8.284  0.4385  0.5583 -0.8768
 7704SOL    HW234746   1.412   3.547   8.344  1.3250 -0.5290 -0.6838
 7705SOL     OW34747   1.792   1.130   5.152 -0.0997  0.3837  0.5144
 7705SOL    HW134748   1.850   1.168   5.218 -1.0344 -0.8222  2.0361
 7705SOL    HW234749   1.765   1.199   5.091 -2.0957 -3.0378 -2.5173
 7706SOL     OW34750   2.422   0.320   9.878 -0.0557  0.0318  0.0058
 7706SOL    HW134751   2.451   0.410   9.865 -2.2314  0.4747 -1.7925
 7706SOL    HW234752   2.339   0.314   9.831 -0.0572 -1.4952  0.1923
 7707SOL     OW34753   0.806   3.317   1.346 -0.1155 -0.4040 -0.3965
 7707SOL    HW134754   0.716   3.326   1.376 -0.2812 -0.2674 -0.9228
 7707SOL    HW234755   0.849   3.378   1.405  0.4477 -1.6445  0.4816
 7708SOL     OW34756   2.854   3.371   3.888  0.3055  0.1191 -0.4032
 7708SOL    HW134757   2.800   3.292   3.879 -0.0984  0.2895  0.5016
 7708SOL    HW234758   2.869   3.380   3.982  3.1513 -1.7521 -0.6847
 7709SOL     OW34759   1.028   2.936  10.543  0.1904  0.0375  0.1810
 7709SOL    HW134760   0.954   2.963  10.597 -0.4177 -0.3736 -0.4277
 7709SOL    HW234761   1.059   3.019  10.508  2.9090 -0.7464  0.7778
 7710SOL     OW34762   3.373   2.451   8.450 -0.2288 -0.5744 -0.0700
 7710SOL    HW134763   3.344   2.362   8.431  2.1543 -1.6185  1.1328
 7710SOL    HW234764   3.407   2.452   8.539 -0.9360  0.8738  0.1784
 7711SOL     OW34765   2.568   3.511   1.808  0.0321 -0.0409  0.2673
 7711SOL    HW134766   2.561   3.589   1.753  1.6787 -1.4033 -1.8488
 7711SOL    HW234767   2.567   3.439   1.746 -1.6282 -1.4580  1.9363
 7712SOL     OW34768   2.503   2.995  13.080  0.3432 -0.2332 -0.4763
 7712SOL    HW134769   2.411   2.982  13.059  0.0421  0.6127  0.3225
 7712SOL    HW234770   2.546   2.988  12.995  1.7424  1.1447  0.1177
 7713SOL     OW34771   1.545   2.453  14.802  0.1018  0.3546 -0.3849
 7713SOL    HW134772   1.563   2.380  14.743 -0.5915 -1.0410  1.1139
 7713SOL    HW234773   1.498   2.514  14.746 -1.2980 -0.2927  0.0862
 7714SOL     OW34774   0.376   1.009   7.477  0.4090 -0.0498 -0.2585
 7714SOL    HW134775   0.281   0.996   7.483  0.1786  2.0675  0.4365
 7714SOL    HW234776   0.390   1.070   7.549 -3.2705 -1.7647  1.9339
 7715SOL     OW34777   2.636   0.740  17.077 -0.0484 -0.5799 -0.1420
 7715SOL    HW134778   2.697   0.708  17.143 -0.1070  0.0527  0.2226
 7715SOL    HW234779   2.617   0.666  17.019 -0.5799 -2.1411  2.0328
 7716SOL     OW34780   2.623   3.306   6.445 -0.2741 -0.2289 -0.1359
 7716SOL    HW134781   2.698   3.246   6.445 -0.4393 -0.4317  1.8157
 7716SOL    HW234782   2.642   3.366   6.373 -2.6504  2.0566  1.1238
 7717SOL     OW34783   1.766   1.345   7.976  0.0695  0.3690  0.5174
 7717SOL    HW134784   1.796   1.315   8.061  1.9034  2.3771  0.5763
 7717SOL    HW234785   1.687   1.390   8.008  0.1436 -0.2429  1.5587
 7718SOL     OW34786   2.067   1.900   9.354  0.6279 -0.5379 -0.2424
 7718SOL    HW134787   2.047   1.808   9.338 -1.8124  0.2460 -1.7660
 7718SOL    HW234788   1.984   1.940   9.328  0.7131 -1.0134 -1.2412
 7719SOL     OW34789   3.307   1.862  15.512 -0.6098  0.3020 -0.1414
 7719SOL    HW134790   3.337   1.774  15.535 -1.8842 -0.0349  0.2275
 7719SOL    HW234791   3.390   1.884  15.470  0.8140 -4.1143  0.3776
 7720SOL     OW34792   1.084   3.430   7.379  0.6891  0.0980  0.3854
 7720SOL    HW134793   1.096   3.341   7.413 -1.6741 -0.9284 -1.4891
 7720SOL    HW234794   1.108   3.489   7.450  0.0778 -0.7101  1.2653
 7721SOL     OW34795   4.561   3.787   1.161 -0.0955  0.3027 -0.0013
 7721SOL    HW134796   4.497   3.836   1.212 -0.5287  1.4632 -1.6748
 7721SOL    HW234797   4.598   3.733   1.231 -1.0975 -1.0824 -0.5389
 7722SOL     OW34798   2.733   3.425  11.129  0.3249  0.1736  0.5497
 7722SOL    HW134799   2.822   3.402  11.152  0.3348 -1.7812 -1.4368
 7722SOL    HW234800   2.739   3.434  11.034 -0.4272 -0.2909  0.4538
 7723SOL     OW34801   3.356   4.611   8.932  0.3810  0.3899 -0.0518
 7723SOL    HW134802   3.450   4.590   8.926  0.3360 -0.5036  2.3856
 7723SOL    HW234803   3.336   4.616   8.839 -2.2810 -1.7508  0.3977
 7724SOL     OW34804   2.660   2.223   2.259  0.6427  0.7363  0.2744
 7724SOL    HW134805   2.633   2.313   2.276 -4.9304 -1.0196  0.8944
 7724SOL    HW234806   2.624   2.216   2.171 -0.8537 -1.1199  1.0300
 7725SOL     OW34807   4.410   2.801   7.082 -0.1581 -0.1642  0.1850
 7725SOL    HW134808   4.396   2.713   7.116 -3.5079 -0.2490 -1.3926
 7725SOL    HW234809   4.446   2.851   7.156 -1.6569  3.3100 -1.4129
 7726SOL     OW34810   2.501   1.753   1.616  0.3262  0.1017 -0.1162
 7726SOL    HW134811   2.561   1.821   1.648  1.3302 -0.2899 -1.1429
 7726SOL    HW234812   2.530   1.740   1.526  0.4592  0.9775 -0.1996
 7727SOL     OW34813   2.661   3.801   1.927  0.1809  0.4854  0.1063
 7727SOL    HW134814   2.641   3.805   1.834 -1.1634 -1.0347  0.3307
 7727SOL    HW234815   2.707   3.884   1.933 -2.1224  1.7354  0.5265
 7728SOL     OW34816   3.439   3.582   2.210 -0.0333 -0.3229 -0.2698
 7728SOL    HW134817   3.484   3.665   2.230  0.7479 -0.5517 -1.0724
 7728SOL    HW234818   3.433   3.581   2.115 -2.4012  0.4136 -0.1267
 7729SOL     OW34819   2.487   4.142   0.403  0.2751  0.1940 -0.0928
 7729SOL    HW134820   2.413   4.173   0.352  0.3891  2.5918  1.2045
 7729SOL    HW234821   2.473   4.189   0.485  0.1240  1.4145 -0.8166
 7730SOL     OW34822   2.004   2.168   5.602 -0.4807 -0.3374  0.1317
 7730SOL    HW134823   2.041   2.080   5.595  2.9545  1.2179 -1.1616
 7730SOL    HW234824   2.079   2.226   5.618  0.0047 -1.3685  1.6984
 7731SOL     OW34825   1.454   3.426   8.024  0.0592 -0.3092 -0.4028
 7731SOL    HW134826   1.386   3.372   8.064 -1.1908  0.3716 -1.5959
 7731SOL    HW234827   1.504   3.367   7.968  1.7662  1.9413 -1.2243
 7732SOL     OW34828   0.903   0.972  12.205 -0.4578 -0.0562  0.2806
 7732SOL    HW134829   0.853   1.023  12.268 -0.1648 -0.1894  0.6214
 7732SOL    HW234830   0.944   1.035  12.145  1.0147  0.9734  2.3766
 7733SOL     OW34831   1.757   1.173   4.346 -0.3640 -0.6397  0.4004
 7733SOL    HW134832   1.719   1.100   4.395  0.1265 -1.7787 -0.9211
 7733SOL    HW234833   1.817   1.123   4.291 -2.6948 -1.3624 -1.5201
 7734SOL     OW34834   3.039   3.653   0.510 -0.0063  0.1785  0.3029
 7734SOL    HW134835   3.060   3.609   0.592  0.5531  0.4306  0.2930
 7734SOL    HW234836   3.103   3.724   0.506 -0.5542  0.6016 -1.2610
 7735SOL     OW34837   1.523   2.152   9.243  0.2133  0.4295  0.2402
 7735SOL    HW134838   1.432   2.178   9.259  0.4624  2.5052 -1.7037
 7735SOL    HW234839   1.536   2.143   9.148 -1.0829  1.0562 -0.0001
 7736SOL     OW34840   1.871   1.603   8.959  0.0325  0.6652  0.9588
 7736SOL    HW134841   1.961   1.572   8.966 -0.4520 -0.7231  0.9176
 7736SOL    HW234842   1.879   1.698   8.951  0.0605  0.6431  0.7392
 7737SOL     OW34843   3.529   3.903   7.487 -0.2787 -0.3281 -0.1117
 7737SOL    HW134844   3.552   3.812   7.503  1.3537 -0.0405 -0.7834
 7737SOL    HW234845   3.611   3.935   7.524  0.6126  1.0718 -3.2951
 7738SOL     OW34846   0.007   1.391   0.626 -0.0532 -0.2301  0.3267
 7738SOL    HW134847   0.089   1.406   0.578 -0.8692 -0.1632 -1.0371
 7738SOL    HW234848   0.014   1.442   0.707 -0.3685  0.4366 -0.0659
 7739SOL     OW34849   2.846   2.996   3.863  0.2589 -0.2813  0.1146
 7739SOL    HW134850   2.922   3.052   3.877  0.5808 -0.4478 -0.9535
 7739SOL    HW234851   2.880   2.907   3.867 -1.0438 -0.7135  1.7967
 7740SOL     OW34852   3.895   1.031   3.272 -0.6030 -0.0332 -0.3082
 7740SOL    HW134853   3.851   0.948   3.290  1.4540 -0.9777  0.2712
 7740SOL    HW234854   3.947   1.037   3.352  0.4995  0.1535 -1.0437
 7741SOL     OW34855   3.083   2.139   8.395  0.0022 -0.9558  0.3283
 7741SOL    HW134856   3.053   2.060   8.350 -1.7653  0.0522 -0.2607
 7741SOL    HW234857   3.025   2.207   8.362  0.1676 -2.2951 -2.7708
 7742SOL     OW34858   3.694   0.042   2.923  0.4124 -0.2265  0.2956
 7742SOL    HW134859   3.613   0.092   2.929  0.7156  0.3487 -0.3877
 7742SOL    HW234860   3.750   0.080   2.991  1.2168  0.3830 -0.7085
 7743SOL     OW34861   0.084   2.205   6.736  0.1686 -0.4465  0.4759
 7743SOL    HW134862   0.088   2.232   6.828  1.3908 -1.2459  0.6648
 7743SOL    HW234863   0.109   2.113   6.738 -0.9945 -0.8593 -3.5059
 7744SOL     OW34864   0.683   3.552  10.889  0.1060  0.2399  0.2356
 7744SOL    HW134865   0.711   3.540  10.799 -0.8429 -0.7182  0.0590
 7744SOL    HW234866   0.604   3.605  10.877  0.7459  1.2623  0.5778
 7745SOL     OW34867   3.505   0.698  12.403 -0.0449 -0.5070  0.0996
 7745SOL    HW134868   3.481   0.644  12.327  0.7891 -0.0104 -0.5220
 7745SOL    HW234869   3.443   0.770  12.403 -1.5342 -1.7892  1.0292
 7746SOL     OW34870   1.074   3.946   3.597 -0.4217  0.1788  0.2263
 7746SOL    HW134871   1.154   3.940   3.544 -0.7118  1.1307 -0.3400
 7746SOL    HW234872   1.033   4.024   3.559 -0.4903  0.4890  0.9452
 7747SOL     OW34873   0.145   0.783  12.711  0.6479 -0.8097  0.0044
 7747SOL    HW134874   0.218   0.844  12.714  1.4251 -1.8601  2.3996
 7747SOL    HW234875   0.179   0.698  12.684  2.5667 -0.3482  1.0461
 7748SOL     OW34876   2.616   0.340  14.828 -0.2511 -0.8324 -0.0096
 7748SOL    HW134877   2.565   0.277  14.880 -3.6559  2.0995  0.1969
 7748SOL    HW234878   2.666   0.385  14.895 -0.8450 -0.0974 -0.0582
 7749SOL     OW34879   1.693   2.595   4.359 -0.0876 -0.0043  0.2907
 7749SOL    HW134880   1.777   2.563   4.326  0.0575  1.1726 -0.4651
 7749SOL    HW234881   1.664   2.640   4.280  0.5884 -1.2114 -0.6473
 7750SOL     OW34882   0.998   2.303   6.651 -0.2134  0.1592 -0.2803
 7750SOL    HW134883   1.076   2.306   6.596  0.6278 -1.5716  0.8006
 7750SOL    HW234884   0.954   2.227   6.615 -0.9903  1.0457 -1.2027
 7751SOL     OW34885   0.670   4.160  14.126 -0.1283  1.2043 -0.1735
 7751SOL    HW134886   0.684   4.224  14.057 -1.2507 -0.2401 -1.7546
 7751SOL    HW234887   0.612   4.095  14.087  1.0643  0.7987 -1.2888
 7752SOL     OW34888   0.271   1.466   5.138  0.1262  0.1479 -0.5361
 7752SOL    HW134889   0.324   1.459   5.218 -0.8996 -0.8739  0.0702
 7752SOL    HW234890   0.279   1.560   5.126 -0.6596  0.4412  1.2833
 7753SOL     OW34891   1.721   4.066   7.702 -0.0289  0.1868 -0.3094
 7753SOL    HW134892   1.793   4.096   7.756  0.1392  1.2539 -1.1160
 7753SOL    HW234893   1.664   4.024   7.767  1.7447 -0.7912  0.5848
 7754SOL     OW34894   0.412   0.506   8.680  0.3573 -0.6706  0.1494
 7754SOL    HW134895   0.498   0.474   8.705  0.2049 -1.2727 -0.1055
 7754SOL    HW234896   0.356   0.432   8.704 -0.8615  0.8438  1.9523
 7755SOL     OW34897   2.532   0.031   1.604 -0.7231 -0.3625 -0.2728
 7755SOL    HW134898   2.446   0.054   1.568 -1.2423 -1.5248  0.2596
 7755SOL    HW234899   2.506   4.689   1.650  3.0856 -1.1928  0.4809
 7756SOL     OW34900   2.320   2.514   7.601  0.3830  0.3714  0.1019
 7756SOL    HW134901   2.308   2.561   7.683 -1.6557 -0.5122  0.3016
 7756SOL    HW234902   2.326   2.421   7.624 -0.3523  0.5378  0.9359
 7757SOL     OW34903   0.885   0.231   6.654 -0.1421 -0.5574 -0.2485
 7757SOL    HW134904   0.912   0.149   6.696  2.1162 -0.8216 -2.2203
 7757SOL    HW234905   0.854   0.284   6.728  2.3570 -0.4178  0.6843
 7758SOL     OW34906   0.399   0.543  14.020 -0.0695 -0.1275 -0.0737
 7758SOL    HW134907   0.317   0.552  14.067 -0.1165 -0.4362 -0.0941
 7758SOL    HW234908   0.466   0.594  14.065 -0.6003  1.1789 -0.7538
 7759SOL     OW34909   4.191   2.825  11.959  0.3720 -0.2693 -0.0136
 7759SOL    HW134910   4.206   2.780  11.876  0.8542  0.4637 -0.3194
 7759SOL    HW234911   4.273   2.871  11.972  0.0142  0.5513 -0.6927
 7760SOL     OW34912   0.158   1.857   9.662  0.2973 -0.1842 -0.0589
 7760SOL    HW134913   0.188   1.770   9.691  0.5451 -0.1588 -0.2390
 7760SOL    HW234914   0.245   1.894   9.648 -0.0502  1.6782  2.6194
 7761SOL     OW34915   2.307   0.130   5.308  0.0557 -0.1504 -0.2483
 7761SOL    HW134916   2.392   0.142   5.266  0.1352 -0.2386 -0.1107
 7761SOL    HW234917   2.253   0.086   5.242 -0.2572  0.3749 -0.3413
 7762SOL     OW34918   3.783   1.920   4.690  0.1530  0.2485 -0.0750
 7762SOL    HW134919   3.713   1.880   4.637  2.3351 -3.3322 -0.2259
 7762SOL    HW234920   3.730   1.977   4.747 -0.0591 -1.0130  0.9886
 7763SOL     OW34921   0.340   0.814   3.637  0.0677 -0.5611  0.0190
 7763SOL    HW134922   0.369   0.723   3.641  1.3450 -0.1896 -0.6364
 7763SOL    HW234923   0.423   0.858   3.618 -1.3308  2.8773  1.9028
 7764SOL     OW34924   1.578   2.545  13.161 -0.0815  0.0435  0.2931
 7764SOL    HW134925   1.521   2.475  13.128  0.0998 -0.3895  0.9109
 7764SOL    HW234926   1.594   2.511  13.249 -1.9657 -0.2761  0.5202
 7765SOL     OW34927   2.323   2.312   5.869  0.5810  0.2725  0.1283
 7765SOL    HW134928   2.303   2.370   5.943 -0.0783  1.8501 -1.2888
 7765SOL    HW234929   2.337   2.380   5.803  3.6439  0.6298  1.1318
 7766SOL     OW34930   3.544   0.066  13.054  0.0596  0.1568  0.5867
 7766SOL    HW134931   3.491   4.724  13.052  0.6616 -0.1440 -3.5853
 7766SOL    HW234932   3.637   0.043  13.058 -0.1851 -0.7140  1.0991
 7767SOL     OW34933   2.884   1.201   4.681  0.1592  0.0089 -0.5412
 7767SOL    HW134934   2.841   1.208   4.766 -2.1424  0.0602 -1.7151
 7767SOL    HW234935   2.822   1.238   4.618  0.6112  0.0665 -0.9542
 7768SOL     OW34936   0.491   1.512   5.312  0.3938  0.4167 -0.5034
 7768SOL    HW134937   0.557   1.445   5.293 -1.3115 -0.7103 -2.3782
 7768SOL    HW234938   0.544   1.589   5.335 -0.3268  1.7609 -3.3312
 7769SOL     OW34939   3.248   3.011   7.447  0.5856 -0.6645 -0.1765
 7769SOL    HW134940   3.185   3.069   7.404  2.7488  1.4819 -0.4985
 7769SOL    HW234941   3.195   2.978   7.520  1.7930  0.3077  1.1597
 7770SOL     OW34942   3.235   0.122   6.781  0.2620 -0.0873 -0.1103
 7770SOL    HW134943   3.141   0.129   6.765  0.4163 -0.0801 -1.0138
 7770SOL    HW234944   3.228   0.055   6.849  0.3686 -0.9744 -0.9727
 7771SOL     OW34945   3.002   3.438   8.424  0.9091 -0.2421  0.2754
 7771SOL    HW134946   2.913   3.459   8.452  0.1742 -0.6482 -1.8157
 7771SOL    HW234947   3.046   3.438   8.510  2.0195  0.0441 -0.2948
 7772SOL     OW34948   2.328   2.427   1.476  0.2053 -0.1349  0.1263
 7772SOL    HW134949   2.370   2.403   1.393 -0.8462 -1.4986 -0.0108
 7772SOL    HW234950   2.403   2.442   1.534  0.0418 -0.3157  0.3866
 7773SOL     OW34951   1.736   4.375   7.900  0.2952 -0.7126  0.1694
 7773SOL    HW134952   1.644   4.346   7.901  0.1751 -0.3983 -1.8620
 7773SOL    HW234953   1.779   4.289   7.900  1.4524 -0.1208  0.2434
 7774SOL     OW34954   2.209   3.406   8.372  0.1298  0.3508  0.0801
 7774SOL    HW134955   2.141   3.348   8.408 -0.4890 -0.5925 -2.5575
 7774SOL    HW234956   2.152   3.450   8.309  2.2658 -0.7139 -2.5727
 7775SOL     OW34957   2.412   4.575   0.751  0.4287 -0.6289 -0.6151
 7775SOL    HW134958   2.376   4.566   0.839 -2.1824 -0.5543 -1.6705
 7775SOL    HW234959   2.330   4.606   0.712  0.2812  2.4817  2.0936
 7776SOL     OW34960   3.879   0.315   6.451  0.5835  0.2645 -0.3769
 7776SOL    HW134961   3.910   0.260   6.523  1.7864  1.6374  0.1501
 7776SOL    HW234962   3.822   0.255   6.402  2.6363 -1.2304 -0.9541
 7777SOL     OW34963   1.737   2.690  10.014  0.0057  0.0493  0.3814
 7777SOL    HW134964   1.757   2.716   9.924  1.4618  2.9974  1.5742
 7777SOL    HW234965   1.737   2.595  10.003  2.0813  0.1064 -0.0273
 7778SOL     OW34966   3.140   4.660  13.201  0.1722  0.5785 -0.0159
 7778SOL    HW134967   3.157   4.585  13.257 -0.0155  0.1141 -0.5799
 7778SOL    HW234968   3.214   4.645  13.142  1.1216  2.3609  0.7071
 7779SOL     OW34969   0.928   0.647   9.136  0.3208  0.0775  0.2624
 7779SOL    HW134970   0.967   0.582   9.194 -2.1432 -0.0698  1.7720
 7779SOL    HW234971   0.959   0.733   9.165  0.8414  1.1994 -3.6185
 7780SOL     OW34972   4.064   2.595  10.042  0.1335 -0.2431  0.0058
 7780SOL    HW134973   4.005   2.602  10.117 -0.4085  0.1310 -0.4569
 7780SOL    HW234974   4.043   2.504  10.025 -1.4797  0.1721 -0.2246
 7781SOL     OW34975   3.079   0.173   8.492  0.1315 -0.3286 -0.6219
 7781SOL    HW134976   3.100   0.112   8.562 -0.0979  0.4967  0.1688
 7781SOL    HW234977   3.155   0.170   8.433  0.7674  0.5481  0.1558
 7782SOL     OW34978   1.959   1.151   3.533  0.0473  0.1423  0.0525
 7782SOL    HW134979   1.993   1.117   3.450 -1.0933 -0.0329 -0.3393
 7782SOL    HW234980   2.039   1.185   3.573  0.0840 -2.0107  1.8067
 7783SOL     OW34981   2.867   0.012   3.157 -0.3710  0.0668 -0.0485
 7783SOL    HW134982   2.804   4.704   3.213  1.1497 -0.9540  0.8221
 7783SOL    HW234983   2.871   0.096   3.203 -0.4448  0.1560 -0.2051
 7784SOL     OW34984   0.096   3.597   4.062  0.0691  0.0092  0.0170
 7784SOL    HW134985   0.001   3.595   4.048 -0.3303  0.5309  2.5013
 7784SOL    HW234986   0.127   3.529   4.002  0.8480 -0.0499  0.4848
 7785SOL     OW34987   1.654   4.086   9.748 -0.2930  0.4565 -0.3705
 7785SOL    HW134988   1.722   4.020   9.763 -1.0225  0.2583  1.9250
 7785SOL    HW234989   1.621   4.107   9.835  0.6281  0.3823 -0.0029
 7786SOL     OW34990   1.319   3.349  16.089 -0.0203 -0.3707  0.0644
 7786SOL    HW134991   1.268   3.269  16.072  1.4323 -0.7642 -2.3809
 7786SOL    HW234992   1.284   3.413  16.027 -0.7044 -0.0427  0.7851
 7787SOL     OW34993   1.748   3.913   0.512 -0.3968  0.1632 -0.0809
 7787SOL    HW134994   1.814   3.865   0.562 -0.8969 -0.7388 -0.2896
 7787SOL    HW234995   1.723   3.979   0.577 -2.6054 -1.0478  0.3142
 7788SOL     OW34996   1.179   0.113   7.469  0.5015 -0.4086  0.2966
 7788SOL    HW134997   1.232   0.089   7.545 -1.0176 -2.1218  0.8118
 7788SOL    HW234998   1.205   0.201   7.441  0.3490  0.4707  2.9209
 7789SOL     OW34999   0.400   1.574   7.872 -0.2119  0.4559  0.7690
 7789SOL    HW135000   0.468   1.536   7.816  0.1548  0.4375  1.2222
 7789SOL    HW235001   0.440   1.645   7.923  3.2315 -1.0531  0.1928
 7790SOL     OW35002   0.216   2.545  11.576  0.1187 -0.1657  0.4273
 7790SOL    HW135003   0.200   2.581  11.664 -1.2429  0.6728 -0.1638
 7790SOL    HW235004   0.288   2.604  11.554  3.3711 -3.5747  1.8926
 7791SOL     OW35005   2.390   3.448  14.095 -0.3560 -0.2187  0.2702
 7791SOL    HW135006   2.468   3.468  14.147  0.0190 -0.5826 -0.1533
 7791SOL    HW235007   2.373   3.358  14.125  0.1816 -0.7065 -0.8825
 7792SOL     OW35008   4.088   0.591   9.823 -0.0923  0.4402 -0.0842
 7792SOL    HW135009   4.169   0.636   9.800 -0.1003 -0.1872 -1.3509
 7792SOL    HW235010   4.086   0.530   9.749  0.5514 -0.4445  0.6375
 7793SOL     OW35011   1.509   1.263  10.835  0.4462 -0.0128  0.1114
 7793SOL    HW135012   1.477   1.322  10.902 -1.3941 -2.2017  1.1272
 7793SOL    HW235013   1.603   1.268  10.853  0.2108 -0.0461  1.2957
 7794SOL     OW35014   3.519   1.563   8.557  0.5206 -0.1586  0.0139
 7794SOL    HW135015   3.530   1.525   8.470 -0.9558  0.1189 -0.2835
 7794SOL    HW235016   3.570   1.498   8.605  1.1999  0.4807  0.1622
 7795SOL     OW35017   3.679   3.788   4.975  0.2692 -0.4009  0.1162
 7795SOL    HW135018   3.632   3.871   4.987 -0.4006 -0.7062 -0.4214
 7795SOL    HW235019   3.744   3.803   4.906 -0.8615  2.4583 -0.3505
 7796SOL     OW35020   0.828   1.346  15.749  0.5022 -0.9264  0.0769
 7796SOL    HW135021   0.753   1.347  15.690 -0.2711  1.4863  1.1217
 7796SOL    HW235022   0.794   1.292  15.821 -2.6130 -0.4124 -1.0499
 7797SOL     OW35023   2.733   3.570   6.017  0.2673 -0.1996  0.6365
 7797SOL    HW135024   2.805   3.517   5.983 -0.6861  0.2397 -2.0233
 7797SOL    HW235025   2.729   3.546   6.110  1.5868 -2.8023  0.0293
 7798SOL     OW35026   0.244   0.190   3.493 -0.1761 -0.6783 -0.1502
 7798SOL    HW135027   0.212   0.257   3.553  1.5033  0.6425 -0.7523
 7798SOL    HW235028   0.290   0.241   3.426 -0.6406  0.9983  0.8162
 7799SOL     OW35029   0.649   4.333   6.478  0.3438 -0.2118  0.3500
 7799SOL    HW135030   0.721   4.368   6.531  1.6524  1.9262 -2.7786
 7799SOL    HW235031   0.633   4.412   6.425  1.5493 -0.6957 -0.7411
 7800SOL     OW35032   0.489   0.886   7.248  0.4894 -0.2882  0.3494
 7800SOL    HW135033   0.441   0.959   7.288  1.0106  0.0920  0.2685
 7800SOL    HW235034   0.468   0.814   7.308 -0.5733 -0.2237  0.0664
 7801SOL     OW35035   0.945   2.314   7.365 -0.1911 -0.2782 -0.5918
 7801SOL    HW135036   1.034   2.280   7.370 -1.2695 -2.5144  3.8476
 7801SOL    HW235037   0.947   2.339   7.273 -0.7546 -0.5311 -0.6727
 7802SOL     OW35038   3.648   2.072   8.851  0.2291 -0.2750 -0.0638
 7802SOL    HW135039   3.585   2.102   8.917  2.1409  0.6607  1.3362
 7802SOL    HW235040   3.604   2.082   8.766  0.6759 -0.9739 -0.3696
 7803SOL     OW35041   1.781   3.206   3.140 -0.2868 -0.6449  0.2983
 7803SOL    HW135042   1.864   3.187   3.096 -1.2999 -0.0821 -1.8736
 7803SOL    HW235043   1.794   3.295   3.173  1.5113 -0.6610 -0.3812
 7804SOL     OW35044   1.973   1.434   4.470  0.4828  0.0916  0.6581
 7804SOL    HW135045   1.936   1.346   4.468 -0.1643  0.2998  3.0086
 7804SOL    HW235046   2.064   1.419   4.446  0.2117  1.0654 -1.0347
 7805SOL     OW35047   1.991   1.691   7.300  0.3305 -1.0204  0.1205
 7805SOL    HW135048   1.939   1.761   7.261 -1.0158 -1.3195  1.3816
 7805SOL    HW235049   1.968   1.702   7.392  2.5697  0.0285  0.5678
 7806SOL     OW35050   2.986   3.879   3.897  0.0800 -0.0521 -0.4939
 7806SOL    HW135051   2.915   3.935   3.929 -0.1659  0.4836 -1.9846
 7806SOL    HW235052   2.939   3.798   3.879 -0.1471  0.4647 -2.1901
 7807SOL     OW35053   1.083   4.650  11.295  0.3196 -0.2310 -0.3190
 7807SOL    HW135054   1.078   4.679  11.386  0.2344  0.1457 -0.4438
 7807SOL    HW235055   0.992   4.621  11.282  0.0628  0.3476  0.2135
 7808SOL     OW35056   3.138   4.368  13.831  0.0802 -0.8074  0.3686
 7808SOL    HW135057   3.166   4.330  13.747  0.3976 -0.3784  0.2824
 7808SOL    HW235058   3.221   4.412  13.849  0.9189 -1.9268 -0.7455
 7809SOL     OW35059   0.003   0.964   7.956 -0.2408 -0.0837  0.2296
 7809SOL    HW135060   0.091   0.925   7.956 -0.9245 -1.6222  0.2588
 7809SOL    HW235061   0.027   1.047   7.998  0.2622 -0.6016  0.9445
 7810SOL     OW35062   1.488   1.963   6.477 -0.1377  0.6186  0.2991
 7810SOL    HW135063   1.508   1.949   6.385  0.4480 -2.3593  0.8867
 7810SOL    HW235064   1.530   2.048   6.488 -0.2245  0.5453  1.2051
 7811SOL     OW35065   0.362   3.252   4.362  0.0720 -0.5228  0.3699
 7811SOL    HW135066   0.318   3.294   4.435  1.1422 -0.2552  0.8682
 7811SOL    HW235067   0.297   3.247   4.292  0.0363 -0.6231  0.4102
 7812SOL     OW35068   1.832   2.442   2.721 -0.2078  0.1202  1.0003
 7812SOL    HW135069   1.883   2.383   2.776  0.1393 -1.8920 -1.5065
 7812SOL    HW235070   1.803   2.508   2.784 -0.7283 -1.3338  2.2797
 7813SOL     OW35071   4.728   4.300   4.590 -0.3340 -0.2711 -0.2904
 7813SOL    HW135072   4.677   4.278   4.668  0.4858 -2.3132 -0.3448
 7813SOL    HW235073   4.683   4.238   4.532 -1.7788  2.2051 -1.8292
 7814SOL     OW35074   4.378   3.599   5.995 -0.5361  0.2279  0.2384
 7814SOL    HW135075   4.285   3.591   6.014 -1.2130  2.2437 -2.2642
 7814SOL    HW235076   4.401   3.509   5.971 -1.3724 -0.1646  0.8981
 7815SOL     OW35077   0.727   4.183   2.163  0.4082  0.4618  0.7179
 7815SOL    HW135078   0.672   4.160   2.239 -1.3490 -0.6251 -0.8839
 7815SOL    HW235079   0.658   4.206   2.101  1.4504 -2.0678 -1.3742
 7816SOL     OW35080   0.446   0.532   8.179 -0.5273  0.5099 -0.4086
 7816SOL    HW135081   0.507   0.545   8.252 -0.9740 -1.0125  0.2280
 7816SOL    HW235082   0.431   0.616   8.135 -1.1920 -0.5621 -2.2543
 7817SOL     OW35083   3.526   3.897   3.341  0.0310  0.1872 -0.3258
 7817SOL    HW135084   3.491   3.968   3.287 -1.3753  1.6536  2.4978
 7817SOL    HW235085   3.448   3.843   3.351  0.9772 -1.0036  0.5809
 7818SOL     OW35086   3.996   1.791   4.739 -0.0684  0.0754 -0.0157
 7818SOL    HW135087   4.003   1.792   4.834  0.5225  1.5125 -0.0901
 7818SOL    HW235088   3.924   1.853   4.730  1.8641  2.0854 -1.4192
 7819SOL     OW35089   0.867   0.951   2.141  0.2237 -0.2833  0.0036
 7819SOL    HW135090   0.802   1.021   2.139 -0.2385 -0.7611 -1.6864
 7819SOL    HW235091   0.904   0.958   2.053  1.3137  0.5085  0.5185
 7820SOL     OW35092   3.124   4.212   3.544  0.0886  0.2674  0.9356
 7820SOL    HW135093   3.192   4.158   3.582  0.4063  0.6556  0.9137
 7820SOL    HW235094   3.145   4.293   3.591 -1.8132  1.9795 -1.1513
 7821SOL     OW35095   3.305   2.624   7.715 -0.2819 -0.0235 -0.0967
 7821SOL    HW135096   3.304   2.613   7.620  1.0297  0.4885 -0.1796
 7821SOL    HW235097   3.399   2.607   7.725 -0.7480 -2.0057  0.8877
 7822SOL     OW35098   3.581   0.275   1.284 -0.0148 -0.1780  0.3919
 7822SOL    HW135099   3.589   0.201   1.223 -0.9648  1.1439 -1.3600
 7822SOL    HW235100   3.667   0.311   1.260  0.3347  0.3809  2.5336
 7823SOL     OW35101   2.035   1.889   3.231  0.2818 -0.0421 -0.0242
 7823SOL    HW135102   2.015   1.795   3.230  0.4923 -0.1203  2.1501
 7823SOL    HW235103   1.955   1.932   3.260  0.5768  0.3585  0.1969
 7824SOL     OW35104   1.656   4.164   8.227 -0.2312 -0.4602 -0.3568
 7824SOL    HW135105   1.617   4.251   8.236  2.8805  1.1200 -2.4033
 7824SOL    HW235106   1.744   4.193   8.205 -0.0142 -1.8110 -1.2939
 7825SOL     OW35107   0.097   2.534   7.403  0.3513 -0.4936  0.2771
 7825SOL    HW135108   0.107   2.596   7.475  1.1204 -0.7074  0.3560
 7825SOL    HW235109   0.005   2.511   7.410  0.2607  0.0985  0.9653
 7826SOL     OW35110   1.828   1.230   6.421 -0.1316 -0.4197  0.3238
 7826SOL    HW135111   1.871   1.197   6.342 -1.6921 -1.0735 -0.2428
 7826SOL    HW235112   1.740   1.193   6.423 -0.8623  1.4536  3.7984
 7827SOL     OW35113   0.565   4.643  16.597  0.1886  0.4816 -0.0766
 7827SOL    HW135114   0.605   4.556  16.595 -0.1621  0.3628 -1.7133
 7827SOL    HW235115   0.479   4.634  16.638  0.1175  0.2975 -0.2628
 7828SOL     OW35116   2.238   0.689   2.145 -0.0064  0.1214 -0.4231
 7828SOL    HW135117   2.303   0.729   2.202  0.9320 -0.5431 -1.0171
 7828SOL    HW235118   2.171   0.651   2.202  0.0893 -0.9423 -1.0061
 7829SOL     OW35119   3.962   0.000   5.172 -0.2229  0.0167 -0.8631
 7829SOL    HW135120   3.954   4.657   5.122  1.0095  0.6489 -2.0794
 7829SOL    HW235121   3.986   4.709   5.260 -0.0059 -1.6564 -1.4607
 7830SOL     OW35122   1.174   0.963   5.982 -0.1854  0.2169  0.0160
 7830SOL    HW135123   1.263   0.979   5.949  0.0354  1.1552  1.0966
 7830SOL    HW235124   1.154   1.056   5.987 -0.9191  0.0407  0.2129
 7831SOL     OW35125   2.994   1.802   7.554 -0.1813 -0.1128  0.1396
 7831SOL    HW135126   2.919   1.841   7.508  0.0146  1.3854  1.0775
 7831SOL    HW235127   3.011   1.730   7.493 -0.1790 -0.4456  0.5392
 7832SOL     OW35128   2.619   4.664   1.084 -0.2382 -0.6246 -0.0146
 7832SOL    HW135129   2.614   4.665   1.179  1.5535 -1.2246  0.0897
 7832SOL    HW235130   2.532   4.699   1.064 -0.7079 -0.4819  2.2919
 7833SOL     OW35131   0.390   1.321   4.713 -0.5231  0.2187  0.5092
 7833SOL    HW135132   0.364   1.413   4.704  2.7932  1.2162  0.8895
 7833SOL    HW235133   0.453   1.323   4.785  0.1350 -1.8907 -0.0211
 7834SOL     OW35134   1.774   3.754   6.120  0.1819  0.0815 -0.2254
 7834SOL    HW135135   1.804   3.841   6.096  4.1971 -0.4199  2.8995
 7834SOL    HW235136   1.811   3.697   6.053 -0.9930 -2.0729  0.9622
 7835SOL     OW35137   3.323   3.379  15.255 -0.3706 -0.0759 -0.2106
 7835SOL    HW135138   3.372   3.308  15.296 -0.5525  0.0247  0.1749
 7835SOL    HW235139   3.276   3.331  15.186 -3.4073 -0.1484  1.9287
 7836SOL     OW35140   3.062   3.607   5.955 -0.3766  0.2888 -0.1426
 7836SOL    HW135141   3.009   3.678   5.917  0.5624  1.4753  0.7521
 7836SOL    HW235142   3.009   3.531   5.931  0.2770 -0.1832 -0.0957
 7837SOL     OW35143   0.681   0.010  14.786  0.3497  0.1151 -0.2039
 7837SOL    HW135144   0.693   0.100  14.755  0.0620 -0.1153 -0.9757
 7837SOL    HW235145   0.755   4.702  14.747 -0.3642 -0.1607 -1.2376
 7838SOL     OW35146   1.301   3.124   4.012 -0.0425 -0.2665 -0.8821
 7838SOL    HW135147   1.313   3.149   3.921  0.8722 -0.1656 -0.7336
 7838SOL    HW235148   1.393   3.110   4.032 -0.9312 -3.1550  1.1082
 7839SOL     OW35149   0.856   1.911   0.400 -0.3511 -0.1984 -0.2922
 7839SOL    HW135150   0.895   1.856   0.331 -0.1442 -0.6018  0.1470
 7839SOL    HW235151   0.907   1.992   0.392  0.3169 -0.6773 -0.9496
 7840SOL     OW35152   3.566   4.472  10.374  0.1118  0.1687 -0.6505
 7840SOL    HW135153   3.651   4.513  10.360 -0.1477  0.7802 -0.4184
 7840SOL    HW235154   3.568   4.460  10.469  0.0547  1.2893 -0.5057
 7841SOL     OW35155   3.725   4.475  11.498 -0.1889 -0.4876  0.0850
 7841SOL    HW135156   3.675   4.535  11.553 -0.4371 -0.6240  0.0068
 7841SOL    HW235157   3.766   4.536  11.437  1.3939 -1.2408  0.3907
 7842SOL     OW35158   1.917   0.093  17.091 -0.4916 -0.1383  0.4842
 7842SOL    HW135159   1.901   0.028  17.022  0.2339  1.0660 -0.8410
 7842SOL    HW235160   1.885   0.175  17.053  1.4078  0.2300 -0.3342
 7843SOL     OW35161   2.846   4.397   6.819  0.5664  0.3172 -0.2269
 7843SOL    HW135162   2.786   4.330   6.852 -0.0391  1.1648  0.3891
 7843SOL    HW235163   2.841   4.394   6.723 -2.0599  0.1453 -0.0875
 7844SOL     OW35164   2.823   3.755   8.153 -0.0063  0.8837  0.0475
 7844SOL    HW135165   2.759   3.686   8.139 -0.3021  0.7699  1.9657
 7844SOL    HW235166   2.770   3.834   8.146  0.7231  1.4358  0.7049
 7845SOL     OW35167   2.419   1.101   1.711  0.5625  0.1356 -0.7854
 7845SOL    HW135168   2.366   1.130   1.786  1.1326 -1.5208  0.2548
 7845SOL    HW235169   2.507   1.123   1.741  0.2969  0.8678 -0.5304
 7846SOL     OW35170   1.780   1.251   2.170  0.3136 -0.6769 -0.2233
 7846SOL    HW135171   1.798   1.308   2.244 -2.5118  0.0830 -0.1309
 7846SOL    HW235172   1.693   1.280   2.141 -0.5305  0.3893  3.3751
 7847SOL     OW35173   2.656   3.810  12.117 -0.6944  0.4316  0.3811
 7847SOL    HW135174   2.658   3.825  12.022 -1.0218 -3.3195 -0.2143
 7847SOL    HW235175   2.665   3.901  12.144  0.1595 -0.1350  2.0056
 7848SOL     OW35176   0.512   1.813   5.931  0.1444 -0.5267 -0.1021
 7848SOL    HW135177   0.510   1.889   5.989  1.4782 -0.0031 -0.7452
 7848SOL    HW235178   0.559   1.863   5.864 -0.1319  2.1336  1.6645
 7849SOL     OW35179   2.334   3.198  14.175 -0.0157 -0.6582  0.2744
 7849SOL    HW135180   2.336   3.152  14.091  2.0797  0.6815 -0.4038
 7849SOL    HW235181   2.281   3.132  14.218 -2.3178 -0.0824 -1.6597
 7850SOL     OW35182   0.955   2.846   1.685 -0.1550 -0.2588 -0.1207
 7850SOL    HW135183   0.867   2.869   1.714  0.5053  2.0932  0.0716
 7850SOL    HW235184   1.014   2.916   1.711 -1.1056 -0.1158  1.6025
 7851SOL     OW35185   2.127   1.594  14.664 -0.0119  0.5347  0.6319
 7851SOL    HW135186   2.121   1.501  14.685  0.7975  0.5724  1.0501
 7851SOL    HW235187   2.083   1.592  14.579 -1.6195  0.4262  1.4568
 7852SOL     OW35188   4.135   4.146  15.669  0.1086  0.2275  0.4171
 7852SOL    HW135189   4.181   4.185  15.743 -0.2295  2.1794 -0.4134
 7852SOL    HW235190   4.042   4.161  15.685 -0.1448 -0.8847 -0.0029
 7853SOL     OW35191   2.623   4.306   8.462 -0.5012 -0.1758  0.5179
 7853SOL    HW135192   2.603   4.370   8.393  1.1587  2.6127  2.5880
 7853SOL    HW235193   2.597   4.221   8.427  0.2616 -0.0084 -0.4410
 7854SOL     OW35194   2.972   4.449  15.114  0.4668  0.2000  0.3170
 7854SOL    HW135195   2.901   4.392  15.143 -0.3173  0.2545 -1.5657
 7854SOL    HW235196   2.922   4.530  15.113 -0.6664 -0.4812  1.3052
 7855SOL     OW35197   4.487   3.825   2.429  0.0683 -0.1005  0.1515
 7855SOL    HW135198   4.402   3.871   2.428 -0.2132 -0.6762 -1.2392
 7855SOL    HW235199   4.538   3.890   2.478 -0.3707 -0.7147  1.4471
 7856SOL     OW35200   0.068   0.048   4.718 -0.4371  0.1843  0.3729
 7856SOL    HW135201   0.160   0.031   4.739 -0.8417  0.8552  2.7022
 7856SOL    HW235202   0.058   4.712   4.656 -0.2312 -0.3010  0.9109
 7857SOL     OW35203   3.701   4.293  14.793 -0.0981 -0.1796 -0.2936
 7857SOL    HW135204   3.720   4.361  14.857 -2.4893  1.1990 -1.0684
 7857SOL    HW235205   3.612   4.316  14.769  0.3891  1.1328 -0.8261
 7858SOL     OW35206   2.897   3.581   0.973 -0.3206 -0.4257 -0.6774
 7858SOL    HW135207   2.860   3.652   1.025 -2.1090 -0.5055 -1.8256
 7858SOL    HW235208   2.814   3.574   0.924 -0.2359 -0.5914 -0.7974
 7859SOL     OW35209   1.572   1.484   2.738 -0.5212  0.1061 -0.1718
 7859SOL    HW135210   1.591   1.402   2.693  0.2603 -0.9315  2.1008
 7859SOL    HW235211   1.522   1.535   2.674  1.0286  1.1850 -0.5382
 7860SOL     OW35212   0.020   1.723   3.115  0.0396 -0.0303 -0.0100
 7860SOL    HW135213   4.706   1.670   3.055  0.4619  0.4459 -0.7928
 7860SOL    HW235214   0.094   1.662   3.113 -0.1571 -0.3010  0.9646
 7861SOL     OW35215   2.205   1.696   5.827  0.4306  0.2419  0.1990
 7861SOL    HW135216   2.234   1.627   5.887 -4.0419 -0.8726  1.0509
 7861SOL    HW235217   2.232   1.779   5.868  1.0298 -0.5649  1.4497
 7862SOL     OW35218   4.362   2.519  15.980 -0.1998 -0.8168  0.6381
 7862SOL    HW135219   4.373   2.425  15.996  0.0448 -0.9179 -0.1438
 7862SOL    HW235220   4.450   2.535  15.946 -0.7058 -0.4795 -0.4920
 7863SOL     OW35221   3.985   4.493   6.241  0.1494 -0.3206 -0.0737
 7863SOL    HW135222   4.046   4.510   6.169 -1.2004 -0.5876 -1.2785
 7863SOL    HW235223   4.040   4.446   6.303  1.7369 -2.3070 -2.9523
 7864SOL     OW35224   2.728   0.816   7.523 -0.0206  0.1238  0.2806
 7864SOL    HW135225   2.727   0.846   7.432  2.2496  1.5377  0.7077
 7864SOL    HW235226   2.639   0.782   7.533  0.1513 -0.7366 -1.1736
 7865SOL     OW35227   1.693   2.435   9.509  0.3924 -0.2667  0.5308
 7865SOL    HW135228   1.726   2.347   9.493  0.8805  0.0282 -0.1115
 7865SOL    HW235229   1.682   2.428   9.603 -3.7590 -0.7573  0.0164
 7866SOL     OW35230   1.747   2.905  17.439 -0.0812 -0.0361  0.6825
 7866SOL    HW135231   1.768   2.947  17.522  1.0647 -1.7552  1.2623
 7866SOL    HW235232   1.752   2.812  17.462 -3.3671 -0.1987  0.7944
 7867SOL     OW35233   0.283   3.431  10.867 -0.0823 -0.1504 -0.4238
 7867SOL    HW135234   0.302   3.480  10.947 -1.5068  1.6627 -1.1734
 7867SOL    HW235235   0.327   3.495  10.811  1.6476 -1.3720 -0.4366
 7868SOL     OW35236   0.231   4.494   6.655  0.1626  0.6511  0.7646
 7868SOL    HW135237   0.313   4.541   6.640  0.1860  0.1500 -0.6695
 7868SOL    HW235238   0.266   4.454   6.735  4.2502  0.5920 -1.0685
 7869SOL     OW35239   1.678   1.326   1.243  0.4466 -0.5031 -0.1277
 7869SOL    HW135240   1.739   1.262   1.206  0.9636 -0.9420  1.4728
 7869SOL    HW235241   1.727   1.347   1.323  0.7885  0.2427 -0.5343
 7870SOL     OW35242   3.415   3.197  11.897 -0.3884 -0.4739 -0.3821
 7870SOL    HW135243   3.408   3.106  11.870 -0.7189 -0.3648 -0.6601
 7870SOL    HW235244   3.329   3.230  11.922 -0.1456 -0.9252  1.0857
 7871SOL     OW35245   4.054   1.521   8.865  0.0382 -0.0584 -0.4356
 7871SOL    HW135246   4.049   1.616   8.873 -0.7900 -0.2184  0.9622
 7871SOL    HW235247   3.991   1.513   8.792 -0.9362  1.3207  0.2647
 7872SOL     OW35248   2.899   3.374   7.255 -0.4586  0.4180  0.0337
 7872SOL    HW135249   2.889   3.293   7.204 -1.9279  0.1366  0.7743
 7872SOL    HW235250   2.813   3.414   7.244 -1.3311 -2.1608 -2.5636
 7873SOL     OW35251   1.959   3.200   9.254 -0.0452  0.2970 -0.6704
 7873SOL    HW135252   2.031   3.165   9.307 -1.6468 -0.8247  0.7266
 7873SOL    HW235253   1.880   3.167   9.296  0.9402  0.9567  1.6631
 7874SOL     OW35254   2.695   4.613  13.950 -0.0785 -0.4444  0.6520
 7874SOL    HW135255   2.743   4.561  13.885 -1.4601 -1.1418  0.1843
 7874SOL    HW235256   2.760   4.674  13.986 -2.9339  2.6369  0.5224
 7875SOL     OW35257   2.946   1.534  13.985 -0.4776  0.0001  0.1313
 7875SOL    HW135258   3.010   1.484  14.035  1.0669  0.4384 -1.4279
 7875SOL    HW235259   2.898   1.592  14.045 -0.8353 -0.4131  0.2447
 7876SOL     OW35260   0.740   4.174   3.484  0.0049  0.0413  0.3947
 7876SOL    HW135261   0.716   4.165   3.576  0.2377  0.5219  0.5001
 7876SOL    HW235262   0.667   4.232   3.465 -1.0335 -1.2525  0.4259
 7877SOL     OW35263   2.437   2.408   8.671 -0.1576 -0.1883  0.4096
 7877SOL    HW135264   2.471   2.497   8.685 -0.3306  0.1115 -1.0397
 7877SOL    HW235265   2.514   2.362   8.703  0.3447 -0.9956 -1.9285
 7878SOL     OW35266   2.096   3.677   5.159  0.5739 -0.6649  0.1626
 7878SOL    HW135267   2.182   3.687   5.199 -0.3843 -1.3579  2.3621
 7878SOL    HW235268   2.037   3.742   5.195  0.5631 -1.0898  0.9094
 7879SOL     OW35269   4.721   0.700   2.657 -0.2826  0.1452  0.2579
 7879SOL    HW135270   0.010   0.789   2.678 -0.8940  0.6015 -0.9469
 7879SOL    HW235271   4.638   0.718   2.614 -0.7315  2.1267  1.9631
 7880SOL     OW35272   4.533   0.675   9.129 -0.5665 -0.3695  0.1038
 7880SOL    HW135273   4.537   0.711   9.040 -0.3803 -0.4962  0.0607
 7880SOL    HW235274   4.598   0.729   9.174 -1.1772  0.5092 -0.0698
 7881SOL     OW35275   1.657   4.307   7.573 -0.2310  0.1574  0.8040
 7881SOL    HW135276   1.694   4.221   7.594  0.4531  0.3082  0.2288
 7881SOL    HW235277   1.593   4.308   7.643 -0.3057 -0.5349  0.7449
 7882SOL     OW35278   2.829   2.767   3.613  0.2539  0.4835  0.3554
 7882SOL    HW135279   2.886   2.794   3.686  0.3229 -0.3794  0.6267
 7882SOL    HW235280   2.820   2.672   3.621  0.0487  0.5098  0.4238
 7883SOL     OW35281   3.942   4.269   4.435  0.1651 -0.1581  0.2995
 7883SOL    HW135282   3.989   4.334   4.487  0.3317  0.4423 -0.5843
 7883SOL    HW235283   3.850   4.278   4.457  0.3109  0.5873  0.5892
 7884SOL     OW35284   0.893   1.878   5.949  0.0732 -0.2652 -0.3876
 7884SOL    HW135285   0.836   1.933   5.895  1.1437  3.0522  1.8780
 7884SOL    HW235286   0.881   1.788   5.917  0.6870  0.1338 -1.7556
 7885SOL     OW35287   3.239   3.814   2.882 -0.0140  0.3380 -0.5761
 7885SOL    HW135288   3.170   3.754   2.854 -0.8189  1.1195 -0.2474
 7885SOL    HW235289   3.302   3.814   2.810 -0.6567  1.7969 -1.1376
 7886SOL     OW35290   2.096   0.203   3.012  0.6178 -0.0568  0.2738
 7886SOL    HW135291   2.002   0.217   3.025  1.1074  0.3226  3.4841
 7886SOL    HW235292   2.134   0.207   3.100 -0.6989  3.1481  0.6602
 7887SOL     OW35293   0.731   2.108   2.562 -0.6730  0.2135 -0.0501
 7887SOL    HW135294   0.749   2.166   2.488  1.7598 -0.2192  0.2030
 7887SOL    HW235295   0.737   2.028   2.510  1.8713  0.3511  0.0495
 7888SOL     OW35296   4.209   1.342  11.635 -0.7870 -0.1717 -0.5004
 7888SOL    HW135297   4.129   1.388  11.658 -0.5588 -0.3275  0.5900
 7888SOL    HW235298   4.263   1.408  11.591 -1.5636  0.8572  0.0989
 7889SOL     OW35299   3.311   2.174  10.166 -0.4101 -0.4660  0.1139
 7889SOL    HW135300   3.265   2.124  10.099  1.4351 -1.4835 -0.3746
 7889SOL    HW235301   3.249   2.244  10.185  1.1774  0.6898  1.0141
 7890SOL     OW35302   0.148   3.328   8.813  0.0735 -0.8202  1.0768
 7890SOL    HW135303   0.113   3.411   8.845  0.0602 -0.1895 -0.5821
 7890SOL    HW235304   0.240   3.335   8.834  0.1886  0.1990  0.2302
 7891SOL     OW35305   0.683   3.930   1.154 -0.3977  0.5979  0.0681
 7891SOL    HW135306   0.764   3.879   1.161 -2.0236 -2.0974 -1.2773
 7891SOL    HW235307   0.673   3.930   1.059  0.6218  1.9844 -0.0467
 7892SOL     OW35308   4.340   1.810   4.136  0.3496 -0.0779  0.1486
 7892SOL    HW135309   4.435   1.800   4.143  0.2266 -1.8268 -0.7598
 7892SOL    HW235310   4.339   1.880   4.202  1.0829 -2.2983  2.4961
 7893SOL     OW35311   0.318   2.092  12.446  0.0370 -0.6128 -0.1853
 7893SOL    HW135312   0.327   2.184  12.468  3.0580 -2.1966  5.0743
 7893SOL    HW235313   0.330   2.104  12.352 -1.7934  0.0209 -0.3337
 7894SOL     OW35314   0.290   1.950   8.801  0.3051 -0.1168 -0.7804
 7894SOL    HW135315   0.209   1.919   8.760  0.0548  1.8306 -1.7723
 7894SOL    HW235316   0.345   1.951   8.722 -1.1803 -2.1689 -1.8429
 7895SOL     OW35317   2.980   3.979   8.399  0.4344 -0.3611  0.2791
 7895SOL    HW135318   3.020   3.945   8.479 -1.7027 -2.1733  0.5709
 7895SOL    HW235319   2.893   3.940   8.404  0.9920 -2.0464 -2.5599
 7896SOL     OW35320   4.062   3.679   4.579 -0.4809  0.1112  0.1289
 7896SOL    HW135321   4.106   3.718   4.655  0.9342 -3.4614  1.1416
 7896SOL    HW235322   4.117   3.604   4.556  0.0457  0.8047 -0.8656
 7897SOL     OW35323   2.200   0.743   8.697 -0.1955  0.6195 -0.2461
 7897SOL    HW135324   2.108   0.770   8.699  0.2217  1.9391  0.9325
 7897SOL    HW235325   2.216   0.699   8.614  0.5592  2.7239 -1.2020
 7898SOL     OW35326   2.561   3.656   1.368  0.0962  0.8174 -0.0499
 7898SOL    HW135327   2.541   3.738   1.323  1.4020  1.7541  1.0791
 7898SOL    HW235328   2.581   3.596   1.296 -1.1404  0.1133  0.1942
 7899SOL     OW35329   2.820   1.812   5.284  0.1979  0.1598  0.3170
 7899SOL    HW135330   2.878   1.750   5.241 -0.0443  0.8665 -1.0386
 7899SOL    HW235331   2.826   1.784   5.376  1.3973  1.3629  0.6136
 7900SOL     OW35332   3.667   2.528   4.767 -0.0672 -0.2906  0.0210
 7900SOL    HW135333   3.751   2.572   4.781 -0.0772 -0.7038  1.3139
 7900SOL    HW235334   3.703   2.439   4.766  1.6936  0.4224 -1.3554
 7901SOL     OW35335   1.903   2.591   6.071  0.6980  0.7445 -0.6725
 7901SOL    HW135336   1.856   2.640   6.138  0.5263  0.3896 -0.5390
 7901SOL    HW235337   1.976   2.562   6.125  0.4582  0.4428 -0.5119
 7902SOL     OW35338   2.455   4.273   6.061 -0.0590  0.0934  0.3273
 7902SOL    HW135339   2.513   4.205   6.096  0.1577  1.1263  1.9833
 7902SOL    HW235340   2.510   4.349   6.080 -1.0723  1.5820 -2.6710
 7903SOL     OW35341   1.500   3.668   5.991  0.0114  0.1772  0.3514
 7903SOL    HW135342   1.574   3.686   6.049  1.7960 -0.4879 -1.7116
 7903SOL    HW235343   1.476   3.758   5.973  3.2774  0.8986 -0.4342
 7904SOL     OW35344   0.482   2.822   3.336  0.0735 -0.1676  0.3233
 7904SOL    HW135345   0.473   2.778   3.251 -0.2086  2.4140 -0.9750
 7904SOL    HW235346   0.394   2.801   3.367 -0.3065 -2.5986 -2.3987
 7905SOL     OW35347   0.713   4.522   5.106  0.1471  0.0795 -0.6810
 7905SOL    HW135348   0.807   4.534   5.118  0.1111 -0.8695  0.5758
 7905SOL    HW235349   0.712   4.512   5.011  1.3871  2.1802 -0.9053
 7906SOL     OW35350   2.879   4.175  10.972  0.1462 -0.2408  0.0592
 7906SOL    HW135351   2.829   4.207  10.896  0.8983  0.2551 -0.2352
 7906SOL    HW235352   2.919   4.250  11.017  0.9307 -0.1236 -0.8201
 7907SOL     OW35353   3.850   1.601   2.053  0.2560  0.6977  0.5406
 7907SOL    HW135354   3.780   1.655   2.090  0.6008 -0.0309  2.2641
 7907SOL    HW235355   3.904   1.670   2.014 -1.8015  0.9977 -1.7865
 7908SOL     OW35356   3.330   2.041   6.425  0.2073  0.1451  0.2933
 7908SOL    HW135357   3.391   2.091   6.370 -0.7838  0.9291 -0.0873
 7908SOL    HW235358   3.332   1.957   6.378  1.7091  1.4027 -1.8868
 7909SOL     OW35359   1.506   2.708   6.158  0.4977  0.3267  0.4824
 7909SOL    HW135360   1.463   2.722   6.242 -0.9750  0.8750 -0.3525
 7909SOL    HW235361   1.443   2.734   6.090 -1.6842  1.1841  2.8306
 7910SOL     OW35362   4.006   1.488   1.841 -0.5320  0.7155 -0.7334
 7910SOL    HW135363   3.940   1.476   1.909  0.5624  1.1239  0.4061
 7910SOL    HW235364   4.082   1.443   1.879 -0.8825 -0.7901 -1.8103
 7911SOL     OW35365   4.131   0.864   5.594  0.5930 -0.0862  0.0063
 7911SOL    HW135366   4.094   0.904   5.515 -0.1237 -2.5155 -0.9105
 7911SOL    HW235367   4.057   0.841   5.650  0.4556  1.7800  0.5949
 7912SOL     OW35368   2.148   0.209   7.106 -0.7419 -0.3938 -0.6318
 7912SOL    HW135369   2.135   0.256   7.189 -0.2004 -2.7439  0.7868
 7912SOL    HW235370   2.077   0.239   7.049 -1.0920  0.0950  0.0611
 7913SOL     OW35371   3.396   3.036   0.090  0.3058 -0.1632  0.1582
 7913SOL    HW135372   3.420   3.086   0.012 -1.1613  0.2359 -0.0221
 7913SOL    HW235373   3.321   2.988   0.055  1.0000  0.2759 -1.9209
 7914SOL     OW35374   3.627   4.594   5.828 -0.5680 -0.4728 -0.7323
 7914SOL    HW135375   3.601   4.686   5.821  0.1407 -0.2984 -1.0347
 7914SOL    HW235376   3.716   4.595   5.793  0.4023  1.5642  1.7337
 7915SOL     OW35377   2.282   2.326  16.146  0.1077 -0.6767  0.3064
 7915SOL    HW135378   2.338   2.291  16.076 -2.0495  1.0682 -2.3192
 7915SOL    HW235379   2.307   2.417  16.160  0.7335 -0.9231  0.7927
 7916SOL     OW35380   1.026   1.889   2.769  0.3004  0.0821  0.2987
 7916SOL    HW135381   0.978   1.807   2.774  0.5506  0.0165  1.6230
 7916SOL    HW235382   1.066   1.884   2.856  1.3373  1.9087 -0.0693
 7917SOL     OW35383   0.750   3.028   3.155 -0.2116 -0.0349 -0.3198
 7917SOL    HW135384   0.820   3.023   3.090  0.9550 -2.4136  1.0969
 7917SOL    HW235385   0.711   2.941   3.165 -2.5385  1.1314  0.8744
 7918SOL     OW35386   2.928   2.085   0.857 -0.6710 -0.0115 -0.2265
 7918SOL    HW135387   2.987   2.120   0.924 -1.8904 -0.4004  1.0579
 7918SOL    HW235388   2.979   2.004   0.846  0.5786  0.9508 -1.4429
 7919SOL     OW35389   0.679   0.241   4.746  0.5019 -0.0599  0.3335
 7919SOL    HW135390   0.719   0.250   4.660 -1.3165  0.4203 -0.4725
 7919SOL    HW235391   0.608   0.183   4.717  0.7629 -0.2693  0.1214
 7920SOL     OW35392   1.162   1.439   5.529 -0.1000 -0.3122 -0.1781
 7920SOL    HW135393   1.251   1.409   5.512 -0.4884 -1.0101 -1.0245
 7920SOL    HW235394   1.174   1.514   5.470 -1.8095  1.2602  1.4835
 7921SOL     OW35395   0.363   1.542   9.492 -0.4711  0.0146 -0.1881
 7921SOL    HW135396   0.295   1.541   9.560 -0.6628  0.9443 -0.3648
 7921SOL    HW235397   0.317   1.610   9.442  1.4139  0.8777 -0.7693
 7922SOL     OW35398   3.465   2.404   1.146  0.7724  0.2547 -0.2422
 7922SOL    HW135399   3.494   2.336   1.085 -1.1752 -1.0104  0.2490
 7922SOL    HW235400   3.479   2.360   1.230  0.4533  0.6267  0.0003
 7923SOL     OW35401   4.180   3.964   8.893 -0.1318  0.0350 -0.1924
 7923SOL    HW135402   4.085   3.959   8.885 -0.1123  0.7124 -0.9079
 7923SOL    HW235403   4.210   3.984   8.804  1.6044 -0.5309  0.2705
 7924SOL     OW35404   3.323   2.828   6.972 -0.1328 -0.2765  0.0232
 7924SOL    HW135405   3.388   2.864   7.032 -0.4224  0.5429 -0.1515
 7924SOL    HW235406   3.243   2.843   7.024 -0.3138  0.3983 -0.4409
 7925SOL     OW35407   2.024   3.195   8.130  0.3684 -0.3310  0.4162
 7925SOL    HW135408   2.034   3.287   8.152  0.3309  0.3347 -2.3939
 7925SOL    HW235409   1.973   3.202   8.050  1.5752 -0.7506 -0.4033
 7926SOL     OW35410   2.665   3.438   1.533 -0.0410 -0.1494 -0.0272
 7926SOL    HW135411   2.686   3.518   1.485  2.0604  0.3383  1.6815
 7926SOL    HW235412   2.667   3.366   1.471  0.7971  0.5898 -0.8640
 7927SOL     OW35413   0.550   3.390  11.091  0.3425 -0.0656 -0.1411
 7927SOL    HW135414   0.602   3.425  11.019 -0.6998 -0.5591 -1.1315
 7927SOL    HW235415   0.544   3.467  11.148  0.7080  1.3810 -2.0612
 7928SOL     OW35416   2.323   2.599   8.419 -0.1546 -0.0456 -0.5914
 7928SOL    HW135417   2.363   2.512   8.422 -2.4170 -1.0658  0.3472
 7928SOL    HW235418   2.264   2.597   8.344  0.5044  2.2073 -1.1718
 7929SOL     OW35419   0.961   3.909   1.342 -0.5797 -0.0646 -0.0010
 7929SOL    HW135420   0.985   3.858   1.265  0.6648  2.3936 -1.2644
 7929SOL    HW235421   1.035   3.888   1.399 -1.1476  0.5083  0.9553
 7930SOL     OW35422   1.556   1.121   1.954 -0.2456  0.1429 -0.0560
 7930SOL    HW135423   1.580   1.194   1.897 -1.7497  0.8763  0.2457
 7930SOL    HW235424   1.504   1.173   2.016 -0.2010 -1.4265  1.2877
 7931SOL     OW35425   1.639   4.114   5.097  0.8391  0.3064  0.2537
 7931SOL    HW135426   1.585   4.063   5.037 -0.2487  1.3208  0.3700
 7931SOL    HW235427   1.682   4.175   5.037  1.4875 -2.6184 -2.2271
 7932SOL     OW35428   3.396   1.052   8.377 -0.3986 -0.1627  0.7038
 7932SOL    HW135429   3.404   0.957   8.372 -1.8381 -0.2742  0.5273
 7932SOL    HW235430   3.313   1.058   8.425 -1.8412  0.3435 -1.8191
 7933SOL     OW35431   2.430   1.460  17.458 -0.1752 -0.1321  0.4011
 7933SOL    HW135432   2.359   1.396  17.463 -0.1306 -0.2664 -0.6641
 7933SOL    HW235433   2.447   1.467  17.364  0.4521 -0.9864  0.4436
 7934SOL     OW35434   3.964   3.648  14.902 -0.5104 -0.5982 -0.5146
 7934SOL    HW135435   3.900   3.577  14.910 -1.5476  0.5954  1.5752
 7934SOL    HW235436   3.970   3.676  14.993  0.2660  0.4582 -0.8894
 7935SOL     OW35437   3.327   3.911   8.469  0.4543 -0.0768  0.0261
 7935SOL    HW135438   3.245   3.900   8.518 -0.5529  1.1628 -1.3764
 7935SOL    HW235439   3.311   3.841   8.405  3.9340 -0.2090 -0.7162
 7936SOL     OW35440   1.471   2.806  10.380 -0.7882 -0.0866 -0.4350
 7936SOL    HW135441   1.523   2.768  10.309  0.9731 -0.0157  0.8208
 7936SOL    HW235442   1.468   2.893  10.341 -1.0439  0.0442 -0.1170
 7937SOL     OW35443   2.824   2.273   8.148  0.3075 -0.1440 -0.3729
 7937SOL    HW135444   2.881   2.304   8.078 -0.2357 -0.7690 -1.0807
 7937SOL    HW235445   2.848   2.332   8.220 -0.9609  0.7692 -0.7073
 7938SOL     OW35446   4.175   4.425   5.805 -0.3320 -0.1312 -0.5619
 7938SOL    HW135447   4.184   4.377   5.722  0.5346  0.0623 -0.5776
 7938SOL    HW235448   4.249   4.387   5.852 -0.5600  3.7505  2.9475
 7939SOL     OW35449   0.623   3.328   6.518 -0.6464 -0.2081 -0.0113
 7939SOL    HW135450   0.615   3.419   6.546 -0.3516 -0.1770 -0.0331
 7939SOL    HW235451   0.584   3.277   6.589  0.3249 -1.1273 -0.1422
 7940SOL     OW35452   2.737   0.203   1.537  0.1934  0.5513  0.4332
 7940SOL    HW135453   2.696   0.117   1.552  1.5136 -0.0415  0.6347
 7940SOL    HW235454   2.657   0.247   1.509 -0.3464 -0.0426  1.0456
 7941SOL     OW35455   3.753   0.813   3.968  0.7004 -0.3871  0.0042
 7941SOL    HW135456   3.769   0.762   3.889  1.0363  0.2217 -0.3155
 7941SOL    HW235457   3.832   0.808   4.021 -0.3619 -1.3595  1.5121
 7942SOL     OW35458   3.570   3.607   6.957 -0.2639  0.9004  0.7086
 7942SOL    HW135459   3.576   3.682   7.016  2.1010  0.7314  0.7011
 7942SOL    HW235460   3.479   3.586   6.977 -0.1122  0.8607  1.3837
 7943SOL     OW35461   3.138   1.880   5.533  0.4131  0.5190 -0.1450
 7943SOL    HW135462   3.193   1.870   5.610  1.1289 -1.8867 -0.9526
 7943SOL    HW235463   3.119   1.788   5.513 -1.1653  1.3355 -2.4775
 7944SOL     OW35464   0.257   3.132   3.154  0.5369  0.2801  0.2162
 7944SOL    HW135465   0.276   3.178   3.236  0.0289 -1.9661  1.5757
 7944SOL    HW235466   0.221   3.048   3.181 -1.9414  0.3477 -2.8628
 7945SOL     OW35467   3.848   3.249   9.849 -0.2912  0.0331  0.5045
 7945SOL    HW135468   3.815   3.228   9.937 -1.6834 -2.3727 -0.5925
 7945SOL    HW235469   3.938   3.255   9.881 -0.5829  2.9901  0.7172
 7946SOL     OW35470   0.598   3.598  17.080 -0.3296 -0.3258 -0.0953
 7946SOL    HW135471   0.611   3.673  17.021 -0.3342 -0.5383 -0.3662
 7946SOL    HW235472   0.568   3.536  17.014 -1.6344  0.1444  0.0582
 7947SOL     OW35473   2.407   3.777   1.077  0.2055 -0.2578 -0.1564
 7947SOL    HW135474   2.425   3.694   1.032  1.2119 -0.9778  1.6027
 7947SOL    HW235475   2.400   3.831   0.998  0.8990  0.7856  0.5063
 7948SOL     OW35476   4.559   0.316  14.317  0.0085  0.1594 -0.0508
 7948SOL    HW135477   4.472   0.350  14.339 -0.0807 -0.0819 -0.0332
 7948SOL    HW235478   4.582   0.289  14.406  2.9823  1.7615 -0.3202
 7949SOL     OW35479   2.964   1.344  13.044 -0.4607 -0.6567  0.0407
 7949SOL    HW135480   3.021   1.342  13.121  0.9312  1.2451 -0.9301
 7949SOL    HW235481   2.887   1.392  13.078  0.3579  0.0135  0.9521
 7950SOL     OW35482   1.427   2.477  12.789 -0.0472  0.7661 -0.2705
 7950SOL    HW135483   1.334   2.486  12.768 -0.4865 -2.1262  0.5393
 7950SOL    HW235484   1.447   2.422  12.713  0.4212 -0.7016  0.9076
 7951SOL     OW35485   3.871   1.028   7.147  0.0507 -0.3423  0.2616
 7951SOL    HW135486   3.809   1.068   7.208  1.3782  1.7579  0.2191
 7951SOL    HW235487   3.810   1.022   7.073  0.2419  0.0194  0.0739
 7952SOL     OW35488   3.725   4.509   1.864 -0.1110 -0.3722 -0.1970
 7952SOL    HW135489   3.641   4.478   1.897  0.4006 -1.2731  0.2611
 7952SOL    HW235490   3.761   4.454   1.795  0.2582  1.3728 -1.4128
 7953SOL     OW35491   2.026   0.851   0.669 -0.2326  0.4408 -0.6043
 7953SOL    HW135492   2.099   0.901   0.707 -0.7339  1.1214 -0.5273
 7953SOL    HW235493   2.001   0.806   0.749  2.1623  0.8799  0.4143
 7954SOL     OW35494   0.160   4.406   8.028  0.5811  0.2407  0.2556
 7954SOL    HW135495   0.156   4.334   7.965  1.6545 -0.9525  1.5694
 7954SOL    HW235496   0.079   4.454   8.008  0.4071  0.2487  0.9975
 7955SOL     OW35497   4.027   0.324   7.948  0.1494  0.4634 -0.0496
 7955SOL    HW135498   4.062   0.257   7.890  1.3130 -0.3027  1.5242
 7955SOL    HW235499   3.936   0.323   7.920  0.6993 -0.4684 -1.8280
 7956SOL     OW35500   3.506   4.334   4.928 -0.0632  0.2723  0.4148
 7956SOL    HW135501   3.463   4.359   5.009  0.6185  0.1420  0.8150
 7956SOL    HW235502   3.528   4.418   4.888 -1.3215 -0.0943 -1.0876
 7957SOL     OW35503   2.784   1.532   2.949 -0.3506 -0.3841 -0.3085
 7957SOL    HW135504   2.799   1.455   2.895  1.7586  0.7484 -1.3081
 7957SOL    HW235505   2.822   1.504   3.033  1.7645 -1.1680 -1.5307
 7958SOL     OW35506   2.257   2.728   1.159 -0.5819  0.2788  0.3962
 7958SOL    HW135507   2.320   2.736   1.231 -2.8692  2.0051  2.2062
 7958SOL    HW235508   2.245   2.636   1.135 -1.1766  0.1862  1.0442
 7959SOL     OW35509   1.932   3.359   3.692 -0.2205  0.1010  0.0366
 7959SOL    HW135510   1.841   3.370   3.721  0.0016 -0.2013  0.8403
 7959SOL    HW235511   1.919   3.282   3.637  1.2142 -1.3528  1.7491
 7960SOL     OW35512   3.180   2.275  11.043  0.5764 -0.6900  0.5501
 7960SOL    HW135513   3.276   2.274  11.037  0.5482  2.1744 -0.4498
 7960SOL    HW235514   3.175   2.301  11.135  0.4550 -3.8377  1.4397
 7961SOL     OW35515   0.968   4.120   7.296  0.2829 -0.3916  0.1221
 7961SOL    HW135516   1.031   4.068   7.246  1.2498  0.4715  0.4289
 7961SOL    HW235517   0.910   4.056   7.337  1.7400  0.4350  3.4818
 7962SOL     OW35518   3.929   1.950  13.934  0.2508 -0.6911 -0.4532
 7962SOL    HW135519   3.839   1.928  13.911  0.1473  0.1996 -0.8916
 7962SOL    HW235520   3.919   2.045  13.941 -1.9559 -1.0817  1.8373
 7963SOL     OW35521   2.611   3.644   9.406 -0.2370  0.4551 -0.6463
 7963SOL    HW135522   2.581   3.735   9.405  1.1047  0.8979  2.4413
 7963SOL    HW235523   2.654   3.633   9.490  0.4057 -1.4055 -1.2234
 7964SOL     OW35524   0.122   4.201   8.198 -0.6819  0.1748  0.0323
 7964SOL    HW135525   0.152   4.265   8.134 -0.2434 -0.4277 -0.3692
 7964SOL    HW235526   0.175   4.238   8.269  0.0065  0.9519 -0.8883
 7965SOL     OW35527   1.697   4.358   6.956  0.3045 -0.0885 -0.0946
 7965SOL    HW135528   1.674   4.293   7.022 -0.7545  0.6905  0.3021
 7965SOL    HW235529   1.639   4.432   6.974 -0.1898 -0.1296 -1.5407
 7966SOL     OW35530   0.476   4.708   8.147 -0.2845 -0.1733  0.2726
 7966SOL    HW135531   0.466   0.064   8.168  0.4534 -0.2132  0.7959
 7966SOL    HW235532   0.536   4.725   8.075  0.3382 -0.3922  0.7367
 7967SOL     OW35533   1.489   1.909  14.562 -0.2189 -0.6644 -0.9279
 7967SOL    HW135534   1.578   1.888  14.533  0.4181  0.3595  0.2846
 7967SOL    HW235535   1.447   1.956  14.491 -1.1590 -0.2663 -0.1132
 7968SOL     OW35536   1.716   0.212   3.777  0.3095  0.2359  0.3838
 7968SOL    HW135537   1.707   0.124   3.742  2.7584  0.4203 -0.7120
 7968SOL    HW235538   1.738   0.257   3.695  1.6245 -0.9797  0.0638
 7969SOL     OW35539   4.604   2.600   2.346 -0.0082  0.2259  0.3963
 7969SOL    HW135540   4.615   2.615   2.440  1.1257  2.5043 -0.1182
 7969SOL    HW235541   4.677   2.643   2.303  0.3945  1.2504  2.1166
 7970SOL     OW35542   1.745   3.099   9.416 -0.3625  0.0558  0.9021
 7970SOL    HW135543   1.810   3.087   9.484  0.4856 -0.4344  0.0068
 7970SOL    HW235544   1.725   3.192   9.424 -1.0865  0.1554 -1.8847
 7971SOL     OW35545   0.502   3.852  17.418  0.2567  0.7797 -0.6021
 7971SOL    HW135546   0.548   3.923  17.463  0.6006  1.1995 -1.5983
 7971SOL    HW235547   0.433   3.832  17.481  1.3886 -1.1091  0.0554
 7972SOL     OW35548   2.679   1.635   6.206 -0.0910 -0.0777 -0.0483
 7972SOL    HW135549   2.613   1.566   6.207 -0.2074  0.0223 -0.9629
 7972SOL    HW235550   2.686   1.661   6.114 -0.5723  0.8723  0.1801
 7973SOL     OW35551   4.101   2.935  17.174  0.6339  0.9137 -0.0022
 7973SOL    HW135552   4.175   2.932  17.113  0.0631 -2.3558 -0.5022
 7973SOL    HW235553   4.091   3.030  17.179 -1.3991  0.6497  0.8693
 7974SOL     OW35554   0.003   0.746   3.338 -0.5133  0.2406 -0.4675
 7974SOL    HW135555   4.709   0.820   3.286  2.1489  0.2745 -2.0173
 7974SOL    HW235556   0.007   0.674   3.275  1.9201 -0.8853  0.9491
 7975SOL     OW35557   3.158   4.215   2.007 -0.4503 -0.0801  0.1032
 7975SOL    HW135558   3.085   4.265   2.042 -0.5701  0.3481 -0.7671
 7975SOL    HW235559   3.203   4.278   1.950 -0.6219 -0.8961 -0.9386
 7976SOL     OW35560   3.724   2.759   8.676  0.2173 -0.3919  0.3715
 7976SOL    HW135561   3.717   2.787   8.767 -1.9599  1.9519 -0.5151
 7976SOL    HW235562   3.726   2.664   8.682  0.7978 -0.3427  0.9017
 7977SOL     OW35563   0.868   2.217   1.383  0.6090  0.6445  0.7601
 7977SOL    HW135564   0.850   2.125   1.406 -3.8004  0.8059 -1.8920
 7977SOL    HW235565   0.802   2.256   1.440 -1.5672 -1.5309 -0.2656
 7978SOL     OW35566   0.783   0.161   8.141 -0.4444 -0.4508 -0.1157
 7978SOL    HW135567   0.782   0.253   8.114  0.6988 -0.8294 -1.4604
 7978SOL    HW235568   0.694   0.157   8.176  0.2513 -0.4651  1.6503
 7979SOL     OW35569   1.578   4.244   1.557 -0.4266 -0.4083  0.3972
 7979SOL    HW135570   1.533   4.326   1.576  1.0737  0.1140  1.7264
 7979SOL    HW235571   1.512   4.178   1.537  0.6329 -1.1855 -0.5541
 7980SOL     OW35572   1.265   4.161  10.262 -0.0479  0.2045 -0.6386
 7980SOL    HW135573   1.273   4.081  10.209 -1.4502  0.2224 -0.8967
 7980SOL    HW235574   1.213   4.131  10.336  1.4053  0.0861  0.3214
 7981SOL     OW35575   1.434   1.700   8.971 -0.1110 -0.4049 -0.2863
 7981SOL    HW135576   1.476   1.755   8.905 -1.3321 -0.0873 -0.7858
 7981SOL    HW235577   1.439   1.758   9.046 -1.7288 -3.2254  1.9839
 7982SOL     OW35578   0.391   0.719   4.116  0.0975 -0.2387  0.2753
 7982SOL    HW135579   0.413   0.748   4.205  0.0770 -1.5344  0.7002
 7982SOL    HW235580   0.349   0.800   4.088 -1.2418 -1.2887 -0.7365
 7983SOL     OW35581   0.254   3.820  12.866  0.1347 -0.0449 -0.3621
 7983SOL    HW135582   0.238   3.910  12.896 -2.6253 -1.0690  1.2397
 7983SOL    HW235583   0.208   3.770  12.933  0.6344 -2.2271 -1.6361
 7984SOL     OW35584   3.843   1.541  10.734 -0.0221  0.2982 -0.0095
 7984SOL    HW135585   3.858   1.612  10.672 -0.3587  1.0983  0.8113
 7984SOL    HW235586   3.797   1.585  10.806 -1.1065 -1.6608  0.4900
 7985SOL     OW35587   0.375   4.404   0.131 -0.3880  0.4311 -0.0662
 7985SOL    HW135588   0.392   4.486   0.177  1.2662 -0.0945  0.2397
 7985SOL    HW235589   0.280   4.415   0.118 -0.5747 -0.2306  0.7838
 7986SOL     OW35590   2.905   0.669   5.421 -0.2663  0.3910  0.4004
 7986SOL    HW135591   2.930   0.577   5.424 -1.6591 -0.0117 -0.0333
 7986SOL    HW235592   2.844   0.669   5.495 -1.0531  1.3394 -0.2418
 7987SOL     OW35593   2.584   0.081   4.310  0.2014 -0.0423 -0.8439
 7987SOL    HW135594   2.674   0.050   4.293  0.4709  1.1984 -1.6548
 7987SOL    HW235595   2.610   0.147   4.374 -0.7728  0.7208 -1.2439
 7988SOL     OW35596   4.432   0.421   3.193  0.4637 -0.1107 -0.4075
 7988SOL    HW135597   4.357   0.395   3.246 -0.2107  1.2267 -0.7370
 7988SOL    HW235598   4.469   0.338   3.161 -1.5224 -1.2952  0.4107
 7989SOL     OW35599   0.953   1.926   2.025  0.0507  0.1150 -0.5316
 7989SOL    HW135600   1.040   1.909   1.989  0.5388  1.5836 -0.0619
 7989SOL    HW235601   0.978   1.994   2.088  1.4278 -0.3228 -0.5986
 7990SOL     OW35602   3.786   1.938   1.999  0.0964  0.0006 -0.3245
 7990SOL    HW135603   3.709   1.911   1.949 -0.9939  3.0572 -0.3196
 7990SOL    HW235604   3.745   1.991   2.068 -0.8256  0.9438 -1.5955
 7991SOL     OW35605   1.036   3.760   7.033  0.0119 -0.2236 -0.0930
 7991SOL    HW135606   0.987   3.798   7.106  1.2083 -0.6479  0.9380
 7991SOL    HW235607   1.036   3.669   7.063 -1.7737  0.1139  0.9196
 7992SOL     OW35608   4.224   1.409   9.065 -0.0011 -0.4503 -0.0841
 7992SOL    HW135609   4.208   1.458   9.146 -1.4441  1.0556 -1.2944
 7992SOL    HW235610   4.153   1.444   9.012 -0.9103 -1.2542  0.6023
 7993SOL     OW35611   3.628   2.200   7.811  0.5226  0.7946  0.3536
 7993SOL    HW135612   3.682   2.280   7.811  0.2335  0.9870  0.7049
 7993SOL    HW235613   3.691   2.128   7.807  0.8960  1.2261 -1.6099
 7994SOL     OW35614   3.074   3.705   7.332 -0.2264 -0.1367  0.0650
 7994SOL    HW135615   3.131   3.770   7.371 -0.1060 -0.1376 -0.1063
 7994SOL    HW235616   3.072   3.642   7.404  0.6868 -1.2678 -0.9015
 7995SOL     OW35617   1.093   0.461   5.439 -0.0467 -0.2178 -0.6982
 7995SOL    HW135618   1.071   0.409   5.516 -0.9541  2.6539  0.9763
 7995SOL    HW235619   1.042   0.534   5.472  0.2563 -0.4784  0.3315
 7996SOL     OW35620   0.109   4.233   3.067 -0.2603 -0.2099 -0.6740
 7996SOL    HW135621   0.059   4.224   3.149 -0.7097  0.1977 -0.9019
 7996SOL    HW235622   0.076   4.156   3.020  0.0645 -1.9072  1.8110
 7997SOL     OW35623   3.584   2.416   6.179  0.3147 -0.1637  0.8196
 7997SOL    HW135624   3.604   2.495   6.230  1.3636 -0.9613  1.6360
 7997SOL    HW235625   3.648   2.419   6.108 -0.6699  0.5666 -0.0347
 7998SOL     OW35626   4.484   4.565   5.322  0.4447 -0.0261 -0.1354
 7998SOL    HW135627   4.547   4.550   5.252  1.5374  0.4538  0.7436
 7998SOL    HW235628   4.411   4.610   5.279  0.0839  0.0291  0.5277
 7999SOL     OW35629   1.208   2.525   8.140  0.6970  0.0101  0.8299
 7999SOL    HW135630   1.227   2.503   8.232 -2.0070 -1.6223  0.9997
 7999SOL    HW235631   1.198   2.434   8.112  0.0871  0.1640  0.5434
 8000SOL     OW35632   2.422   4.320   0.614 -0.0481  0.0372  0.3182
 8000SOL    HW135633   2.441   4.413   0.604  0.1937 -0.1321 -0.8405
 8000SOL    HW235634   2.333   4.316   0.650  0.0594  0.8740  0.6639
 8001SOL     OW35635   3.204   3.141   1.997 -0.3374 -0.4191  0.4200
 8001SOL    HW135636   3.146   3.195   2.052 -0.7471  0.5623 -0.9698
 8001SOL    HW235637   3.276   3.148   2.060 -0.8759  2.3162  0.7528
 8002SOL     OW35638   2.315   0.817  17.546 -0.0229  0.1195 -0.2245
 8002SOL    HW135639   2.285   0.801  17.456 -1.2748 -0.8281  0.3601
 8002SOL    HW235640   2.291   0.740  17.597  0.1553  0.3352  0.1826
 8003SOL     OW35641   3.779   0.783   8.094 -0.5192  0.1424 -0.6204
 8003SOL    HW135642   3.750   0.792   8.185  2.4682 -0.0571  0.3828
 8003SOL    HW235643   3.738   0.702   8.066  0.7406 -0.1973 -1.4696
 8004SOL     OW35644   3.588   1.356   2.931 -0.7269 -0.1603  0.3117
 8004SOL    HW135645   3.541   1.439   2.933  0.1631  0.3252  1.0951
 8004SOL    HW235646   3.513   1.300   2.910  0.2797 -0.1123 -3.4552
 8005SOL     OW35647   0.989   2.394   5.356 -0.0654  0.3894  0.2928
 8005SOL    HW135648   0.988   2.476   5.307 -0.2388 -0.5715 -1.3191
 8005SOL    HW235649   0.994   2.337   5.279  1.9792 -0.0454  0.7531
 8006SOL     OW35650   0.570   1.831   4.261  0.1669  0.1497  0.2381
 8006SOL    HW135651   0.529   1.898   4.316 -1.0171 -0.0717 -0.3737
 8006SOL    HW235652   0.523   1.748   4.274  0.4560  0.0519  0.6625
 8007SOL     OW35653   3.737   2.857  12.845  0.2386 -0.0037 -0.2282
 8007SOL    HW135654   3.825   2.821  12.841  0.3888  0.4508 -0.9059
 8007SOL    HW235655   3.684   2.778  12.835  1.2772 -0.4990 -1.8183
 8008SOL     OW35656   4.548   2.478  13.769  0.2378  0.0962 -0.4787
 8008SOL    HW135657   4.557   2.573  13.763  0.8127  0.0409 -0.4837
 8008SOL    HW235658   4.599   2.456  13.691 -0.8876  0.8616 -1.4388
 8009SOL     OW35659   1.593   0.210   2.224  0.0697  0.0975  0.4433
 8009SOL    HW135660   1.627   0.176   2.141  2.2269  0.4752  1.1569
 8009SOL    HW235661   1.505   0.230   2.194 -0.1652  0.5237  1.4334
 8010SOL     OW35662   2.534   3.763   0.203  0.3447 -0.1711  0.0290
 8010SOL    HW135663   2.521   3.673   0.236  1.1916  0.2978  1.6474
 8010SOL    HW235664   2.580   3.740   0.122 -1.6188 -2.3336 -0.4874
 8011SOL     OW35665   1.539   1.004   2.887 -0.1714 -0.1312 -0.3722
 8011SOL    HW135666   1.565   0.925   2.839 -2.2766  0.3202 -2.2693
 8011SOL    HW235667   1.443   1.000   2.888 -0.0564 -2.6062 -0.0047
 8012SOL     OW35668   2.196   2.027   3.426 -0.1584  0.6216 -0.0870
 8012SOL    HW135669   2.143   1.992   3.355 -0.2124 -1.8309  1.1573
 8012SOL    HW235670   2.278   2.036   3.377 -1.2534  1.4271 -1.7644
 8013SOL     OW35671   0.355   2.009   9.568 -0.5537  0.0482 -0.2588
 8013SOL    HW135672   0.418   2.006   9.496 -0.1652  1.2564  0.0203
 8013SOL    HW235673   0.338   2.103   9.562  0.7646  0.2403 -1.0822
 8014SOL     OW35674   3.134   1.044   0.446 -0.8197 -0.1086  0.0734
 8014SOL    HW135675   3.076   0.975   0.478 -0.7067  0.1126  0.7748
 8014SOL    HW235676   3.084   1.098   0.385 -0.2475  0.5214  0.1583
 8015SOL     OW35677   0.888   2.177   9.516  0.7501 -0.1196 -0.5472
 8015SOL    HW135678   0.877   2.220   9.601 -0.2893 -1.3014 -0.0884
 8015SOL    HW235679   0.834   2.238   9.465 -0.5508 -0.8647 -0.0577
 8016SOL     OW35680   3.149   4.621  15.182  0.0709  0.7906 -0.1960
 8016SOL    HW135681   3.121   4.656  15.267 -0.2235  0.8484 -0.3173
 8016SOL    HW235682   3.086   4.552  15.163 -2.7912  2.3802  3.3849
 8017SOL     OW35683   0.518   1.155   2.489  0.1942 -0.5416  0.3772
 8017SOL    HW135684   0.501   1.187   2.578 -1.2431 -1.9693  0.6212
 8017SOL    HW235685   0.480   1.214   2.424  1.0384  0.0478  0.4178
 8018SOL     OW35686   4.440   1.688   5.986  0.0496  0.9358  0.0471
 8018SOL    HW135687   4.368   1.742   5.954 -0.9675  1.0684  2.5288
 8018SOL    HW235688   4.510   1.752   5.977 -1.0666  2.1626  0.1791
 8019SOL     OW35689   1.573   1.693   6.878 -0.2100 -0.9347  0.5606
 8019SOL    HW135690   1.631   1.767   6.858 -1.1061  0.0919  1.7094
 8019SOL    HW235691   1.616   1.620   6.833  1.1961  2.0406 -2.9955
 8020SOL     OW35692   2.438   3.044   5.726  0.0177  0.0778  0.0366
 8020SOL    HW135693   2.400   3.131   5.729 -2.2988 -0.8914 -1.0662
 8020SOL    HW235694   2.389   3.007   5.799  0.3686 -2.5174 -1.0399
 8021SOL     OW35695   2.251   2.896  10.091  0.5002  0.6471 -0.1115
 8021SOL    HW135696   2.286   2.811  10.064 -0.7679 -0.8056  2.8081
 8021SOL    HW235697   2.176   2.905  10.032  0.7033 -3.4974 -0.9796
 8022SOL     OW35698   0.674   0.840  14.973 -0.2150 -0.4549  0.4254
 8022SOL    HW135699   0.582   0.865  14.965  0.3055  1.2022 -0.2888
 8022SOL    HW235700   0.710   0.928  14.968 -2.2158  0.3849  0.5667
 8023SOL     OW35701   4.613   2.279   0.899  0.2615 -0.6201 -0.4192
 8023SOL    HW135702   4.666   2.357   0.916 -0.2667 -0.3689  0.0844
 8023SOL    HW235703   4.665   2.243   0.828 -0.5897 -0.8716 -0.9158
 8024SOL     OW35704   2.675   1.728   3.108 -0.1871  0.2020 -0.2933
 8024SOL    HW135705   2.716   1.675   3.039  0.5361 -1.0937  1.1429
 8024SOL    HW235706   2.690   1.817   3.075  2.9002 -0.6488 -1.2294
 8025SOL     OW35707   2.988   3.351   4.174 -0.7451 -0.0464 -0.4607
 8025SOL    HW135708   3.065   3.295   4.178 -0.1024  0.8744  0.0842
 8025SOL    HW235709   2.914   3.290   4.185 -0.7596 -0.1337 -1.0669
 8026SOL     OW35710   2.697   3.428   9.940 -0.1125 -0.0762  0.2345
 8026SOL    HW135711   2.731   3.344   9.972 -0.0706 -0.5774 -1.1494
 8026SOL    HW235712   2.760   3.460   9.875 -0.5223 -0.9038 -0.5638
 8027SOL     OW35713   4.009   3.617  12.960 -0.2638 -0.6986  0.0493
 8027SOL    HW135714   4.055   3.541  12.924 -0.3786 -0.0910 -1.3569
 8027SOL    HW235715   4.055   3.683  12.907 -3.0604  0.9903 -0.2472
 8028SOL     OW35716   2.737   3.035   3.251 -0.0644  0.0184  0.0957
 8028SOL    HW135717   2.729   3.011   3.343 -0.0541 -3.0852 -0.7156
 8028SOL    HW235718   2.770   2.952   3.217 -0.3523  0.3506 -1.0009
 8029SOL     OW35719   1.986   0.454   3.267  0.0220  0.0157  0.9265
 8029SOL    HW135720   1.993   0.446   3.362  0.9716 -0.8498  0.7721
 8029SOL    HW235721   2.004   0.364   3.243 -3.8620 -0.4598 -0.2210
 8030SOL     OW35722   2.184   4.372  10.077  0.4904 -0.8642 -0.4581
 8030SOL    HW135723   2.165   4.289  10.032 -0.7471 -1.8075  1.8034
 8030SOL    HW235724   2.165   4.443  10.016  1.5393  0.1692  0.4364
 8031SOL     OW35725   2.072   3.393  17.205  0.7303 -0.7489  0.1096
 8031SOL    HW135726   2.146   3.368  17.261  2.3550  2.7538 -0.4846
 8031SOL    HW235727   2.095   3.485  17.188  0.0878 -0.3265  1.5208
 8032SOL     OW35728   0.418   1.457   8.331  0.2312  0.1474  0.2988
 8032SOL    HW135729   0.378   1.406   8.402 -2.2356  1.2835 -0.2786
 8032SOL    HW235730   0.507   1.432   8.354  0.6671  0.5385 -0.9803
 8033SOL     OW35731   1.304   4.537  11.603  0.1599 -0.4699 -0.5066
 8033SOL    HW135732   1.306   4.445  11.630 -0.4616  0.0158  1.1892
 8033SOL    HW235733   1.397   4.548  11.583  0.7465 -0.8485  1.9606
 8034SOL     OW35734   1.975   2.339  11.615  0.2237  0.2103 -0.6186
 8034SOL    HW135735   2.002   2.247  11.608 -1.4548 -0.3585  0.2927
 8034SOL    HW235736   2.063   2.377  11.607 -0.1688  0.9117 -1.5624
 8035SOL     OW35737   0.878   0.073   1.565 -0.0088  0.0876 -0.5908
 8035SOL    HW135738   0.798   0.028   1.537 -1.8097  1.7483  1.8700
 8035SOL    HW235739   0.867   0.149   1.508 -0.8263  0.4501  0.0537
 8036SOL     OW35740   2.353   0.998   2.652  0.6109  0.1424 -0.4156
 8036SOL    HW135741   2.442   1.014   2.682 -0.0431  0.0822  1.5917
 8036SOL    HW235742   2.309   0.990   2.737  0.7641  1.6112 -0.1889
 8037SOL     OW35743   2.742   4.512   8.871 -0.1722 -0.3368  0.7464
 8037SOL    HW135744   2.776   4.598   8.898  2.0140 -1.2162  0.7719
 8037SOL    HW235745   2.744   4.455   8.948 -0.5808 -0.0653  0.9621
 8038SOL     OW35746   3.245   0.693   3.936 -0.4819 -0.3221 -0.3102
 8038SOL    HW135747   3.294   0.773   3.915 -0.8633 -0.4107 -1.5836
 8038SOL    HW235748   3.171   0.713   3.878 -0.1890  0.0062 -0.5713
 8039SOL     OW35749   0.129   2.898   6.148  0.0760 -0.3771  0.2520
 8039SOL    HW135750   0.201   2.950   6.111  0.4296 -1.6629 -0.8642
 8039SOL    HW235751   0.088   2.969   6.198 -0.0001 -2.8044  3.5759
 8040SOL     OW35752   0.082   3.068   8.936  0.0556  0.1623 -0.2100
 8040SOL    HW135753   0.106   3.157   8.910 -0.8326  0.2082 -0.8502
 8040SOL    HW235754   0.168   3.026   8.933  0.5961  1.1224  1.2496
 8041SOL     OW35755   0.493   4.065  16.211  0.0104  0.2140  0.1220
 8041SOL    HW135756   0.469   4.152  16.242  1.2152  1.2559 -1.9228
 8041SOL    HW235757   0.533   4.017  16.284 -1.0379 -0.1532  0.4655
 8042SOL     OW35758   0.714   4.134   3.126 -0.1667  0.2435 -0.1302
 8042SOL    HW135759   0.624   4.144   3.096  1.1610  0.4933 -3.9808
 8042SOL    HW235760   0.712   4.039   3.132 -1.5858  0.2754 -0.0240
 8043SOL     OW35761   2.544   3.471   4.676 -0.9979 -0.4516 -0.3616
 8043SOL    HW135762   2.558   3.458   4.769 -0.6179 -0.7254 -0.4573
 8043SOL    HW235763   2.635   3.492   4.655 -1.1749  1.8241  1.2002
 8044SOL     OW35764   1.476   1.058  16.820  0.1270 -0.1205  0.4407
 8044SOL    HW135765   1.444   1.094  16.902 -1.0970  1.5911 -0.7910
 8044SOL    HW235766   1.429   0.974  16.821 -0.4680  0.1865 -1.0691
 8045SOL     OW35767   0.821   3.470   2.983  0.3704 -0.6648 -0.4369
 8045SOL    HW135768   0.873   3.538   2.940 -2.1219  1.1890 -0.4625
 8045SOL    HW235769   0.890   3.418   3.026 -1.3078 -1.5682  1.1575
 8046SOL     OW35770   1.777   2.777   3.549  0.2972  0.4764 -0.7275
 8046SOL    HW135771   1.815   2.784   3.461 -0.0239 -1.4463 -1.0207
 8046SOL    HW235772   1.785   2.867   3.580 -0.6884  0.6468 -0.9843
 8047SOL     OW35773   2.111   3.599   9.215 -0.2689 -0.0005  0.0294
 8047SOL    HW135774   2.202   3.581   9.240 -0.6852  1.0326  2.3158
 8047SOL    HW235775   2.085   3.524   9.161  1.6146 -0.5517 -0.1154
 8048SOL     OW35776   4.589   1.752   4.061 -0.6343 -0.1617 -0.0053
 8048SOL    HW135777   4.639   1.674   4.037 -1.1072 -0.2324 -0.7692
 8048SOL    HW235778   4.651   1.820   4.035  0.2072 -1.2057 -0.7117
 8049SOL     OW35779   1.239   3.769   3.904 -0.5025  0.1199  0.1780
 8049SOL    HW135780   1.232   3.680   3.939 -2.5318 -0.5658 -1.9603
 8049SOL    HW235781   1.253   3.750   3.812  1.4390  0.1642  0.4750
 8050SOL     OW35782   2.308   2.527   4.583 -0.2993  0.1912 -0.4011
 8050SOL    HW135783   2.237   2.509   4.521 -0.6351  0.2823 -0.0414
 8050SOL    HW235784   2.274   2.464   4.646 -0.9286  1.3133  0.3781
 8051SOL     OW35785   4.648   0.970   8.364  0.3061 -0.4135 -0.2432
 8051SOL    HW135786   4.732   0.934   8.335 -0.1699  0.0678 -2.2078
 8051SOL    HW235787   4.598   0.980   8.283 -1.4374  0.3921  0.9476
 8052SOL     OW35788   2.303   0.374   7.840  0.4345  0.1956 -0.0903
 8052SOL    HW135789   2.265   0.314   7.904  1.8482 -0.4501  0.1532
 8052SOL    HW235790   2.316   0.449   7.898 -1.0004 -0.5047  1.1142
 8053SOL     OW35791   2.430   2.172   2.816  0.1970  0.5039  0.1159
 8053SOL    HW135792   2.340   2.194   2.840  0.0048  0.1903 -0.3208
 8053SOL    HW235793   2.424   2.081   2.788  0.3758  0.3078  0.7220
 8054SOL     OW35794   2.788   1.851   7.753  0.3494 -0.6604  0.2013
 8054SOL    HW135795   2.855   1.816   7.694 -0.3328 -2.5659  0.5476
 8054SOL    HW235796   2.815   1.943   7.756 -0.6475 -0.2281 -3.2723
 8055SOL     OW35797   3.433   1.872   6.928  0.6782 -0.2853  0.2350
 8055SOL    HW135798   3.417   1.887   6.835 -2.6672  0.9970  1.0140
 8055SOL    HW235799   3.506   1.811   6.916  0.0367 -1.2744  1.3705
 8056SOL     OW35800   0.356   3.927   6.020 -0.7308  0.0455 -0.4913
 8056SOL    HW135801   0.451   3.924   6.015 -0.7679  1.9204 -2.0973
 8056SOL    HW235802   0.342   4.017   5.991  2.6036  0.4560 -0.8331
 8057SOL     OW35803   2.581   4.706   7.345 -0.3259 -0.3399 -0.3952
 8057SOL    HW135804   2.626   0.053   7.350 -3.6676  1.4162  0.2101
 8057SOL    HW235805   2.635   4.659   7.282 -0.3641  1.6696 -1.9300
 8058SOL     OW35806   3.058   3.043   7.899 -0.0871 -0.2859  0.0328
 8058SOL    HW135807   2.969   3.013   7.917 -0.4035  0.5274 -0.1927
 8058SOL    HW235808   3.038   3.136   7.894  0.5544 -0.3122 -2.7386
 8059SOL     OW35809   4.612   4.646   4.253  0.7715 -0.1216  0.1908
 8059SOL    HW135810   4.572   4.731   4.235 -1.2768 -1.3957 -1.3323
 8059SOL    HW235811   4.572   4.634   4.340 -3.0040  0.6851 -1.4311
 8060SOL     OW35812   3.697   2.128  11.406  0.0746  0.8347 -0.3980
 8060SOL    HW135813   3.778   2.134  11.355  1.4174 -1.2637  1.5003
 8060SOL    HW235814   3.631   2.081  11.354  0.5721 -0.3792  0.0722
 8061SOL     OW35815   2.669   2.079   8.539 -0.6056 -0.1867  0.2908
 8061SOL    HW135816   2.715   1.995   8.530 -2.2878 -1.1485  0.7625
 8061SOL    HW235817   2.663   2.107   8.448  2.7163  0.8875  0.4148
 8062SOL     OW35818   4.081   2.739  16.874  0.0402 -0.2434 -0.2676
 8062SOL    HW135819   4.139   2.702  16.807 -0.3117  1.3191 -1.4375
 8062SOL    HW235820   4.103   2.832  16.866  2.1801 -0.7650 -0.3121
 8063SOL     OW35821   0.312   2.514   1.072  0.5023  0.0556 -0.3437
 8063SOL    HW135822   0.265   2.436   1.099  0.1268  0.6877  0.8669
 8063SOL    HW235823   0.377   2.508   1.143 -1.7533  1.1286  1.8109
 8064SOL     OW35824   4.687   3.085   5.006  0.1463 -0.2015  0.6014
 8064SOL    HW135825   4.687   3.148   4.933 -1.0799  1.5703  2.1368
 8064SOL    HW235826   0.043   3.074   5.024  0.5085  0.7650 -0.6704
 8065SOL     OW35827   2.955   4.197   5.519  0.1754  0.5378  0.3864
 8065SOL    HW135828   2.887   4.196   5.453 -0.0362  0.9200  0.5981
 8065SOL    HW235829   2.913   4.223   5.601 -3.3773 -0.1269 -1.2277
 8066SOL     OW35830   3.210   4.187   4.532  0.7896  0.3364 -0.4320
 8066SOL    HW135831   3.162   4.159   4.610  0.9775 -0.4099 -0.5813
 8066SOL    HW235832   3.172   4.137   4.459 -1.2045 -1.3132  1.7595
 8067SOL     OW35833   2.299   4.093   6.938 -0.0065  0.3346 -0.2298
 8067SOL    HW135834   2.315   3.999   6.932  0.8905  0.4974 -0.4360
 8067SOL    HW235835   2.366   4.115   7.003  1.1576  0.1478 -1.3804
 8068SOL     OW35836   0.296   1.702   8.399  0.2741  0.3748 -0.2201
 8068SOL    HW135837   0.315   1.612   8.370 -0.1093 -0.0156  0.7497
 8068SOL    HW235838   0.383   1.742   8.397 -0.2749  1.5433 -0.6027
 8069SOL     OW35839   1.043   2.158   1.650  0.2240 -0.7742 -0.0413
 8069SOL    HW135840   1.001   2.240   1.677 -0.8319 -1.2943 -0.1135
 8069SOL    HW235841   1.119   2.161   1.708 -1.1797 -1.1480  1.7872
 8070SOL     OW35842   1.053   4.250   5.660 -0.0097 -0.6476 -0.0331
 8070SOL    HW135843   0.958   4.261   5.654  0.1198  1.3290  1.5731
 8070SOL    HW235844   1.049   4.266   5.755  1.8255  0.0333 -0.0840
 8071SOL     OW35845   1.685   2.138   8.173  0.1077 -0.1334 -0.0442
 8071SOL    HW135846   1.762   2.194   8.162  2.3363 -3.3101 -0.5029
 8071SOL    HW235847   1.645   2.174   8.252 -0.0426 -0.1691 -0.1031
 8072SOL     OW35848   0.146   1.572  11.745 -0.0938  0.5265 -0.7260
 8072SOL    HW135849   0.203   1.556  11.821 -0.6447  0.2889 -0.3557
 8072SOL    HW235850   0.098   1.648  11.779 -1.8237  0.2451 -2.5649
 8073SOL     OW35851   3.134   4.411   3.754 -0.0537 -0.2652 -0.1466
 8073SOL    HW135852   3.062   4.413   3.817  0.6903  2.5608  0.5957
 8073SOL    HW235853   3.201   4.375   3.813 -0.1040 -0.7185 -0.3622
 8074SOL     OW35854   3.783   3.303   7.883  0.2081 -0.2550  0.5763
 8074SOL    HW135855   3.701   3.278   7.925  0.2944 -1.6801 -0.0972
 8074SOL    HW235856   3.785   3.239   7.811  1.8868 -1.1083  1.3864
 8075SOL     OW35857   1.300   4.513   2.546  0.0183  0.0726  0.4385
 8075SOL    HW135858   1.395   4.504   2.539 -0.1698 -0.6448 -1.2414
 8075SOL    HW235859   1.282   4.545   2.458 -0.8411  2.7471  1.5799
 8076SOL     OW35860   0.298   3.004   1.763 -0.3699  0.4402  0.4203
 8076SOL    HW135861   0.289   2.955   1.682 -0.3462  0.4417  0.4169
 8076SOL    HW235862   0.264   3.091   1.740  0.3292  1.0780  1.7941
 8077SOL     OW35863   3.229   1.832  10.668  0.0986  0.1752  0.2213
 8077SOL    HW135864   3.299   1.878  10.714 -2.1614 -0.4924  4.2986
 8077SOL    HW235865   3.188   1.774  10.733  1.6919  0.5481  1.5629
 8078SOL     OW35866   0.904   0.623   8.107  0.1551 -0.7337  0.0860
 8078SOL    HW135867   0.866   0.653   8.190 -2.2405 -1.5232 -0.7201
 8078SOL    HW235868   0.856   0.677   8.044  2.5669  2.7202  1.2251
 8079SOL     OW35869   0.359   2.612  12.582  0.0338 -0.0526 -0.2014
 8079SOL    HW135870   0.310   2.664  12.645  3.4598  2.5439  0.2847
 8079SOL    HW235871   0.450   2.625  12.608  0.0651 -1.6359  0.4553
 8080SOL     OW35872   3.602   4.607  13.919  0.0938 -0.4249 -0.3406
 8080SOL    HW135873   3.517   4.615  13.961  0.6044 -3.3077  1.2398
 8080SOL    HW235874   3.649   4.689  13.935  1.8367 -1.7652  1.4441
 8081SOL     OW35875   1.767   3.421   2.343  0.0381 -0.5542 -0.1182
 8081SOL    HW135876   1.811   3.377   2.271  2.0194  3.0105 -1.1063
 8081SOL    HW235877   1.843   3.465   2.381 -0.5218  0.9120 -0.7074
 8082SOL     OW35878   0.772   3.716  15.525  0.4013  0.2989  0.5688
 8082SOL    HW135879   0.715   3.734  15.600  1.5536 -0.3630  1.5943
 8082SOL    HW235880   0.850   3.760  15.558  0.4814  0.9631 -0.5080
 8083SOL     OW35881   3.463   3.995  13.724  0.1076 -1.2065  0.0482
 8083SOL    HW135882   3.369   4.005  13.739  0.1954 -2.1509  1.1696
 8083SOL    HW235883   3.476   4.068  13.663 -2.6590 -1.4514 -0.8364
 8084SOL     OW35884   2.265   2.232   7.100 -0.0353 -0.3826  0.0818
 8084SOL    HW135885   2.192   2.232   7.038  0.1923 -1.9479 -0.1797
 8084SOL    HW235886   2.271   2.327   7.112 -2.2249 -0.1034 -1.0911
 8085SOL     OW35887   1.877   0.661   7.548  0.1067  0.2443 -0.2847
 8085SOL    HW135888   1.817   0.735   7.560 -0.3576  0.1416 -2.0308
 8085SOL    HW235889   1.895   0.670   7.455  1.3622  0.7297  0.0089
 8086SOL     OW35890   2.690   1.665   4.675 -0.3709  0.6945 -0.4346
 8086SOL    HW135891   2.618   1.609   4.701  0.5922 -0.9575 -1.2881
 8086SOL    HW235892   2.732   1.673   4.760 -1.0575  1.8245 -0.2050
 8087SOL     OW35893   4.231   1.382   1.948 -0.0809  0.0861  0.5734
 8087SOL    HW135894   4.199   1.408   2.035  0.4209  1.8683  0.2163
 8087SOL    HW235895   4.316   1.342   1.967 -0.7103 -0.5408  2.0748
 8088SOL     OW35896   1.369   4.635   5.674 -0.3598 -0.4417 -0.2517
 8088SOL    HW135897   1.287   4.610   5.632 -0.8320 -0.2473  0.5588
 8088SOL    HW235898   1.421   4.676   5.605 -2.9101  0.0911 -1.8479
 8089SOL     OW35899   1.286   3.496  15.875 -0.2395 -0.1691 -0.0602
 8089SOL    HW135900   1.230   3.525  15.803  2.2654  2.0821 -1.1012
 8089SOL    HW235901   1.375   3.518  15.846 -0.9806  1.1417 -1.3227
 8090SOL     OW35902   1.484   0.779   4.510 -0.3723  0.3107  0.3204
 8090SOL    HW135903   1.415   0.805   4.571 -0.2172  0.0798  0.5973
 8090SOL    HW235904   1.432   0.726   4.450 -0.5845  1.9018 -0.8918
 8091SOL     OW35905   2.700   1.699   5.940 -0.2015 -0.5218 -0.1719
 8091SOL    HW135906   2.782   1.739   5.912 -0.0076 -0.0597  1.0271
 8091SOL    HW235907   2.688   1.634   5.872  4.9087 -1.0951 -0.4999
 8092SOL     OW35908   3.685   1.437   2.336 -0.7474 -0.1036 -0.5512
 8092SOL    HW135909   3.636   1.441   2.254 -0.3039  0.3647 -0.7892
 8092SOL    HW235910   3.638   1.512   2.375  2.6813  1.1737  1.1065
 8093SOL     OW35911   0.671   1.478  11.424 -0.6975 -0.5412  0.0415
 8093SOL    HW135912   0.684   1.473  11.518 -1.2214 -0.2436  0.1278
 8093SOL    HW235913   0.672   1.387  11.394 -2.1190 -1.0035  1.4183
 8094SOL     OW35914   3.233   1.304   7.220 -0.5852  0.2004 -0.4167
 8094SOL    HW135915   3.258   1.236   7.158 -3.0130  0.3538 -1.6074
 8094SOL    HW235916   3.154   1.330   7.171 -0.2668  1.3828 -0.3160
 8095SOL     OW35917   0.769   1.106   3.975  0.1058  0.7096 -0.5822
 8095SOL    HW135918   0.730   1.101   3.888  0.0452 -2.5859 -0.3688
 8095SOL    HW235919   0.818   1.187   3.959  3.0847 -0.6352  1.6737
 8096SOL     OW35920   0.151   3.876  15.244 -0.0731 -0.5524 -0.1634
 8096SOL    HW135921   0.140   3.789  15.281 -0.7560  0.1460  1.2901
 8096SOL    HW235922   0.062   3.903  15.225 -0.2138 -0.9220 -0.0250
 8097SOL     OW35923   0.494   1.318   6.834 -0.3483  0.0597 -0.0353
 8097SOL    HW135924   0.414   1.340   6.881 -1.2850 -2.0282 -0.6709
 8097SOL    HW235925   0.463   1.307   6.745 -0.6148  0.8424 -0.0403
 8098SOL     OW35926   2.843   4.696  15.092  0.0620 -0.5088 -0.2170
 8098SOL    HW135927   2.815   0.034  15.144  1.1740  1.3661 -2.3377
 8098SOL    HW235928   2.857   0.004  15.009  0.9693  0.2005  0.3206
 8099SOL     OW35929   2.351   4.728   7.719 -0.1575  0.2779  0.1649
 8099SOL    HW135930   2.373   4.707   7.809  1.3861 -1.5278 -0.6123
 8099SOL    HW235931   2.436   4.706   7.679  0.8232 -0.0118  2.4119
 8100SOL     OW35932   3.906   3.942   2.600  0.0697 -0.1190  0.0728
 8100SOL    HW135933   3.966   3.987   2.660  0.1489 -0.2130  0.0663
 8100SOL    HW235934   3.875   4.008   2.539  1.0275  1.1197  0.9306
 8101SOL     OW35935   2.064   1.943  12.380  0.0958 -0.3359 -0.5256
 8101SOL    HW135936   1.972   1.941  12.352 -0.3215 -0.7208  0.8680
 8101SOL    HW235937   2.090   2.009  12.316 -0.4719 -2.0718 -2.5350
 8102SOL     OW35938   4.656   4.723   8.765 -0.3290  0.5003 -0.3322
 8102SOL    HW135939   0.014   4.724   8.771 -0.2591 -2.9872 -0.8091
 8102SOL    HW235940   4.639   4.692   8.854 -0.8341  2.9264  0.4138
 8103SOL     OW35941   3.270   3.759   9.234 -0.0837  0.4166 -0.1784
 8103SOL    HW135942   3.224   3.708   9.167  0.2086  0.2871 -0.2807
 8103SOL    HW235943   3.361   3.730   9.235 -0.1625  0.1596 -0.4293
 8104SOL     OW35944   0.961   4.165  16.860  0.6578  0.6268 -0.3898
 8104SOL    HW135945   0.913   4.173  16.943 -1.2161 -0.4134 -1.3749
 8104SOL    HW235946   0.996   4.078  16.880 -2.0487 -0.4677 -0.3148
 8105SOL     OW35947   1.983   2.374   7.565  0.0569 -0.4595  0.1854
 8105SOL    HW135948   2.012   2.365   7.656  1.5428 -1.1853 -0.3507
 8105SOL    HW235949   1.891   2.353   7.579 -0.0868  1.5370  2.1829
 8106SOL     OW35950   0.254   1.831   4.543 -0.4089 -0.5269 -0.2800
 8106SOL    HW135951   0.206   1.842   4.461 -1.7167  0.5505  0.6315
 8106SOL    HW235952   0.335   1.881   4.535 -0.0278 -0.8654  1.5596
 8107SOL     OW35953   2.909   0.595   7.159 -0.0673  0.1916  0.4217
 8107SOL    HW135954   2.958   0.596   7.077  2.1767  1.5803  1.7637
 8107SOL    HW235955   2.869   0.509   7.145  2.4190 -0.7498 -0.9353
 8108SOL     OW35956   1.819   3.194   1.637  0.2260 -0.2428  0.7456
 8108SOL    HW135957   1.745   3.133   1.636 -0.1034  0.1950 -0.6221
 8108SOL    HW235958   1.773   3.277   1.625 -1.6455 -1.2134  1.1898
 8109SOL     OW35959   2.368   4.555   3.895 -0.5524  0.1773  0.5645
 8109SOL    HW135960   2.375   4.518   3.984 -0.0520  1.2229  0.9677
 8109SOL    HW235961   2.323   4.638   3.906 -0.2683  0.1503  1.9619
 8110SOL     OW35962   1.714   0.528   1.653  0.3147  0.4545  0.0018
 8110SOL    HW135963   1.684   0.579   1.728 -0.8256 -0.2672  0.0332
 8110SOL    HW235964   1.674   0.445   1.679 -1.0585  0.6923 -1.3956
 8111SOL     OW35965   2.946   4.056   7.351  0.3462  0.0183  0.6674
 8111SOL    HW135966   2.914   4.105   7.276  0.0671 -4.0511 -1.8676
 8111SOL    HW235967   3.037   4.086   7.350  0.0607  0.7636 -1.6622
 8112SOL     OW35968   4.033   0.576  17.588 -0.1308  0.0012  0.3686
 8112SOL    HW135969   4.102   0.560  17.524  0.4672 -0.9556  1.2449
 8112SOL    HW235970   4.073   0.565  17.675 -0.4494 -1.1924  0.3724
 8113SOL     OW35971   0.268   1.119   9.970  0.1086 -0.1803 -0.1496
 8113SOL    HW135972   0.204   1.106  10.039 -0.5963  0.6388 -0.6510
 8113SOL    HW235973   0.330   1.180  10.008  0.3284  0.4674 -1.5269
 8114SOL     OW35974   1.911   0.193  10.771 -0.1915  0.0792  0.1343
 8114SOL    HW135975   1.881   0.148  10.850  0.1351  2.0240  1.3789
 8114SOL    HW235976   1.946   0.115  10.728 -0.8058  0.6386 -1.4143
 8115SOL     OW35977   0.087   4.732  17.434 -0.1147 -0.1399  0.2611
 8115SOL    HW135978   0.118   4.648  17.468 -0.7962 -0.3190  0.4504
 8115SOL    HW235979   4.731   4.717  17.417 -0.7467  0.2398  3.3624
 8116SOL     OW35980   0.655   1.820   6.802  0.0680 -0.4761 -0.3034
 8116SOL    HW135981   0.596   1.895   6.796  0.5350 -0.0990 -0.2281
 8116SOL    HW235982   0.676   1.812   6.708 -1.2802  0.7018 -0.7087
 8117SOL     OW35983   2.571   1.291   9.460 -0.1750  0.0932  0.3504
 8117SOL    HW135984   2.487   1.310   9.502  0.1605  2.4401 -0.0487
 8117SOL    HW235985   2.549   1.315   9.370 -0.6703  1.8092  0.9260
 8118SOL     OW35986   1.640   2.012  13.628  0.2237 -0.1172 -0.4429
 8118SOL    HW135987   1.607   1.962  13.703 -1.1072  1.8447  0.2811
 8118SOL    HW235988   1.600   1.959  13.559  2.8731 -0.8300 -1.4497
 8119SOL     OW35989   1.428   2.216   2.682  0.1999  0.3114  0.5841
 8119SOL    HW135990   1.360   2.150   2.665  0.0178  0.3196  1.2873
 8119SOL    HW235991   1.505   2.188   2.632  1.4246  0.5184  2.3442
 8120SOL     OW35992   3.283   2.686   6.543  0.6943  0.2636  0.1809
 8120SOL    HW135993   3.328   2.603   6.526 -0.0737 -0.5367  1.9827
 8120SOL    HW235994   3.252   2.661   6.630  1.2926  0.6696  0.5043
 8121SOL     OW35995   2.228   0.868  17.286 -0.0786 -0.7016  0.2172
 8121SOL    HW135996   2.285   0.943  17.302 -0.6767 -0.3522  0.6971
 8121SOL    HW235997   2.289   0.813  17.236  0.2387  0.7875 -1.0224
 8122SOL     OW35998   4.059   0.024   7.982 -0.6794  0.0460  1.1607
 8122SOL    HW135999   4.122   0.070   8.038 -2.3712  2.6079  0.9482
 8122SOL    HW236000   4.092   4.676   7.954  1.5677  1.4041 -0.3061
 8123SOL     OW36001   1.108   0.424   3.172  0.6093  1.2343  0.7711
 8123SOL    HW136002   1.135   0.335   3.196 -0.7421  0.5605 -0.1619
 8123SOL    HW236003   1.105   0.464   3.259 -1.3851 -0.7085  1.5948
 8124SOL     OW36004   0.104   0.981   6.103  1.0365  0.1379  0.3138
 8124SOL    HW136005   0.196   0.968   6.079  1.6609 -0.4181  3.0218
 8124SOL    HW236006   0.075   0.894   6.131 -1.3755  0.0919 -2.3275
 8125SOL     OW36007   2.267   4.517   6.517  0.3013  0.3079 -0.2448
 8125SOL    HW136008   2.201   4.502   6.584  0.1113  1.2391 -0.2276
 8125SOL    HW236009   2.308   4.593   6.558 -0.2221  1.0431 -1.0678
 8126SOL     OW36010   2.620   0.285  17.133 -0.4041 -0.6087  0.0615
 8126SOL    HW136011   2.701   0.260  17.090 -0.4845 -1.3052  0.3200
 8126SOL    HW236012   2.593   0.215  17.192  0.0192 -0.8516 -0.0370
 8127SOL     OW36013   1.317   3.168   0.709 -0.5052  1.1246 -0.0260
 8127SOL    HW136014   1.306   3.234   0.641 -2.3692  0.0184 -0.7974
 8127SOL    HW236015   1.254   3.100   0.684  0.0176  0.3970  0.6413
 8128SOL     OW36016   1.512   2.019  10.465  0.1227 -0.2468 -0.1527
 8128SOL    HW136017   1.579   1.970  10.511 -0.2664 -1.2487 -0.6491
 8128SOL    HW236018   1.492   2.098  10.516 -2.0430 -0.8518 -0.0672
 8129SOL     OW36019   0.542   1.586  12.113  0.3888 -0.2365 -0.1997
 8129SOL    HW136020   0.527   1.550  12.201 -1.5202 -0.9126 -0.8126
 8129SOL    HW236021   0.634   1.614  12.118  0.0536  0.9622 -0.9557
 8130SOL     OW36022   2.513   3.730   8.120  0.2768  0.0360  0.6241
 8130SOL    HW136023   2.487   3.663   8.183 -0.6720  0.6095  0.8342
 8130SOL    HW236024   2.496   3.683   8.038 -2.8471 -0.7586  1.7302
 8131SOL     OW36025   0.231   3.149   7.575  0.7837  0.0391 -0.0235
 8131SOL    HW136026   0.206   3.073   7.523 -0.2155 -1.2992  2.3946
 8131SOL    HW236027   0.240   3.213   7.505  1.3697 -1.1475 -1.0454
 8132SOL     OW36028   0.167   4.379   2.847 -0.0541  0.6259 -0.3862
 8132SOL    HW136029   0.142   4.337   2.929  0.5558  0.9330 -0.0420
 8132SOL    HW236030   0.086   4.385   2.795 -2.0719  0.1053  2.6902
 8133SOL     OW36031   1.944   4.133   3.815 -0.0750  0.0657 -0.1961
 8133SOL    HW136032   1.893   4.060   3.850 -0.5370  0.5109  0.0676
 8133SOL    HW236033   1.882   4.186   3.765 -0.9111  0.2917  1.0716
 8134SOL     OW36034   3.239   0.202   4.590 -0.1548 -0.5328 -0.3644
 8134SOL    HW136035   3.274   0.290   4.581 -2.2993  0.5925  2.3366
 8134SOL    HW236036   3.144   0.214   4.599  0.1745  2.2629 -0.8068
 8135SOL     OW36037   1.606   1.564   1.986  0.5946  0.1803 -0.2634
 8135SOL    HW136038   1.697   1.578   2.013  0.6089  0.2466 -0.3448
 8135SOL    HW236039   1.584   1.649   1.946  1.6544 -0.5059 -2.3162
 8136SOL     OW36040   3.913   4.619   2.417 -0.1045 -0.3083 -0.6785
 8136SOL    HW136041   3.843   4.601   2.479  1.1818  0.2557  0.9270
 8136SOL    HW236042   3.954   4.696   2.458 -1.5922  1.1435 -1.8871
 8137SOL     OW36043   4.681   0.943   5.787  0.5097 -0.0081  0.5192
 8137SOL    HW136044   4.638   1.019   5.746  3.0227  0.8428 -0.5051
 8137SOL    HW236045   4.735   0.984   5.855 -1.2580  0.2450  1.7773
 8138SOL     OW36046   0.501   2.159   5.120  0.4326  0.7922 -0.1245
 8138SOL    HW136047   0.428   2.220   5.131  1.0560  1.7054 -1.0574
 8138SOL    HW236048   0.560   2.213   5.067  2.0617  0.9441  1.8136
 8139SOL     OW36049   2.197   1.107  10.531 -0.4202  0.4210 -0.6253
 8139SOL    HW136050   2.281   1.126  10.490  0.3149 -1.6026 -0.0906
 8139SOL    HW236051   2.210   1.014  10.551  2.2329  0.9986  0.3129
 8140SOL     OW36052   0.828   4.029   8.947  0.4098  0.0336  0.8717
 8140SOL    HW136053   0.780   4.080   8.881 -0.7842 -0.0386  1.6918
 8140SOL    HW236054   0.894   4.095   8.964  0.0314  0.4230  0.8401
 8141SOL     OW36055   2.695   4.043   8.649 -0.3965 -0.1076 -0.0480
 8141SOL    HW136056   2.760   4.016   8.714  0.5983 -2.8983 -2.2143
 8141SOL    HW236057   2.716   3.983   8.577 -0.9874  0.0927 -0.3927
 8142SOL     OW36058   0.252   3.883   3.038  0.2788 -0.0604 -0.3420
 8142SOL    HW136059   0.165   3.922   3.025 -0.4031 -0.6138  2.5495
 8142SOL    HW236060   0.247   3.824   2.963 -0.3166  1.7425 -1.7155
 8143SOL     OW36061   0.572   1.125   9.676  0.2761  0.8887 -0.7447
 8143SOL    HW136062   0.531   1.149   9.592 -1.3575  2.0651  0.3797
 8143SOL    HW236063   0.540   1.034   9.672 -0.2712  0.9951  1.5051
 8144SOL     OW36064   4.075   1.835   3.121 -0.1347  0.1883  0.8304
 8144SOL    HW136065   4.002   1.897   3.117 -0.0030  0.4009  1.6568
 8144SOL    HW236066   4.069   1.789   3.038  3.6108  1.2628 -0.0624
 8145SOL     OW36067   2.714   3.007   2.445 -0.3138  0.1764  0.2712
 8145SOL    HW136068   2.761   3.090   2.455 -0.8979  0.4417  0.8732
 8145SOL    HW236069   2.704   2.980   2.536  0.7836 -1.0260  0.0281
 8146SOL     OW36070   0.210   0.045   8.328  0.5510  0.1185  0.8948
 8146SOL    HW136071   0.247   4.695   8.343 -0.6399 -0.6327 -0.4869
 8146SOL    HW236072   0.282   0.108   8.338  0.0088  0.9635 -0.5838
 8147SOL     OW36073   2.128   2.066   8.137  0.0215 -0.0981 -0.4408
 8147SOL    HW136074   2.111   2.023   8.053 -0.8732 -1.2037  0.2948
 8147SOL    HW236075   2.073   2.011   8.193  0.9867  0.7817  1.3436
 8148SOL     OW36076   1.695   2.235   2.587 -0.1490 -0.1479 -0.0036
 8148SOL    HW136077   1.723   2.311   2.636  0.3135  0.9012 -1.8962
 8148SOL    HW236078   1.690   2.275   2.500 -1.7108  0.9216  0.5849
 8149SOL     OW36079   0.465   2.378   9.684 -0.2699  0.1501 -0.7105
 8149SOL    HW136080   0.440   2.388   9.775  0.4640 -0.4804 -0.4444
 8149SOL    HW236081   0.397   2.321   9.647 -1.4291  0.1479  1.4144
 8150SOL     OW36082   0.260   1.814   3.357  0.4817  0.0246  0.4913
 8150SOL    HW136083   0.309   1.768   3.426  1.9137  0.7642 -0.0371
 8150SOL    HW236084   0.253   1.900   3.397  0.6045  0.5337 -0.5926
 8151SOL     OW36085   4.130   0.340   8.978 -0.3045  0.1011 -0.2572
 8151SOL    HW136086   4.105   0.316   9.067  0.1899 -0.3501 -0.2444
 8151SOL    HW236087   4.146   0.433   8.996  1.2133 -0.0248 -0.9578
 8152SOL     OW36088   3.260   0.406   3.923  0.2323 -0.4985 -0.4722
 8152SOL    HW136089   3.283   0.495   3.952  0.9511  0.6095 -4.5349
 8152SOL    HW236090   3.178   0.399   3.973  1.7775  0.1889  2.1804
 8153SOL     OW36091   4.184   2.397   4.427 -0.0718  0.2776 -0.3103
 8153SOL    HW136092   4.173   2.489   4.407  0.2617  0.6418  1.1494
 8153SOL    HW236093   4.132   2.404   4.507 -1.3491  1.5607 -1.2673
 8154SOL     OW36094   0.816   1.998  10.196  0.7868 -0.1960 -0.4861
 8154SOL    HW136095   0.852   2.087  10.196  1.1034 -0.3237  0.9923
 8154SOL    HW236096   0.886   1.946  10.236  0.7559 -1.0007 -1.4837
 8155SOL     OW36097   1.585   3.537   2.502  0.7114  0.1747 -0.0644
 8155SOL    HW136098   1.649   3.502   2.440  0.7480  3.2118 -1.7796
 8155SOL    HW236099   1.624   3.499   2.580  0.3701  1.0390  0.5262
 8156SOL     OW36100   2.100   1.038   1.474  0.1878 -0.3540 -0.5319
 8156SOL    HW136101   2.019   1.081   1.502  0.7679 -0.8942  1.9692
 8156SOL    HW236102   2.075   0.946   1.484 -1.7001  0.2727  0.4586
 8157SOL     OW36103   1.002   3.766   2.574 -0.7361 -0.1077  0.2713
 8157SOL    HW136104   0.991   3.833   2.506  0.7451 -2.7247 -2.5291
 8157SOL    HW236105   0.941   3.809   2.634  0.2590 -0.2107  1.3402
 8158SOL     OW36106   0.512   3.446   5.656  0.7918  0.3931 -0.1506
 8158SOL    HW136107   0.541   3.363   5.694  1.5183  0.0540 -1.4479
 8158SOL    HW236108   0.488   3.417   5.568  2.3584  0.2613 -0.5389
 8159SOL     OW36109   0.448   0.136   5.379  0.3776 -0.1281 -0.1098
 8159SOL    HW136110   0.466   0.059   5.325  1.2194 -0.8343  1.1561
 8159SOL    HW236111   0.538   0.161   5.400  0.1683 -0.0189  0.6733
 8160SOL     OW36112   4.517   2.020   7.499 -0.5751  0.1120 -0.6495
 8160SOL    HW136113   4.527   1.967   7.578  1.3337  2.2746  0.5607
 8160SOL    HW236114   4.424   2.009   7.478 -0.4095  0.7120 -1.7115
 8161SOL     OW36115   0.706   2.270   0.853  0.0804 -1.1706 -0.1082
 8161SOL    HW136116   0.642   2.202   0.876 -1.2385  0.4269  0.9024
 8161SOL    HW236117   0.688   2.332   0.924  1.2308 -0.0061 -0.8406
 8162SOL     OW36118   2.711   2.841   0.740  0.9943  0.1884 -0.3270
 8162SOL    HW136119   2.718   2.931   0.773 -1.6113 -0.1960  1.2553
 8162SOL    HW236120   2.769   2.840   0.664  1.5743 -1.1244  0.1413
 8163SOL     OW36121   4.624   3.590   1.337 -0.0374  0.4170  0.1748
 8163SOL    HW136122   4.574   3.637   1.403  0.0501 -1.9940  1.9356
 8163SOL    HW236123   4.572   3.510   1.343 -1.8125  1.5100 -0.5476
 8164SOL     OW36124   0.765   2.082   3.670 -0.2688 -0.6836  0.7837
 8164SOL    HW136125   0.776   2.026   3.593 -0.9162  0.7377 -0.3461
 8164SOL    HW236126   0.843   2.057   3.719  0.9022  0.8521 -0.2901
 8165SOL     OW36127   0.520   4.534   5.905  0.6461  0.2105  0.2298
 8165SOL    HW136128   0.478   4.480   5.972 -1.6277  0.7734 -0.7660
 8165SOL    HW236129   0.457   4.531   5.833  1.1653  0.0210 -0.2181
 8166SOL     OW36130   4.334   2.069  17.463  0.8563 -0.0656  0.1414
 8166SOL    HW136131   4.427   2.079  17.479  1.6374 -4.3799 -1.8673
 8166SOL    HW236132   4.325   1.978  17.436 -0.6452 -0.8685  3.2991
 8167SOL     OW36133   3.557   1.584   8.147 -0.3534  0.2345  0.1475
 8167SOL    HW136134   3.561   1.661   8.203 -1.2175 -1.4877  2.5594
 8167SOL    HW236135   3.631   1.600   8.088 -0.6412 -0.8526 -0.5107
 8168SOL     OW36136   2.960   1.372   3.447 -0.4774 -0.8826  0.1892
 8168SOL    HW136137   2.978   1.332   3.362 -1.2882 -0.7188 -0.0585
 8168SOL    HW236138   2.911   1.450   3.422 -0.7146 -1.1463 -0.1661
 8169SOL     OW36139   1.707   1.313   1.871 -0.4287 -0.4793  0.2435
 8169SOL    HW136140   1.772   1.316   1.941  0.7126 -0.1327 -0.8154
 8169SOL    HW236141   1.676   1.404   1.879  1.1937  0.0816  0.2462
 8170SOL     OW36142   4.564   2.290   2.801 -1.2399 -0.0166 -0.8679
 8170SOL    HW136143   4.484   2.259   2.760 -0.3966 -2.5828 -0.5505
 8170SOL    HW236144   4.557   2.261   2.892  1.0573 -0.4730 -0.8309
 8171SOL     OW36145   1.197   0.421  15.680 -0.3522 -0.0943 -0.1387
 8171SOL    HW136146   1.154   0.340  15.707 -1.2259 -0.0609 -1.3776
 8171SOL    HW236147   1.171   0.438  15.589 -0.7448  0.0033 -0.0088
 8172SOL     OW36148   3.647   1.885   7.708 -0.2183  0.2270  0.1590
 8172SOL    HW136149   3.623   1.957   7.649 -1.4694 -0.5963 -0.3602
 8172SOL    HW236150   3.693   1.945   7.766  1.1705  2.1997 -2.9434
 8173SOL     OW36151   1.985   4.444   4.759 -0.0898 -0.5203  0.9206
 8173SOL    HW136152   1.928   4.482   4.826 -0.3667  0.3878  0.1637
 8173SOL    HW236153   1.938   4.364   4.736 -2.2048  0.4859  1.7374
 8174SOL     OW36154   3.316   1.959  10.929  0.2696 -0.0978 -0.8112
 8174SOL    HW136155   3.345   1.883  10.979 -3.0362 -1.1346 -0.4555
 8174SOL    HW236156   3.253   2.001  10.987  0.1712 -2.3234  0.6816
 8175SOL     OW36157   4.168   1.465   2.973  0.0837  0.1498 -0.0125
 8175SOL    HW136158   4.260   1.440   2.970 -0.4195 -1.6108 -0.5025
 8175SOL    HW236159   4.130   1.400   3.031  2.3496 -0.9096  0.2499
 8176SOL     OW36160   2.086   3.398   4.380 -0.2485 -0.3157  0.0093
 8176SOL    HW136161   2.070   3.315   4.425  0.8676 -0.1564  0.7284
 8176SOL    HW236162   2.177   3.411   4.408 -0.0322 -0.6097 -0.5682
 8177SOL     OW36163   1.605   4.278   7.292  0.5176  0.3012  0.2553
 8177SOL    HW136164   1.617   4.281   7.387 -1.3804  0.3122  0.4969
 8177SOL    HW236165   1.577   4.366   7.268  0.5762  0.5634  1.1352
 8178SOL     OW36166   2.945   1.770  13.414 -0.1330  0.7133 -0.1276
 8178SOL    HW136167   2.882   1.698  13.410 -0.0633  0.6616 -0.3013
 8178SOL    HW236168   2.921   1.809  13.330  0.0902 -0.5118 -0.7685
 8179SOL     OW36169   2.414   0.822   3.766 -0.4976  0.0057  0.2071
 8179SOL    HW136170   2.443   0.909   3.737 -2.5168  0.0511 -1.6646
 8179SOL    HW236171   2.413   0.772   3.684  0.4538 -0.7119  0.6332
 8180SOL     OW36172   3.596   3.799   9.894 -0.0743  0.0284  0.0083
 8180SOL    HW136173   3.569   3.884   9.857  2.2865  1.4006  1.4584
 8180SOL    HW236174   3.691   3.810   9.898  0.0837 -1.5270  0.3975
 8181SOL     OW36175   0.770   0.193   8.660 -0.1242  0.2427 -0.7960
 8181SOL    HW136176   0.797   0.123   8.719  1.3070  1.0154 -0.5235
 8181SOL    HW236177   0.761   0.135   8.585  2.5670 -0.8626 -0.2475
 8182SOL     OW36178   4.548   2.369   8.994  0.0144 -0.0932  0.6961
 8182SOL    HW136179   4.493   2.337   9.066 -0.7897 -0.6913 -0.1718
 8182SOL    HW236180   4.634   2.384   9.031 -0.4326 -0.5597  1.9142
 8183SOL     OW36181   2.494   2.836   8.414 -0.1505 -0.1193 -0.2730
 8183SOL    HW136182   2.457   2.757   8.452 -2.6936  1.5770  0.7917
 8183SOL    HW236183   2.426   2.850   8.348  1.2959  2.6719 -1.1990
 8184SOL     OW36184   3.904   3.920   3.962 -0.3275  0.0418  0.7566
 8184SOL    HW136185   3.958   3.901   4.039 -3.1791 -1.0482  2.4968
 8184SOL    HW236186   3.833   3.970   4.002 -0.7884 -0.3971  0.4889
 8185SOL     OW36187   4.500   1.910   3.403 -0.3043 -0.0619 -0.1232
 8185SOL    HW136188   4.538   1.952   3.325  0.4578 -2.5204 -1.0683
 8185SOL    HW236189   4.462   1.834   3.359 -0.1208 -0.1551 -0.1218
 8186SOL     OW36190   3.607   4.507   3.070  0.1225 -0.4806  0.0787
 8186SOL    HW136191   3.521   4.546   3.053  0.2003 -0.9068 -1.3346
 8186SOL    HW236192   3.645   4.513   2.982 -2.2126  0.8790 -0.8490
 8187SOL     OW36193   4.459   2.309   6.505  0.1790 -0.0871 -0.1121
 8187SOL    HW136194   4.513   2.380   6.472 -2.4105  2.7092  1.6292
 8187SOL    HW236195   4.413   2.353   6.577  1.2090  0.8641 -0.0540
 8188SOL     OW36196   3.991   2.165   1.975 -0.0839  0.4498  0.0503
 8188SOL    HW136197   3.941   2.083   1.971  0.4338 -0.0148  3.3541
 8188SOL    HW236198   4.028   2.150   2.062  3.1486 -3.3981 -1.9995
 8189SOL     OW36199   3.636   1.871  10.524 -0.4736 -0.3517 -0.4509
 8189SOL    HW136200   3.574   1.916  10.469 -0.7886  0.4444  0.5582
 8189SOL    HW236201   3.638   1.786  10.480 -2.0111 -1.2918  1.3053
 8190SOL     OW36202   0.693   4.436  11.437  0.4724  0.3279  0.1602
 8190SOL    HW136203   0.686   4.470  11.526 -2.3733  0.3432 -0.0718
 8190SOL    HW236204   0.645   4.355  11.457  0.8822  0.2368  0.7919
 8191SOL     OW36205   2.845   0.253   3.269  0.1739  0.7213  0.2035
 8191SOL    HW136206   2.805   0.228   3.353  0.6358 -0.7452 -0.0083
 8191SOL    HW236207   2.799   0.332   3.242 -1.2010 -0.2373 -0.2715
 8192SOL     OW36208   4.600   4.636   3.090 -0.1113  0.0492 -0.0386
 8192SOL    HW136209   4.554   4.630   3.174  1.4291 -1.9089  0.6636
 8192SOL    HW236210   4.689   4.640   3.125 -0.2119  1.4688  0.0482
 8193SOL     OW36211   1.343   4.589   3.354  0.3885  0.5678 -0.4913
 8193SOL    HW136212   1.250   4.581   3.374  0.9373  0.1440  1.8303
 8193SOL    HW236213   1.387   4.542   3.425 -1.1542  0.1124  0.1621
 8194SOL     OW36214   3.046   0.018   5.548  0.3320 -0.1915  0.0293
 8194SOL    HW136215   3.045   4.675   5.495  0.1456 -1.5299  2.0767
 8194SOL    HW236216   3.132   0.013   5.589  1.1247  1.3262 -1.4269
 8195SOL     OW36217   2.267   3.052   5.416 -0.1395  0.1224  0.1442
 8195SOL    HW136218   2.243   3.130   5.367 -2.8321 -1.5898 -1.2581
 8195SOL    HW236219   2.330   3.089   5.478 -0.9131 -0.5138  1.3026
 8196SOL     OW36220   3.645   0.667   0.520 -0.3783  0.1209  0.4931
 8196SOL    HW136221   3.607   0.623   0.444 -2.0825  1.6121  0.5032
 8196SOL    HW236222   3.598   0.607   0.578 -0.2273 -1.2170 -0.7565
 8197SOL     OW36223   3.410   4.387   2.762  0.4274 -0.1657  0.3919
 8197SOL    HW136224   3.333   4.410   2.709 -0.1653 -1.8755  0.5020
 8197SOL    HW236225   3.475   4.447   2.726 -1.7840  2.0257  0.0349
 8198SOL     OW36226   3.231   1.683  17.007 -0.1103  0.3127  0.3334
 8198SOL    HW136227   3.167   1.619  16.977  0.7576 -0.0200 -0.8109
 8198SOL    HW236228   3.275   1.705  16.925  0.1314 -0.8369  0.1523
 8199SOL     OW36229   4.139   2.577  16.264 -0.3691 -0.4033  0.2195
 8199SOL    HW136230   4.134   2.636  16.189 -0.3492  0.8366  1.2019
 8199SOL    HW236231   4.086   2.615  16.333  0.5822  1.0228  0.1639
 8200SOL     OW36232   3.299   2.815   8.571  0.8001  0.2511 -0.0063
 8200SOL    HW136233   3.266   2.846   8.487 -2.7878 -1.1057  0.9116
 8200SOL    HW236234   3.272   2.879   8.637  0.7529  0.2708 -0.0454
 8201SOL     OW36235   0.113   3.191   2.276  0.5871 -0.0704  0.1167
 8201SOL    HW136236   0.166   3.271   2.279  3.8183 -2.2435  1.1002
 8201SOL    HW236237   0.186   3.131   2.265  0.1573 -0.3389 -1.2716
 8202SOL     OW36238   1.626   1.784   7.527  0.5078 -0.0652 -0.3176
 8202SOL    HW136239   1.704   1.737   7.556  0.9989  1.0759  0.2272
 8202SOL    HW236240   1.592   1.726   7.459 -0.5083 -0.2127  0.3200
 8203SOL     OW36241   2.240   0.582   7.109  0.2303 -0.3003 -0.4718
 8203SOL    HW136242   2.286   0.527   7.046 -0.3154  0.7285 -1.7692
 8203SOL    HW236243   2.255   0.539   7.193 -0.5481  1.4175  0.5493
 8204SOL     OW36244   2.187   1.135   5.743  0.2320 -0.1590  0.5058
 8204SOL    HW136245   2.257   1.118   5.805 -0.5519  0.3031  1.5196
 8204SOL    HW236246   2.158   1.221   5.772  1.8508  0.3963  0.4670
 8205SOL     OW36247   3.191   0.075   1.998  0.2302 -0.1437 -0.1445
 8205SOL    HW136248   3.222   0.016   1.929 -0.6135 -0.3305 -0.3559
 8205SOL    HW236249   3.279   0.108   2.018  0.4876 -0.8168 -0.1678
 8206SOL     OW36250   3.954   2.604   1.832  0.1246  0.2545  0.1006
 8206SOL    HW136251   3.892   2.643   1.769  1.5644 -0.1419 -1.5541
 8206SOL    HW236252   3.901   2.541   1.880  0.6881 -0.9626 -0.8865
 8207SOL     OW36253   1.691   0.598   7.110  0.1222  0.1728  0.3013
 8207SOL    HW136254   1.635   0.547   7.051 -0.1357 -0.3537  0.9958
 8207SOL    HW236255   1.631   0.635   7.174 -1.7586 -1.0426 -0.7535
 8208SOL     OW36256   4.239   1.055   4.578 -0.0610 -0.0850  0.2645
 8208SOL    HW136257   4.221   1.133   4.524  0.1469 -1.2210 -1.4370
 8208SOL    HW236258   4.324   1.074   4.617  0.1524  2.5930 -1.4571
 8209SOL     OW36259   2.203   3.568  12.570 -0.1866  1.2407  0.0348
 8209SOL    HW136260   2.170   3.504  12.633  0.8847 -1.4895 -2.1591
 8209SOL    HW236261   2.237   3.639  12.625 -0.6903  0.8104  0.8908
 8210SOL     OW36262   4.702   0.676   5.793  0.2223 -0.1603  0.0460
 8210SOL    HW136263   4.608   0.657   5.799  0.8217 -2.4432  1.9412
 8210SOL    HW236264   4.698   0.770   5.813 -0.7634 -0.1780 -0.0770
 8211SOL     OW36265   3.945   3.282   9.393 -0.2325 -0.2990 -0.6363
 8211SOL    HW136266   4.021   3.269   9.451  0.2610  0.9910 -0.9834
 8211SOL    HW236267   3.870   3.251   9.443 -0.2169  1.4833  0.5028
 8212SOL     OW36268   0.747   1.031  14.504 -0.3692 -0.0630  0.1670
 8212SOL    HW136269   0.679   0.968  14.528  1.6891 -2.2864  0.2535
 8212SOL    HW236270   0.738   1.043  14.410  2.8963  1.7627  0.0926
 8213SOL     OW36271   0.507   3.763   6.384  0.5527  0.0825 -0.1165
 8213SOL    HW136272   0.534   3.840   6.435  2.0376 -0.4826 -0.0400
 8213SOL    HW236273   0.573   3.755   6.314  0.4947  0.6412 -0.2357
 8214SOL     OW36274   0.623   1.663   1.015 -0.1105  0.0546  0.2518
 8214SOL    HW136275   0.615   1.641   1.108 -2.0134 -1.5328 -0.3034
 8214SOL    HW236276   0.665   1.749   1.014 -3.5733  1.7473  0.6087
 8215SOL     OW36277   1.521   2.946   4.611  0.0453  0.3602  0.5663
 8215SOL    HW136278   1.587   3.004   4.650  0.3121  0.0351  0.6011
 8215SOL    HW236279   1.480   2.902   4.686 -3.6382  0.0386 -1.6713
 8216SOL     OW36280   4.068   3.156   6.827 -0.1735 -1.4124 -0.1095
 8216SOL    HW136281   4.107   3.195   6.749 -1.7032  0.5155  0.1078
 8216SOL    HW236282   3.976   3.180   6.824 -0.1375 -1.1806  0.5234
 8217SOL     OW36283   2.425   1.739   4.316 -0.1162 -0.2923  0.4142
 8217SOL    HW136284   2.422   1.644   4.304  0.5647 -0.1251 -1.1285
 8217SOL    HW236285   2.476   1.741   4.397  0.1418  1.2553  0.1990
 8218SOL     OW36286   0.036   4.055  16.265 -0.1621  0.2901 -0.2179
 8218SOL    HW136287   0.059   4.089  16.352  0.2106 -2.6677  0.8454
 8218SOL    HW236288   0.125   4.058  16.230 -0.2141 -0.2240 -0.4024
 8219SOL     OW36289   1.907   1.430   3.602 -0.9275  0.0463 -0.0810
 8219SOL    HW136290   1.918   1.337   3.618  2.1813  0.0830 -1.9103
 8219SOL    HW236291   1.969   1.468   3.665 -0.7229 -1.4289  0.5949
 8220SOL     OW36292   4.438   0.691   4.204 -0.1088 -0.2068  0.5475
 8220SOL    HW136293   4.469   0.773   4.163 -0.6491 -0.4643 -0.3871
 8220SOL    HW236294   4.382   0.658   4.133  1.2886 -0.6309 -0.3667
 8221SOL     OW36295   0.077   0.229   8.545 -0.3710  0.4959  0.4440
 8221SOL    HW136296   4.729   0.253   8.508  0.7493  1.9373 -1.1769
 8221SOL    HW236297   0.117   0.184   8.470 -1.4766 -0.7063  0.5783
 8222SOL     OW36298   2.765   2.757   7.061 -0.6115  0.0546  0.6432
 8222SOL    HW136299   2.800   2.826   7.118 -1.8977  1.9720 -0.8667
 8222SOL    HW236300   2.681   2.794   7.033  0.0636  0.5266 -0.7586
 8223SOL     OW36301   2.463   1.970  11.606  0.5070  0.1629  0.0419
 8223SOL    HW136302   2.494   2.001  11.692  0.9135  3.2474 -1.2059
 8223SOL    HW236303   2.401   1.903  11.634 -0.3487  0.8997 -0.0885
 8224SOL     OW36304   2.323   0.251   6.677 -0.5166  0.1190 -0.4709
 8224SOL    HW136305   2.274   0.310   6.734  0.3285  0.2994  0.0708
 8224SOL    HW236306   2.286   0.169   6.709  0.0832  0.1051  0.1915
 8225SOL     OW36307   2.825   2.420   4.130 -0.2101 -0.1169 -0.0811
 8225SOL    HW136308   2.771   2.353   4.087  0.4126 -0.2239 -0.7098
 8225SOL    HW236309   2.904   2.397   4.080 -0.8727  0.0459 -1.2181
 8226SOL     OW36310   2.232   2.990   9.790 -0.1817 -0.1144 -0.1427
 8226SOL    HW136311   2.202   2.949   9.710  0.7732 -2.1689  0.5504
 8226SOL    HW236312   2.322   2.956   9.794 -0.8156 -1.4921  2.6781
 8227SOL     OW36313   3.426   3.982   2.329 -0.3865 -0.1923  0.2883
 8227SOL    HW136314   3.493   3.938   2.276 -1.3681 -1.2710 -0.0705
 8227SOL    HW236315   3.352   3.926   2.303 -1.4523  1.7078 -0.7701
 8228SOL     OW36316   4.066   2.819  11.010 -0.0166 -0.1565 -0.6784
 8228SOL    HW136317   4.059   2.751  10.944  3.3965 -0.0647 -1.1074
 8228SOL    HW236318   4.075   2.895  10.953 -0.4657 -0.5361 -1.2636
 8229SOL     OW36319   0.301   4.128   4.082 -0.3431 -0.0330 -0.5126
 8229SOL    HW136320   0.263   4.134   4.170  0.4911  0.1465 -0.1603
 8229SOL    HW236321   0.293   4.221   4.062 -1.2334 -0.4703 -2.1218
 8230SOL     OW36322   0.390   1.244  16.146  1.1327 -0.2445  0.2964
 8230SOL    HW136323   0.380   1.339  16.142 -1.4891 -0.4858  1.1533
 8230SOL    HW236324   0.435   1.223  16.227  2.4777 -0.7239 -0.5843
 8231SOL     OW36325   2.679   1.542   6.973  0.3576  0.4839 -0.1388
 8231SOL    HW136326   2.695   1.448   6.960 -0.6741  0.3683 -0.6058
 8231SOL    HW236327   2.753   1.576   7.023  0.5347  0.3657 -0.3173
 8232SOL     OW36328   3.974   2.901  15.989  0.9427  0.0477  0.1535
 8232SOL    HW136329   4.047   2.846  15.962  0.4912 -0.5008  0.0402
 8232SOL    HW236330   3.902   2.860  15.941  1.0193  0.7804 -0.5926
 8233SOL     OW36331   3.743   3.125   3.295 -0.1681  0.2863  0.6469
 8233SOL    HW136332   3.700   3.096   3.215 -0.3925  1.9335  0.1649
 8233SOL    HW236333   3.716   3.216   3.313 -0.6005  0.1754  0.5443
 8234SOL     OW36334   4.140   0.083  10.215 -0.1889 -0.1412  0.1850
 8234SOL    HW136335   4.067   0.036  10.176 -1.1356  2.1555 -0.8345
 8234SOL    HW236336   4.096   0.138  10.280  0.5801  0.5190  0.1508
 8235SOL     OW36337   4.326   3.718  12.350  0.1363 -0.4369 -0.1036
 8235SOL    HW136338   4.296   3.804  12.323 -0.7663  0.0959  2.5305
 8235SOL    HW236339   4.297   3.667  12.275  1.9538 -1.2878 -0.2253
 8236SOL     OW36340   2.843   2.160   5.241 -0.2799  0.2286  0.1153
 8236SOL    HW136341   2.752   2.129   5.242 -0.2498  0.1339 -0.1559
 8236SOL    HW236342   2.870   2.133   5.329  0.3703 -0.9974 -0.4626
 8237SOL     OW36343   1.293   3.728   7.907  0.3312  0.1488  0.5341
 8237SOL    HW136344   1.319   3.725   7.815 -0.9339  1.9907  0.1281
 8237SOL    HW236345   1.372   3.707   7.957  0.1303 -0.4436  0.6112
 8238SOL     OW36346   0.337   0.837   2.018 -0.3466 -0.3017  0.3077
 8238SOL    HW136347   0.429   0.827   1.994 -0.7703 -1.2024 -0.9546
 8238SOL    HW236348   0.300   0.779   1.951 -1.4934 -0.6487  1.2524
 8239SOL     OW36349   1.246   2.588  10.865  0.0640  0.9065 -0.2741
 8239SOL    HW136350   1.294   2.634  10.796  2.0313  0.9810  1.1500
 8239SOL    HW236351   1.203   2.525  10.807  1.5966  1.3603 -1.8773
 8240SOL     OW36352   1.012   4.644   8.637 -0.2580 -0.5480  0.0222
 8240SOL    HW136353   1.076   4.715   8.649  0.4725 -0.7920 -2.4103
 8240SOL    HW236354   1.041   4.613   8.551 -0.8495  1.3341 -0.8542
 8241SOL     OW36355   0.981   2.781   5.416 -0.3520  0.5759  0.4111
 8241SOL    HW136356   0.965   2.869   5.448 -1.9346  0.6603 -0.6188
 8241SOL    HW236357   1.021   2.727   5.485 -0.8269 -1.7608 -1.1291
 8242SOL     OW36358   0.207   4.342   7.229  0.5296  0.2992 -0.1521
 8242SOL    HW136359   0.249   4.339   7.315  1.6217 -1.3709 -0.7562
 8242SOL    HW236360   0.224   4.252   7.201  0.4392  0.5744 -1.0706
 8243SOL     OW36361   2.065   2.897   1.452 -0.0571 -0.2164 -0.6165
 8243SOL    HW136362   2.158   2.886   1.437 -0.4034 -1.2474 -1.9445
 8243SOL    HW236363   2.035   2.972   1.401  0.2185 -1.0555 -2.0105
 8244SOL     OW36364   2.683   1.949   2.218 -0.7355  0.5618 -0.2185
 8244SOL    HW136365   2.679   2.045   2.222  0.5776  0.5963  0.2526
 8244SOL    HW236366   2.693   1.936   2.123 -1.3941  1.2357 -0.3830
 8245SOL     OW36367   4.483   2.518   3.413 -0.3509  0.4584  0.3032
 8245SOL    HW136368   4.456   2.606   3.386  1.5957  0.9206 -0.1408
 8245SOL    HW236369   4.544   2.485   3.347  0.6113  1.0226  0.9198
 8246SOL     OW36370   0.607   3.492   1.951 -0.1223  0.2002 -0.4673
 8246SOL    HW136371   0.601   3.586   1.968  2.3182  0.0573  1.2729
 8246SOL    HW236372   0.688   3.477   2.001 -0.1349  1.5230 -0.0320
 8247SOL     OW36373   4.681   1.556   1.897  0.4673  0.0524  0.9715
 8247SOL    HW136374   4.637   1.641   1.892  1.6247  0.4420 -2.1865
 8247SOL    HW236375   0.015   1.578   1.837 -0.3649  2.4070  0.8503
 8248SOL     OW36376   4.525   2.389  14.283 -0.5670  0.4328 -0.2917
 8248SOL    HW136377   4.519   2.424  14.194  1.2505  1.2604 -0.0915
 8248SOL    HW236378   4.483   2.303  14.280 -0.0490  0.0572  2.9131
 8249SOL     OW36379   4.170   1.866  13.962  0.3379  0.2653  1.0688
 8249SOL    HW136380   4.196   1.911  13.882 -2.5580 -0.4416 -0.2631
 8249SOL    HW236381   4.078   1.891  13.969 -0.6495 -2.2333 -2.8889
 8250SOL     OW36382   1.625   1.637  13.362  0.1628 -0.6897 -0.2476
 8250SOL    HW136383   1.622   1.730  13.385  1.1018 -0.2535 -1.8425
 8250SOL    HW236384   1.552   1.636  13.300 -0.2672  3.3879  0.2010
 8251SOL     OW36385   2.816   3.812  10.918  0.2813 -0.0293 -0.0894
 8251SOL    HW136386   2.770   3.789  10.998 -0.9006 -2.4836 -1.4768
 8251SOL    HW236387   2.834   3.722  10.890 -0.7418  0.1526 -1.3307
 8252SOL     OW36388   1.706   2.775   9.739 -0.2911 -1.2062  0.8024
 8252SOL    HW136389   1.615   2.745   9.733 -0.3106 -1.0993  0.5622
 8252SOL    HW236390   1.701   2.870   9.738 -0.8937 -1.2602 -1.7316
 8253SOL     OW36391   0.717   1.235  13.743 -0.2232  0.2523  0.2990
 8253SOL    HW136392   0.754   1.237  13.655 -0.3378 -1.7867  0.2049
 8253SOL    HW236393   0.697   1.325  13.769 -1.4429  0.1341 -0.2312
 8254SOL     OW36394   4.438   4.631   2.639  0.0541  0.2550  0.4758
 8254SOL    HW136395   4.404   4.684   2.711  2.3929 -3.3767  4.1956
 8254SOL    HW236396   4.522   4.676   2.634 -0.0837  0.9249  4.3045
 8255SOL     OW36397   0.117   1.727  14.222  0.4774 -0.3598  0.4663
 8255SOL    HW136398   0.196   1.676  14.206  2.2519  1.9691  1.8200
 8255SOL    HW236399   0.048   1.675  14.180  2.5402 -2.2697 -0.6063
 8256SOL     OW36400   3.066   1.243   3.885 -0.2428  0.2192  0.3664
 8256SOL    HW136401   3.120   1.312   3.847 -2.2231  1.4506 -0.1484
 8256SOL    HW236402   2.987   1.249   3.832 -1.3020 -2.3387  1.6555
 8257SOL     OW36403   0.116   0.705   3.761  0.1065  0.2901  0.1251
 8257SOL    HW136404   0.192   0.742   3.716  1.1736 -0.3884  1.3652
 8257SOL    HW236405   0.144   0.619   3.792 -1.5092 -0.3324 -0.1472
 8258SOL     OW36406   4.577   2.358   5.505 -0.5130  0.5890  0.4630
 8258SOL    HW136407   4.631   2.395   5.574  0.6036  1.8281 -1.0642
 8258SOL    HW236408   4.488   2.343   5.538  0.0007  2.3236  2.5665
 8259SOL     OW36409   0.267   4.664   1.214 -0.1774 -0.3352 -0.0239
 8259SOL    HW136410   0.321   4.726   1.264 -1.7310  0.6931  0.3957
 8259SOL    HW236411   0.327   4.613   1.161 -0.8518 -0.2318 -0.8926
 8260SOL     OW36412   4.665   2.106   7.909  0.1877  0.1027 -0.5161
 8260SOL    HW136413   4.724   2.169   7.951 -1.0782  2.7202 -2.6571
 8260SOL    HW236414   4.682   2.119   7.815 -0.7491 -1.7377 -0.9362
 8261SOL     OW36415   1.221   3.306  13.536  0.3528 -0.0811  0.1209
 8261SOL    HW136416   1.314   3.313  13.515  0.7635  0.1910  2.0682
 8261SOL    HW236417   1.183   3.394  13.540 -2.2547 -1.2219  0.5519
 8262SOL     OW36418   4.635   1.083   7.627  0.0652  0.3626  0.0136
 8262SOL    HW136419   4.606   1.167   7.591 -2.2627  0.6495  2.5671
 8262SOL    HW236420   4.650   1.109   7.718 -0.6923 -0.3885  0.3582
 8263SOL     OW36421   2.106   2.524   1.626 -0.2436  0.6518 -0.0124
 8263SOL    HW136422   2.161   2.593   1.663  0.6450 -0.5947  1.0202
 8263SOL    HW236423   2.161   2.507   1.550  0.6462  0.5346  0.6523
 8264SOL     OW36424   0.432   2.201   5.897 -0.3589  0.0328  0.3686
 8264SOL    HW136425   0.370   2.138   5.932 -0.0448  0.0962  1.0351
 8264SOL    HW236426   0.399   2.283   5.934  1.7591  0.7384  0.7440
 8265SOL     OW36427   0.863   1.292  14.844  0.4341 -0.5869 -0.2982
 8265SOL    HW136428   0.871   1.380  14.808  0.6955 -1.3772 -2.1817
 8265SOL    HW236429   0.778   1.264  14.811  0.2608  0.2952 -0.6137
 8266SOL     OW36430   4.726   3.282   3.534  0.0259 -0.6558  0.0182
 8266SOL    HW136431   0.026   3.194   3.538 -0.9160 -0.9882  1.3195
 8266SOL    HW236432   0.068   3.329   3.562  0.4965 -1.2406 -0.3269
 8267SOL     OW36433   0.558   3.004   7.046  0.3446 -0.8939  0.0913
 8267SOL    HW136434   0.583   2.912   7.035 -2.2008 -1.4234 -1.1151
 8267SOL    HW236435   0.531   3.037   6.960  0.8367  0.4461  0.4506
 8268SOL     OW36436   3.950   4.621  10.088 -0.1762 -0.4018  0.0327
 8268SOL    HW136437   3.992   4.564  10.152  2.2247  2.0210  0.6307
 8268SOL    HW236438   3.955   4.572  10.006  0.3659 -1.7225  0.8560
 8269SOL     OW36439   2.243   0.022   0.085  0.2667  0.0293  0.5073
 8269SOL    HW136440   2.306   0.010   0.156  0.0294 -1.2427  0.4968
 8269SOL    HW236441   2.268   4.682   0.034 -0.2974  1.0204 -1.2859
 8270SOL     OW36442   3.843   0.774   2.498  0.2425 -0.5643 -0.3443
 8270SOL    HW136443   3.785   0.805   2.429 -0.6396 -0.5750  0.3911
 8270SOL    HW236444   3.917   0.832   2.480 -2.3346  2.0679 -2.3759
 8271SOL     OW36445   0.022   0.469  14.706  0.3731  0.1308 -0.1591
 8271SOL    HW136446   0.080   0.535  14.669  1.8892 -0.3063  1.4554
 8271SOL    HW236447   0.085   0.398  14.719  0.0185 -0.2574 -0.5402
 8272SOL     OW36448   3.915   3.945   8.426 -0.9008  0.2517  0.1505
 8272SOL    HW136449   3.827   3.918   8.401 -0.4451 -1.1416  0.0723
 8272SOL    HW236450   3.891   4.019   8.483  0.4530 -0.9114  2.1935
 8273SOL     OW36451   3.482   3.483   7.579 -0.2588 -0.4304 -0.7500
 8273SOL    HW136452   3.454   3.439   7.498  0.0802  0.1118 -1.1644
 8273SOL    HW236453   3.419   3.450   7.643 -0.0301  0.0362 -0.2822
 8274SOL     OW36454   3.459   4.080  10.195  0.2733 -0.2708  0.5885
 8274SOL    HW136455   3.510   3.999  10.189  1.3460  0.4480 -0.1078
 8274SOL    HW236456   3.398   4.046  10.260  1.0005 -2.5229  0.0679
 8275SOL     OW36457   2.841   3.664  11.775  0.3717  0.2780  0.0553
 8275SOL    HW136458   2.802   3.619  11.850 -0.2872  0.0207 -0.4337
 8275SOL    HW236459   2.853   3.600  11.704  2.0807 -1.6808  2.0920
 8276SOL     OW36460   4.142   1.275   4.856 -0.0443  0.0477 -0.0605
 8276SOL    HW136461   4.207   1.276   4.786  0.8488 -0.7738  0.7654
 8276SOL    HW236462   4.066   1.240   4.810  0.4797  0.7172 -1.4391
 8277SOL     OW36463   0.775   2.138  13.861  0.3913 -0.0670  0.3072
 8277SOL    HW136464   0.735   2.193  13.929 -0.2092  0.0382 -0.1430
 8277SOL    HW236465   0.826   2.076  13.914 -4.6280 -1.2741  3.6565
 8278SOL     OW36466   3.674   1.959   6.345  0.6127  0.1505 -0.0509
 8278SOL    HW136467   3.757   1.987   6.305 -0.2695 -0.1445 -2.0952
 8278SOL    HW236468   3.638   2.046   6.361  0.3886  0.1414 -0.5139
 8279SOL     OW36469   3.781   1.734  10.930 -0.3167  0.1319 -0.6473
 8279SOL    HW136470   3.716   1.762  10.994  0.0552  0.2523 -0.3233
 8279SOL    HW236471   3.860   1.709  10.977 -0.2365 -1.0334 -1.3949
 8280SOL     OW36472   3.663   0.880   7.576 -0.1302  0.3638 -0.0919
 8280SOL    HW136473   3.682   0.858   7.667 -0.3966 -0.3483 -0.2024
 8280SOL    HW236474   3.688   0.972   7.586  4.3681 -0.6429 -2.0733
 8281SOL     OW36475   2.382   1.615   3.714  0.0334 -0.1809 -0.3881
 8281SOL    HW136476   2.421   1.533   3.684 -0.7423 -1.0450  0.9953
 8281SOL    HW236477   2.432   1.639   3.792  1.1371  1.2304 -1.5058
 8282SOL     OW36478   0.170   4.530  17.232  0.5303  0.0326  0.1083
 8282SOL    HW136479   0.250   4.499  17.189  0.0757  0.2721 -0.8958
 8282SOL    HW236480   0.168   4.479  17.313 -0.8873 -0.0162  0.0340
 8283SOL     OW36481   1.631   3.938   7.942  0.0775 -0.1554 -0.5658
 8283SOL    HW136482   1.691   3.871   7.974 -0.8757 -0.9634 -0.4900
 8283SOL    HW236483   1.569   3.944   8.015  2.2610  0.1175  1.2862
 8284SOL     OW36484   1.533   4.424   9.647  0.4650  0.0663  0.1710
 8284SOL    HW136485   1.531   4.461   9.735  0.5839  1.7726 -0.5559
 8284SOL    HW236486   1.624   4.396   9.651  0.5420  0.5100  1.6678
 8285SOL     OW36487   3.608   4.162   9.148 -0.2484 -0.0054 -0.5243
 8285SOL    HW136488   3.590   4.253   9.171 -0.5889 -0.4723  1.0553
 8285SOL    HW236489   3.674   4.148   9.216 -0.4612 -2.2521 -0.7995
 8286SOL     OW36490   1.933   4.189   1.980 -0.0095 -0.3214 -0.1755
 8286SOL    HW136491   1.878   4.263   2.006  1.1577  1.4384 -2.6983
 8286SOL    HW236492   1.899   4.176   1.891 -1.0814  0.3738  0.1346
 8287SOL     OW36493   0.830   0.365   7.465 -0.4731 -0.4201  0.2085
 8287SOL    HW136494   0.751   0.418   7.475  1.1123  2.0382 -0.1963
 8287SOL    HW236495   0.854   0.330   7.551 -1.4381  0.5665  0.8765
 8288SOL     OW36496   1.547   2.436  16.538 -0.5756 -0.1837  0.7394
 8288SOL    HW136497   1.548   2.344  16.509 -0.5893  0.2925 -0.8063
 8288SOL    HW236498   1.452   2.445  16.545 -0.4597  1.8850 -0.2912
 8289SOL     OW36499   2.222   1.935  13.131 -0.0991 -0.2974  0.0307
 8289SOL    HW136500   2.262   2.010  13.175  0.7273  0.2807 -1.7007
 8289SOL    HW236501   2.218   1.967  13.041  0.6095  0.0752  0.1262
 8290SOL     OW36502   3.238   3.939   9.884  0.1593  0.8380  0.0094
 8290SOL    HW136503   3.218   4.018   9.933 -1.6983  1.2065 -1.3362
 8290SOL    HW236504   3.332   3.949   9.872  0.1745  1.1001  0.3468
 8291SOL     OW36505   3.512   1.007   6.621 -0.1631  1.0362 -0.0139
 8291SOL    HW136506   3.446   1.011   6.552  1.2212  0.9762 -1.3625
 8291SOL    HW236507   3.563   0.930   6.595  0.1069  2.3117 -3.3484
 8292SOL     OW36508   0.161   4.159   6.446 -0.1554  0.1150  0.0320
 8292SOL    HW136509   0.135   4.223   6.380  0.3678 -0.6277 -0.9111
 8292SOL    HW236510   0.256   4.159   6.434  0.1201  0.5435  2.3161
 8293SOL     OW36511   1.538   1.902  14.854 -0.0276  0.7234 -0.2063
 8293SOL    HW136512   1.525   1.937  14.766 -1.8469  1.1760  0.2380
 8293SOL    HW236513   1.446   1.886  14.877 -0.4881 -1.9423 -3.8432
 8294SOL     OW36514   0.148   1.309   9.814  0.5353 -0.1534 -0.4970
 8294SOL    HW136515   0.169   1.218   9.835  1.0112  0.1451  0.3155
 8294SOL    HW236516   0.135   1.302   9.719 -0.4917 -0.1208 -0.3601
 8295SOL     OW36517   4.651   2.126  15.978  0.4520  0.5708 -0.3393
 8295SOL    HW136518   4.689   2.094  15.896  0.5752 -1.7632  0.6220
 8295SOL    HW236519   4.727   2.175  16.011 -0.6727  2.3155 -0.3754
 8296SOL     OW36520   3.322   1.675   4.992  0.1347 -0.3434  0.4530
 8296SOL    HW136521   3.309   1.645   5.082  2.4065 -1.6454  0.3550
 8296SOL    HW236522   3.231   1.672   4.961  0.4678  1.7796 -0.7247
 8297SOL     OW36523   4.360   0.080   6.609  0.0159 -0.1700 -1.1144
 8297SOL    HW136524   4.357   0.057   6.702 -0.4418 -0.4792 -1.2058
 8297SOL    HW236525   4.435   0.022   6.595  1.1650  1.0946 -0.2679
 8298SOL     OW36526   2.479   0.482   2.731 -0.0321  0.4493 -0.1466
 8298SOL    HW136527   2.423   0.511   2.660  1.6255 -2.8584 -2.8128
 8298SOL    HW236528   2.470   0.389   2.712 -0.1926  0.4617 -0.1309
 8299SOL     OW36529   4.687   1.360   2.355 -0.0934 -0.0888  0.3342
 8299SOL    HW136530   4.704   1.392   2.444  3.8658 -0.9587 -0.1039
 8299SOL    HW236531   0.019   1.299   2.330  0.4858 -0.3894  2.5933
 8300SOL     OW36532   4.634   0.928  13.242 -0.1511  0.9598 -0.0903
 8300SOL    HW136533   4.597   0.973  13.166 -1.9318  0.9962  0.7919
 8300SOL    HW236534   4.708   0.989  13.250 -0.9066  1.7303  1.1412
 8301SOL     OW36535   0.294   4.078   3.212  0.4881  0.5356  0.7982
 8301SOL    HW136536   0.305   4.003   3.155 -0.8209  3.4627 -3.3100
 8301SOL    HW236537   0.253   4.135   3.147  0.3888 -0.2680  0.1540
 8302SOL     OW36538   4.599   1.380   4.968  0.4390  0.2247 -0.5372
 8302SOL    HW136539   4.528   1.320   4.988  1.7417 -1.2498 -0.3108
 8302SOL    HW236540   4.544   1.457   4.952  0.3961 -0.1236 -2.0746
 8303SOL     OW36541   3.693   2.193   5.844 -0.1135 -0.9809  0.3123
 8303SOL    HW136542   3.687   2.147   5.761  0.6809 -0.2429 -0.1510
 8303SOL    HW236543   3.690   2.284   5.814  3.4962 -0.9383  0.1142
 8304SOL     OW36544   3.801   1.685   8.127 -0.4498 -0.8889 -0.0494
 8304SOL    HW136545   3.845   1.744   8.065 -1.5563  0.5142  0.5248
 8304SOL    HW236546   3.805   1.733   8.210  1.3573 -1.7360  0.3621
 8305SOL     OW36547   2.663   0.998   2.248 -0.2641  0.0617  0.4019
 8305SOL    HW136548   2.601   1.071   2.246  0.3050  0.5608  1.1931
 8305SOL    HW236549   2.740   1.049   2.223 -0.1403  0.3205  1.3216
 8306SOL     OW36550   1.359   2.976   3.235  0.5255  0.0974 -0.3300
 8306SOL    HW136551   1.393   2.928   3.160  0.3393 -0.2106 -0.2149
 8306SOL    HW236552   1.385   3.066   3.215 -0.9535  0.4532 -0.6643
 8307SOL     OW36553   0.875   3.587   3.881 -0.3019 -0.1955  0.1476
 8307SOL    HW136554   0.932   3.599   3.804 -0.2826 -2.5334 -0.1838
 8307SOL    HW236555   0.819   3.665   3.876 -0.1602 -0.1803 -1.3795
 8308SOL     OW36556   3.256   2.456   3.741 -0.1340  0.2038 -0.3365
 8308SOL    HW136557   3.281   2.382   3.796 -1.3020 -0.3856 -0.6032
 8308SOL    HW236558   3.195   2.504   3.797 -0.8172 -1.2911  0.1908
 8309SOL     OW36559   2.437   3.779   6.255 -0.1382  0.3374 -0.1426
 8309SOL    HW136560   2.351   3.817   6.238  0.5252  1.5044 -0.9140
 8309SOL    HW236561   2.459   3.779   6.162 -0.7399  0.3214 -0.2842
 8310SOL     OW36562   4.006   2.347   9.171  0.0433  0.5144  0.4838
 8310SOL    HW136563   3.944   2.390   9.230 -1.6458 -0.5523 -0.4966
 8310SOL    HW236564   4.035   2.416   9.111  0.4035 -1.7862 -2.0231
 8311SOL     OW36565   0.506   0.776   4.380  0.3543 -0.2490  0.3973
 8311SOL    HW136566   0.595   0.755   4.349  0.4686 -0.7658  1.0792
 8311SOL    HW236567   0.493   0.719   4.455  1.6202 -0.5540  0.3813
 8312SOL     OW36568   3.059   3.630   2.805 -0.7125  0.0982 -0.2857
 8312SOL    HW136569   2.993   3.664   2.744  0.2781  1.3354 -0.6778
 8312SOL    HW236570   2.996   3.625   2.877 -0.5990 -2.7673 -0.4100
 8313SOL     OW36571   2.414   2.131   7.631 -0.1550  0.0055 -0.6732
 8313SOL    HW136572   2.393   2.169   7.545  1.6175  0.5365 -0.8790
 8313SOL    HW236573   2.421   2.211   7.684 -2.1632 -0.5437  0.3684
 8314SOL     OW36574   2.639   0.228   3.535  0.3593 -0.4073 -0.1481
 8314SOL    HW136575   2.682   0.313   3.544  0.9168 -0.8179  0.9889
 8314SOL    HW236576   2.700   0.168   3.578 -0.0279  0.2786  1.3578
 8315SOL     OW36577   2.180   2.185   6.139 -0.1392  0.3455 -0.0183
 8315SOL    HW136578   2.099   2.134   6.135  0.5928 -0.9167  1.0786
 8315SOL    HW236579   2.143   2.268   6.168  0.1823  0.1174  1.0473
 8316SOL     OW36580   2.134   0.873  17.030 -0.3212  0.3812  0.4269
 8316SOL    HW136581   2.220   0.903  17.001 -0.3380  0.0752  0.0578
 8316SOL    HW236582   2.156   0.845  17.119 -1.4779  0.4542  0.7278
 8317SOL     OW36583   0.244   2.337   6.112  0.1707  0.4699 -0.3058
 8317SOL    HW136584   0.188   2.333   6.190 -0.2103  1.6901 -0.5065
 8317SOL    HW236585   0.231   2.426   6.080 -1.9847  0.5335  0.7576
 8318SOL     OW36586   1.432   1.558   0.872 -0.2911 -0.3423  0.7381
 8318SOL    HW136587   1.396   1.624   0.931 -2.3178  0.2542 -1.1543
 8318SOL    HW236588   1.501   1.611   0.831  0.8332 -1.6788  0.9002
 8319SOL     OW36589   0.268   2.050   3.484 -0.3407 -0.3967 -0.8644
 8319SOL    HW136590   0.263   2.032   3.578  1.2292  0.3247 -0.6364
 8319SOL    HW236591   0.346   2.106   3.486 -1.1336  0.5874  2.7463
 8320SOL     OW36592   2.997   0.218   4.468  0.4580 -0.0955 -0.4267
 8320SOL    HW136593   3.023   0.130   4.441  0.6466 -0.5422  1.2091
 8320SOL    HW236594   2.921   0.205   4.524 -0.1036  1.8229 -0.7249
 8321SOL     OW36595   1.414   1.185   3.387 -0.5515 -0.2003 -0.1725
 8321SOL    HW136596   1.500   1.195   3.428  0.5988 -1.6609 -2.1768
 8321SOL    HW236597   1.434   1.233   3.306  0.0593  2.0070  1.2783
 8322SOL     OW36598   0.888   3.523  15.731  0.3168 -0.0292 -0.3114
 8322SOL    HW136599   0.873   3.591  15.797  0.8709 -0.9296  0.7418
 8322SOL    HW236600   0.862   3.442  15.775 -1.9253  0.3095 -1.0347
 8323SOL     OW36601   0.760   1.859   4.748 -0.0912 -0.5174 -0.2623
 8323SOL    HW136602   0.701   1.932   4.728 -1.3127 -1.2226  0.8314
 8323SOL    HW236603   0.698   1.795   4.782  0.7872 -1.3518 -0.2529
 8324SOL     OW36604   1.272   0.593   1.963 -0.1880 -0.4274  0.1988
 8324SOL    HW136605   1.235   0.507   1.981 -1.2507  0.0998  0.5526
 8324SOL    HW236606   1.365   0.572   1.955 -0.0120  0.1181  0.8259
 8325SOL     OW36607   4.667   2.018   4.972  0.0067 -0.8423 -0.5288
 8325SOL    HW136608   0.005   2.051   5.020  0.0354 -0.4622 -0.8330
 8325SOL    HW236609   4.601   2.027   5.041  0.9417  1.2443  0.0946
 8326SOL     OW36610   4.394   1.687   6.701  0.9092  0.5270  1.0022
 8326SOL    HW136611   4.463   1.737   6.658  1.4096 -1.0651 -0.0222
 8326SOL    HW236612   4.446   1.636   6.763  1.7133  0.7259  0.4880
 8327SOL     OW36613   2.635   0.885   5.966  0.4733 -0.4562  0.9070
 8327SOL    HW136614   2.645   0.852   5.876 -1.1823  1.4966  0.0024
 8327SOL    HW236615   2.617   0.806   6.016  1.4164 -0.3806  1.3708
 8328SOL     OW36616   4.357   3.533  15.253  0.1877 -0.0048  0.0298
 8328SOL    HW136617   4.298   3.573  15.318 -2.5986 -2.1564 -1.1459
 8328SOL    HW236618   4.340   3.586  15.176  2.8588  0.5281 -0.1579
 8329SOL     OW36619   3.574   4.269   5.689 -0.1744 -0.3266 -0.4601
 8329SOL    HW136620   3.582   4.361   5.713  1.1765 -0.4544 -0.3968
 8329SOL    HW236621   3.663   4.256   5.658  1.1081  1.6930  2.3559
 8330SOL     OW36622   2.608   3.941   3.307 -0.0302  0.3090 -0.1897
 8330SOL    HW136623   2.662   3.993   3.366 -1.4619 -0.0178  1.4361
 8330SOL    HW236624   2.677   3.892   3.263  0.5755  0.4773  0.5784
 8331SOL     OW36625   0.628   0.014   7.937  0.1884  0.6698 -0.2544
 8331SOL    HW136626   0.703   0.043   7.989  1.6917 -2.6519 -0.5856
 8331SOL    HW236627   0.656   0.026   7.846 -0.0543  1.4322 -0.2249
 8332SOL     OW36628   2.119   1.379   5.840  0.8118 -0.2730 -0.1600
 8332SOL    HW136629   2.092   1.406   5.927 -3.6595 -0.5931 -1.4793
 8332SOL    HW236630   2.056   1.430   5.788 -1.1208  1.1293  3.6008
 8333SOL     OW36631   3.866   0.082   8.230  0.0688 -0.2167 -0.2665
 8333SOL    HW136632   3.950   0.121   8.206 -1.2399  1.1270 -2.5699
 8333SOL    HW236633   3.901   0.017   8.291  0.2665  0.6312  0.5248
 8334SOL     OW36634   3.908   3.893   9.112  0.2881 -0.4550  0.5771
 8334SOL    HW136635   3.867   3.872   9.028  1.7567  0.4973 -0.3744
 8334SOL    HW236636   3.845   3.867   9.180 -0.9255 -1.8687 -1.0783
 8335SOL     OW36637   4.551   2.274  12.073  0.3596 -0.1688  0.1505
 8335SOL    HW136638   4.472   2.248  12.120  0.0547  0.9915  0.2926
 8335SOL    HW236639   4.613   2.213  12.113  0.3347  0.0353  0.5018
 8336SOL     OW36640   3.327   2.609   4.089  0.4194  0.3143 -0.1995
 8336SOL    HW136641   3.308   2.613   4.183 -0.5780 -3.8778 -0.2382
 8336SOL    HW236642   3.410   2.562   4.094  0.6413  0.5307 -1.8109
 8337SOL     OW36643   3.771   1.385   4.784  0.0652  0.5106  0.0588
 8337SOL    HW136644   3.770   1.384   4.880  1.1255 -2.0749  0.0279
 8337SOL    HW236645   3.851   1.432   4.760  0.5318 -0.9883 -1.2486
 8338SOL     OW36646   4.458   3.576   2.515 -0.2771 -0.3298  0.4367
 8338SOL    HW136647   4.464   3.664   2.477 -1.6380  0.2054  1.4358
 8338SOL    HW236648   4.490   3.594   2.603 -1.0645 -0.5629  0.7680
 8339SOL     OW36649   3.318   1.953   1.116 -0.1310  0.2037 -0.2156
 8339SOL    HW136650   3.240   1.902   1.140 -1.7055  2.0890 -1.3561
 8339SOL    HW236651   3.287   2.026   1.062 -0.2435 -0.0624 -0.5138
 8340SOL     OW36652   2.621   2.056   6.721 -0.0288 -0.2866  0.5629
 8340SOL    HW136653   2.578   2.090   6.800  0.5208  3.1756 -0.6296
 8340SOL    HW236654   2.571   1.977   6.697 -2.3088  1.0821  0.8095
 8341SOL     OW36655   4.188   3.883  15.252 -0.8704  0.2828  0.3504
 8341SOL    HW136656   4.196   3.877  15.347 -0.5062 -0.2274  0.2896
 8341SOL    HW236657   4.199   3.977  15.237  2.6511 -0.3173 -0.8261
 8342SOL     OW36658   4.293   2.501   5.481 -0.7460 -0.5494 -0.5929
 8342SOL    HW136659   4.372   2.551   5.502  0.5032 -3.6942  2.1483
 8342SOL    HW236660   4.250   2.559   5.419 -0.8053  0.1803  0.1287
 8343SOL     OW36661   0.801   4.600   8.160 -0.4507  0.4727  0.3031
 8343SOL    HW136662   0.757   4.554   8.232 -1.9762  1.4015 -0.0271
 8343SOL    HW236663   0.803   4.684   8.205  1.7702  0.6823 -0.2019
 8344SOL     OW36664   4.487   0.007  16.208 -0.7033 -0.0269  0.4018
 8344SOL    HW136665   4.450   0.048  16.129  1.5874  1.7534  0.2463
 8344SOL    HW236666   4.490   0.075  16.274 -0.4422 -0.6837  1.0618
 8345SOL     OW36667   2.710   3.106   8.280  0.5109  0.0411 -0.0404
 8345SOL    HW136668   2.696   3.037   8.215  1.7746 -0.3615  0.1158
 8345SOL    HW236669   2.680   3.066   8.361  3.7451  2.4033  2.3642
 8346SOL     OW36670   3.909   1.858   2.519 -0.0564  0.5445 -0.5698
 8346SOL    HW136671   3.855   1.933   2.492  0.2396  0.6761 -0.8033
 8346SOL    HW236672   3.943   1.896   2.600  0.1770 -0.3194 -0.2643
 8347SOL     OW36673   2.772   4.237   1.676 -0.1054  0.0591  0.0081
 8347SOL    HW136674   2.787   4.330   1.691  1.7488  0.0519 -1.6598
 8347SOL    HW236675   2.677   4.241   1.673 -0.0875 -0.5988 -1.8600
 8348SOL     OW36676   3.908   2.769   8.456 -0.1350  0.0098  0.4437
 8348SOL    HW136677   3.836   2.748   8.515 -1.3178 -0.1950 -1.0509
 8348SOL    HW236678   3.971   2.793   8.524  0.0770 -1.6435  0.8410
 8349SOL     OW36679   0.431   3.421  14.716  0.3544 -0.1943  0.3650
 8349SOL    HW136680   0.419   3.513  14.742 -2.0084 -0.6989  1.1261
 8349SOL    HW236681   0.511   3.437  14.666 -1.3163  0.8326 -1.9979
 8350SOL     OW36682   1.386   4.599   4.748  0.0927  0.0183 -0.3511
 8350SOL    HW136683   1.367   4.651   4.670  1.7491  1.9866  0.5457
 8350SOL    HW236684   1.388   4.667   4.815 -1.7246  0.2352 -0.5157
 8351SOL     OW36685   2.179   3.747  13.530  0.4898  0.0249  0.0054
 8351SOL    HW136686   2.106   3.698  13.567 -0.5571  1.7498  0.2387
 8351SOL    HW236687   2.242   3.762  13.600  1.8143 -2.3123 -0.7078
 8352SOL     OW36688   3.087   2.338   0.476 -0.3712 -0.7402  0.0751
 8352SOL    HW136689   3.125   2.424   0.494  1.6076 -1.9400  1.6352
 8352SOL    HW236690   3.150   2.295   0.417  2.3014  1.8447  1.0810
 8353SOL     OW36691   0.398   4.243   5.890 -0.2473  0.5443 -0.2188
 8353SOL    HW136692   0.475   4.298   5.904 -1.1611  1.0655  2.6676
 8353SOL    HW236693   0.436   4.172   5.839  2.5754  0.3771  2.1696
 8354SOL     OW36694   1.846   0.180   3.432 -0.5330  0.1546  0.2158
 8354SOL    HW136695   1.828   0.254   3.490  0.8932 -0.4568  1.4427
 8354SOL    HW236696   1.783   0.194   3.361 -0.2836  0.2508  0.0140
 8355SOL     OW36697   3.803   0.279  17.249  0.4096 -0.4316  0.0472
 8355SOL    HW136698   3.755   0.214  17.197 -0.7034 -0.7683  1.4871
 8355SOL    HW236699   3.843   0.341  17.188 -0.5345 -0.3141 -0.4496
 8356SOL     OW36700   2.574   2.072   7.202  0.4109  0.1259 -0.2755
 8356SOL    HW136701   2.520   1.993   7.200  0.9674 -0.2461 -0.7032
 8356SOL    HW236702   2.607   2.074   7.112 -0.8722  1.0729 -0.7195
 8357SOL     OW36703   3.563   2.479  15.238  0.0246 -0.4726  0.4635
 8357SOL    HW136704   3.620   2.418  15.284 -0.8598 -1.0089  0.8441
 8357SOL    HW236705   3.617   2.558  15.234 -0.6076 -0.0853 -0.4370
 8358SOL     OW36706   3.042   4.321  17.030 -0.7718  0.1688 -0.1985
 8358SOL    HW136707   2.987   4.386  16.986 -0.6513  0.9645  0.8316
 8358SOL    HW236708   3.077   4.284  16.948  0.7879  2.1762 -0.4471
 8359SOL     OW36709   2.309   0.084  13.281 -0.0354 -0.1796  0.4618
 8359SOL    HW136710   2.300   0.066  13.375 -0.6142 -0.6072  0.3300
 8359SOL    HW236711   2.326   0.177  13.270 -1.6457  0.1816  0.9074
 8360SOL     OW36712   4.247   4.061   0.791 -0.1064 -0.4699  0.4269
 8360SOL    HW136713   4.236   4.077   0.884 -1.1269 -1.1719  0.4231
 8360SOL    HW236714   4.181   3.994   0.772  0.0297 -0.5136  0.1031
 8361SOL     OW36715   1.809   3.034   1.078  0.3408 -0.7706 -0.3902
 8361SOL    HW136716   1.756   3.016   1.000 -0.2056 -2.8192  0.4620
 8361SOL    HW236717   1.859   2.953   1.079  0.2487 -0.8141  0.8925
 8362SOL     OW36718   1.808   0.462   5.838  0.6763  0.2443  0.0841
 8362SOL    HW136719   1.743   0.448   5.908 -0.0766 -0.8774 -0.8326
 8362SOL    HW236720   1.852   0.543   5.862  1.9999 -0.0369 -1.3923
 8363SOL     OW36721   0.914   3.380   8.792 -0.3274  0.1027 -0.2319
 8363SOL    HW136722   0.847   3.311   8.802  1.1134 -1.4008 -0.8526
 8363SOL    HW236723   0.899   3.438   8.866 -0.8050  1.4604 -1.4086
 8364SOL     OW36724   4.129   1.930   2.167 -0.3649  0.4883 -0.3569
 8364SOL    HW136725   4.075   1.934   2.246 -0.0331 -0.3815 -0.0827
 8364SOL    HW236726   4.201   1.991   2.184 -1.1922  1.5316 -0.6238
 8365SOL     OW36727   3.085   0.259  17.353  0.3106 -0.5338  0.1082
 8365SOL    HW136728   2.992   0.271  17.331  0.7690  0.4688 -1.2906
 8365SOL    HW236729   3.126   0.276  17.268 -0.7248 -0.4589 -0.3843
 8366SOL     OW36730   0.357   0.714   7.622 -0.3932 -0.4433  0.0412
 8366SOL    HW136731   0.379   0.708   7.529 -1.6155  2.5220 -0.4435
 8366SOL    HW236732   0.434   0.762   7.650 -0.6302  0.2910 -0.5701
 8367SOL     OW36733   0.988   1.671   1.099 -0.3518 -0.0423 -0.4190
 8367SOL    HW136734   1.001   1.649   1.006  3.4973  0.7543 -0.0606
 8367SOL    HW236735   0.959   1.587   1.135  0.3561  0.7201  1.9129
 8368SOL     OW36736   1.188   1.822   7.079  0.2752 -0.3891  0.3074
 8368SOL    HW136737   1.200   1.823   6.984  2.9946  0.1809  0.6535
 8368SOL    HW236738   1.205   1.728   7.088 -1.8136 -0.8398 -0.4294
 8369SOL     OW36739   0.809   3.940  14.876  0.3965 -0.4413  0.4801
 8369SOL    HW136740   0.747   3.989  14.931  0.5041 -0.8132  0.9325
 8369SOL    HW236741   0.841   4.012  14.821 -2.7271  1.3515  0.9766
 8370SOL     OW36742   2.529   1.103   0.212 -0.4437 -0.0191  0.4721
 8370SOL    HW136743   2.587   1.050   0.157 -0.3738  0.6195 -0.0601
 8370SOL    HW236744   2.456   1.122   0.154 -1.0031 -1.6611  0.6204
 8371SOL     OW36745   4.605   0.211   5.269  0.1006 -0.1152 -0.7233
 8371SOL    HW136746   4.532   0.204   5.331  0.6457  2.3100  0.1985
 8371SOL    HW236747   4.607   0.306   5.256  1.2000 -0.1414 -0.7680
 8372SOL     OW36748   0.580   0.574   7.862  0.4965 -0.3513 -0.1630
 8372SOL    HW136749   0.562   0.634   7.934 -0.0360 -1.5070  0.6720
 8372SOL    HW236750   0.561   0.645   7.802 -0.5699 -1.3200 -0.9611
 8373SOL     OW36751   2.418   3.653   8.863  0.1417 -0.3337  0.3036
 8373SOL    HW136752   2.400   3.725   8.924  0.2132  0.5746 -0.7362
 8373SOL    HW236753   2.333   3.634   8.825  0.4324 -1.9053  0.4373
 8374SOL     OW36754   0.101   3.163   5.916  0.2242 -0.2796  0.0106
 8374SOL    HW136755   0.060   3.082   5.944 -2.0093  1.2640  1.1697
 8374SOL    HW236756   0.151   3.133   5.840 -0.1875  0.9669 -0.7511
 8375SOL     OW36757   4.519   4.299   2.886 -0.4080 -0.1083 -0.0699
 8375SOL    HW136758   4.501   4.213   2.847 -1.1192  0.1009 -0.1947
 8375SOL    HW236759   4.587   4.333   2.828  1.1692  0.3223  2.0140
 8376SOL     OW36760   1.680   0.098   6.333  0.3395 -0.4990  0.2919
 8376SOL    HW136761   1.598   0.141   6.359 -0.7741 -1.8323 -0.9763
 8376SOL    HW236762   1.678   0.003   6.320 -0.9682 -0.4239 -0.0528
 8377SOL     OW36763   0.025   2.259  11.685 -0.1856 -0.2395  0.0781
 8377SOL    HW136764   0.035   2.342  11.639  1.9330 -1.2660 -1.3310
 8377SOL    HW236765   4.685   2.233  11.636  0.5018  0.0944 -1.1773
 8378SOL     OW36766   4.728   0.519   3.169  0.2115  0.3070 -0.0185
 8378SOL    HW136767   4.645   0.498   3.211  0.1797  0.5004  0.0188
 8378SOL    HW236768   4.702   0.535   3.078  0.6627 -0.5343 -0.2917
 8379SOL     OW36769   1.560   4.002   6.922 -0.1035 -0.2897  0.4570
 8379SOL    HW136770   1.652   4.015   6.899 -0.7422 -0.5172 -2.2946
 8379SOL    HW236771   1.532   3.942   6.852  0.8073  0.3655 -0.4660
 8380SOL     OW36772   1.782   4.088   4.450 -0.3128 -0.3035  0.1164
 8380SOL    HW136773   1.861   4.109   4.401 -0.2641 -3.1266 -0.9888
 8380SOL    HW236774   1.717   4.104   4.381  0.3402 -1.7823 -0.8299
 8381SOL     OW36775   3.991   2.742   5.706  0.1364  0.1671 -0.0700
 8381SOL    HW136776   4.080   2.723   5.675  0.6331 -0.2560  1.6067
 8381SOL    HW236777   4.030   2.755   5.793 -1.6128 -0.6374  0.8429
 8382SOL     OW36778   4.003   1.171   2.783  0.3119  0.3427 -0.6890
 8382SOL    HW136779   4.032   1.085   2.814  2.6667  0.9722 -1.1193
 8382SOL    HW236780   4.087   1.215   2.767 -1.2890  3.7304  0.1844
 8383SOL     OW36781   0.640   1.529   5.643 -0.3130 -0.2383 -0.3677
 8383SOL    HW136782   0.645   1.557   5.551  0.5252 -1.4678 -0.7005
 8383SOL    HW236783   0.721   1.571   5.672  1.2361 -4.3671  1.2500
 8384SOL     OW36784   2.541   3.730   0.668 -0.3216  0.4151 -0.1257
 8384SOL    HW136785   2.575   3.776   0.591  0.9335  1.2804  0.9432
 8384SOL    HW236786   2.609   3.663   0.674  0.8220  1.5945  0.1608
 8385SOL     OW36787   1.537   2.312   7.361  0.1025 -0.4003  0.5239
 8385SOL    HW136788   1.537   2.291   7.268 -1.8757  0.2541  0.3887
 8385SOL    HW236789   1.530   2.220   7.387 -2.8111 -0.0118  1.1129
 8386SOL     OW36790   2.845   3.622   2.138 -0.2427 -0.3385  0.1703
 8386SOL    HW136791   2.802   3.693   2.090  0.6888 -1.2968 -2.1176
 8386SOL    HW236792   2.868   3.564   2.065 -0.5474 -1.2034  0.7645
 8387SOL     OW36793   0.043   2.762  12.226 -0.0765 -0.5740 -1.0549
 8387SOL    HW136794   0.134   2.735  12.235  0.5083  2.3412  1.8363
 8387SOL    HW236795   0.015   2.718  12.146 -0.7969 -0.5799 -0.8014
 8388SOL     OW36796   2.561   3.595   3.712  0.2680 -0.0049 -0.1406
 8388SOL    HW136797   2.467   3.607   3.723  0.6527  0.5830  2.4423
 8388SOL    HW236798   2.593   3.684   3.721  0.5099 -0.2075  0.9180
 8389SOL     OW36799   4.659   0.250  14.903 -0.4124 -0.6147  0.1351
 8389SOL    HW136800   4.680   0.258  14.996 -0.0046 -0.0889 -0.0044
 8389SOL    HW236801   4.732   0.291  14.857  0.0802 -1.3759  0.2290
 8390SOL     OW36802   4.232   3.838   5.120  0.3413 -0.1672  0.4180
 8390SOL    HW136803   4.163   3.882   5.069 -0.5383 -0.1842  1.6086
 8390SOL    HW236804   4.256   3.769   5.059  2.2025  1.1786 -0.3701
 8391SOL     OW36805   1.230   0.850   5.492 -0.3898  0.3233 -0.1203
 8391SOL    HW136806   1.302   0.802   5.532  0.3844  1.5293 -0.0498
 8391SOL    HW236807   1.271   0.932   5.464 -2.1983  0.8577 -1.1723
 8392SOL     OW36808   1.065   0.907   9.199  0.1484  0.1314 -0.3823
 8392SOL    HW136809   1.003   0.940   9.263 -2.0721 -1.3374 -1.7804
 8392SOL    HW236810   1.143   0.935   9.247 -1.3414  0.1650  1.9629
 8393SOL     OW36811   3.220   1.086  11.383  0.1501 -0.3412 -0.6679
 8393SOL    HW136812   3.184   1.174  11.394  1.7749  0.2406  0.0004
 8393SOL    HW236813   3.257   1.075  11.471 -1.8722  0.9248  0.3376
 8394SOL     OW36814   3.286   4.382   0.145  0.0596 -0.0043 -0.0531
 8394SOL    HW136815   3.347   4.330   0.198  0.2338  0.9048  0.6375
 8394SOL    HW236816   3.299   4.475   0.165 -1.1945  0.1304  0.0906
 8395SOL     OW36817   2.423   4.722   0.426  1.0336  0.2425  0.4384
 8395SOL    HW136818   2.418   4.662   0.351  0.6977  2.5240 -1.3882
 8395SOL    HW236819   2.372   4.681   0.496  0.7463  2.2058  1.3968
 8396SOL     OW36820   0.212   2.781  15.407 -0.1834 -0.2237  0.3201
 8396SOL    HW136821   0.231   2.698  15.363 -1.8337 -0.1071 -0.5988
 8396SOL    HW236822   0.262   2.835  15.346 -0.9769  0.2458  0.0933
 8397SOL     OW36823   2.475   4.035   3.017  0.2358  0.4342  0.0043
 8397SOL    HW136824   2.443   3.946   3.030 -1.2209  1.2324  1.8188
 8397SOL    HW236825   2.489   4.074   3.103 -3.4015  4.5687 -1.3050
 8398SOL     OW36826   1.769   1.725   4.231  0.0851 -0.0072 -0.3714
 8398SOL    HW136827   1.678   1.754   4.239  0.4584  0.4144  2.5464
 8398SOL    HW236828   1.760   1.659   4.300  1.3956 -0.6883 -0.8454
 8399SOL     OW36829   1.445   3.009   7.445 -0.2757 -0.2661  0.3779
 8399SOL    HW136830   1.416   2.917   7.451  0.4184 -0.5328 -0.3969
 8399SOL    HW236831   1.462   3.030   7.537 -4.3366 -3.6800  1.9192
 8400SOL     OW36832   0.106   1.250  16.139 -0.1981 -0.2827  0.1246
 8400SOL    HW136833   0.199   1.252  16.116 -0.3584 -0.0705 -0.5059
 8400SOL    HW236834   0.103   1.319  16.205 -0.0542  0.5161 -0.7003
 8401SOL     OW36835   1.569   3.920   0.322  0.0119 -0.1445  0.0729
 8401SOL    HW136836   1.626   3.920   0.400  0.5184  0.1545 -0.2969
 8401SOL    HW236837   1.600   3.839   0.282  0.3081 -0.3501  0.7216
 8402SOL     OW36838   1.924   1.333   8.539  0.5267 -0.5278  0.1779
 8402SOL    HW136839   1.840   1.299   8.569 -0.1443  0.4700 -0.5460
 8402SOL    HW236840   1.984   1.282   8.593 -0.4065 -1.0682  0.7228
 8403SOL     OW36841   3.030   0.864   5.033  0.9455 -0.3335 -0.6019
 8403SOL    HW136842   2.970   0.839   4.963  0.2731 -0.0420 -0.1282
 8403SOL    HW236843   3.056   0.776   5.061  3.7093 -0.3540 -3.2374
 8404SOL     OW36844   4.053   1.148   8.155 -0.5102  0.0472 -0.3056
 8404SOL    HW136845   4.104   1.180   8.081 -1.7452  0.6519 -0.8965
 8404SOL    HW236846   4.062   1.055   8.137 -0.2868 -0.3612  1.8842
 8405SOL     OW36847   0.314   1.445  12.788 -0.4057  0.3477 -0.1634
 8405SOL    HW136848   0.228   1.478  12.763  0.9220  3.5441 -0.4545
 8405SOL    HW236849   0.303   1.424  12.881 -0.4869  0.7679 -0.0785
 8406SOL     OW36850   3.166   3.934  13.525 -0.2367  0.3567 -0.4500
 8406SOL    HW136851   3.162   3.968  13.614  1.7221  0.0687 -0.2576
 8406SOL    HW236852   3.218   4.002  13.480  1.5872 -0.0788  1.0128
 8407SOL     OW36853   2.392   1.054   5.947  0.6203 -0.1825  0.0421
 8407SOL    HW136854   2.401   1.099   6.031 -1.3462  0.8527 -0.3174
 8407SOL    HW236855   2.476   1.008   5.943  0.2540 -0.7021 -1.4656
 8408SOL     OW36856   3.313   2.727   4.629  0.8144  0.1882 -0.2420
 8408SOL    HW136857   3.320   2.633   4.615  0.3043  0.0844  0.2161
 8408SOL    HW236858   3.292   2.731   4.722  0.9398  3.4883 -0.3709
 8409SOL     OW36859   3.189   4.429   2.600 -0.3810  0.3712  0.0669
 8409SOL    HW136860   3.206   4.424   2.506 -0.6230 -1.2290  0.1097
 8409SOL    HW236861   3.134   4.507   2.601  0.1100  0.7020  1.5613
 8410SOL     OW36862   2.109   2.280   9.488 -0.3934  0.5517 -0.5866
 8410SOL    HW136863   2.042   2.297   9.422 -0.0965 -0.5772 -1.1730
 8410SOL    HW236864   2.076   2.206   9.539  0.9258  2.4839  3.0691
 8411SOL     OW36865   1.972   3.694   4.281  0.5673  0.1624  0.1097
 8411SOL    HW136866   2.029   3.626   4.319 -1.8580 -1.6150  0.5506
 8411SOL    HW236867   2.032   3.764   4.306  0.4509 -0.2396  1.5136
 8412SOL     OW36868   2.626   3.035  13.318 -0.7947  0.3662 -0.2527
 8412SOL    HW136869   2.593   3.019  13.230 -0.7652  0.0322 -0.2025
 8412SOL    HW236870   2.576   3.113  13.343  0.2211  1.0033 -0.2032
 8413SOL     OW36871   1.663   0.581   3.854  0.1324  0.4935 -0.4337
 8413SOL    HW136872   1.592   0.537   3.807  2.0021 -0.7623 -2.0397
 8413SOL    HW236873   1.720   0.617   3.786  0.3076  1.3090  0.1399
 8414SOL     OW36874   2.182   1.196   2.868 -0.2196 -0.4910 -0.4936
 8414SOL    HW136875   2.094   1.190   2.904 -0.2833  1.7560 -0.2686
 8414SOL    HW236876   2.224   1.110   2.880 -0.4116 -0.1511  2.7024
 8415SOL     OW36877   3.161   0.055   8.993  0.0713 -0.2995 -0.0462
 8415SOL    HW136878   3.208   0.135   8.971 -1.1829 -0.2344 -2.4633
 8415SOL    HW236879   3.237   4.733   8.988  0.6410  0.4066  0.2930
 8416SOL     OW36880   3.717   2.968   2.490  0.0133  0.4842 -0.0482
 8416SOL    HW136881   3.782   2.947   2.424 -1.1439  0.8573 -1.3029
 8416SOL    HW236882   3.758   3.022   2.557 -1.5010  0.3077  1.0351
 8417SOL     OW36883   2.890   4.024   6.905  0.5121  0.4309  0.2018
 8417SOL    HW136884   2.816   4.082   6.923  1.2323  0.9383  1.5148
 8417SOL    HW236885   2.945   4.085   6.858 -0.0095 -1.0801 -2.3554
 8418SOL     OW36886   1.568   1.797   8.724  0.1859 -0.0249  0.1702
 8418SOL    HW136887   1.559   1.706   8.695 -0.8135  0.0403  0.2628
 8418SOL    HW236888   1.653   1.821   8.687  0.3393 -0.7435  0.0576
 8419SOL     OW36889   1.066   1.084  11.049 -0.0782  0.3985 -0.1156
 8419SOL    HW136890   1.039   1.175  11.033 -0.0597  0.6973  1.5483
 8419SOL    HW236891   1.147   1.085  10.997 -0.3635 -1.2743 -0.5795
 8420SOL     OW36892   4.480   3.255   3.718  0.1017 -0.3039  0.4138
 8420SOL    HW136893   4.442   3.269   3.631  1.3386 -1.3841 -0.3040
 8420SOL    HW236894   4.561   3.304   3.713  1.6659 -2.8178  1.1837
 8421SOL     OW36895   0.298   0.370  13.752 -0.7649 -0.0232 -0.5143
 8421SOL    HW136896   0.318   0.463  13.737 -0.7896  0.3136  1.6402
 8421SOL    HW236897   0.214   0.370  13.706 -1.1341  3.2052  0.1868
 8422SOL     OW36898   1.648   0.450   1.221 -0.3515 -0.0849  0.3064
 8422SOL    HW136899   1.641   0.524   1.281  2.1420 -0.4309  1.0153
 8422SOL    HW236900   1.742   0.435   1.225 -0.3934 -0.4827 -0.2564
 8423SOL     OW36901   2.570   1.259  10.567 -0.0814 -0.0700  0.1053
 8423SOL    HW136902   2.604   1.193  10.507 -3.8911 -1.2881 -0.7144
 8423SOL    HW236903   2.603   1.231  10.652  1.7067 -2.0573 -1.2516
 8424SOL     OW36904   2.184   1.266   3.608 -0.0674 -0.2171  0.4158
 8424SOL    HW136905   2.212   1.298   3.522  3.0998 -1.7390  0.8761
 8424SOL    HW236906   2.169   1.350   3.651 -0.7465  0.3758 -1.0107
 8425SOL     OW36907   3.476   3.108   7.551 -0.7825  0.3124 -0.1159
 8425SOL    HW136908   3.397   3.065   7.519 -1.2188  1.5355 -0.7111
 8425SOL    HW236909   3.442   3.156   7.627  0.4390 -0.7685  1.1223
 8426SOL     OW36910   0.359   1.372   3.993 -0.5798  0.2533  0.0542
 8426SOL    HW136911   0.336   1.279   3.996 -0.1046  0.1759  1.6361
 8426SOL    HW236912   0.275   1.417   4.003 -2.3969 -2.8431 -1.3561
 8427SOL     OW36913   3.321   1.448   1.913 -0.3483 -0.0249  0.1211
 8427SOL    HW136914   3.241   1.414   1.873 -0.5525 -0.9015  1.2739
 8427SOL    HW236915   3.374   1.444   1.834  0.1513  1.6590  0.3712
 8428SOL     OW36916   0.379   0.155  12.765  0.0269  0.1873  0.2330
 8428SOL    HW136917   0.406   0.073  12.723 -0.3319 -0.6898  1.6959
 8428SOL    HW236918   0.458   0.206  12.748  2.7208 -3.1873  2.7647
 8429SOL     OW36919   3.783   4.684   7.216 -0.3463 -0.0084 -0.1546
 8429SOL    HW136920   3.800   4.608   7.161  0.2995  0.8369 -1.1191
 8429SOL    HW236921   3.868   4.718   7.243 -0.1303 -1.2877  0.7969
 8430SOL     OW36922   1.281   2.488  16.541  0.0825 -0.1291  0.3731
 8430SOL    HW136923   1.206   2.511  16.487  1.1855 -0.4615 -1.3042
 8430SOL    HW236924   1.247   2.503  16.629 -0.3203  2.2178 -0.2002
 8431SOL     OW36925   4.423   0.334   2.392 -0.2334 -0.3326  0.0444
 8431SOL    HW136926   4.444   0.267   2.326  3.5644  1.7230 -0.8670
 8431SOL    HW236927   4.475   0.410   2.364 -1.4288 -0.3433 -2.2279
 8432SOL     OW36928   1.231   4.368  17.257 -0.1718  0.3638 -0.5531
 8432SOL    HW136929   1.208   4.277  17.277 -1.8017  0.8618 -0.1477
 8432SOL    HW236930   1.317   4.381  17.297 -1.1249 -1.3216  2.0902
 8433SOL     OW36931   4.349   3.403   2.249  0.3663  0.5032  0.2678
 8433SOL    HW136932   4.430   3.354   2.237 -0.5716 -1.6775  2.8548
 8433SOL    HW236933   4.352   3.432   2.341 -3.6002 -0.2015  0.6316
 8434SOL     OW36934   3.441   0.908   7.107  0.2911 -0.2078  0.3019
 8434SOL    HW136935   3.454   0.941   7.196 -0.4761 -2.3606  1.1995
 8434SOL    HW236936   3.511   0.843   7.101  1.2617  1.0840 -2.3923
 8435SOL     OW36937   4.142   1.952   9.324 -0.1671 -0.5735 -0.1179
 8435SOL    HW136938   4.174   1.936   9.413 -1.2071  1.7067  0.6547
 8435SOL    HW236939   4.071   1.887   9.322  1.1885 -2.0899  1.2450
 8436SOL     OW36940   3.999   3.939   2.172  0.4762 -0.4297 -0.0613
 8436SOL    HW136941   3.955   4.009   2.124 -0.2076 -0.1709  0.9573
 8436SOL    HW236942   3.936   3.910   2.238  0.5519  1.5863  0.8803
 8437SOL     OW36943   0.656   3.153   9.374  1.1336  0.2705  1.0449
 8437SOL    HW136944   0.658   3.202   9.456 -0.6222 -1.6128  2.2221
 8437SOL    HW236945   0.563   3.150   9.351  1.1028  2.5340  0.8867
 8438SOL     OW36946   3.654   3.615   5.390  0.5424 -0.1482 -0.1508
 8438SOL    HW136947   3.601   3.651   5.319 -0.7451  1.2150  1.4877
 8438SOL    HW236948   3.694   3.542   5.343  2.1365 -0.2969  1.4338
 8439SOL     OW36949   1.718   1.707   3.338 -0.1752  0.1735 -0.1863
 8439SOL    HW136950   1.794   1.663   3.299  1.0454 -0.1560  2.6216
 8439SOL    HW236951   1.710   1.776   3.271 -1.0105 -1.9397 -2.2871
 8440SOL     OW36952   1.293   2.724  10.581  0.3869 -0.1381  0.0997
 8440SOL    HW136953   1.207   2.699  10.549  0.7404 -1.5388  0.2142
 8440SOL    HW236954   1.346   2.741  10.503  0.0216  0.1031 -0.0969
 8441SOL     OW36955   1.480   1.286   0.883  0.0820  0.3833  0.1707
 8441SOL    HW136956   1.486   1.382   0.883  0.9566  0.3261 -2.1155
 8441SOL    HW236957   1.508   1.266   0.794  1.3268 -3.0216  1.3482
 8442SOL     OW36958   2.754   3.697   2.374 -0.3130 -0.8394 -0.3393
 8442SOL    HW136959   2.797   3.688   2.289 -0.0515 -0.4507 -0.2491
 8442SOL    HW236960   2.667   3.715   2.338 -0.3024  1.1591  0.6620
 8443SOL     OW36961   2.529   0.822   8.267 -0.0448  0.1049  0.0671
 8443SOL    HW136962   2.491   0.736   8.287 -3.6149  0.9344 -2.9965
 8443SOL    HW236963   2.500   0.881   8.336 -1.2566  0.4912 -0.7714
 8444SOL     OW36964   1.605   2.333   3.977 -0.3974 -0.0592 -0.0755
 8444SOL    HW136965   1.562   2.342   3.892  1.9350 -1.1822 -1.3738
 8444SOL    HW236966   1.564   2.255   4.013 -1.5426  0.7948  0.4873
 8445SOL     OW36967   0.471   2.474   7.622  0.2652  0.1152 -0.0755
 8445SOL    HW136968   0.486   2.482   7.527 -0.7586  1.0768 -0.1500
 8445SOL    HW236969   0.482   2.564   7.652  1.1770  0.1222 -0.4282
 8446SOL     OW36970   0.581   2.768   2.051  0.1077 -0.8003 -0.0912
 8446SOL    HW136971   0.641   2.839   2.030  0.6870 -1.4353 -0.5850
 8446SOL    HW236972   0.609   2.742   2.139  0.3458 -2.1918 -0.5797
 8447SOL     OW36973   4.337   1.278  16.930  0.2440 -0.1150  0.4189
 8447SOL    HW136974   4.422   1.270  16.888 -0.1213 -1.9435  0.0133
 8447SOL    HW236975   4.354   1.336  17.004  0.1476 -0.2005  0.5089
 8448SOL     OW36976   2.231   2.024   0.878  0.0551  0.1471 -0.7241
 8448SOL    HW136977   2.315   2.014   0.832  0.6585 -1.0544  0.6539
 8448SOL    HW236978   2.176   1.962   0.831 -0.5758  0.4744 -0.4141
 8449SOL     OW36979   4.266   0.884   8.632  0.1420  0.2368 -0.1738
 8449SOL    HW136980   4.362   0.885   8.629  0.0968  0.3360 -1.7202
 8449SOL    HW236981   4.254   0.911   8.541 -0.3142  0.4829 -0.0397
 8450SOL     OW36982   0.684   2.163   1.584  0.1057  0.1599  0.4117
 8450SOL    HW136983   0.588   2.169   1.589 -0.1007 -2.7147 -0.0120
 8450SOL    HW236984   0.713   2.165   1.675  0.9971 -2.6906  0.1889
 8451SOL     OW36985   0.808   1.011   6.527 -0.6920  0.1307 -0.6278
 8451SOL    HW136986   0.714   1.009   6.548 -0.9947  0.6162 -1.9880
 8451SOL    HW236987   0.837   1.101   6.544 -2.6646  0.3685  1.5173
 8452SOL     OW36988   1.041   2.579   3.727  0.4471 -0.6670 -0.2349
 8452SOL    HW136989   0.949   2.605   3.728  0.4381 -0.6822 -0.8046
 8452SOL    HW236990   1.070   2.626   3.649 -2.7439  0.1241 -0.9288
 8453SOL     OW36991   0.718   3.970   0.642 -0.2318  0.0554 -0.6436
 8453SOL    HW136992   0.720   4.054   0.596  0.6302 -0.7080 -2.0120
 8453SOL    HW236993   0.715   3.905   0.571 -0.6370  0.2054 -0.7652
 8454SOL     OW36994   2.278   1.811   7.631 -0.1024 -0.5688 -0.3708
 8454SOL    HW136995   2.368   1.844   7.628 -0.3569  0.0107 -1.5121
 8454SOL    HW236996   2.224   1.888   7.615  1.4981  0.0076 -2.9818
 8455SOL     OW36997   0.188   4.169   9.035  0.1335 -0.0661 -0.0933
 8455SOL    HW136998   0.148   4.169   9.122  0.1269 -1.5428 -0.0981
 8455SOL    HW236999   0.173   4.079   9.007 -0.5653 -0.4554  1.5750
 8456SOL     OW37000   1.853   0.125   5.849  0.1039 -0.2712  0.1235
 8456SOL    HW137001   1.785   0.097   5.911 -1.2208  4.3893  0.7287
 8456SOL    HW237002   1.930   0.140   5.904 -1.0342 -1.0967  1.9486
 8457SOL     OW37003   4.282   0.674   7.003 -0.0291 -0.2392 -0.1742
 8457SOL    HW137004   4.239   0.695   6.920 -2.1080 -1.8714  0.4824
 8457SOL    HW237005   4.213   0.711   7.058  0.3027 -1.3228  0.9584
 8458SOL     OW37006   1.065   3.967   1.856 -0.1580 -0.4680  0.2889
 8458SOL    HW137007   1.002   3.923   1.799  1.5181 -0.6841 -1.3974
 8458SOL    HW237008   1.145   3.918   1.836  0.6778  0.9798  0.0844
 8459SOL     OW37009   1.657   3.392   3.674 -0.0435  0.4742  0.2529
 8459SOL    HW137010   1.626   3.467   3.724 -1.3641 -0.5875  1.0342
 8459SOL    HW237011   1.623   3.315   3.720  1.4538 -0.0977  0.4153
 8460SOL     OW37012   0.250   4.522   5.696 -0.2276 -0.9603  0.6120
 8460SOL    HW137013   0.302   4.547   5.619  0.7959 -1.4535  1.1577
 8460SOL    HW237014   0.261   4.428   5.685 -1.1432 -0.9461 -0.4680
 8461SOL     OW37015   2.898   2.732  13.886 -0.3378 -0.2542  0.3560
 8461SOL    HW137016   2.992   2.733  13.872 -0.6560  2.8796 -1.5540
 8461SOL    HW237017   2.873   2.732  13.793 -0.9424 -2.0665  0.5198
 8462SOL     OW37018   0.674   3.228   6.074 -0.1006  0.3374  0.1108
 8462SOL    HW137019   0.699   3.136   6.084 -1.9345 -0.3396 -1.5256
 8462SOL    HW237020   0.674   3.256   6.166 -0.0989 -0.2811  0.3024
 8463SOL     OW37021   0.608   1.622   8.048 -0.0642 -0.1435  0.5266
 8463SOL    HW137022   0.632   1.530   8.059  1.1990  0.0187 -0.8828
 8463SOL    HW237023   0.697   1.657   8.045 -0.3299  0.3891 -1.0406
 8464SOL     OW37024   2.856   3.907   4.244  0.3684 -0.0351  0.1002
 8464SOL    HW137025   2.844   3.813   4.240  0.0650 -0.0101  0.4441
 8464SOL    HW237026   2.911   3.911   4.322 -1.6480 -3.6354  1.6872
 8465SOL     OW37027   2.943   2.046   4.747  0.1341  0.0638  0.6453
 8465SOL    HW137028   2.917   2.050   4.655 -1.1509  0.8033  1.0463
 8465SOL    HW237029   2.898   1.966   4.774 -0.9304  1.3520  2.6887
 8466SOL     OW37030   3.707   4.652   4.377 -1.1513 -0.0028 -0.1824
 8466SOL    HW137031   3.797   4.666   4.348  0.0556 -1.3920  2.9355
 8466SOL    HW237032   3.708   4.685   4.466  3.0241 -0.9477  0.1245
 8467SOL     OW37033   2.968   2.975   2.258 -0.2092 -0.3284  0.0909
 8467SOL    HW137034   2.934   3.059   2.229  1.7990 -0.0380 -1.3970
 8467SOL    HW237035   3.058   2.991   2.288  0.4277 -0.6232 -1.6932
 8468SOL     OW37036   2.340   2.636   9.159 -0.2245  0.0944 -0.0681
 8468SOL    HW137037   2.323   2.552   9.117 -0.5118 -0.2744  0.8028
 8468SOL    HW237038   2.419   2.611   9.207 -0.1657  0.3657 -0.0236
 8469SOL     OW37039   2.694   0.523   3.544 -0.8140  0.1127 -0.2463
 8469SOL    HW137040   2.701   0.574   3.464  1.4335  0.0618 -0.0913
 8469SOL    HW237041   2.742   0.578   3.605 -1.5781  0.3150  0.1693
 8470SOL     OW37042   1.892   4.619  11.326 -0.3780 -0.0645 -0.1464
 8470SOL    HW137043   1.843   4.628  11.244 -0.8568 -2.3705 -0.0962
 8470SOL    HW237044   1.960   4.685  11.315 -1.5024  1.3385  1.2860
 8471SOL     OW37045   1.612   2.387  12.598  0.3078  0.0098  0.8740
 8471SOL    HW137046   1.584   2.465  12.551  1.2944  1.4515  2.6527
 8471SOL    HW237047   1.632   2.329  12.525 -0.4890  1.0063 -0.1451
 8472SOL     OW37048   2.527   3.419   5.545  0.0677 -0.1078 -0.2602
 8472SOL    HW137049   2.546   3.463   5.462  0.4226 -1.9880 -1.1622
 8472SOL    HW237050   2.598   3.358   5.565 -3.0179 -2.9942  2.0689
 8473SOL     OW37051   2.819   4.700  14.348 -0.5509 -0.1653 -0.2380
 8473SOL    HW137052   2.779   4.613  14.349  0.5173 -0.6259  1.2681
 8473SOL    HW237053   2.780   4.735  14.428  2.0117 -2.1725  1.8561
 8474SOL     OW37054   3.417   3.301  13.352  0.1039 -0.0734 -0.1172
 8474SOL    HW137055   3.389   3.234  13.414  0.3741  1.6477  1.8519
 8474SOL    HW237056   3.465   3.366  13.403 -1.6692 -0.1736  1.6645
 8475SOL     OW37057   1.532   1.589  10.737  0.3392 -0.2208  0.1195
 8475SOL    HW137058   1.437   1.600  10.732  0.1480 -1.8551 -0.1169
 8475SOL    HW237059   1.546   1.580  10.831 -0.3805  1.6865  0.3919
 8476SOL     OW37060   0.634   4.035  13.668 -0.4516 -0.2457 -0.1545
 8476SOL    HW137061   0.724   4.056  13.646  0.1156 -1.4834  0.9905
 8476SOL    HW237062   0.631   3.943  13.640  0.9291 -1.4212  3.4737
 8477SOL     OW37063   0.207   3.845   7.885 -0.3561 -0.3873 -0.3982
 8477SOL    HW137064   0.153   3.857   7.964  2.7611 -0.8976  1.8374
 8477SOL    HW237065   0.176   3.756   7.869  0.8812 -0.8447 -0.2594
 8478SOL     OW37066   4.624   0.729  12.536 -0.2978 -0.0037 -0.7193
 8478SOL    HW137067   4.695   0.784  12.569 -0.6615  0.0381  0.0043
 8478SOL    HW237068   4.547   0.776  12.568 -1.3775 -0.6853 -2.3442
 8479SOL     OW37069   4.108   0.846   8.092  0.1091 -0.3198 -0.3376
 8479SOL    HW137070   4.145   0.759   8.075 -1.2450 -0.9173 -0.2174
 8479SOL    HW237071   4.015   0.835   8.069  0.0090 -1.3276  0.5351
 8480SOL     OW37072   2.992   0.147   7.329  0.0339  0.2530  0.1591
 8480SOL    HW137073   3.067   0.109   7.374  1.0512  0.8101 -1.0808
 8480SOL    HW237074   3.026   0.159   7.240  0.7268  1.6611  0.6287
 8481SOL     OW37075   2.658   2.430   8.388  0.0951  0.5138 -0.1009
 8481SOL    HW137076   2.665   2.524   8.404  0.0812  0.5687 -0.4236
 8481SOL    HW237077   2.684   2.393   8.473  2.3408  1.3620 -0.4036
 8482SOL     OW37078   1.096   1.135  14.770  0.0987  0.6225  0.3807
 8482SOL    HW137079   1.010   1.162  14.804 -0.0847  0.1224  0.3089
 8482SOL    HW237080   1.070   1.081  14.696 -0.9339  1.0427  0.4406
 8483SOL     OW37081   0.421   2.624   4.113 -0.0587  0.1918 -0.5108
 8483SOL    HW137082   0.475   2.601   4.038  0.2007  3.6732 -1.4242
 8483SOL    HW237083   0.406   2.718   4.097  1.3199  0.4752 -0.1419
 8484SOL     OW37084   4.405   4.566  16.895  0.6461 -0.4786  0.4707
 8484SOL    HW137085   4.414   4.640  16.954  1.6519  0.9480 -1.4841
 8484SOL    HW237086   4.495   4.535  16.908  1.1590  0.4412 -0.9647
 8485SOL     OW37087   1.671   1.097  13.037  0.0766  0.2621  0.0672
 8485SOL    HW137088   1.633   1.066  13.119  0.5449  1.6249  0.8007
 8485SOL    HW237089   1.748   1.147  13.067  0.7167 -0.5316 -0.2511
 8486SOL     OW37090   4.643   3.948   1.617 -0.0357 -0.4914 -0.1176
 8486SOL    HW137091   4.700   3.926   1.691  2.1410  1.7446 -1.1424
 8486SOL    HW237092   4.609   3.864   1.586  1.1239  0.1060 -3.0071
 8487SOL     OW37093   0.405   3.041   2.383 -0.7273  0.3271  0.5067
 8487SOL    HW137094   0.364   3.003   2.305  1.0813  0.6702 -0.6186
 8487SOL    HW237095   0.439   2.960   2.420 -0.9137  0.3077  0.6350
 8488SOL     OW37096   4.632   3.271   7.394 -0.1921  0.1665 -0.4718
 8488SOL    HW137097   4.559   3.333   7.380 -0.2946 -0.0448 -0.8578
 8488SOL    HW237098   4.691   3.299   7.325 -0.2914 -0.3137 -0.7496
 8489SOL     OW37099   1.167   2.639   4.770  0.1733 -0.6960 -0.0453
 8489SOL    HW137100   1.137   2.729   4.781  0.0150 -0.3597 -3.0309
 8489SOL    HW237101   1.108   2.596   4.831 -0.0244 -2.7133 -1.6556
 8490SOL     OW37102   0.387   1.576  13.056  0.1686 -0.5585 -0.1202
 8490SOL    HW137103   0.459   1.604  12.999  1.3961  0.1023  1.7630
 8490SOL    HW237104   0.432   1.512  13.111  0.3780 -1.8902 -1.8456
 8491SOL     OW37105   1.773   4.353  11.336  0.3427  0.0816  0.6967
 8491SOL    HW137106   1.806   4.439  11.361  0.0022  0.1415  0.9317
 8491SOL    HW237107   1.843   4.294  11.361  1.6741  0.8162 -1.2511
 8492SOL     OW37108   3.554   0.373   5.250  0.0185  0.4623 -0.6207
 8492SOL    HW137109   3.510   0.328   5.177 -2.2410  0.4551  0.7590
 8492SOL    HW237110   3.498   0.327   5.312  0.1290  0.7470 -0.3121
 8493SOL     OW37111   2.522   1.088   3.036  0.3254  0.0908 -0.5001
 8493SOL    HW137112   2.611   1.110   3.063  0.0549  0.2145  0.2681
 8493SOL    HW237113   2.527   1.129   2.949 -0.2406  0.6517 -0.2643
 8494SOL     OW37114   0.363   2.705   3.093 -0.1262 -0.1846 -0.8334
 8494SOL    HW137115   0.286   2.744   3.053 -0.1030  1.1308  0.4152
 8494SOL    HW237116   0.339   2.612   3.094  2.0760 -0.7315  0.3287
 8495SOL     OW37117   2.906   2.625  11.954 -0.1852 -0.0951 -0.1855
 8495SOL    HW137118   2.861   2.704  11.926 -1.6853 -0.8086  0.2457
 8495SOL    HW237119   2.926   2.632  12.048  1.4715 -2.0768 -0.3773
 8496SOL     OW37120   2.861   3.663  17.535  0.0097  0.3262  0.1916
 8496SOL    HW137121   2.838   3.577  17.500 -1.3416  1.4062 -1.5908
 8496SOL    HW237122   2.930   3.639  17.597  0.7307  1.7966 -0.0482
 8497SOL     OW37123   2.796   0.276  17.375  0.0570  0.1115  0.3190
 8497SOL    HW137124   2.730   0.218  17.337 -0.6787  2.1068 -1.3602
 8497SOL    HW237125   2.753   0.307  17.455 -0.5614 -2.2038  0.8935
 8498SOL     OW37126   1.939   1.226   9.955 -0.5052  0.2793 -0.2702
 8498SOL    HW137127   1.993   1.230  10.034 -0.2210  0.1514 -0.4569
 8498SOL    HW237128   1.891   1.144   9.965  2.7303 -1.6282 -0.2101
 8499SOL     OW37129   3.719   3.687   3.296  0.0642 -0.3440  0.3332
 8499SOL    HW137130   3.746   3.734   3.217 -1.6228 -1.8711 -1.1256
 8499SOL    HW237131   3.642   3.739   3.318 -0.0674 -2.0631  3.8719
 8500SOL     OW37132   3.503   4.150  15.407 -0.7365  0.2221  0.0019
 8500SOL    HW137133   3.578   4.098  15.378 -0.3951  0.4214  0.5219
 8500SOL    HW237134   3.455   4.146  15.325 -3.5248  2.6911  1.5535
 8501SOL     OW37135   4.575   3.292   2.379  0.2077 -0.4035  0.1326
 8501SOL    HW137136   4.644   3.226   2.376  1.2158  0.6292  0.6263
 8501SOL    HW237137   4.611   3.367   2.425 -1.4167 -0.1441  0.9756
 8502SOL     OW37138   2.061   4.685   8.057  0.4550 -0.8460  0.0200
 8502SOL    HW137139   1.979   4.636   8.066 -0.6726  0.7782 -1.4903
 8502SOL    HW237140   2.079   4.679   7.963  0.6683 -0.7701  0.0575
 8503SOL     OW37141   2.135   1.797   3.540 -0.1955 -0.8219 -0.2751
 8503SOL    HW137142   2.151   1.881   3.497 -2.9421  0.2165  0.7490
 8503SOL    HW237143   2.093   1.819   3.623 -0.8115 -2.4112 -0.1667
 8504SOL     OW37144   0.349   0.643   1.013 -0.2409 -0.4848  0.6109
 8504SOL    HW137145   0.352   0.733   0.982  1.4645 -1.2879 -1.5333
 8504SOL    HW237146   0.319   0.652   1.104  0.7398  0.0269  0.8898
 8505SOL     OW37147   3.361   4.337   5.535  0.1204 -0.2010  0.3081
 8505SOL    HW137148   3.364   4.277   5.460 -0.3838 -1.7788  1.5668
 8505SOL    HW237149   3.426   4.293   5.590 -1.8558 -0.7325  2.2256
 8506SOL     OW37150   2.514   3.911   5.783  0.1724  0.2612  0.4621
 8506SOL    HW137151   2.449   3.976   5.808 -0.4302 -0.5924  1.1092
 8506SOL    HW237152   2.526   3.933   5.691 -2.8525 -0.7393 -0.1710
 8507SOL     OW37153   0.659   2.655   7.203  0.2656  0.0043 -0.5799
 8507SOL    HW137154   0.625   2.709   7.132  1.4244 -0.4746 -1.4857
 8507SOL    HW237155   0.732   2.605   7.167 -1.1083 -1.2848 -1.5429
 8508SOL     OW37156   3.604   3.905   0.970 -0.5624  0.0577  0.1859
 8508SOL    HW137157   3.586   3.819   1.008  1.4338 -0.6451 -0.4559
 8508SOL    HW237158   3.541   3.955   1.021 -0.6408  0.5483 -0.3903
 8509SOL     OW37159   1.727   0.094  10.593 -0.3069  0.7765  0.1815
 8509SOL    HW137160   1.657   0.159  10.593 -1.2659 -0.2459 -0.5590
 8509SOL    HW237161   1.793   0.151  10.632  0.4719 -0.7964  1.1538
 8510SOL     OW37162   4.695   0.716   6.343 -1.1165 -0.0007  0.6368
 8510SOL    HW137163   4.707   0.622   6.354 -0.1354  0.0974  0.4011
 8510SOL    HW237164   4.669   0.716   6.250 -0.6629 -0.3858  0.5107
 8511SOL     OW37165   3.927   0.397  11.985 -0.2120  0.3401 -0.4236
 8511SOL    HW137166   3.962   0.435  12.066  0.0866 -0.8686  0.0088
 8511SOL    HW237167   3.960   0.308  11.988  0.1947  0.4484 -1.8206
 8512SOL     OW37168   3.457   2.266  11.121 -0.1818 -0.0140  0.3532
 8512SOL    HW137169   3.545   2.279  11.085  0.9983  0.1227  3.3262
 8512SOL    HW237170   3.478   2.295  11.209  0.0280 -3.4083  1.4478
 8513SOL     OW37171   4.343   0.655   0.397  0.2209 -0.3845  0.1005
 8513SOL    HW137172   4.436   0.631   0.389  0.2677  0.0020 -0.5245
 8513SOL    HW237173   4.304   0.568   0.388 -0.4646  0.0331 -0.9145
 8514SOL     OW37174   3.416   0.685   7.779 -0.2505  1.3243 -0.2615
 8514SOL    HW137175   3.349   0.714   7.841 -1.6286 -4.4892  0.9466
 8514SOL    HW237176   3.375   0.726   7.702  0.2948 -0.2506 -1.3883
 8515SOL     OW37177   0.972   0.288   7.722  0.4224  0.7855 -0.9007
 8515SOL    HW137178   1.037   0.259   7.786 -0.8002  0.6038  0.2623
 8515SOL    HW237179   0.989   0.382   7.726  2.6437  0.2324  2.4137
 8516SOL     OW37180   1.879   0.401   7.469  0.1051  0.3842  0.5048
 8516SOL    HW137181   1.893   0.486   7.510 -0.3337  0.6428  0.1196
 8516SOL    HW237182   1.786   0.387   7.489  0.4568 -0.5923  1.4747
 8517SOL     OW37183   3.023   1.834   2.170  0.2819  0.2863 -0.7018
 8517SOL    HW137184   3.033   1.770   2.241 -2.5679  0.0931 -0.4787
 8517SOL    HW237185   2.990   1.778   2.100 -0.8840 -0.5724  0.5062
 8518SOL     OW37186   0.275   2.515   7.194  0.0467 -0.0264  0.9259
 8518SOL    HW137187   0.365   2.525   7.227 -0.1304  2.0910  0.7327
 8518SOL    HW237188   0.223   2.493   7.272 -1.1529 -1.5910 -0.3276
 8519SOL     OW37189   0.141   0.815   8.305  0.6328  0.7497  0.0353
 8519SOL    HW137190   0.164   0.743   8.364  1.4055  0.9956  0.0400
 8519SOL    HW237191   0.123   0.760   8.230 -0.3285 -1.3661  1.8210
 8520SOL     OW37192   1.919   0.229   1.690 -0.1791 -0.1274  0.1006
 8520SOL    HW137193   1.948   0.316   1.663  0.0364  0.3191  1.7668
 8520SOL    HW237194   1.961   0.206   1.773 -0.2365 -0.0549  0.1493
 8521SOL     OW37195   1.587   3.134   5.735 -0.1195 -0.2234 -0.7599
 8521SOL    HW137196   1.518   3.199   5.748  3.2643  2.7658  2.3220
 8521SOL    HW237197   1.645   3.191   5.684  1.1490  0.0394  0.9776
 8522SOL     OW37198   1.443   2.245   1.449  0.3317  0.3458 -0.5946
 8522SOL    HW137199   1.486   2.262   1.366 -1.3913 -0.6949 -1.7052
 8522SOL    HW237200   1.352   2.241   1.419  0.2125 -1.5776  0.0120
 8523SOL     OW37201   3.567   3.788  16.408  0.1372 -0.3562  0.2429
 8523SOL    HW137202   3.623   3.841  16.351 -0.4385  0.9327  0.8714
 8523SOL    HW237203   3.545   3.725  16.340  0.9223  0.6034 -0.8808
 8524SOL     OW37204   3.438   2.159   7.982 -0.0685 -0.1228 -0.9059
 8524SOL    HW137205   3.483   2.239   8.010  1.4018 -0.4863 -2.2271
 8524SOL    HW237206   3.479   2.147   7.896 -0.2280 -0.2466 -0.9657
 8525SOL     OW37207   4.554   4.419   4.863  0.2583 -0.0076 -0.5805
 8525SOL    HW137208   4.603   4.410   4.945  1.5099  1.6982 -1.1583
 8525SOL    HW237209   4.489   4.349   4.859 -0.5486  0.6915  0.3498
 8526SOL     OW37210   0.904   1.664   6.483 -0.4162  0.3939 -0.0299
 8526SOL    HW137211   0.875   1.604   6.552  0.3930  0.8968  0.7517
 8526SOL    HW237212   0.995   1.637   6.492 -0.3245  1.1870  1.4640
 8527SOL     OW37213   2.372   0.406  17.116  0.0694  0.3495  0.4027
 8527SOL    HW137214   2.459   0.383  17.150  1.7845  2.2581 -2.7620
 8527SOL    HW237215   2.326   0.367  17.190  0.5841 -1.3777 -0.1803
 8528SOL     OW37216   0.230   1.473  14.442  0.0282  0.3858 -0.1117
 8528SOL    HW137217   0.181   1.479  14.525 -0.6818  1.5541 -0.6078
 8528SOL    HW237218   0.275   1.557  14.434  0.8334 -0.1322 -0.9584
 8529SOL     OW37219   0.472   4.612   1.593  0.5191  0.4396 -0.1862
 8529SOL    HW137220   0.541   4.621   1.527  2.1950  0.5749  1.6066
 8529SOL    HW237221   0.458   4.703   1.617  3.1686  0.1767  2.3390
 8530SOL     OW37222   4.105   4.522   6.654 -0.0314 -0.0577  0.1164
 8530SOL    HW137223   4.037   4.458   6.676 -0.9021  1.0976  0.7508
 8530SOL    HW237224   4.170   4.451   6.659  0.1366  0.1552  0.9893
 8531SOL     OW37225   0.949   2.614  11.977  0.1957  0.2720  0.2068
 8531SOL    HW137226   0.977   2.562  11.902 -2.0292  0.6795 -0.9112
 8531SOL    HW237227   0.973   2.703  11.949 -0.2475  0.2989 -0.0844
 8532SOL     OW37228   0.975   2.097   6.963  0.2291  0.3248  0.1182
 8532SOL    HW137229   0.970   2.027   6.898 -2.4496 -0.1593  0.8521
 8532SOL    HW237230   1.056   2.142   6.938  0.4764 -0.2920 -0.1856
 8533SOL     OW37231   4.188   1.679   4.296 -0.1928  0.2589  0.4565
 8533SOL    HW137232   4.240   1.723   4.228  1.1474 -1.1920  0.5640
 8533SOL    HW237233   4.157   1.612   4.234  0.9665 -0.0864  0.2478
 8534SOL     OW37234   4.321   1.498   7.617  0.0414 -0.0630  0.0966
 8534SOL    HW137235   4.310   1.586   7.655 -1.3277 -0.6373  1.0142
 8534SOL    HW237236   4.233   1.460   7.619 -0.5042  1.2064  0.3335
 8535SOL     OW37237   0.937   3.154   2.035 -0.3778  0.2494 -0.3843
 8535SOL    HW137238   0.924   3.248   2.027 -2.0022 -0.2143 -3.1275
 8535SOL    HW237239   1.026   3.166   2.070  0.0151 -2.0980 -0.5321
 8536SOL     OW37240   2.636   1.145   2.788 -0.0922  0.0363 -0.1845
 8536SOL    HW137241   2.724   1.184   2.785  0.4460 -1.2678 -1.3307
 8536SOL    HW237242   2.651   1.068   2.733  1.3273  0.6564 -0.6530
 8537SOL     OW37243   2.871   2.375   1.975 -0.4977 -0.3488  1.0501
 8537SOL    HW137244   2.896   2.381   2.067  1.3711 -0.8675  0.5837
 8537SOL    HW237245   2.832   2.461   1.957 -2.0399 -1.0056  1.2487
 8538SOL     OW37246   2.214   4.416   4.190  0.3146 -0.0052 -0.4793
 8538SOL    HW137247   2.144   4.474   4.221  0.2399  0.7252 -2.0325
 8538SOL    HW237248   2.155   4.354   4.146 -0.7558  2.7833 -2.9224
 8539SOL     OW37249   0.984   3.841   0.731  1.0879 -0.1302 -0.2527
 8539SOL    HW137250   0.891   3.821   0.721  0.8357  1.2698 -0.7847
 8539SOL    HW237251   1.004   3.845   0.637 -0.9478 -0.2412 -0.7013
 8540SOL     OW37252   3.584   0.157   9.296  0.7841 -0.0121  0.4504
 8540SOL    HW137253   3.613   0.192   9.380 -1.9073  0.9190  0.9912
 8540SOL    HW237254   3.508   0.214   9.286 -0.6401 -2.0331 -0.2982
 8541SOL     OW37255   1.607   4.573  16.172  0.1326  0.1076  0.5818
 8541SOL    HW137256   1.552   4.603  16.245  0.0400 -1.0937  0.9931
 8541SOL    HW237257   1.692   4.604  16.202  1.3830 -1.7412 -1.0738
 8542SOL     OW37258   0.260   1.465   1.579  0.2092  0.6089 -0.1382
 8542SOL    HW137259   0.195   1.529   1.609 -1.4460 -0.9535 -0.3934
 8542SOL    HW237260   0.197   1.403   1.543 -1.4608  1.0832  1.9384
 8543SOL     OW37261   3.408   2.063  10.573  0.0335 -0.2812  0.1180
 8543SOL    HW137262   3.399   2.020  10.487 -2.0006  0.2049  0.1134
 8543SOL    HW237263   3.344   2.132  10.559 -0.5550 -0.4672  1.9328
 8544SOL     OW37264   0.021   3.716  12.535 -0.1499 -0.5228 -0.5406
 8544SOL    HW137265   0.115   3.728  12.517 -0.8820  0.7868 -3.5565
 8544SOL    HW237266   4.715   3.738  12.452  1.3823  1.5186 -0.8136
 8545SOL     OW37267   3.586   1.270   6.715  0.4445  0.1616 -0.1281
 8545SOL    HW137268   3.572   1.179   6.689  0.1845 -0.4732  2.2579
 8545SOL    HW237269   3.609   1.273   6.808  3.2084 -0.5649 -0.7902
 8546SOL     OW37270   3.156   2.374  14.832  0.1930 -0.0337 -0.2603
 8546SOL    HW137271   3.094   2.374  14.759  0.8742  0.9436 -0.8435
 8546SOL    HW237272   3.105   2.413  14.903  0.3625 -0.8832  0.3345
 8547SOL     OW37273   4.008   2.486   6.776 -0.1681 -0.0349  0.0730
 8547SOL    HW137274   4.006   2.418   6.843 -3.1932 -0.2467 -0.2241
 8547SOL    HW237275   3.978   2.564   6.823  1.0708  0.9111 -0.7172
 8548SOL     OW37276   2.358   0.786   5.508  0.3811 -0.4661 -0.0961
 8548SOL    HW137277   2.268   0.818   5.498  1.5414  1.9756 -2.6092
 8548SOL    HW237278   2.401   0.840   5.575  1.8638 -1.4124 -0.2844
 8549SOL     OW37279   2.346   3.003   9.316 -0.1776  0.1992  0.2247
 8549SOL    HW137280   2.424   2.968   9.360 -0.1545  0.2468  0.2228
 8549SOL    HW237281   2.310   3.040   9.397 -1.2794  0.8658 -0.5736
 8550SOL     OW37282   0.563   3.682   7.129 -0.2233  0.1193 -0.1381
 8550SOL    HW137283   0.640   3.668   7.074 -0.3377 -0.4479 -0.1565
 8550SOL    HW237284   0.546   3.593   7.159  3.5472 -0.9246 -1.1436
 8551SOL     OW37285   0.168   3.300   4.173 -0.4653  0.0736  0.5899
 8551SOL    HW137286   0.081   3.332   4.149  0.0008  0.1988 -0.9399
 8551SOL    HW237287   0.191   3.369   4.234 -3.6817  0.1510  1.6849
 8552SOL     OW37288   1.917   1.516   6.355  0.0287 -0.3097 -0.4549
 8552SOL    HW137289   1.906   1.560   6.439  1.5998 -0.8064 -0.0050
 8552SOL    HW237290   1.868   1.434   6.366  0.5646 -0.7747 -1.5518
 8553SOL     OW37291   4.721   4.364   6.303 -0.1163  0.0032 -0.3274
 8553SOL    HW137292   4.663   4.300   6.262 -2.0849  0.7527  1.2496
 8553SOL    HW237293   4.699   4.447   6.260  0.1526  1.6016  2.5841
 8554SOL     OW37294   3.671   2.832   3.159 -0.7849 -0.0968  0.5599
 8554SOL    HW137295   3.666   2.897   3.089 -0.1580  0.1690  0.7648
 8554SOL    HW237296   3.767   2.829   3.160 -0.7794 -0.0969  0.0456
 8555SOL     OW37297   1.332   1.188   6.654  0.3321  0.4108 -0.2774
 8555SOL    HW137298   1.325   1.102   6.612 -4.3661  0.5857  0.1389
 8555SOL    HW237299   1.265   1.243   6.613  0.6223 -1.0926 -2.7948
 8556SOL     OW37300   2.602   1.602   5.190  0.0098 -0.1529  0.7092
 8556SOL    HW137301   2.629   1.510   5.180 -1.7041 -0.6526  0.6436
 8556SOL    HW237302   2.592   1.616   5.284 -1.2863 -2.2691  0.9018
 8557SOL     OW37303   0.936   2.707   2.981 -0.2923  0.0689 -0.6302
 8557SOL    HW137304   0.859   2.700   2.924 -0.8354  0.3024  0.0857
 8557SOL    HW237305   0.939   2.802   2.988 -1.9805  0.1106 -0.4780
 8558SOL     OW37306   2.409   3.563   0.353  0.3676 -0.5464  0.3625
 8558SOL    HW137307   2.412   3.468   0.360 -2.5043 -0.7838 -1.9792
 8558SOL    HW237308   2.421   3.589   0.444  0.2118 -0.8342  0.4650
 8559SOL     OW37309   4.000   1.146   6.139 -0.0802 -0.3016  0.0048
 8559SOL    HW137310   4.053   1.066   6.135 -1.9852 -1.5189 -0.7517
 8559SOL    HW237311   4.065   1.215   6.128 -1.8330  1.4617  0.6817
 8560SOL     OW37312   4.028   0.451   6.258 -0.5581 -0.6706  0.2033
 8560SOL    HW137313   3.957   0.400   6.295 -0.7705 -0.5279 -0.0039
 8560SOL    HW237314   4.094   0.448   6.327 -0.3534 -1.8888 -0.0513
 8561SOL     OW37315   1.904   4.648   3.812  0.2245  0.0450 -0.1835
 8561SOL    HW137316   1.855   4.652   3.730 -1.5212  0.7436  0.9082
 8561SOL    HW237317   1.978   4.589   3.793  1.2929  1.0512  0.8530
 8562SOL     OW37318   3.946   0.385   2.909  0.4647  0.1370  0.1830
 8562SOL    HW137319   3.887   0.408   2.981  1.6900 -1.3686  1.6873
 8562SOL    HW237320   3.922   0.460   2.855 -1.6568 -0.4695  0.2893
 8563SOL     OW37321   1.867   1.512   2.636 -0.1483 -0.0197 -0.2083
 8563SOL    HW137322   1.788   1.560   2.659 -1.5463 -1.2472 -2.3837
 8563SOL    HW237323   1.926   1.577   2.674 -1.3968  0.1452  1.4542
 8564SOL     OW37324   2.348   1.363   8.318  0.1708  0.3264 -0.0553
 8564SOL    HW137325   2.349   1.299   8.246 -0.9315  0.4221 -0.1527
 8564SOL    HW237326   2.361   1.448   8.275 -1.8642 -0.4577 -2.2290
 8565SOL     OW37327   2.388   4.397  14.881 -0.0797 -0.2642  0.4543
 8565SOL    HW137328   2.338   4.442  14.812 -0.2864 -0.6458  0.3550
 8565SOL    HW237329   2.355   4.440  14.961 -1.3586  1.2653 -0.8883
 8566SOL     OW37330   4.351   3.081   6.359  0.1656 -0.5276 -0.0850
 8566SOL    HW137331   4.428   3.127   6.391  0.6019  0.6091 -2.7734
 8566SOL    HW237332   4.305   3.053   6.438 -0.2285  2.3422  0.6847
 8567SOL     OW37333   1.879   3.102   9.711 -0.2482 -0.3350  0.5253
 8567SOL    HW137334   1.787   3.105   9.737 -0.5548  1.0484 -0.7230
 8567SOL    HW237335   1.926   3.110   9.794 -0.2214  0.7491  0.4055
 8568SOL     OW37336   2.890   4.602   1.377  0.5104 -0.3155 -0.6546
 8568SOL    HW137337   2.903   4.613   1.283  0.5780  0.2151 -0.5842
 8568SOL    HW237338   2.900   4.507   1.384 -0.5550 -0.3608  0.1865
 8569SOL     OW37339   0.962   2.156   8.525 -0.2579  0.1308  0.2116
 8569SOL    HW137340   0.890   2.142   8.586  0.1517  1.7017  1.0498
 8569SOL    HW237341   1.040   2.172   8.578  0.3727 -0.6041 -0.4870
 8570SOL     OW37342   3.996   2.855  10.644  0.0183  0.2191  0.7782
 8570SOL    HW137343   4.011   2.789  10.712  1.1187 -1.5232 -1.1619
 8570SOL    HW237344   3.928   2.817  10.588  0.7316 -2.8038  1.9463
 8571SOL     OW37345   2.496   2.298   3.060 -0.3667  0.5959 -0.1742
 8571SOL    HW137346   2.497   2.248   2.978  0.3853 -1.9241  1.3730
 8571SOL    HW237347   2.574   2.271   3.109 -0.1507  1.9672  0.2346
 8572SOL     OW37348   1.156   3.052   4.488  0.0938  0.1467  0.1971
 8572SOL    HW137349   1.099   3.036   4.413 -0.6710 -0.0983  0.8293
 8572SOL    HW237350   1.101   3.118   4.530 -1.2278 -0.5653 -0.4435
 8573SOL     OW37351   0.053   2.547   3.440 -0.0494 -0.0557 -0.5006
 8573SOL    HW137352   4.707   2.577   3.402  0.9109  1.2956 -1.5441
 8573SOL    HW237353   0.021   2.466   3.481  0.9671  0.2729  0.9238
 8574SOL     OW37354   4.196   3.329   7.485 -0.1161  0.4446 -0.3060
 8574SOL    HW137355   4.254   3.322   7.560  0.5899 -0.8563 -0.9729
 8574SOL    HW237356   4.263   3.322   7.417 -0.9538 -1.4361 -0.9452
 8575SOL     OW37357   3.530   3.334   5.221  0.6545 -0.1309 -0.0395
 8575SOL    HW137358   3.532   3.402   5.154 -1.9928  0.8884  0.9384
 8575SOL    HW237359   3.616   3.354   5.256  0.0165  0.2925  1.2776
 8576SOL     OW37360   4.367   3.045   0.490  0.4151  0.2226  0.2707
 8576SOL    HW137361   4.421   3.122   0.510  0.1878 -0.1567  2.4250
 8576SOL    HW237362   4.282   3.075   0.522  0.1503 -0.6420  0.3816
 8577SOL     OW37363   1.205   3.799   8.929 -0.0432  0.3019  0.3100
 8577SOL    HW137364   1.239   3.728   8.875 -0.5930 -0.5525  1.1055
 8577SOL    HW237365   1.156   3.842   8.859 -1.2419 -1.0260  0.3306
 8578SOL     OW37366   2.497   3.966   2.480 -0.2757  0.6662  0.5056
 8578SOL    HW137367   2.579   4.006   2.451 -0.4725 -0.7689 -2.0390
 8578SOL    HW237368   2.448   4.042   2.510 -3.3809 -1.4229  0.7661
 8579SOL     OW37369   2.195   0.267  13.509  0.3606  0.2620 -0.4190
 8579SOL    HW137370   2.277   0.218  13.508  1.4146  1.9550  1.8055
 8579SOL    HW237371   2.144   0.218  13.574 -0.5528  1.7522 -0.0089
 8580SOL     OW37372   3.168   0.619   6.320  0.0805  0.0764 -0.3186
 8580SOL    HW137373   3.243   0.580   6.366  1.1002 -0.2441 -2.2285
 8580SOL    HW237374   3.162   0.707   6.358  2.0535 -0.6332  1.6702
 8581SOL     OW37375   3.997   2.681   2.199  0.0022 -0.3505  0.0313
 8581SOL    HW137376   3.965   2.746   2.138 -1.2242  1.0117  2.1284
 8581SOL    HW237377   3.915   2.635   2.218 -1.1795  1.4085 -0.9286
 8582SOL     OW37378   0.637   4.644   2.031  0.4418  0.2227 -0.0989
 8582SOL    HW137379   0.704   4.581   2.003  1.0225  0.9369 -0.3167
 8582SOL    HW237380   0.593   4.581   2.088 -0.9859 -0.1152 -1.5743
 8583SOL     OW37381   3.102   1.969  10.240 -0.0505 -0.0993  0.3710
 8583SOL    HW137382   3.193   1.997  10.236  0.3085 -1.2407  0.4192
 8583SOL    HW237383   3.089   1.984  10.334 -0.0546 -2.5119  0.7662
 8584SOL     OW37384   2.700   2.907  13.999 -0.2741  0.2837  0.2660
 8584SOL    HW137385   2.646   2.965  13.944 -1.4656 -0.5324  0.5709
 8584SOL    HW237386   2.741   2.840  13.944  0.6462 -0.0610  1.3851
 8585SOL     OW37387   0.210   0.069   2.065  0.0103 -0.0325 -0.2840
 8585SOL    HW137388   0.299   0.073   2.028 -0.5860  0.5457 -1.6484
 8585SOL    HW237389   0.202   0.164   2.068  0.0025 -0.0551  0.5006
 8586SOL     OW37390   0.568   2.411   6.574  0.1677 -0.1136  0.2866
 8586SOL    HW137391   0.632   2.355   6.530 -1.9164 -2.6668  0.5414
 8586SOL    HW237392   0.501   2.348   6.602 -2.3849  0.9230 -3.4730
 8587SOL     OW37393   1.714   2.825  15.944  0.4137 -0.3072 -0.3170
 8587SOL    HW137394   1.622   2.806  15.967 -0.3382  1.4484 -1.8971
 8587SOL    HW237395   1.712   2.892  15.876  1.1931 -1.9233 -1.9271
 8588SOL     OW37396   4.599   0.779   6.057  0.7152  0.1609  0.2896
 8588SOL    HW137397   4.531   0.814   5.999  0.3442  1.2902  1.3880
 8588SOL    HW237398   4.581   0.686   6.071  0.7547  0.1821  0.4938
 8589SOL     OW37399   4.574   0.002  11.390  0.0667 -0.5472 -0.6154
 8589SOL    HW137400   4.515   0.064  11.433  2.4667  1.6998 -0.5749
 8589SOL    HW237401   4.530   4.730  11.306 -1.5803  0.1108  0.1618
 8590SOL     OW37402   2.743   0.731   8.171  0.1008 -0.2310  0.0226
 8590SOL    HW137403   2.662   0.763   8.210  1.4118  0.4778  2.1268
 8590SOL    HW237404   2.744   0.784   8.091 -0.0447 -0.7869 -0.3508
 8591SOL     OW37405   3.137   3.131   6.268 -0.1289 -0.5268  0.4446
 8591SOL    HW137406   3.226   3.107   6.242  0.4463  1.0801  0.9028
 8591SOL    HW237407   3.154   3.157   6.358 -1.9771 -0.8917  0.9036
 8592SOL     OW37408   1.605   2.251  10.669 -0.3864 -0.2633 -0.1907
 8592SOL    HW137409   1.586   2.344  10.682 -2.3722 -0.3173 -2.7505
 8592SOL    HW237410   1.656   2.230  10.747 -0.3985  0.5510  0.0352
 8593SOL     OW37411   3.730   4.161   7.976 -0.2798 -0.0035 -0.1107
 8593SOL    HW137412   3.683   4.078   7.988  1.3055 -0.8547  0.2583
 8593SOL    HW237413   3.722   4.195   8.065  1.4756 -0.1705  0.1194
 8594SOL     OW37414   1.502   0.242   5.029  0.3354 -0.1125 -0.4556
 8594SOL    HW137415   1.510   0.233   5.124  1.7645 -0.6304 -0.6316
 8594SOL    HW237416   1.578   0.295   5.005  0.3212  0.3540  0.5120
 8595SOL     OW37417   0.499   1.302   9.454 -0.2971 -0.0946  0.2244
 8595SOL    HW137418   0.567   1.353   9.411  1.4487 -0.6209  2.3688
 8595SOL    HW237419   0.439   1.374   9.476  0.7156  1.1337 -1.0222
 8596SOL     OW37420   2.311   0.319   0.323  0.2614 -0.1307 -1.0639
 8596SOL    HW137421   2.394   0.274   0.318 -0.1367 -1.1077  1.2625
 8596SOL    HW237422   2.343   0.403   0.289  1.4247  0.1780  0.7945
 8597SOL     OW37423   0.151   4.470   5.005  0.4125 -0.7929 -0.2176
 8597SOL    HW137424   0.191   4.425   4.930  2.4472  0.9402 -0.1895
 8597SOL    HW237425   0.092   4.407   5.046  0.0030  0.5178  1.2097
 8598SOL     OW37426   1.624   4.076   2.564 -0.2007 -0.0220  0.4989
 8598SOL    HW137427   1.589   4.049   2.480  0.2542 -0.0209  0.3071
 8598SOL    HW237428   1.717   4.070   2.541 -0.0267  1.8925  0.6834
 8599SOL     OW37429   1.210   2.538   3.973  0.2054  0.4031 -0.4252
 8599SOL    HW137430   1.159   2.459   3.990  0.7702 -0.4887 -2.8604
 8599SOL    HW237431   1.152   2.580   3.910  0.4690 -0.0467 -0.9686
 8600SOL     OW37432   4.040   3.403  17.429 -0.4279 -0.1054 -0.6112
 8600SOL    HW137433   4.054   3.416  17.523 -1.7924  3.1871 -0.8642
 8600SOL    HW237434   3.970   3.462  17.400  1.5425  2.0280 -1.0312
 8601SOL     OW37435   1.640   3.302   6.971 -0.3503 -0.7426 -0.5184
 8601SOL    HW137436   1.584   3.296   7.048  1.0604  0.4207  0.5812
 8601SOL    HW237437   1.641   3.397   6.960 -1.4984 -0.9417 -2.4471
 8602SOL     OW37438   0.641   3.617  17.342  0.2420 -0.0976 -0.0579
 8602SOL    HW137439   0.599   3.703  17.338  0.8096  0.1908  0.1402
 8602SOL    HW237440   0.642   3.585  17.251 -0.9156  2.4596 -0.9780
 8603SOL     OW37441   0.999   0.341   0.525 -0.1653  0.3421  0.0817
 8603SOL    HW137442   1.047   0.399   0.466 -1.4424 -1.2257 -2.5422
 8603SOL    HW237443   0.989   0.394   0.604 -0.5909 -1.2087  1.0757
 8604SOL     OW37444   4.388   2.426   3.130  0.4299  0.4832 -0.0202
 8604SOL    HW137445   4.475   2.413   3.169 -0.6435  1.5623  2.7545
 8604SOL    HW237446   4.376   2.350   3.073  2.8144  0.6934 -0.8125
 8605SOL     OW37447   1.127   0.740   3.512  0.1192  0.3813 -0.8784
 8605SOL    HW137448   1.145   0.736   3.418  2.3835 -2.5421 -0.3307
 8605SOL    HW237449   1.098   0.831   3.515 -2.7906 -0.4843 -2.8329
 8606SOL     OW37450   1.509   0.074   7.383  0.1708  0.5022 -0.5858
 8606SOL    HW137451   1.601   0.098   7.369  0.2294  0.8987  0.4461
 8606SOL    HW237452   1.455   0.130   7.327  1.8555  2.1754 -0.5426
 8607SOL     OW37453   3.039   2.361   4.418 -0.7580  0.0375  0.1024
 8607SOL    HW137454   2.951   2.333   4.442 -0.5182 -0.6684  0.1530
 8607SOL    HW237455   3.057   2.307   4.341  0.0751  1.9771 -1.0568
 8608SOL     OW37456   2.502   3.212  11.154 -0.4723  0.3030  0.2383
 8608SOL    HW137457   2.578   3.269  11.160  1.5573 -2.4301  0.4699
 8608SOL    HW237458   2.492   3.208  11.059  1.1325  0.7069  0.0586
 8609SOL     OW37459   4.499   1.267   8.259  0.1068  0.4775  0.0599
 8609SOL    HW137460   4.573   1.302   8.210  0.0768  1.6594  0.8346
 8609SOL    HW237461   4.488   1.180   8.221 -0.2604  0.6704 -0.2760
 8610SOL     OW37462   2.874   2.517   3.762 -0.1761  0.0373  0.1070
 8610SOL    HW137463   2.921   2.482   3.838  0.4088 -0.8655 -0.6685
 8610SOL    HW237464   2.784   2.516   3.793  0.0580 -0.7570  0.7371
 8611SOL     OW37465   4.487   4.419   5.804  0.0193 -0.5032  0.6474
 8611SOL    HW137466   4.521   4.464   5.727 -2.2302  1.8427  1.0316
 8611SOL    HW237467   4.558   4.447   5.863 -0.0552  1.1979 -0.0660
 8612SOL     OW37468   3.792   0.960   1.293 -0.4670  0.0567 -0.1960
 8612SOL    HW137469   3.880   0.996   1.303  0.7028 -2.2040 -2.4226
 8612SOL    HW237470   3.809   0.912   1.212  1.2232  0.2470  0.0486
 8613SOL     OW37471   3.257   1.392   3.776 -0.2761 -0.0642 -0.3180
 8613SOL    HW137472   3.350   1.392   3.756  0.0776 -1.0240  1.3412
 8613SOL    HW237473   3.247   1.475   3.823  0.7321 -0.2548  0.2183
 8614SOL     OW37474   2.285   4.243   2.244 -0.1454 -0.1352 -0.1168
 8614SOL    HW137475   2.322   4.185   2.177  1.1624 -0.7254  1.1056
 8614SOL    HW237476   2.266   4.323   2.195  1.7800 -0.2987 -1.1205
 8615SOL     OW37477   0.365   0.463  10.284 -0.1245 -0.8869 -0.0320
 8615SOL    HW137478   0.330   0.387  10.238 -0.3794 -2.0006  1.9537
 8615SOL    HW237479   0.447   0.429  10.321  0.4939  2.0180  1.2917
 8616SOL     OW37480   2.498   1.775   3.925 -0.0814  0.8113  0.7992
 8616SOL    HW137481   2.429   1.825   3.969 -0.5510 -0.4501  1.5087
 8616SOL    HW237482   2.503   1.696   3.980 -2.4589  1.2923  1.7069
 8617SOL     OW37483   4.510   2.938   4.025  0.7081  0.2216 -0.0021
 8617SOL    HW137484   4.447   2.960   3.956  1.0538  2.1343  0.3117
 8617SOL    HW237485   4.591   2.921   3.976 -0.0496 -0.3626 -1.0577
 8618SOL     OW37486   1.973   1.998   6.254 -0.2413 -0.8550  0.0665
 8618SOL    HW137487   1.968   1.906   6.228 -1.1117  0.3078 -3.8046
 8618SOL    HW237488   2.052   1.980   6.307 -0.4977 -0.5449  0.5524
 8619SOL     OW37489   3.777   2.120   2.436 -0.2532 -0.2449  0.3301
 8619SOL    HW137490   3.725   2.168   2.501  1.1020 -0.5298  1.6247
 8619SOL    HW237491   3.854   2.176   2.440 -0.0554 -0.5707  1.1932
 8620SOL     OW37492   0.987   3.256   7.579 -0.1526  0.0986 -0.3725
 8620SOL    HW137493   0.907   3.278   7.626  0.8010 -1.0315  1.7774
 8620SOL    HW237494   1.048   3.273   7.651 -0.3638 -1.2172  0.1084
 8621SOL     OW37495   0.757   4.631   8.669 -0.3632 -0.0959  0.3334
 8621SOL    HW137496   0.850   4.627   8.647 -0.4078 -2.5023  0.5678
 8621SOL    HW237497   0.762   4.639   8.765  4.5546  0.1691  0.0389
 8622SOL     OW37498   0.867   1.631   2.873  0.2002 -0.3628 -1.1374
 8622SOL    HW137499   0.852   1.599   2.962 -0.2724  0.9389 -0.7353
 8622SOL    HW237500   0.778   1.665   2.856  0.1113 -0.7361 -1.4108
 8623SOL     OW37501   2.184   0.641   5.732 -0.0913 -0.1322 -0.0673
 8623SOL    HW137502   2.198   0.725   5.775  1.5091 -0.4475  0.0384
 8623SOL    HW237503   2.089   0.640   5.718 -0.0979 -2.3359  0.0678
 8624SOL     OW37504   2.934   3.075   1.595  0.2864 -0.0868  0.2292
 8624SOL    HW137505   3.004   3.096   1.534  0.1575 -2.5359 -0.7945
 8624SOL    HW237506   2.890   3.013   1.536  1.9782 -0.8904 -0.1628
 8625SOL     OW37507   2.300   3.032  10.980 -0.2383  0.1001 -0.2439
 8625SOL    HW137508   2.246   3.111  10.980 -2.4584 -1.4205 -0.1174
 8625SOL    HW237509   2.306   3.004  11.071 -2.2823 -0.1377 -0.1762
 8626SOL     OW37510   4.058   1.536   5.316 -0.1311  0.3985  0.4927
 8626SOL    HW137511   4.154   1.533   5.314 -0.2487 -1.3159 -2.7449
 8626SOL    HW237512   4.048   1.478   5.241 -1.4030 -1.1896  1.9038
 8627SOL     OW37513   2.817   4.501   1.677 -0.2705 -0.9123  0.1429
 8627SOL    HW137514   2.766   4.507   1.757 -0.5052  2.8147 -0.3000
 8627SOL    HW237515   2.836   4.594   1.671 -4.0087  0.0112  3.0316
 8628SOL     OW37516   2.117   0.875   7.436 -0.4498 -0.3058  0.6285
 8628SOL    HW137517   2.079   0.804   7.385  1.3190  1.1129 -2.6468
 8628SOL    HW237518   2.200   0.881   7.389 -0.0801 -2.5752  0.9907
 8629SOL     OW37519   4.438   1.346   6.934 -0.0353 -0.3867 -0.2093
 8629SOL    HW137520   4.531   1.328   6.918  0.1985 -0.8858  1.7211
 8629SOL    HW237521   4.402   1.276   6.879 -2.0631  0.9800 -0.6098
 8630SOL     OW37522   3.276   2.620   5.285 -0.0849 -0.0916 -0.0398
 8630SOL    HW137523   3.297   2.528   5.303  2.0903  0.6396  1.1730
 8630SOL    HW237524   3.363   2.652   5.262 -0.4612 -0.5027 -2.0177
 8631SOL     OW37525   1.441   3.317   5.191 -0.3637  0.3108  0.7278
 8631SOL    HW137526   1.473   3.231   5.164 -1.2181  0.2223 -0.0165
 8631SOL    HW237527   1.379   3.339   5.122 -0.0539 -2.6631 -0.5180
 8632SOL     OW37528   4.425   2.271   5.901  0.0326  0.5307 -0.0879
 8632SOL    HW137529   4.457   2.343   5.955 -1.7132  1.8132 -0.7124
 8632SOL    HW237530   4.373   2.224   5.966 -0.7445  2.2202  0.5160
 8633SOL     OW37531   0.785   1.266   4.810 -0.0171  0.6492  0.2678
 8633SOL    HW137532   0.860   1.218   4.775 -1.1924 -1.2179  0.2619
 8633SOL    HW237533   0.772   1.241   4.902  1.5851 -1.2055 -0.0117
 8634SOL     OW37534   0.397   3.311   4.926  0.0939  0.1467 -0.6624
 8634SOL    HW137535   0.431   3.232   4.883  1.6406 -0.1118  1.0330
 8634SOL    HW237536   0.469   3.341   4.982  0.3245  1.7489 -1.8175
 8635SOL     OW37537   0.363   1.659   6.640 -0.1070 -0.1738 -0.3251
 8635SOL    HW137538   0.314   1.579   6.620 -1.0425  0.5362 -0.9091
 8635SOL    HW237539   0.389   1.688   6.553 -2.8105  2.5258 -0.2626
 8636SOL     OW37540   4.188   3.912  15.522 -0.2520 -0.1115  0.5192
 8636SOL    HW137541   4.219   3.890  15.609  0.6000 -3.3169 -0.5834
 8636SOL    HW237542   4.174   4.006  15.532  1.3525 -0.0702  2.2647
 8637SOL     OW37543   3.395   2.438   1.942  0.2063  0.5105 -0.4870
 8637SOL    HW137544   3.455   2.364   1.946 -1.6253 -0.9821 -0.7292
 8637SOL    HW237545   3.365   2.430   2.032  0.2157 -0.3483 -0.5637
 8638SOL     OW37546   1.588   1.456  11.251  0.3690 -0.2394  0.3179
 8638SOL    HW137547   1.570   1.548  11.268  2.0983  0.3222 -0.9037
 8638SOL    HW237548   1.684   1.454  11.254  0.3986 -0.3991 -0.8056
 8639SOL     OW37549   0.471   3.370   5.380  0.8410 -0.3628  0.0830
 8639SOL    HW137550   0.512   3.335   5.301  0.8286 -1.6739  0.6596
 8639SOL    HW237551   0.385   3.391   5.342  1.0296 -0.8915 -0.6506
 8640SOL     OW37552   2.426   4.457  15.170 -0.6365  0.1961 -0.3582
 8640SOL    HW137553   2.479   4.528  15.205  0.7780 -1.0540  0.0470
 8640SOL    HW237554   2.468   4.379  15.207 -1.6791  0.1457  0.6961
 8641SOL     OW37555   3.926   3.047   2.265  0.2419 -0.0041 -0.2954
 8641SOL    HW137556   4.020   3.036   2.247  0.5226 -1.7033  2.2643
 8641SOL    HW237557   3.906   3.104   2.190 -1.6485 -3.8838 -2.7437
 8642SOL     OW37558   2.439   3.918   0.847  0.9198 -0.6802  0.2502
 8642SOL    HW137559   2.508   3.981   0.827 -0.3477  1.7625  3.6425
 8642SOL    HW237560   2.475   3.848   0.793  1.6343 -0.0279 -0.1222
 8643SOL     OW37561   4.684   2.237   5.843 -0.1891  0.6322 -0.1856
 8643SOL    HW137562   4.686   2.200   5.931  0.0540  1.0000 -0.0339
 8643SOL    HW237563   4.593   2.264   5.844 -0.6634 -0.8916 -2.2867
 8644SOL     OW37564   0.226   4.282   2.124  0.4644  0.1086  0.2064
 8644SOL    HW137565   0.171   4.360   2.130 -0.5802 -0.4593 -1.7622
 8644SOL    HW237566   0.191   4.241   2.203  0.3909  0.2229  0.2332
 8645SOL     OW37567   0.183   3.511   4.352 -0.8439  0.1675  0.1739
 8645SOL    HW137568   0.238   3.518   4.430  0.2709  1.3157 -0.7190
 8645SOL    HW237569   0.231   3.577   4.303 -0.4693  1.1529  1.8684
 8646SOL     OW37570   4.610   1.747  10.552  0.0223  0.6611 -0.1313
 8646SOL    HW137571   4.579   1.659  10.576  1.4298  0.3792  0.6918
 8646SOL    HW237572   4.588   1.804  10.626 -1.7313  0.3573 -0.4241
 8647SOL     OW37573   0.424   0.713   5.015  0.3423  0.0211 -0.3160
 8647SOL    HW137574   0.332   0.738   5.012  0.1817 -0.6148 -0.7366
 8647SOL    HW237575   0.423   0.658   4.937  0.3987  1.1233 -1.1017
 8648SOL     OW37576   4.734   1.976   2.566  0.3717  0.9108  0.1604
 8648SOL    HW137577   0.028   1.932   2.487 -1.2344  0.4447 -0.2024
 8648SOL    HW237578   4.658   2.025   2.536  1.1001  2.7274  1.2874
 8649SOL     OW37579   4.160   0.811   1.193  0.4952  0.9998  0.0907
 8649SOL    HW137580   4.150   0.870   1.118  0.4469  0.8340 -0.0355
 8649SOL    HW237581   4.252   0.785   1.187 -0.4143 -1.8633 -1.8186
 8650SOL     OW37582   3.845   2.008   5.575  0.4119  0.2279  0.0439
 8650SOL    HW137583   3.753   2.028   5.556 -0.2541 -2.3094  0.5771
 8650SOL    HW237584   3.879   2.091   5.542 -0.8082  0.9836  0.6667
 8651SOL     OW37585   1.227   3.299   3.568  0.0588  0.6090  0.1102
 8651SOL    HW137586   1.286   3.224   3.563  1.0345  1.3691  0.2867
 8651SOL    HW237587   1.267   3.345   3.641 -0.4412  2.2418 -0.6517
 8652SOL     OW37588   0.975   4.080   0.841  0.2122  0.0849 -0.4923
 8652SOL    HW137589   0.986   3.995   0.798  0.5793  0.0630 -0.3568
 8652SOL    HW237590   1.020   4.140   0.782 -0.9704  0.0724 -1.3921
 8653SOL     OW37591   0.814   2.649   5.714  0.5498  0.0947 -0.2763
 8653SOL    HW137592   0.900   2.690   5.707  1.2764 -1.0900  2.0683
 8653SOL    HW237593   0.745   2.700   5.670  0.2844  1.8498  2.2138
 8654SOL     OW37594   4.450   3.820   7.283  0.5321 -0.2734 -0.2114
 8654SOL    HW137595   4.447   3.906   7.324 -0.7583 -0.3419 -0.1642
 8654SOL    HW237596   4.525   3.837   7.226 -1.0961 -0.5076 -2.3855
 8655SOL     OW37597   1.978   3.969   8.424 -0.3977  0.5276 -0.4476
 8655SOL    HW137598   2.059   4.019   8.418  0.6602 -1.7022 -4.8872
 8655SOL    HW237599   1.977   3.946   8.517  1.0557  0.1888 -0.5156
 8656SOL     OW37600   0.890   2.305  10.211  0.1195  0.2302  0.6081
 8656SOL    HW137601   0.977   2.277  10.183 -0.3893 -2.4470  1.7513
 8656SOL    HW237602   0.862   2.344  10.128  3.0092 -0.0261 -0.4832
 8657SOL     OW37603   2.084   0.361   2.374  0.2213 -0.0984 -0.1548
 8657SOL    HW137604   2.092   0.332   2.283 -1.5591 -1.1770  0.0387
 8657SOL    HW237605   2.066   0.455   2.368 -3.0424 -0.6968  0.4631
 8658SOL     OW37606   4.329   4.420   9.015 -0.4080  0.1361  0.0906
 8658SOL    HW137607   4.359   4.441   8.926 -1.0367  0.5671 -0.0269
 8658SOL    HW237608   4.360   4.503   9.052 -1.0617  0.3500  0.1619
 8659SOL     OW37609   4.585   0.228   8.002 -0.2361 -0.2396  0.1341
 8659SOL    HW137610   4.650   0.188   8.059  1.7203  1.4098 -0.9216
 8659SOL    HW237611   4.640   0.269   7.934  1.5084 -1.3465  0.8923
 8660SOL     OW37612   0.798   4.488   5.940 -0.6365  0.5729  1.0595
 8660SOL    HW137613   0.846   4.553   5.889 -2.1271 -0.3765 -1.5398
 8660SOL    HW237614   0.709   4.519   5.926 -1.3987 -2.7872 -1.6064
 8661SOL     OW37615   3.385   0.937  14.022 -0.2766  0.1658 -0.4257
 8661SOL    HW137616   3.455   0.935  14.087  0.2707  1.5503 -0.9957
 8661SOL    HW237617   3.399   1.022  13.981 -0.7447  0.2852 -0.3373
 8662SOL     OW37618   0.924   1.512   2.127  0.8720  0.6192 -0.2245
 8662SOL    HW137619   0.887   1.510   2.215  3.1232  0.7568  0.7400
 8662SOL    HW237620   0.870   1.580   2.088  0.8619  0.5886 -0.2647
 8663SOL     OW37621   3.723   2.824  14.674  0.1896 -0.3181 -0.0232
 8663SOL    HW137622   3.654   2.772  14.715  1.5311 -0.8916  1.5382
 8663SOL    HW237623   3.720   2.787  14.586 -2.8276 -1.7641  0.6909
 8664SOL     OW37624   1.075   2.849   6.542 -0.2159 -0.6396 -0.0207
 8664SOL    HW137625   1.141   2.835   6.610 -0.0345 -1.6485 -0.4056
 8664SOL    HW237626   1.082   2.941   6.518  2.2999 -0.4833  1.2988
 8665SOL     OW37627   2.054   3.531  10.115 -0.4132  0.5002 -0.2388
 8665SOL    HW137628   2.032   3.520  10.207  0.3388  0.0675 -0.1132
 8665SOL    HW237629   2.144   3.562  10.108  0.1384 -0.3875  2.8291
 8666SOL     OW37630   0.196   2.244   9.159  0.0320 -0.0069 -0.8928
 8666SOL    HW137631   0.103   2.264   9.150  0.1841  0.6940 -0.9297
 8666SOL    HW237632   0.221   2.320   9.212  2.3401 -0.4703 -1.3059
 8667SOL     OW37633   2.163   4.606   8.465 -0.2484  0.3211  0.1420
 8667SOL    HW137634   2.093   4.666   8.492 -0.3543 -0.0751  0.7522
 8667SOL    HW237635   2.106   4.530   8.453 -0.7718  0.5100  1.4351
 8668SOL     OW37636   3.983   3.542   2.682 -0.4157  0.3346  0.0247
 8668SOL    HW137637   3.967   3.543   2.588  3.5108  1.9201 -0.5869
 8668SOL    HW237638   4.068   3.585   2.689 -1.4180  2.2893  0.4208
 8669SOL     OW37639   1.275   2.437   2.757  0.3996 -0.1405  0.4905
 8669SOL    HW137640   1.332   2.453   2.832 -1.0276  0.0487  1.5283
 8669SOL    HW237641   1.325   2.372   2.708 -0.1184  0.7863 -1.2544
 8670SOL     OW37642   2.100   1.477  14.427 -0.1009 -0.2455  0.4188
 8670SOL    HW137643   2.044   1.425  14.369 -2.2037  0.6040  1.6879
 8670SOL    HW237644   2.129   1.407  14.485  0.1000 -1.6713 -1.4130
 8671SOL     OW37645   4.221   3.286   6.625  0.2686  0.0758 -0.1632
 8671SOL    HW137646   4.219   3.381   6.634  1.8994  0.0520  0.3588
 8671SOL    HW237647   4.134   3.277   6.586  0.1625 -2.1359  0.5900
 8672SOL     OW37648   0.546   4.102   3.960 -0.1560  0.0317  0.1283
 8672SOL    HW137649   0.523   4.012   3.934 -1.2696  0.1832  0.5812
 8672SOL    HW237650   0.458   4.125   3.990 -0.6220  0.7381 -1.8030
 8673SOL     OW37651   2.496   1.910  12.179 -0.2002 -0.4219  0.1212
 8673SOL    HW137652   2.424   1.895  12.118  0.5399  1.2649 -1.1873
 8673SOL    HW237653   2.522   1.819  12.194  0.1039 -0.4120 -0.3245
 8674SOL     OW37654   2.007   3.118   4.065  0.4080 -0.4967  0.0860
 8674SOL    HW137655   2.076   3.102   4.129 -0.0043 -0.8146  0.4542
 8674SOL    HW237656   2.054   3.175   4.004  0.9823  2.6616  3.4342
 8675SOL     OW37657   2.043   4.397   6.969 -0.0017  0.0668 -0.5778
 8675SOL    HW137658   1.952   4.426   6.974 -0.3370 -1.1884  0.6793
 8675SOL    HW237659   2.093   4.455   7.026 -0.9322 -0.3893  0.7268
 8676SOL     OW37660   3.377   3.033  11.020  0.0646  0.9165  0.2969
 8676SOL    HW137661   3.297   2.980  11.027 -0.5514  1.5180 -2.2422
 8676SOL    HW237662   3.408   2.992  10.939  2.2057  3.5785 -0.2134
 8677SOL     OW37663   1.417   4.486   8.105 -0.3687  0.1797  0.2525
 8677SOL    HW137664   1.366   4.458   8.030 -0.4182 -0.3466  0.4830
 8677SOL    HW237665   1.472   4.556   8.071  0.1643 -0.4728 -0.2177
 8678SOL     OW37666   1.141   2.240   4.013 -0.0384  0.0824 -0.0813
 8678SOL    HW137667   1.163   2.165   4.068 -1.0882 -0.1611 -0.0043
 8678SOL    HW237668   1.138   2.194   3.929 -0.3358 -0.7423  0.3906
 8679SOL     OW37669   3.405   2.108   5.204 -0.0642  0.2948  0.1953
 8679SOL    HW137670   3.338   2.172   5.181 -1.3411 -0.5721  1.4891
 8679SOL    HW237671   3.476   2.150   5.156  0.8067 -1.1763  0.1929
 8680SOL     OW37672   1.196   0.583   4.959  0.3019  0.2990 -0.1348
 8680SOL    HW137673   1.249   0.546   4.888 -0.3954 -2.2686  0.6809
 8680SOL    HW237674   1.206   0.515   5.025  0.0546  1.3479  0.9840
 8681SOL     OW37675   3.779   0.705  12.457  0.2326 -0.2127  0.2815
 8681SOL    HW137676   3.686   0.715  12.440  0.3857 -0.4055 -0.6472
 8681SOL    HW237677   3.782   0.610  12.469 -0.3343 -0.1840  0.6696
 8682SOL     OW37678   0.765   2.406   2.498 -0.2777 -0.3662 -0.1267
 8682SOL    HW137679   0.687   2.370   2.540 -1.2560  1.0915 -0.6907
 8682SOL    HW237680   0.831   2.382   2.563 -1.2501 -1.6133  0.4173
 8683SOL     OW37681   1.812   4.203   9.402  0.0708  0.0642 -0.2307
 8683SOL    HW137682   1.908   4.200   9.399  0.0199 -1.0190 -0.7425
 8683SOL    HW237683   1.789   4.279   9.455 -0.8160 -2.3641  2.7901
 8684SOL     OW37684   3.661   0.942   6.239  0.1064  0.0870  0.5511
 8684SOL    HW137685   3.700   1.010   6.184  0.9338 -0.9710 -0.1661
 8684SOL    HW237686   3.586   0.920   6.184  0.1327  1.1041  0.1092
 8685SOL     OW37687   3.762   4.229  12.135  0.0644 -0.6188  0.6232
 8685SOL    HW137688   3.697   4.174  12.092  0.0630  0.2971 -0.5396
 8685SOL    HW237689   3.765   4.202  12.227 -0.5493  0.0444  0.8364
 8686SOL     OW37690   1.009   4.489   5.004  0.0089  0.1977  0.4941
 8686SOL    HW137691   0.967   4.416   4.957 -0.1917  0.8746 -0.3768
 8686SOL    HW237692   1.097   4.486   4.966 -0.3257 -0.3496 -0.2488
 8687SOL     OW37693   3.546   1.591   3.015  0.0354  0.3685  0.2878
 8687SOL    HW137694   3.633   1.618   2.986  0.6950 -0.2885  1.6648
 8687SOL    HW237695   3.485   1.647   2.966 -1.5438  0.2814  2.1232
 8688SOL     OW37696   1.644   3.113  16.206 -0.0502 -0.1516  0.7108
 8688SOL    HW137697   1.637   3.193  16.155 -1.0062 -0.6305  0.0843
 8688SOL    HW237698   1.643   3.155  16.292  0.0671  1.6711 -0.1832
 8689SOL     OW37699   0.898   0.074   3.599 -0.5335  0.5757 -0.3560
 8689SOL    HW137700   0.886   0.108   3.510 -1.5322  0.1308 -0.3912
 8689SOL    HW237701   0.871   4.720   3.591  0.2800  0.4081 -1.1831
 8690SOL     OW37702   1.193   0.549   2.304 -0.0653  0.1365 -0.5345
 8690SOL    HW137703   1.248   0.618   2.269  0.0444 -0.2092 -1.0345
 8690SOL    HW237704   1.107   0.588   2.284 -0.0168  0.6417  0.2225
 8691SOL     OW37705   4.087   2.864   6.540 -0.9191 -0.1237  0.1363
 8691SOL    HW137706   4.149   2.921   6.586  1.7855 -1.6405 -1.6024
 8691SOL    HW237707   4.125   2.776   6.543 -0.0305  0.2712  0.4861
 8692SOL     OW37708   2.347   3.056   0.422 -0.4406  0.4232  0.1401
 8692SOL    HW137709   2.372   2.975   0.378 -1.8826 -0.2009  0.4923
 8692SOL    HW237710   2.285   3.018   0.484  2.4672 -1.5762  1.8629
 8693SOL     OW37711   4.609   2.547   5.754 -0.3027 -0.2244  0.2364
 8693SOL    HW137712   4.563   2.595   5.824  0.5157 -0.2095  0.7571
 8693SOL    HW237713   4.648   2.477   5.807 -0.5877  1.5495  2.7646
 8694SOL     OW37714   4.659   2.751   6.277 -0.2145  0.2191  0.1900
 8694SOL    HW137715   4.689   2.763   6.367  1.2161 -0.0097 -0.2472
 8694SOL    HW237716   4.736   2.781   6.228  1.2354 -1.7061  1.3334
 8695SOL     OW37717   1.587   0.172   9.051 -0.4619 -0.3369  0.0766
 8695SOL    HW137718   1.658   0.193   9.111  1.7367  0.1737 -2.7404
 8695SOL    HW237719   1.635   0.153   8.970 -0.0981 -2.0696  0.6947
 8696SOL     OW37720   4.487   1.905   8.957 -0.5025 -0.4132  0.3806
 8696SOL    HW137721   4.398   1.901   8.990 -0.8350  0.2834 -0.4328
 8696SOL    HW237722   4.483   1.962   8.880  0.8540 -0.0906  0.5393
 8697SOL     OW37723   3.578   0.115  16.519  0.1163  0.4952 -0.1859
 8697SOL    HW137724   3.628   0.036  16.498 -0.0227 -0.4661  3.2406
 8697SOL    HW237725   3.617   0.140  16.602  2.3685 -1.7622 -0.5592
 8698SOL     OW37726   0.269   1.155   2.039  0.1972 -0.2417 -0.2677
 8698SOL    HW137727   0.198   1.094   2.019  0.6609 -0.9908  0.4070
 8698SOL    HW237728   0.213   1.233   2.043  0.0829 -0.2662 -1.6196
 8699SOL     OW37729   3.240   0.125   3.590 -0.2547  0.1744 -0.1819
 8699SOL    HW137730   3.166   0.182   3.570  0.4903  1.1095 -0.2408
 8699SOL    HW237731   3.244   0.067   3.513  0.5512  0.3513 -0.2709
 8700SOL     OW37732   2.955   3.832   3.405  0.1134  0.1691 -0.3121
 8700SOL    HW137733   2.976   3.740   3.389  0.0460  0.0084  0.4881
 8700SOL    HW237734   2.958   3.820   3.500 -0.2181  2.1210 -0.0436
 8701SOL     OW37735   3.502   2.610  11.051 -0.3712  0.2255 -0.3312
 8701SOL    HW137736   3.493   2.522  11.014  0.2509  0.4278 -0.9726
 8701SOL    HW237737   3.462   2.662  10.982  0.0057  1.7163  0.5774
 8702SOL     OW37738   4.679   2.004   3.186  0.6356  0.1419  0.0696
 8702SOL    HW137739   4.714   1.915   3.179  0.8877  0.3859 -1.8159
 8702SOL    HW237740   0.017   2.047   3.225 -0.0800 -0.2355  1.8607
 8703SOL     OW37741   2.034   3.106  15.412  0.1350  0.1509 -0.0756
 8703SOL    HW137742   2.033   3.181  15.352 -0.4909  2.8182  3.2924
 8703SOL    HW237743   1.946   3.071  15.397  0.5524 -0.6960 -0.5237
 8704SOL     OW37744   4.682   2.674   8.070  0.0877  0.3045  0.4028
 8704SOL    HW137745   4.697   2.753   8.122 -1.9336  0.1572  1.2217
 8704SOL    HW237746   0.001   2.612   8.115 -1.1681 -1.0063  0.1740
 8705SOL     OW37747   0.944   3.918  12.970 -0.3300 -0.2478 -0.2711
 8705SOL    HW137748   0.991   3.958  13.043  1.6541 -0.4808 -1.4123
 8705SOL    HW237749   0.972   3.982  12.904 -1.3025  0.9634  0.4940
 8706SOL     OW37750   4.732   0.504   7.089  0.6927  0.1071 -0.3622
 8706SOL    HW137751   4.702   0.457   7.011 -0.3250 -0.6713  0.4886
 8706SOL    HW237752   4.650   0.494   7.137  0.4212 -0.4972 -0.9498
 8707SOL     OW37753   2.974   2.261   9.266  0.2436 -0.4593 -0.1169
 8707SOL    HW137754   2.919   2.339   9.252  0.2204 -0.3571  0.5204
 8707SOL    HW237755   2.910   2.192   9.247 -1.5269  1.4097 -0.9948
 8708SOL     OW37756   4.608   2.728   3.692  0.1769 -0.9476 -0.0330
 8708SOL    HW137757   4.615   2.668   3.767  0.6596 -1.2049 -0.2866
 8708SOL    HW237758   4.513   2.739   3.698  0.4214 -0.2529  2.4167
 8709SOL     OW37759   1.789   3.404   3.425 -0.5469  0.5893  0.3024
 8709SOL    HW137760   1.846   3.329   3.442 -2.6054 -0.7030  1.3928
 8709SOL    HW237761   1.742   3.420   3.507 -0.1994  0.9571  0.4338
 8710SOL     OW37762   0.237   3.773   1.286  0.0822 -0.0436 -0.2897
 8710SOL    HW137763   0.233   3.863   1.255 -0.8848  0.3718  1.0006
 8710SOL    HW237764   0.331   3.761   1.295  0.2426  1.0076 -0.5357
 8711SOL     OW37765   1.158   2.263   2.952 -0.0909 -0.8418  0.2196
 8711SOL    HW137766   1.192   2.330   2.893 -0.0698 -2.0497 -1.1360
 8711SOL    HW237767   1.142   2.312   3.033 -0.2140 -1.1207  0.3641
 8712SOL     OW37768   2.623   0.729   3.966 -0.3178  0.2021  0.2153
 8712SOL    HW137769   2.556   0.687   4.020 -0.3867 -0.9149 -0.7236
 8712SOL    HW237770   2.574   0.745   3.886  0.3160  1.8490  0.1575
 8713SOL     OW37771   2.478   4.261   1.719  0.2762  0.3446 -0.5461
 8713SOL    HW137772   2.468   4.205   1.796 -0.9419  2.0960  0.5657
 8713SOL    HW237773   2.406   4.229   1.664  0.0293  1.2999 -0.7781
 8714SOL     OW37774   2.407   1.908   8.290 -0.1419 -0.1831  0.1547
 8714SOL    HW137775   2.493   1.948   8.272 -0.2311 -0.0604 -0.0039
 8714SOL    HW237776   2.375   1.876   8.206  0.2093  1.0390 -0.4463
 8715SOL     OW37777   3.946   4.475   8.152 -0.0601 -0.0234  0.0799
 8715SOL    HW137778   3.945   4.526   8.232 -2.2136  0.2031 -0.0680
 8715SOL    HW237779   3.973   4.391   8.190  2.1380  0.4692 -0.4156
 8716SOL     OW37780   1.389   4.475   3.086  0.3817 -0.5750  0.1476
 8716SOL    HW137781   1.379   4.421   3.164 -0.7048 -0.5357  0.0309
 8716SOL    HW237782   1.371   4.561   3.123 -0.9520 -0.3433 -1.0534
 8717SOL     OW37783   0.849   3.935   6.674 -0.0597 -0.2479  0.4731
 8717SOL    HW137784   0.911   3.993   6.717 -0.7273 -0.6153  1.9218
 8717SOL    HW237785   0.808   3.890   6.748  0.3862 -0.6709  0.4662
 8718SOL     OW37786   3.700   0.646  11.904 -0.0881 -0.9433  0.2302
 8718SOL    HW137787   3.766   0.670  11.838  0.1880 -1.4620  0.3099
 8718SOL    HW237788   3.760   0.596  11.960 -0.5188  0.3622  1.8320
 8719SOL     OW37789   4.592   3.534   3.899 -0.3091  0.1260  0.3113
 8719SOL    HW137790   4.681   3.503   3.883  0.0648  2.4952 -2.3043
 8719SOL    HW237791   4.554   3.507   3.815 -1.0653  1.6825  0.1645
 8720SOL     OW37792   0.515   3.457   7.499 -0.3049 -0.5469 -0.1318
 8720SOL    HW137793   0.440   3.459   7.559 -0.5956  0.1483 -0.5137
 8720SOL    HW237794   0.517   3.551   7.480  1.7487 -0.9699 -2.0316
 8721SOL     OW37795   2.375   3.172   7.863 -0.1731  0.2366 -0.3575
 8721SOL    HW137796   2.411   3.225   7.792 -0.8859  0.3567 -0.6351
 8721SOL    HW237797   2.447   3.114   7.886  0.0425  0.0587 -1.4984
 8722SOL     OW37798   1.922   0.113  12.311 -0.0936  0.0485 -0.1847
 8722SOL    HW137799   1.845   0.149  12.356 -0.0711 -0.7119  0.4599
 8722SOL    HW237800   1.980   0.189  12.308  0.3474 -0.2953 -0.3089
 8723SOL     OW37801   1.080   1.618   3.929  0.0632 -0.2537  0.3347
 8723SOL    HW137802   1.029   1.620   4.010 -0.4515  0.8668 -0.0309
 8723SOL    HW237803   1.139   1.693   3.934 -0.8919  0.5938 -1.1908
 8724SOL     OW37804   1.462   1.468   7.635 -0.2711  0.2394 -0.1546
 8724SOL    HW137805   1.462   1.549   7.582 -0.1186  0.8940  0.8466
 8724SOL    HW237806   1.522   1.410   7.589 -1.0131 -0.9527  0.3979
 8725SOL     OW37807   1.330   1.073   0.960 -0.5829 -0.0569 -0.4433
 8725SOL    HW137808   1.365   1.155   0.925 -1.6591  0.3580 -0.5430
 8725SOL    HW237809   1.294   1.032   0.881 -1.2918 -1.1367  0.4512
 8726SOL     OW37810   4.513   4.569   2.268  0.1216 -0.0284  0.0258
 8726SOL    HW137811   4.436   4.534   2.313 -0.1345 -0.3426 -0.6713
 8726SOL    HW237812   4.546   4.633   2.331  0.7755 -0.3451  0.0080
 8727SOL     OW37813   2.911   2.340   2.247  0.1380 -0.2151  0.2326
 8727SOL    HW137814   2.830   2.297   2.273  0.7040 -1.3144  0.1721
 8727SOL    HW237815   2.922   2.391   2.327 -1.8279  1.2550 -0.4186
 8728SOL     OW37816   1.241   2.405   3.647  0.2868  0.2087 -0.0495
 8728SOL    HW137817   1.177   2.457   3.695 -2.3595 -1.9057 -1.2691
 8728SOL    HW237818   1.197   2.390   3.563 -0.4624  0.1348  0.3645
 8729SOL     OW37819   3.391   3.507  10.900  0.6224  0.2696  0.2125
 8729SOL    HW137820   3.412   3.496  10.993  1.9771 -1.4050 -0.2878
 8729SOL    HW237821   3.443   3.430  10.876 -0.0777  0.4735 -1.8932
 8730SOL     OW37822   2.515   2.159   4.517 -0.7548 -0.3619  0.2483
 8730SOL    HW137823   2.503   2.251   4.540  1.4731 -0.1012  0.3427
 8730SOL    HW237824   2.572   2.170   4.441  0.5447  1.1042  1.4364
 8731SOL     OW37825   0.526   0.050   0.808  0.0733 -0.6217 -0.4246
 8731SOL    HW137826   0.527   4.695   0.783  2.6933 -0.7309  0.1141
 8731SOL    HW237827   0.432   0.068   0.803  0.0040 -1.3375 -1.6582
 8732SOL     OW37828   0.609   2.140   1.896  0.0026  0.2121  0.0484
 8732SOL    HW137829   0.567   2.057   1.919 -1.4691  1.6020  2.2915
 8732SOL    HW237830   0.539   2.205   1.902 -0.0199  0.3380 -1.3920
 8733SOL     OW37831   0.838   4.036  14.314 -0.3418  0.4162  0.1548
 8733SOL    HW137832   0.780   3.964  14.287 -1.4660  1.3974 -0.0289
 8733SOL    HW237833   0.787   4.114  14.293 -1.7418  0.0458  2.1608
 8734SOL     OW37834   2.968   1.654   5.125  0.2861 -0.4325  0.5262
 8734SOL    HW137835   3.020   1.600   5.184 -1.0271 -1.1885  0.9856
 8734SOL    HW237836   3.022   1.644   5.047  0.6830  0.3027  0.7139
 8735SOL     OW37837   1.345   1.986   8.758  0.3161  0.6818  0.1338
 8735SOL    HW137838   1.268   1.931   8.743 -0.3073  0.8042  2.8243
 8735SOL    HW237839   1.419   1.927   8.743 -0.7254 -0.9621  1.5344
 8736SOL     OW37840   1.916   4.222   5.647 -0.4757  0.0965  0.2040
 8736SOL    HW137841   1.971   4.279   5.593 -0.4974  0.4205  0.5246
 8736SOL    HW237842   1.851   4.280   5.687 -0.8048  0.4472 -0.8476
 8737SOL     OW37843   0.412   1.600   4.652 -0.6531  0.2883 -0.1618
 8737SOL    HW137844   0.370   1.672   4.605  2.4457  1.2010 -1.5180
 8737SOL    HW237845   0.473   1.647   4.709 -0.5459  0.8658 -0.7490
 8738SOL     OW37846   1.785   4.391   2.089  0.2369 -0.4109 -0.6748
 8738SOL    HW137847   1.791   4.359   2.179  1.1663  0.7237 -0.3390
 8738SOL    HW237848   1.819   4.480   2.093 -0.8661 -0.2563  4.0411
 8739SOL     OW37849   1.628   0.001   2.702  0.2475 -0.4898 -0.3184
 8739SOL    HW137850   1.720   0.006   2.725  0.4812  1.7666 -1.7850
 8739SOL    HW237851   1.614   0.063   2.630 -0.2200 -0.7860 -0.4882
 8740SOL     OW37852   0.407   4.003  16.605 -0.6320 -0.2906  0.4410
 8740SOL    HW137853   0.349   4.020  16.680  0.3791  0.4612  1.0598
 8740SOL    HW237854   0.376   4.074  16.549 -1.1645 -1.1989 -0.4142
 8741SOL     OW37855   2.270   4.277   8.157  0.0168 -0.0210 -0.6349
 8741SOL    HW137856   2.253   4.367   8.186  1.5281  0.1037 -0.1080
 8741SOL    HW237857   2.294   4.286   8.064 -1.8814 -1.3654 -1.2492
 8742SOL     OW37858   1.025   3.886   7.615  0.4223 -0.7381  0.4267
 8742SOL    HW137859   0.932   3.895   7.591  0.4869  0.0519  0.4840
 8742SOL    HW237860   1.046   3.976   7.593  0.7229 -0.6830  0.9296
 8743SOL     OW37861   3.574   2.597   5.526  0.2749 -0.0302  0.1590
 8743SOL    HW137862   3.620   2.657   5.467 -0.3240  1.5076  1.2485
 8743SOL    HW237863   3.503   2.655   5.554 -0.7909 -0.9509 -0.6463
 8744SOL     OW37864   1.266   4.323   2.121  0.0965 -0.7924 -0.5461
 8744SOL    HW137865   1.285   4.229   2.114  0.5703 -0.8798  1.8238
 8744SOL    HW237866   1.212   4.330   2.043 -2.1099 -0.6840  1.0156
 8745SOL     OW37867   0.491   3.623  11.235  0.0187  0.1818 -0.3518
 8745SOL    HW137868   0.530   3.694  11.184  0.4002 -0.2493 -0.6614
 8745SOL    HW237869   0.413   3.615  11.180  0.9490 -0.4957 -1.5866
 8746SOL     OW37870   2.666   3.184   3.850 -0.3728 -0.1050  0.5136
 8746SOL    HW137871   2.595   3.174   3.913  0.2685  1.1915  1.4430
 8746SOL    HW237872   2.726   3.109   3.848 -0.1926  0.0105  2.1660
 8747SOL     OW37873   1.161   4.620   4.194  0.3228 -0.6575 -0.1576
 8747SOL    HW137874   1.067   4.609   4.181 -0.2527  1.5308  2.2200
 8747SOL    HW237875   1.166   4.715   4.183 -0.6741 -0.7496 -1.4414
 8748SOL     OW37876   3.901   3.460  16.653  0.4460  0.2983 -0.3333
 8748SOL    HW137877   3.870   3.496  16.569  1.1201 -1.7171 -1.4514
 8748SOL    HW237878   3.955   3.535  16.677 -2.0821  1.9134  0.3017
 8749SOL     OW37879   3.453   1.122   5.665 -0.4504  0.2255 -0.3039
 8749SOL    HW137880   3.435   1.129   5.758  0.0487  1.2663 -0.2842
 8749SOL    HW237881   3.536   1.169   5.654  0.8871 -1.9028  0.8551
 8750SOL     OW37882   3.231   2.267  10.552 -0.6518 -0.1857  0.1021
 8750SOL    HW137883   3.194   2.263  10.463  0.7548 -0.1164 -0.4818
 8750SOL    HW237884   3.184   2.193  10.590  0.2387 -0.1752  1.2092
 8751SOL     OW37885   2.986   2.483  13.313 -0.0384  0.3467  0.5132
 8751SOL    HW137886   3.045   2.432  13.368 -1.4636  0.4297  2.1207
 8751SOL    HW237887   2.905   2.478  13.364  0.8580 -1.1145  1.7877
 8752SOL     OW37888   3.314   0.264   8.893  0.4938  0.9235  0.6934
 8752SOL    HW137889   3.383   0.286   8.956  2.4460  0.6811 -1.3605
 8752SOL    HW237890   3.349   0.324   8.826  0.8704  2.0522  1.9063
 8753SOL     OW37891   2.792   4.529   5.474  0.7092 -0.2518  0.0169
 8753SOL    HW137892   2.783   4.623   5.455  0.9723 -0.1608  0.3492
 8753SOL    HW237893   2.881   4.509   5.447  0.2936 -0.9312 -0.8376
 8754SOL     OW37894   2.622   4.650  17.527 -0.2414  0.1296 -0.0154
 8754SOL    HW137895   2.712   4.627  17.553 -0.0315  0.3786 -0.5150
 8754SOL    HW237896   2.577   4.580  17.574 -0.2554 -0.3476 -0.7418
 8755SOL     OW37897   2.393   1.145  16.747  0.0117 -0.1257  0.1647
 8755SOL    HW137898   2.380   1.225  16.697  0.7459 -1.1905 -1.7265
 8755SOL    HW237899   2.429   1.188  16.825  1.8992 -0.4023 -0.5550
 8756SOL     OW37900   0.263   1.556   2.527  0.2025 -0.1544  0.4351
 8756SOL    HW137901   0.301   1.613   2.594 -1.0810  1.0922  0.0880
 8756SOL    HW237902   0.174   1.538   2.557 -0.3987  1.1617 -0.5593
 8757SOL     OW37903   3.785   1.207   4.470 -0.0256  0.5638  0.0402
 8757SOL    HW137904   3.780   1.164   4.384 -0.8742 -1.1377  0.9350
 8757SOL    HW237905   3.796   1.301   4.457 -0.4894  0.5204 -0.6216
 8758SOL     OW37906   0.805   3.799  11.522  0.1157 -0.1378  0.4206
 8758SOL    HW137907   0.781   3.707  11.532 -0.8697 -0.1155 -1.7276
 8758SOL    HW237908   0.794   3.806  11.427  0.5937  1.1046  0.4584
 8759SOL     OW37909   0.039   0.479   5.042 -0.4008 -0.1210 -0.0584
 8759SOL    HW137910   0.115   0.504   4.989  0.2664  0.4254  1.1704
 8759SOL    HW237911   4.730   0.422   4.981  0.3468 -1.4416  0.6234
 8760SOL     OW37912   0.341   1.512   2.267 -0.1463 -0.5035  0.0753
 8760SOL    HW137913   0.331   1.592   2.215  1.1428  0.4439  1.2798
 8760SOL    HW237914   0.333   1.534   2.360  2.7844 -1.4632  0.5752
 8761SOL     OW37915   2.905   3.173   5.116  0.4984  0.3043 -0.2476
 8761SOL    HW137916   2.896   3.088   5.158  0.9032  0.6613  0.5496
 8761SOL    HW237917   2.938   3.219   5.192 -0.7519  0.9912 -0.1253
 8762SOL     OW37918   3.162   1.970   4.900  0.2470  0.3284 -0.1639
 8762SOL    HW137919   3.084   1.992   4.849 -0.6209  2.1741  1.9781
 8762SOL    HW237920   3.125   1.957   4.987  0.1920 -1.3778 -0.4394
 8763SOL     OW37921   3.961   0.466   4.093 -1.0105 -0.6055  0.0276
 8763SOL    HW137922   4.045   0.445   4.053 -0.0402  2.5923  0.3832
 8763SOL    HW237923   3.911   0.392   4.060  0.9860 -1.2306 -1.5725
 8764SOL     OW37924   4.569   1.793   1.873  0.1386 -0.0491  0.3828
 8764SOL    HW137925   4.482   1.780   1.909  0.5222  1.4036  1.8051
 8764SOL    HW237926   4.599   1.872   1.918 -0.7473  0.5909 -0.1564
 8765SOL     OW37927   4.298   0.540   9.117  0.4821  0.6460  0.4713
 8765SOL    HW137928   4.383   0.571   9.148  0.7964  1.0134 -0.7758
 8765SOL    HW237929   4.272   0.599   9.047 -0.1206 -2.5233 -1.9513
 8766SOL     OW37930   0.469   3.967   7.078 -0.9609 -0.1308  0.6919
 8766SOL    HW137931   0.520   4.021   7.138 -1.9281 -0.2071  1.5602
 8766SOL    HW237932   0.506   3.881   7.097 -1.6318 -0.5893 -0.0744
 8767SOL     OW37933   4.536   1.537   3.361 -0.1267  0.0342  0.0878
 8767SOL    HW137934   4.624   1.574   3.356 -1.3485  3.2342  2.0859
 8767SOL    HW237935   4.485   1.618   3.365  0.9463  0.7677 -0.8324
 8768SOL     OW37936   4.475   3.399   9.839 -0.4510  0.4614  0.3044
 8768SOL    HW137937   4.529   3.443   9.772  0.2531  2.1825  2.0031
 8768SOL    HW237938   4.496   3.312   9.805  0.4663  0.7941  0.0023
 8769SOL     OW37939   3.548   0.690   6.656 -0.7229 -0.2978 -0.1331
 8769SOL    HW137940   3.590   0.742   6.587  1.2933  0.1517  1.4193
 8769SOL    HW237941   3.475   0.745   6.682 -0.3780 -0.3956  1.0629
 8770SOL     OW37942   1.742   3.254   5.146 -0.2534 -0.2395 -0.3570
 8770SOL    HW137943   1.668   3.224   5.092 -0.4576  1.8303 -1.2520
 8770SOL    HW237944   1.738   3.349   5.140  1.3572  0.0055  2.5688
 8771SOL     OW37945   2.673   4.656   0.797 -0.2509 -0.3613 -0.2944
 8771SOL    HW137946   2.586   4.641   0.759 -1.3223  3.9877  0.3512
 8771SOL    HW237947   2.650   4.653   0.890 -0.6045 -2.4960 -0.4589
 8772SOL     OW37948   0.942   2.605   4.576  0.0617 -0.1704 -0.5003
 8772SOL    HW137949   0.955   2.512   4.595 -1.2786 -0.2290  0.1699
 8772SOL    HW237950   1.010   2.639   4.635 -1.8257 -0.2704  1.7380
 8773SOL     OW37951   2.437   3.169   2.219 -0.0183 -0.2232 -0.0053
 8773SOL    HW137952   2.480   3.239   2.170 -0.5548 -1.2477 -1.9282
 8773SOL    HW237953   2.349   3.198   2.242 -0.1587  0.0331 -0.8608
 8774SOL     OW37954   3.761   1.439  14.588 -0.2667  0.7738  0.3799
 8774SOL    HW137955   3.825   1.465  14.654  0.1782 -1.2797  0.7699
 8774SOL    HW237956   3.739   1.350  14.616 -2.6151  1.1155 -0.3011
 8775SOL     OW37957   2.145   0.914  14.235  0.3377 -0.0901  0.8210
 8775SOL    HW137958   2.079   0.859  14.279  0.3816 -0.4263  0.4683
 8775SOL    HW237959   2.181   0.843  14.181 -1.1199  0.1356 -0.4571
 8776SOL     OW37960   3.852   2.635  16.140 -0.1032  0.8054  0.1545
 8776SOL    HW137961   3.818   2.716  16.177 -1.4381 -0.3784  1.5436
 8776SOL    HW237962   3.850   2.656  16.047  1.9787  0.7527  0.0887
 8777SOL     OW37963   3.873   4.481   3.582  0.2662  0.4165 -0.2258
 8777SOL    HW137964   3.814   4.515   3.648 -1.4052  1.0870 -2.0705
 8777SOL    HW237965   3.807   4.431   3.535  1.0648 -1.4414  0.6072
 8778SOL     OW37966   1.928   3.107  17.346  0.1816  0.7150  0.1665
 8778SOL    HW137967   1.903   3.152  17.265 -0.8147  2.5432  1.4940
 8778SOL    HW237968   1.872   3.031  17.331 -0.0811  0.6767  1.3845
 8779SOL     OW37969   3.098   1.027  15.391  0.0611  0.3329 -0.4486
 8779SOL    HW137970   3.139   1.097  15.442  2.1859 -1.1224 -0.1598
 8779SOL    HW237971   3.027   0.995  15.448  0.3414 -1.7516 -1.2431
 8780SOL     OW37972   4.163   2.809   8.103 -0.0878 -0.3081 -0.1305
 8780SOL    HW137973   4.155   2.902   8.127 -3.6147 -0.3050 -1.3278
 8780SOL    HW237974   4.081   2.776   8.141 -0.4056 -0.0351 -0.5712
 8781SOL     OW37975   2.043   1.777   8.244 -0.3187 -0.0408 -0.5394
 8781SOL    HW137976   1.987   1.741   8.175 -0.6451  2.3252 -1.5080
 8781SOL    HW237977   2.067   1.705   8.302  1.9960  1.3274  0.2083
 8782SOL     OW37978   3.571   1.744   3.484  0.2474 -0.1039  0.0590
 8782SOL    HW137979   3.661   1.760   3.458  0.4405 -0.1201  0.7152
 8782SOL    HW237980   3.542   1.669   3.432 -0.7502  0.0147  0.4247
 8783SOL     OW37981   0.196   1.712  16.743 -0.7212  0.5235  0.5869
 8783SOL    HW137982   0.291   1.713  16.736 -0.6689  1.0901  1.3971
 8783SOL    HW237983   0.194   1.693  16.836  2.9620 -0.2561  0.5206
 8784SOL     OW37984   3.777   4.105   5.907 -0.4079  0.1602 -0.3814
 8784SOL    HW137985   3.774   4.116   6.002 -2.3199  1.4028 -0.5881
 8784SOL    HW237986   3.841   4.034   5.900 -0.6941 -0.1686  0.3648
 8785SOL     OW37987   3.051   1.654   9.657  0.9176 -0.2969 -0.4468
 8785SOL    HW137988   2.975   1.697   9.617  0.3224 -0.1932  0.7844
 8785SOL    HW237989   3.033   1.653   9.751 -0.4731 -0.3577 -0.7142
 8786SOL     OW37990   3.851   1.719   5.437  0.1821 -0.1103  1.0679
 8786SOL    HW137991   3.922   1.679   5.387 -1.0161 -1.2384  0.2490
 8786SOL    HW237992   3.856   1.810   5.407 -0.5435 -0.7999 -1.1206
 8787SOL     OW37993   4.239   3.857   4.747  0.0368  0.6742  0.1036
 8787SOL    HW137994   4.211   3.939   4.787 -3.1580 -0.7347  0.8192
 8787SOL    HW237995   4.303   3.881   4.680 -0.1300 -1.2372 -0.7430
 8788SOL     OW37996   4.538   0.812   1.973  0.6918 -0.4345 -0.8149
 8788SOL    HW137997   4.455   0.821   1.926  0.6151 -0.0875 -0.6055
 8788SOL    HW237998   4.517   0.744   2.037 -2.3006  0.4230 -0.9139
 8789SOL     OW37999   3.627   0.573   4.096 -0.7602  1.0258 -0.1972
 8789SOL    HW138000   3.643   0.486   4.132 -4.6734  1.2033  1.9909
 8789SOL    HW238001   3.719   0.585   4.075 -0.6261  1.3319  0.5798
 8790SOL     OW38002   3.013   3.730   3.649  0.2222 -0.0827 -0.6795
 8790SOL    HW138003   2.937   3.694   3.694  1.8342  0.5866  2.5773
 8790SOL    HW238004   3.080   3.672   3.685  0.0195 -0.2707 -0.6118
 8791SOL     OW38005   0.875   1.173   8.542 -0.4539  0.0995  0.0143
 8791SOL    HW138006   0.931   1.100   8.570  2.5554  3.5237  2.9812
 8791SOL    HW238007   0.796   1.121   8.529 -0.9634  0.7875  0.4349
 8792SOL     OW38008   1.020   4.020  14.070  0.3325  0.2325 -0.5351
 8792SOL    HW138009   1.051   4.012  14.160 -0.2795  0.3796 -0.3128
 8792SOL    HW238010   1.014   3.926  14.058 -0.1181  0.0820  0.9746
 8793SOL     OW38011   1.867   3.588  15.895 -0.0664 -0.9154 -0.6837
 8793SOL    HW138012   1.783   3.615  15.934  0.5896 -0.7740  0.6295
 8793SOL    HW238013   1.911   3.672  15.886  1.0448 -1.2212  1.8380
 8794SOL     OW38014   0.498   1.072  14.710  0.0730 -0.2513 -0.7049
 8794SOL    HW138015   0.481   1.108  14.624 -0.8998  0.9713  0.0072
 8794SOL    HW238016   0.507   1.147  14.769  1.9196 -0.4019 -0.7776
 8795SOL     OW38017   0.390   2.510   8.728 -0.2725  0.1531 -0.8227
 8795SOL    HW138018   0.328   2.499   8.799  0.7077  0.0280  0.0141
 8795SOL    HW238019   0.404   2.604   8.716  0.8088 -0.1861 -2.3026
 8796SOL     OW38020   3.971   4.348   0.943  0.1749 -0.2630 -0.4436
 8796SOL    HW138021   3.921   4.372   1.021  0.0219 -0.4703 -0.4784
 8796SOL    HW238022   3.940   4.259   0.924 -0.8619 -0.2600  1.2166
 8797SOL     OW38023   1.563   2.078   5.629 -0.8430 -0.3404  0.6233
 8797SOL    HW138024   1.649   2.112   5.653 -0.6040  0.3838 -1.3043
 8797SOL    HW238025   1.518   2.143   5.576  1.4261 -0.1386 -1.0603
 8798SOL     OW38026   4.464   2.422   4.353  0.5667  0.1846  0.0933
 8798SOL    HW138027   4.369   2.423   4.366  0.7280  0.1576  1.2771
 8798SOL    HW238028   4.464   2.443   4.259 -0.0284  0.3900  0.1411
 8799SOL     OW38029   3.408   1.160   5.938 -0.1873  0.0492 -0.0656
 8799SOL    HW138030   3.321   1.200   5.942 -0.8364 -1.6101  2.1615
 8799SOL    HW238031   3.470   1.232   5.926 -1.7719  1.0738 -2.1472
 8800SOL     OW38032   4.632   2.827   4.912 -0.3203 -0.7894 -0.7994
 8800SOL    HW138033   4.654   2.913   4.949 -1.4449 -1.0835  0.5477
 8800SOL    HW238034   4.666   2.829   4.823  1.3973 -2.6242 -0.1749
 8801SOL     OW38035   0.212   1.646   7.236  0.3957  0.3343  0.1952
 8801SOL    HW138036   0.124   1.652   7.200  0.8071 -0.7835 -1.0208
 8801SOL    HW238037   0.207   1.710   7.307 -2.6592  0.4826 -0.1465
 8802SOL     OW38038   3.619   2.646   2.374 -0.4991 -0.2669 -0.3463
 8802SOL    HW138039   3.699   2.603   2.345 -1.6585 -3.2523  0.8438
 8802SOL    HW238040   3.627   2.733   2.334 -1.4836 -0.0957 -0.1861
 8803SOL     OW38041   3.295   2.069   5.975 -0.3324  0.7480  0.1308
 8803SOL    HW138042   3.378   2.025   5.956 -0.3829  0.5295  0.4207
 8803SOL    HW238043   3.312   2.153   6.018 -0.8643  1.1209 -0.3701
 8804SOL     OW38044   1.696   1.361   7.546 -0.6171 -0.0079 -0.2211
 8804SOL    HW138045   1.770   1.414   7.576  1.4453 -2.3018 -1.2172
 8804SOL    HW238046   1.721   1.328   7.459  0.3568  0.0156  0.0503
 8805SOL     OW38047   3.385   0.333   3.345  0.0078  0.3104  0.1875
 8805SOL    HW138048   3.289   0.335   3.347  0.0372  1.7569  0.1947
 8805SOL    HW238049   3.406   0.243   3.322 -1.5001 -0.6334  2.4921
 8806SOL     OW38050   0.925   3.484   9.038 -0.1341  0.2931  0.1726
 8806SOL    HW138051   0.884   3.491   9.124  0.4232  1.8441  0.3221
 8806SOL    HW238052   0.909   3.575   9.013  0.7493  0.3855 -0.0483
 8807SOL     OW38053   3.182   2.142   7.894  0.3295  0.0118  0.1770
 8807SOL    HW138054   3.208   2.189   7.815 -0.5650  1.3792  0.6952
 8807SOL    HW238055   3.266   2.119   7.934 -0.4341 -0.7738  1.3385
 8808SOL     OW38056   4.296   1.289  13.604 -0.0326  0.1134 -0.3121
 8808SOL    HW138057   4.276   1.196  13.608 -0.7019  0.2765  0.2371
 8808SOL    HW238058   4.314   1.308  13.512  0.9931 -1.6647 -0.4745
 8809SOL     OW38059   0.434   4.565   5.521 -0.4453 -0.5652 -0.2208
 8809SOL    HW138060   0.503   4.515   5.477 -0.5118  0.0434 -0.9928
 8809SOL    HW238061   0.409   4.621   5.449  1.6225  1.3959  0.5911
 8810SOL     OW38062   2.252   1.433   2.745  0.1921  0.1693  0.7150
 8810SOL    HW138063   2.253   1.339   2.766  0.1232  0.3465  1.4985
 8810SOL    HW238064   2.280   1.459   2.833  3.2591 -0.7024  0.0134
 8811SOL     OW38065   1.157   0.842  10.660 -0.0631  0.0923 -0.3254
 8811SOL    HW138066   1.146   0.775  10.592 -0.9681  2.2516 -2.3004
 8811SOL    HW238067   1.108   0.803  10.733  0.1409  0.3084 -0.0729
 8812SOL     OW38068   1.110   4.504   3.728 -0.1771 -0.4592  0.3650
 8812SOL    HW138069   1.136   4.530   3.640  3.9422 -1.0194  1.4377
 8812SOL    HW238070   1.019   4.474   3.720 -0.3456  0.2900 -0.4991
 8813SOL     OW38071   1.604   1.225   2.643 -0.0499 -0.6014  1.2726
 8813SOL    HW138072   1.664   1.151   2.652  0.4644 -0.5658 -1.8714
 8813SOL    HW238073   1.518   1.185   2.650  0.5086 -1.9437  0.3455
 8814SOL     OW38074   0.089   2.092   8.501  0.3885 -0.2521 -0.2986
 8814SOL    HW138075   0.112   2.164   8.560 -0.6993  0.5646 -0.8704
 8814SOL    HW238076   0.114   2.127   8.416 -1.5235 -0.5950 -1.0059
 8815SOL     OW38077   2.968   1.398   5.303  0.0369  0.6434 -0.0523
 8815SOL    HW138078   2.876   1.375   5.289  0.8713 -1.6459 -1.7877
 8815SOL    HW238079   3.020   1.363   5.230  0.1146  0.8567 -0.1003
 8816SOL     OW38080   4.158   4.533   6.051  0.6555  0.2207 -0.6075
 8816SOL    HW138081   4.154   4.490   5.966 -1.6139  0.0950 -0.4445
 8816SOL    HW238082   4.151   4.627   6.031  1.4287  0.6138  0.9609
 8817SOL     OW38083   4.050   1.147   8.530  0.0334  0.3290 -0.1706
 8817SOL    HW138084   4.080   1.125   8.442 -1.7969 -2.4265 -0.0857
 8817SOL    HW238085   3.964   1.105   8.535  0.2435 -0.0705  0.0877
 8818SOL     OW38086   4.714   1.844   9.432  0.8044  0.7275  0.3997
 8818SOL    HW138087   0.045   1.853   9.498 -1.0770  0.1681  2.4660
 8818SOL    HW238088   0.011   1.778   9.372 -0.5050  0.5040 -0.1004
 8819SOL     OW38089   0.096   3.252   5.574  0.2798 -0.2300 -0.4580
 8819SOL    HW138090   0.115   3.169   5.618 -2.1954 -0.0666  0.8923
 8819SOL    HW238091   0.004   3.242   5.552  0.1564  1.1551 -0.6145
 8820SOL     OW38092   2.916   3.362   4.554  0.8936  0.6884 -0.3502
 8820SOL    HW138093   2.891   3.271   4.571  1.6790  0.2926 -1.3454
 8820SOL    HW238094   3.009   3.353   4.531  1.0979 -0.7480  0.9479
 8821SOL     OW38095   0.170   2.946   5.079 -0.2874  0.7168 -0.3555
 8821SOL    HW138096   0.155   2.994   5.161 -1.1060 -0.2104  0.0423
 8821SOL    HW238097   0.213   2.865   5.108 -2.8470 -0.5965 -0.2007
 8822SOL     OW38098   3.433   4.677   2.182  0.6040  0.4221  0.6449
 8822SOL    HW138099   3.472   0.025   2.160  0.2159  0.3177 -0.4299
 8822SOL    HW238100   3.373   4.712   2.249  0.1324  2.8451 -1.0397
 8823SOL     OW38101   0.243   0.162  14.245  0.1267  1.1427 -0.5342
 8823SOL    HW138102   0.252   0.067  14.253  0.8278  1.4689  2.5975
 8823SOL    HW238103   0.305   0.186  14.176 -2.8473  0.1099 -3.5944
 8824SOL     OW38104   3.378   2.412   8.115 -0.5929 -0.6765 -0.1202
 8824SOL    HW138105   3.339   2.481   8.169 -1.8201 -0.1062 -1.7148
 8824SOL    HW238106   3.350   2.331   8.158 -0.8950 -0.8771 -0.6897
 8825SOL     OW38107   0.704   1.049   3.688  0.0140  0.1926 -0.2554
 8825SOL    HW138108   0.686   0.964   3.728 -1.3096  0.9589  0.7774
 8825SOL    HW238109   0.630   1.057   3.627 -1.0805 -0.8069  0.9551
 8826SOL     OW38110   2.220   1.080   4.760  0.4643  0.2556  0.2641
 8826SOL    HW138111   2.205   1.170   4.731 -1.0262  0.1391  0.7087
 8826SOL    HW238112   2.163   1.092   4.835 -0.9119 -0.2262 -0.7070
 8827SOL     OW38113   1.716   2.661  10.291 -0.7115 -0.2462  0.3479
 8827SOL    HW138114   1.758   2.746  10.276  0.6948 -0.7722  1.3226
 8827SOL    HW238115   1.703   2.635  10.200  2.6353  2.4987 -0.9024
 8828SOL     OW38116   1.782   1.409  10.179 -0.5286 -0.0648 -0.3035
 8828SOL    HW138117   1.707   1.463  10.153 -0.3144  1.2022  1.7314
 8828SOL    HW238118   1.731   1.358  10.242 -0.1830 -2.5363 -2.0155
 8829SOL     OW38119   0.533   1.622  16.288 -0.4022 -0.0672  0.1748
 8829SOL    HW138120   0.595   1.638  16.359  0.2614  0.4261 -0.5210
 8829SOL    HW238121   0.453   1.652  16.332 -2.9411 -2.5126 -2.8101
 8830SOL     OW38122   1.509   2.826   3.780 -0.4692  0.3240 -0.2781
 8830SOL    HW138123   1.487   2.756   3.842  1.4684  0.6118  0.7264
 8830SOL    HW238124   1.589   2.857   3.821 -1.2548  1.0593  0.7089
 8831SOL     OW38125   2.620   1.890  16.527  0.1106  0.3695  0.0584
 8831SOL    HW138126   2.605   1.985  16.524 -1.0931  0.1684 -0.3419
 8831SOL    HW238127   2.715   1.891  16.515  0.5415  1.7874  3.7710
 8832SOL     OW38128   1.464   4.459   3.597  0.3422  0.4059  0.5056
 8832SOL    HW138129   1.452   4.364   3.597 -0.4335  0.4884 -1.3113
 8832SOL    HW238130   1.506   4.480   3.680 -1.6731 -0.0479  1.6307
 8833SOL     OW38131   0.413   2.397   4.306  0.0497 -0.7274  0.7235
 8833SOL    HW138132   0.500   2.434   4.292 -0.9164  1.9133  1.6361
 8833SOL    HW238133   0.387   2.459   4.375 -3.1255  0.5829 -1.6485
 8834SOL     OW38134   4.542   3.298   1.275 -0.0879 -0.0122 -0.1455
 8834SOL    HW138135   4.574   3.232   1.336  0.7808 -0.3598 -0.9673
 8834SOL    HW238136   4.619   3.303   1.218  0.1304  1.3373  0.2554
 8835SOL     OW38137   1.099   2.268  10.917 -0.0273 -0.8308 -0.7359
 8835SOL    HW138138   1.086   2.312  10.833 -0.8333  0.4477  0.0641
 8835SOL    HW238139   1.185   2.236  10.890 -0.6669 -0.5838 -3.0602
 8836SOL     OW38140   4.008   0.421  14.794  0.2561  0.3674  0.2176
 8836SOL    HW138141   3.967   0.369  14.726 -0.3166  0.9452  0.1149
 8836SOL    HW238142   3.989   0.366  14.870  0.8670 -1.5692 -1.0512
 8837SOL     OW38143   2.880   1.112   6.646  0.0061  0.2571 -0.0653
 8837SOL    HW138144   2.971   1.123   6.676  0.0430 -0.5399  0.1219
 8837SOL    HW238145   2.829   1.156   6.714  0.2287 -0.5404  0.6339
 8838SOL     OW38146   3.095   3.721   9.921  0.2020  0.1752  0.4054
 8838SOL    HW138147   3.070   3.719  10.014  0.8779  1.5590  0.6184
 8838SOL    HW238148   3.150   3.799   9.925  0.6618 -0.1561  0.5124
 8839SOL     OW38149   0.518   3.201   2.810  0.7252 -0.4332  0.1324
 8839SOL    HW138150   0.461   3.210   2.733  0.7114 -0.3145  0.1572
 8839SOL    HW238151   0.451   3.158   2.863  0.0398  0.9339  0.3873
 8840SOL     OW38152   0.877   4.450   7.625 -0.0316 -0.0174  0.5136
 8840SOL    HW138153   0.843   4.404   7.548  0.1744 -0.2850  0.5813
 8840SOL    HW238154   0.968   4.419   7.626 -0.3968 -1.1593 -0.3183
 8841SOL     OW38155   1.679   2.103  14.131  0.2271 -0.1543  0.0571
 8841SOL    HW138156   1.592   2.079  14.164 -0.0747  1.4128  0.3658
 8841SOL    HW238157   1.728   2.111  14.213 -1.3257 -0.4586  1.0099
 8842SOL     OW38158   0.242   4.499  14.702 -0.6812 -0.4484  0.2796
 8842SOL    HW138159   0.191   4.560  14.755 -0.0908 -1.0366  1.5282
 8842SOL    HW238160   0.331   4.509  14.737 -0.8368 -1.2336  0.9019
 8843SOL     OW38161   3.775   4.125   9.368  0.3592  0.1007  0.3313
 8843SOL    HW138162   3.761   4.095   9.458  1.2406 -0.6081  0.2282
 8843SOL    HW238163   3.866   4.097   9.357  0.2059 -2.1175  5.0167
 8844SOL     OW38164   3.265   3.836   9.609 -0.0997  0.0478  0.1452
 8844SOL    HW138165   3.353   3.830   9.570  0.7075 -2.0647  2.3353
 8844SOL    HW238166   3.280   3.907   9.670 -1.7271  1.3650 -0.9881
 8845SOL     OW38167   2.667   1.981   8.979  0.1142  0.1106  0.2112
 8845SOL    HW138168   2.744   1.991   9.036  0.1961  2.4615 -0.3339
 8845SOL    HW238169   2.713   1.949   8.901  0.5933 -1.2168  1.0294
 8846SOL     OW38170   2.728   3.030   5.385  0.5281 -0.0130 -0.3663
 8846SOL    HW138171   2.773   2.946   5.388  0.9903  0.2580  0.4123
 8846SOL    HW238172   2.680   3.021   5.303  0.8705 -1.4722 -0.4023
 8847SOL     OW38173   3.871   0.201   5.637 -0.4536 -0.9759 -0.5619
 8847SOL    HW138174   3.820   0.252   5.573  0.2616  0.0228 -0.3284
 8847SOL    HW238175   3.928   0.268   5.674 -1.6647 -0.2148 -0.0804
 8848SOL     OW38176   4.002   2.633   2.519 -0.5647  0.2322  0.1238
 8848SOL    HW138177   4.098   2.641   2.515 -0.6520  0.9603 -0.5767
 8848SOL    HW238178   3.975   2.688   2.445 -1.8861 -0.8594 -0.1982
 8849SOL     OW38179   4.696   4.507   3.564  0.7431  0.2385  0.0568
 8849SOL    HW138180   0.039   4.559   3.569 -0.5925  2.1531  1.7400
 8849SOL    HW238181   4.641   4.569   3.517 -0.3345 -0.3622  0.5348
 8850SOL     OW38182   3.324   4.342   3.918 -0.9300  0.4346  0.8528
 8850SOL    HW138183   3.383   4.319   3.846 -0.4478  2.5151  0.5817
 8850SOL    HW238184   3.353   4.281   3.986 -3.0943 -0.8734  0.5629
 8851SOL     OW38185   3.967   3.791  15.131  1.0655  0.1512  0.0897
 8851SOL    HW138186   3.902   3.858  15.148  0.2301 -0.9736  1.3417
 8851SOL    HW238187   4.048   3.825  15.168 -1.0731  2.0422  2.9483
 8852SOL     OW38188   0.943   3.948   2.378 -0.0298 -0.2194  0.6828
 8852SOL    HW138189   0.944   3.876   2.314 -1.5472  1.2304 -0.9559
 8852SOL    HW238190   0.947   4.018   2.313 -0.6217 -1.3557 -0.5748
 8853SOL     OW38191   1.413   1.079   9.557 -0.4963  0.5072 -0.5227
 8853SOL    HW138192   1.472   1.037   9.494  1.0437 -0.8549  1.8376
 8853SOL    HW238193   1.455   1.050   9.637  0.8343  1.5027 -0.8622
 8854SOL     OW38194   1.519   3.838  11.241  0.3273  0.1192  0.0532
 8854SOL    HW138195   1.470   3.910  11.281  0.2565  2.4822 -4.3508
 8854SOL    HW238196   1.567   3.795  11.312 -2.5582 -0.1094  1.8705
 8855SOL     OW38197   2.670   3.637   0.022  0.2068 -0.2976  0.2326
 8855SOL    HW138198   2.716   3.678  17.696  0.5010 -1.2736 -0.1253
 8855SOL    HW238199   2.658   3.546  17.744  1.9916 -0.1212 -1.2757
 8856SOL     OW38200   2.170   1.188   9.649 -0.1293 -0.3556  0.3995
 8856SOL    HW138201   2.233   1.254   9.621 -1.0150  0.8951  1.3502
 8856SOL    HW238202   2.174   1.209   9.742 -0.5187 -2.0075  0.7905
 8857SOL     OW38203   3.057   4.690  12.918  0.2651  0.3938 -0.0339
 8857SOL    HW138204   3.075   4.707  13.010 -3.1401 -1.0331  0.8957
 8857SOL    HW238205   3.132   4.638  12.888 -0.0280 -0.6121  0.9717
 8858SOL     OW38206   0.040   2.225   4.277 -0.7113 -0.1104  0.4399
 8858SOL    HW138207   4.703   2.192   4.327 -1.2385 -0.7274 -0.7337
 8858SOL    HW238208   0.072   2.273   4.353  1.0835  0.5611 -0.7268
 8859SOL     OW38209   1.202   2.314   0.531 -0.1360  0.0062  0.0733
 8859SOL    HW138210   1.141   2.346   0.466 -0.5777  0.6687  0.8057
 8859SOL    HW238211   1.152   2.285   0.607  3.0294  1.7608  2.8787
 8860SOL     OW38212   3.606   1.771   4.507  0.4087 -0.1050 -0.5264
 8860SOL    HW138213   3.608   1.713   4.583 -1.3985  0.3547 -0.1256
 8860SOL    HW238214   3.623   1.710   4.435  0.0859 -0.7673 -0.0433
 8861SOL     OW38215   3.769   2.188   4.996  0.5290  0.1520 -0.4798
 8861SOL    HW138216   3.737   2.277   5.010 -1.4026 -0.7421  0.7974
 8861SOL    HW238217   3.701   2.145   4.944 -1.7622 -0.9340  3.4346
 8862SOL     OW38218   1.221   4.733   4.484  0.3554 -0.2980 -0.1041
 8862SOL    HW138219   1.253   4.649   4.449  2.2043  0.4303 -0.2052
 8862SOL    HW238220   1.250   0.065   4.424 -1.1283 -0.6573 -1.2190
 8863SOL     OW38221   0.736   1.359   9.724 -0.2040  0.1536  0.1536
 8863SOL    HW138222   0.688   1.279   9.701 -1.1867 -0.3147  3.8093
 8863SOL    HW238223   0.667   1.425   9.724 -0.7893 -0.4479  0.6364
 8864SOL     OW38224   1.509   1.645  14.253  0.4518  0.0058 -0.2186
 8864SOL    HW138225   1.457   1.586  14.308 -0.6092  0.7156 -0.4641
 8864SOL    HW238226   1.503   1.732  14.292  1.5911 -0.7134  1.5337
 8865SOL     OW38227   4.547   4.342   0.080  0.3064  0.1369  0.2324
 8865SOL    HW138228   4.453   4.329   0.093 -0.0089  0.7468 -1.3509
 8865SOL    HW238229   4.582   4.307   0.161  2.6992 -0.9982 -1.2755
 8866SOL     OW38230   1.359   3.404  14.612 -0.3886  0.3860  0.1962
 8866SOL    HW138231   1.305   3.471  14.571 -0.3264 -1.1141 -2.2887
 8866SOL    HW238232   1.324   3.324  14.574  2.1476 -0.0101 -1.2906
 8867SOL     OW38233   3.038   2.630   4.346 -0.8663  0.4245 -0.2536
 8867SOL    HW138234   3.028   2.537   4.368 -1.3972  0.7789  0.9840
 8867SOL    HW238235   3.133   2.645   4.339 -0.9414  0.7562 -0.5422
 8868SOL     OW38236   4.371   4.501  12.405 -0.0987  0.0280  0.0070
 8868SOL    HW138237   4.439   4.552  12.363 -0.7585  1.5690  0.8264
 8868SOL    HW238238   4.293   4.553  12.385 -0.8226 -0.5108  1.3619
 8869SOL     OW38239   3.759   3.259   9.592 -0.2855  0.4436  0.2911
 8869SOL    HW138240   3.713   3.343   9.593  1.6954  1.5508 -2.4044
 8869SOL    HW238241   3.787   3.249   9.683 -1.7239  0.4907  0.7376
 8870SOL     OW38242   0.522   4.589   3.530 -0.3956 -0.0461  0.1631
 8870SOL    HW138243   0.512   4.636   3.613 -0.9852  2.2707 -1.2087
 8870SOL    HW238244   0.549   4.654   3.465  0.8615  0.9890  1.6914
 8871SOL     OW38245   4.559   1.500  10.639  0.2528 -0.2695  0.2083
 8871SOL    HW138246   4.481   1.505  10.695 -0.4424  0.2338 -0.8016
 8871SOL    HW238247   4.604   1.422  10.670 -2.7533 -1.3409  1.9186
 8872SOL     OW38248   2.751   0.376   7.104 -0.2574  0.0376 -0.0705
 8872SOL    HW138249   2.716   0.428   7.032  1.6969  1.5467  0.0793
 8872SOL    HW238250   2.762   0.294   7.055 -0.2358 -0.2276  0.3749
 8873SOL     OW38251   2.772   0.945   6.250 -0.2924  0.0452 -0.5674
 8873SOL    HW138252   2.680   0.966   6.268  0.0288  0.5023  0.5532
 8873SOL    HW238253   2.789   0.887   6.324 -0.9757 -1.5441 -1.6451
 8874SOL     OW38254   1.567   2.756   5.559  0.1300  0.3905  0.3446
 8874SOL    HW138255   1.538   2.789   5.644  1.0481  0.8765  0.4715
 8874SOL    HW238256   1.660   2.776   5.566  0.1791 -0.2681  1.5948
 8875SOL     OW38257   3.550   2.896  15.925 -0.2237 -0.0278  0.1191
 8875SOL    HW138258   3.598   2.955  15.867  2.1582 -2.2560 -0.1830
 8875SOL    HW238259   3.587   2.922  16.009  1.0348  0.6594 -0.6471
 8876SOL     OW38260   4.331   2.771   1.876 -0.1976  0.2387 -0.0194
 8876SOL    HW138261   4.325   2.683   1.913 -1.3211  0.5534  0.5406
 8876SOL    HW238262   4.407   2.764   1.817  0.5682  3.5650  0.5680
 8877SOL     OW38263   1.649   3.226   8.592 -0.2556 -0.2177 -0.2153
 8877SOL    HW138264   1.731   3.274   8.603 -0.9076  1.1438 -1.2149
 8877SOL    HW238265   1.675   3.148   8.640 -1.6165 -1.2548 -1.1748
 8878SOL     OW38266   4.270   1.549   0.581 -0.0205  0.0143 -0.0335
 8878SOL    HW138267   4.332   1.617   0.607  0.6629 -1.0070  1.0048
 8878SOL    HW238268   4.328   1.473   0.578  0.0589 -0.0134  2.2162
 8879SOL     OW38269   0.190   2.848   9.135 -0.2955  0.4163 -0.3730
 8879SOL    HW138270   0.110   2.887   9.101 -1.2961 -0.4116  1.0733
 8879SOL    HW238271   0.166   2.756   9.131 -0.2414  0.5752 -4.3317
 8880SOL     OW38272   0.726   3.557   7.846  0.0640  0.2017  0.6219
 8880SOL    HW138273   0.706   3.550   7.939  0.7624  1.2185  0.8471
 8880SOL    HW238274   0.723   3.470   7.806 -0.5800  0.6514 -0.3212
 8881SOL     OW38275   2.864   1.784  16.429  0.4911  0.3210  0.1356
 8881SOL    HW138276   2.933   1.800  16.364  1.2059 -2.7657  0.1178
 8881SOL    HW238277   2.866   1.689  16.419 -0.2222  0.2932  0.3022
 8882SOL     OW38278   2.905   4.685   8.992 -0.2352  0.0977 -0.1911
 8882SOL    HW138279   2.998   4.709   8.992 -0.4463  0.8944 -0.4089
 8882SOL    HW238280   2.883   4.690   9.085 -0.5844  2.2907 -0.3966
 8883SOL     OW38281   1.906   0.385  16.108 -0.2586  0.5079 -0.1729
 8883SOL    HW138282   1.997   0.402  16.084 -0.1028  0.7115  0.5722
 8883SOL    HW238283   1.899   0.470  16.150 -0.4783 -0.8965  2.6144
 8884SOL     OW38284   2.122   1.482   9.021  0.2448 -0.0760 -0.6234
 8884SOL    HW138285   2.192   1.423   9.046 -1.7590 -2.4447 -0.5836
 8884SOL    HW238286   2.103   1.514   9.109  1.4774 -1.4036  0.1036
 8885SOL     OW38287   4.736   2.912   3.894 -0.2728  0.4426  0.1734
 8885SOL    HW138288   0.058   2.844   3.927  0.8287  0.2534 -2.1677
 8885SOL    HW238289   4.698   2.864   3.820  0.6258  0.6505 -0.4277
 8886SOL     OW38290   2.633   0.084   4.799  0.3002  0.4670  0.5600
 8886SOL    HW138291   2.664   0.062   4.888 -0.1653 -0.9747  0.3702
 8886SOL    HW238292   2.619   0.176   4.820 -0.5812  0.6758 -1.0106
 8887SOL     OW38293   1.592   2.976   9.236  0.6570 -0.3251 -0.0965
 8887SOL    HW138294   1.642   3.013   9.309 -0.8880 -1.8597  1.7113
 8887SOL    HW238295   1.540   2.905   9.274 -0.2045  0.1503 -0.3942
 8888SOL     OW38296   0.231   2.699   5.284 -0.3794  0.2719 -0.1005
 8888SOL    HW138297   0.280   2.676   5.204 -0.4692  2.2342 -0.7300
 8888SOL    HW238298   0.294   2.683   5.355 -1.7413  2.3101  1.5428
 8889SOL     OW38299   3.158   4.736   3.352 -0.1454 -0.2095  0.0790
 8889SOL    HW138300   3.064   0.017   3.358  0.0578  0.7647  0.4022
 8889SOL    HW238301   3.165   4.646   3.321  0.1290 -0.4028  0.7004
 8890SOL     OW38302   0.970   2.113   0.984  0.2612  0.7805  0.0732
 8890SOL    HW138303   0.969   2.053   1.058  0.0140 -1.6144 -1.8867
 8890SOL    HW238304   0.934   2.193   1.022 -0.5659  0.7482 -0.6325
 8891SOL     OW38305   2.714   3.064   0.440 -0.4627  0.3919 -0.1536
 8891SOL    HW138306   2.747   3.023   0.360  0.6234  2.1275 -0.5853
 8891SOL    HW238307   2.758   3.010   0.506  0.9605  1.6475 -0.0738
 8892SOL     OW38308   1.200   4.439   5.529  0.1471  0.1882 -0.1890
 8892SOL    HW138309   1.145   4.379   5.580  0.6849 -0.1552 -0.0116
 8892SOL    HW238310   1.211   4.367   5.467  2.9768 -1.0827  1.8025
 8893SOL     OW38311   3.710   1.321   4.211 -0.0601 -0.0925 -0.0624
 8893SOL    HW138312   3.707   1.242   4.266 -0.8191 -0.3188 -0.4301
 8893SOL    HW238313   3.621   1.316   4.175 -0.5149  0.1553  1.0407
 8894SOL     OW38314   1.127   3.843   8.177  0.0837  0.3165  0.0713
 8894SOL    HW138315   1.222   3.839   8.183  0.1178  0.5525 -0.3275
 8894SOL    HW238316   1.103   3.931   8.207  0.6369  0.2181  0.7990
 8895SOL     OW38317   2.515   2.913   6.253 -0.3290  0.2339 -0.0163
 8895SOL    HW138318   2.576   2.868   6.312 -0.0738  1.5855  0.7433
 8895SOL    HW238319   2.553   3.000   6.252  0.8555 -0.2766  1.0985
 8896SOL     OW38320   0.688   3.776  13.688  0.2066 -0.7083  0.4264
 8896SOL    HW138321   0.645   3.700  13.728 -1.3768 -1.0563 -1.9386
 8896SOL    HW238322   0.715   3.813  13.772 -0.1214 -0.1277  0.2747
 8897SOL     OW38323   0.634   2.311  10.313 -0.4682 -0.5500  0.1839
 8897SOL    HW138324   0.727   2.333  10.301 -0.6941  0.3794  0.1764
 8897SOL    HW238325   0.642   2.222  10.347 -1.0501 -0.7105 -0.1048
 8898SOL     OW38326   4.692   2.909   2.510 -0.2760 -0.6810 -0.1110
 8898SOL    HW138327   4.697   2.959   2.592 -2.1075 -1.1509  0.2906
 8898SOL    HW238328   0.027   2.848   2.527 -0.0240 -0.8878 -1.8919
 8899SOL     OW38329   1.397   2.912  11.057  0.0432  0.2962  0.5778
 8899SOL    HW138330   1.391   2.893  10.963  1.1445  1.4169  0.2806
 8899SOL    HW238331   1.305   2.933  11.072  0.1437  1.1351  0.0010
 8900SOL     OW38332   1.083   2.439   5.757  0.2399  0.4184  0.1317
 8900SOL    HW138333   1.096   2.516   5.811 -1.0262  0.9722 -0.3407
 8900SOL    HW238334   1.158   2.380   5.770  1.0285  0.9323 -2.0861
 8901SOL     OW38335   1.991   1.876  12.811 -0.4010 -0.0654 -0.0795
 8901SOL    HW138336   2.077   1.914  12.829 -0.4517  0.3328 -0.6491
 8901SOL    HW238337   1.957   1.845  12.895 -0.0775  0.0997  0.1126
 8902SOL     OW38338   4.251   3.481  14.933 -0.0495 -0.3026 -0.0481
 8902SOL    HW138339   4.283   3.561  14.975  0.6667 -1.8607  2.3947
 8902SOL    HW238340   4.159   3.475  14.960 -0.0428  1.0407  0.3123
 8903SOL     OW38341   2.993   1.056  15.118 -0.0860  0.8272  0.3125
 8903SOL    HW138342   3.076   1.081  15.079  0.0124  1.6995  1.0819
 8903SOL    HW238343   3.018   1.042  15.209  1.6097 -1.6333 -0.5493
 8904SOL     OW38344   0.172   3.085   5.318 -0.0929 -0.4966 -0.0524
 8904SOL    HW138345   0.226   3.023   5.367 -2.6347 -2.0872  0.7323
 8904SOL    HW238346   0.187   3.170   5.360 -0.1474 -0.2979 -0.4278
 8905SOL     OW38347   0.796   0.903  10.743  0.2672 -0.1599 -0.1566
 8905SOL    HW138348   0.856   0.829  10.749  0.5720  0.3198  2.6317
 8905SOL    HW238349   0.819   0.939  10.657  2.5516  0.9688  0.9276
 8906SOL     OW38350   3.492   2.222   1.366 -0.8587 -0.0680 -0.6771
 8906SOL    HW138351   3.436   2.221   1.444  1.4754  0.1962  1.0076
 8906SOL    HW238352   3.525   2.133   1.362 -0.1356  0.2050 -0.8655
 8907SOL     OW38353   2.949   3.375   1.663 -0.5858  0.2245 -0.1214
 8907SOL    HW138354   2.932   3.292   1.618  1.3582  0.1233 -0.6696
 8907SOL    HW238355   2.889   3.437   1.621 -0.5089  0.0563 -0.4815
 8908SOL     OW38356   2.687   2.198   3.999 -0.2278 -0.1885 -0.0497
 8908SOL    HW138357   2.705   2.134   3.930  1.4380  1.6272 -1.3252
 8908SOL    HW238358   2.698   2.150   4.081  0.0897 -1.4045 -0.8001
 8909SOL     OW38359   2.423   1.799   3.177  0.1786 -0.0538 -0.6885
 8909SOL    HW138360   2.426   1.765   3.266  2.9484  0.9913 -0.3713
 8909SOL    HW238361   2.501   1.750   3.151  1.8201  1.2732  1.8118
 8910SOL     OW38362   1.500   1.874   8.423 -0.0859 -0.4974  0.2194
 8910SOL    HW138363   1.571   1.863   8.360 -1.4850 -2.3713 -1.0119
 8910SOL    HW238364   1.526   1.963   8.448 -1.2578 -0.6222  1.8790
 8911SOL     OW38365   2.589   4.038  16.213  0.0380  0.1098 -0.0141
 8911SOL    HW138366   2.528   3.997  16.274  0.6075 -0.5922  0.0817
 8911SOL    HW238367   2.648   3.964  16.198 -1.5025 -0.5655 -2.7401
 8912SOL     OW38368   3.563   1.535   4.006 -0.2913 -0.2540  0.1668
 8912SOL    HW138369   3.503   1.487   4.063  0.8797 -0.8875  0.8735
 8912SOL    HW238370   3.522   1.621   4.010 -0.8092 -0.6012  2.0002
 8913SOL     OW38371   3.939   2.342   6.271  0.2761  0.5547 -0.3098
 8913SOL    HW138372   4.019   2.393   6.267 -0.1910  1.4863  2.6250
 8913SOL    HW238373   3.896   2.354   6.186  1.5481  2.8123 -0.6333
 8914SOL     OW38374   1.797   3.922   8.242 -0.3584  0.1520 -0.4492
 8914SOL    HW138375   1.766   4.003   8.201 -2.3471 -0.2716  0.2279
 8914SOL    HW238376   1.870   3.941   8.301 -0.6668 -1.4794  0.4510
 8915SOL     OW38377   1.383   3.358   8.371  0.0438  0.1219 -0.9598
 8915SOL    HW138378   1.359   3.309   8.450  1.2487  1.2143  0.0819
 8915SOL    HW238379   1.305   3.352   8.316 -0.4703  0.0564 -0.2300
 8916SOL     OW38380   3.252   0.341   7.417  0.2709  0.7397  0.6408
 8916SOL    HW138381   3.339   0.337   7.457 -0.1455  0.0983  1.4734
 8916SOL    HW238382   3.265   0.269   7.355 -0.9572  1.4916 -0.4885
 8917SOL     OW38383   1.515   4.053   1.817  0.1901  0.3465 -0.1322
 8917SOL    HW138384   1.499   4.085   1.906 -1.1208 -1.7836  0.3961
 8917SOL    HW238385   1.545   3.965   1.840  2.0610  0.7326 -1.0924
 8918SOL     OW38386   4.464   4.684  12.037  0.2697  0.0069  0.5482
 8918SOL    HW138387   4.454   4.716  12.127  0.7454 -0.6955  0.8477
 8918SOL    HW238388   4.402   0.003  11.990 -1.5348 -1.9775  0.5709
 8919SOL     OW38389   2.237   4.539  13.411  0.3374 -0.1849  0.2375
 8919SOL    HW138390   2.302   4.469  13.408  1.7840  1.1692  0.0865
 8919SOL    HW238391   2.179   4.508  13.481 -0.0532 -1.5858 -0.7106
 8920SOL     OW38392   3.614   2.555   8.043  0.4529  0.1103 -0.1428
 8920SOL    HW138393   3.617   2.586   7.952 -3.3215  1.7990  0.2972
 8920SOL    HW238394   3.524   2.522   8.048  0.7930 -0.8110 -0.1297
 8921SOL     OW38395   3.110   4.238   3.099 -0.0200  0.0449  0.0013
 8921SOL    HW138396   3.079   4.198   3.181  0.9331 -2.0342 -0.6609
 8921SOL    HW238397   3.083   4.180   3.028  2.6050 -2.2509  0.8698
 8922SOL     OW38398   3.967   0.247  14.567  0.2199 -0.3246  0.1537
 8922SOL    HW138399   3.969   0.235  14.472  1.0352 -0.1595  0.1480
 8922SOL    HW238400   3.906   0.176  14.586  2.4767 -1.8500  1.7504
 8923SOL     OW38401   2.153   4.298   5.851 -0.7801  0.0689 -0.2013
 8923SOL    HW138402   2.146   4.318   5.758 -2.3409  1.4955  0.2409
 8923SOL    HW238403   2.196   4.375   5.888 -1.0542 -0.2608  0.8182
 8924SOL     OW38404   2.836   4.338   6.229  0.2284  0.2430 -0.0861
 8924SOL    HW138405   2.840   4.432   6.211  1.7765  0.7978  3.1359
 8924SOL    HW238406   2.840   4.305   6.140 -1.5947  0.0726 -0.1105
 8925SOL     OW38407   4.655   3.282   2.085 -0.1229 -0.3165  0.4555
 8925SOL    HW138408   4.712   3.299   2.161  1.8149 -3.7203 -0.1970
 8925SOL    HW238409   4.682   3.190   2.075 -1.3549 -0.7552  1.2191
 8926SOL     OW38410   1.095   0.753   7.273  0.2132  0.3861 -0.1653
 8926SOL    HW138411   1.058   0.712   7.352  0.9168  0.2506  0.0968
 8926SOL    HW238412   1.171   0.792   7.317  0.7538 -0.7903 -0.0429
 8927SOL     OW38413   1.973   3.922   2.706 -0.4564 -0.0937  0.3994
 8927SOL    HW138414   1.920   3.850   2.671  3.1206 -1.2192 -2.7360
 8927SOL    HW238415   2.057   3.879   2.718 -0.7018 -0.0848  2.0595
 8928SOL     OW38416   1.576   3.424   4.123 -0.5162 -0.3656  0.0758
 8928SOL    HW138417   1.613   3.336   4.114  1.5981  0.5059  0.2408
 8928SOL    HW238418   1.511   3.401   4.189  0.7143  0.9249  1.7164
 8929SOL     OW38419   1.798   4.513   7.501 -0.3050  0.5316 -0.5877
 8929SOL    HW138420   1.736   4.441   7.510  0.2629 -0.0829 -1.5460
 8929SOL    HW238421   1.808   4.550   7.588 -0.2164 -1.2436  0.1606
 8930SOL     OW38422   3.678   4.405   4.228  0.1733 -0.3030  0.2148
 8930SOL    HW138423   3.710   4.473   4.287 -0.1705  0.1297 -0.0970
 8930SOL    HW238424   3.741   4.401   4.156  0.5280 -1.6038  0.5826
 8931SOL     OW38425   3.327   0.880   4.300  0.3294  1.0995 -0.7243
 8931SOL    HW138426   3.395   0.849   4.241  1.7074  0.8775  0.9763
 8931SOL    HW238427   3.379   0.927   4.365 -1.7028 -0.2185  1.8942
 8932SOL     OW38428   0.672   4.042   8.233 -0.1916  0.1877 -0.5284
 8932SOL    HW138429   0.693   4.089   8.314 -1.3417 -1.6070  0.8240
 8932SOL    HW238430   0.646   4.115   8.177 -0.3736 -0.3989 -1.2028
 8933SOL     OW38431   0.938   4.297   4.840  0.2316  0.5707 -0.6785
 8933SOL    HW138432   0.867   4.256   4.888  0.2646  0.9846 -0.2710
 8933SOL    HW238433   0.934   4.263   4.751 -1.1241  0.5917 -0.6189
 8934SOL     OW38434   2.320   0.432  10.168 -0.0177  0.0344 -0.5571
 8934SOL    HW138435   2.316   0.337  10.176  0.0882 -0.1452 -2.6680
 8934SOL    HW238436   2.278   0.445  10.083  1.7841  2.7022 -1.0295
 8935SOL     OW38437   4.012   1.451   7.722 -0.0143 -0.6152 -0.3362
 8935SOL    HW138438   3.998   1.545   7.718  0.2714 -0.5421  0.4012
 8935SOL    HW238439   3.990   1.433   7.813  1.7898 -0.4413  0.1457
 8936SOL     OW38440   4.001   4.436  10.829 -0.1304  0.6299  0.4147
 8936SOL    HW138441   3.962   4.454  10.743  1.6177  2.6757  0.0518
 8936SOL    HW238442   4.000   4.341  10.836 -0.4305  0.5755 -0.3965
 8937SOL     OW38443   1.377   3.755   2.168 -0.0846 -0.0160  0.5193
 8937SOL    HW138444   1.305   3.692   2.160  0.6739 -0.5911 -2.1225
 8937SOL    HW238445   1.420   3.716   2.244  1.1975  0.6686  0.1475
 8938SOL     OW38446   1.969   1.040   2.119  0.0125  0.3169 -0.1852
 8938SOL    HW138447   1.954   1.044   2.025  0.6750 -1.1028 -0.3418
 8938SOL    HW238448   1.924   1.123   2.132 -0.2476  0.6690 -3.3079
 8939SOL     OW38449   1.414   2.869   2.997  0.2148  0.4514  0.3196
 8939SOL    HW138450   1.328   2.867   2.956 -0.6465  1.3718  2.1106
 8939SOL    HW238451   1.465   2.930   2.942  1.9002 -1.5526 -0.3519
 8940SOL     OW38452   3.461   0.399   2.843  0.7648  0.4376 -0.0722
 8940SOL    HW138453   3.377   0.354   2.836  1.4448 -1.0608  1.3656
 8940SOL    HW238454   3.480   0.433   2.756  0.2817 -0.1909 -0.4135
 8941SOL     OW38455   1.818   2.804   5.580 -0.0767  0.0340 -0.5261
 8941SOL    HW138456   1.892   2.745   5.592 -1.1162 -1.0727  0.4431
 8941SOL    HW238457   1.847   2.895   5.592  1.7120 -0.5251 -0.6315
 8942SOL     OW38458   3.089   1.194   6.041 -0.1598  0.0114  0.3976
 8942SOL    HW138459   3.126   1.115   6.079  1.4095  0.8043  0.5393
 8942SOL    HW238460   2.995   1.182   6.055 -0.3642 -0.8818 -1.7720
 8943SOL     OW38461   3.144   3.463   1.453 -0.1354  0.6318  0.0670
 8943SOL    HW138462   3.168   3.466   1.360  1.1031 -0.2963  0.3577
 8943SOL    HW238463   3.113   3.372   1.452  2.0581 -0.1269 -1.5467
 8944SOL     OW38464   4.533   4.620   5.626  0.2459  0.2849 -0.0259
 8944SOL    HW138465   4.523   4.584   5.537 -0.7586 -2.6480  1.2795
 8944SOL    HW238466   4.596   4.690   5.610 -2.6176  2.2285 -2.7616
 8945SOL     OW38467   4.714   4.634   6.676 -0.2686  0.0997  0.1022
 8945SOL    HW138468   4.650   4.597   6.615 -0.5109 -0.9851  1.0051
 8945SOL    HW238469   0.053   4.579   6.660  0.8894  2.0076 -0.8737
 8946SOL     OW38470   4.328   0.972   3.755 -0.4786 -0.1611  0.4309
 8946SOL    HW138471   4.292   1.039   3.812  0.7170 -0.4766  1.5426
 8946SOL    HW238472   4.404   1.019   3.719 -1.5330  1.2133  0.0050
 8947SOL     OW38473   1.334   2.773   6.337  0.1945 -0.4353  0.3453
 8947SOL    HW138474   1.356   2.848   6.393 -2.1255  0.8485 -0.4688
 8947SOL    HW238475   1.258   2.804   6.287  0.9317  0.1230 -0.4196
 8948SOL     OW38476   2.975   4.021   9.424  0.4637  0.0575 -0.3009
 8948SOL    HW138477   3.052   4.061   9.383  0.2328 -1.6607 -2.3775
 8948SOL    HW238478   3.010   3.932   9.423 -0.0865 -0.1201 -2.1956
 8949SOL     OW38479   1.087   3.339   5.827 -0.7683 -0.0766  0.1854
 8949SOL    HW138480   1.002   3.376   5.803  0.5842  1.6016 -2.0277
 8949SOL    HW238481   1.135   3.406   5.875 -3.0679  0.8777  1.1262
 8950SOL     OW38482   2.021   2.544   7.125  0.1088  0.0396  0.3277
 8950SOL    HW138483   2.017   2.453   7.094 -0.9045 -0.3036  1.4670
 8950SOL    HW238484   2.049   2.538   7.216  0.5686 -0.0127  0.1819
 8951SOL     OW38485   1.767   1.125   7.736  0.0386 -0.0275 -0.4281
 8951SOL    HW138486   1.730   1.197   7.685  0.2296 -0.5394 -1.2866
 8951SOL    HW238487   1.860   1.142   7.719  0.1853 -2.3080 -2.0046
 8952SOL     OW38488   1.775   1.471   4.643  0.3167  0.2218  0.1986
 8952SOL    HW138489   1.849   1.481   4.583 -0.3040 -0.3972 -0.6624
 8952SOL    HW238490   1.775   1.376   4.634 -0.7177  0.2716 -0.2238
 8953SOL     OW38491   4.077   4.516   7.839  0.0181 -0.1789  0.3820
 8953SOL    HW138492   4.137   4.452   7.878 -1.9555 -2.2340  0.0009
 8953SOL    HW238493   4.078   4.487   7.748  0.6396  1.2805 -0.0856
 8954SOL     OW38494   3.262   2.826   2.745 -0.6710  0.7568 -0.2871
 8954SOL    HW138495   3.199   2.856   2.679 -1.9180  0.3127  0.6787
 8954SOL    HW238496   3.343   2.867   2.717  0.1858  0.3608  1.5999
 8955SOL     OW38497   1.510   0.749   7.260 -0.1134 -0.0448 -0.4921
 8955SOL    HW138498   1.540   0.827   7.215 -1.6199  1.1705  0.6172
 8955SOL    HW238499   1.488   0.778   7.349  1.1339 -0.3967 -0.0741
 8956SOL     OW38500   3.328   1.600   4.327 -0.7285 -0.1601  0.7419
 8956SOL    HW138501   3.416   1.576   4.296 -0.4782 -0.4425  1.6854
 8956SOL    HW238502   3.313   1.660   4.254  0.7253  1.4551  1.7537
 8957SOL     OW38503   0.185   1.181   7.235 -0.2642  0.2667 -0.1557
 8957SOL    HW138504   0.191   1.109   7.298  1.1135  1.5688  1.1916
 8957SOL    HW238505   0.135   1.249   7.280 -0.5565 -0.4691  0.6422
 8958SOL     OW38506   1.740   1.586  10.561 -0.0131 -0.7876  0.2615
 8958SOL    HW138507   1.651   1.564  10.589 -0.8193  1.6804 -0.4154
 8958SOL    HW238508   1.780   1.507  10.526  2.7334  0.9641 -0.5033
 8959SOL     OW38509   4.662   3.728  11.808  0.3604 -0.2719 -0.0771
 8959SOL    HW138510   4.719   3.655  11.783 -0.6918 -1.1509  0.0986
 8959SOL    HW238511   4.678   3.788  11.735 -0.6952  1.7467  1.3523
 8960SOL     OW38512   2.440   3.998   3.532 -0.4346  0.3120 -0.4099
 8960SOL    HW138513   2.360   4.013   3.482  0.0775 -0.7944 -1.5598
 8960SOL    HW238514   2.505   4.034   3.471  0.9422  1.2468  1.5958
 8961SOL     OW38515   1.049   4.487   8.197  0.0223 -0.1580 -0.1075
 8961SOL    HW138516   1.072   4.565   8.148 -0.9203  0.3856  0.3114
 8961SOL    HW238517   0.956   4.479   8.177  0.0336  1.3180 -0.7444
 8962SOL     OW38518   4.020   2.141  11.018  0.2010  0.1354  1.0317
 8962SOL    HW138519   3.927   2.154  11.000  0.8011  0.5997 -1.7370
 8962SOL    HW238520   4.013   2.116  11.110 -0.7655  0.2541  0.9895
 8963SOL     OW38521   0.908   2.973   2.953 -0.4179  0.1672  0.0369
 8963SOL    HW138522   0.871   3.032   2.887 -2.5856  0.6806  1.7188
 8963SOL    HW238523   0.980   3.027   2.986 -0.7752  0.2199  0.7454
 8964SOL     OW38524   3.125   0.977   4.147 -0.1659  0.7759  0.1256
 8964SOL    HW138525   3.182   0.959   4.222 -1.3068 -1.2784  0.4789
 8964SOL    HW238526   3.191   0.982   4.077 -0.4713  0.7253 -0.1660
 8965SOL     OW38527   3.444   2.787   9.060 -0.7269  0.6632 -0.0884
 8965SOL    HW138528   3.378   2.729   9.096 -1.9498  1.3651 -1.2221
 8965SOL    HW238529   3.444   2.759   8.968 -0.6007 -1.2335  0.4990
 8966SOL     OW38530   3.649   4.080  14.462 -0.0255 -0.0948 -0.3395
 8966SOL    HW138531   3.555   4.070  14.445 -0.1981  1.3353 -0.2200
 8966SOL    HW238532   3.674   4.030  14.540 -0.7547 -1.0262 -0.7103
 8967SOL     OW38533   0.238   2.061   3.771 -0.2593  0.6934  0.3669
 8967SOL    HW138534   0.176   2.030   3.838  0.3780 -0.1464  0.5716
 8967SOL    HW238535   0.270   2.145   3.803  3.0333 -0.0581 -1.0162
 8968SOL     OW38536   2.607   3.416   8.801 -0.1182  0.6500 -0.1916
 8968SOL    HW138537   2.562   3.495   8.830 -2.3847  0.3531 -2.9001
 8968SOL    HW238538   2.700   3.438   8.805 -0.9865  4.0494  0.9125
 8969SOL     OW38539   4.352   4.041   2.481  0.0943 -0.5548  0.7007
 8969SOL    HW138540   4.423   4.103   2.462 -1.8573  1.4265 -0.1480
 8969SOL    HW238541   4.279   4.100   2.498  0.5770  0.1205  0.4402
 8970SOL     OW38542   0.046   3.852   8.469  0.3995 -0.6567 -0.7947
 8970SOL    HW138543   0.099   3.778   8.442  2.8019  1.3511 -1.6287
 8970SOL    HW238544   4.698   3.820   8.440 -0.3668  0.8125 -0.1630
 8971SOL     OW38545   1.467   4.203  15.395  0.5861  0.6918  0.2891
 8971SOL    HW138546   1.423   4.213  15.310  2.9736 -0.9167 -1.1274
 8971SOL    HW238547   1.423   4.124  15.427  0.7779  0.3245 -0.3694
 8972SOL     OW38548   2.893   3.360  15.231  0.3374 -0.6770  0.6372
 8972SOL    HW138549   2.912   3.406  15.149  2.2785 -1.0216  0.8871
 8972SOL    HW238550   2.898   3.269  15.200  0.4809 -0.5410  0.2607
 8973SOL     OW38551   3.516   4.324  17.323  0.1763 -0.1919 -0.5529
 8973SOL    HW138552   3.453   4.281  17.381  0.8403 -0.5580 -0.1126
 8973SOL    HW238553   3.454   4.365  17.262 -0.7888  0.3212  0.7694
 8974SOL     OW38554   0.372   1.681   0.869  0.5348  0.0559  0.3307
 8974SOL    HW138555   0.456   1.697   0.912  0.4621 -0.2309  0.5841
 8974SOL    HW238556   0.359   1.589   0.896 -0.1343 -0.1533 -0.6945
 8975SOL     OW38557   4.299   0.870  13.135 -0.6730  0.2359 -0.9445
 8975SOL    HW138558   4.253   0.788  13.149 -2.1807  0.9618 -1.5507
 8975SOL    HW238559   4.353   0.846  13.059 -3.0796  0.2395 -2.6731
 8976SOL     OW38560   4.219   0.629   7.948  0.2310  0.3413  0.4745
 8976SOL    HW138561   4.191   0.547   7.908  1.0563  0.2465  0.0899
 8976SOL    HW238562   4.311   0.609   7.967  0.3256  0.0483 -0.2702
 8977SOL     OW38563   2.307   0.344   2.965  0.2600  0.5929 -0.1827
 8977SOL    HW138564   2.221   0.305   2.979  1.7285 -2.7080 -0.3210
 8977SOL    HW238565   2.311   0.379   2.876 -0.4182  0.2007 -0.3624
 8978SOL     OW38566   2.039   0.950  12.837 -0.5446  0.4663  0.0515
 8978SOL    HW138567   1.944   0.953  12.846 -0.6475  1.3131 -1.2850
 8978SOL    HW238568   2.064   0.934  12.928 -1.0002  0.5677  0.1939
 8979SOL     OW38569   2.583   0.191   2.807  0.1429 -0.3208  0.0646
 8979SOL    HW138570   2.605   0.109   2.852 -1.0925 -0.2969  0.7322
 8979SOL    HW238571   2.572   0.157   2.718 -1.0075 -0.5179  0.2801
 8980SOL     OW38572   1.653   0.156   2.491  0.1942 -0.3159 -0.4176
 8980SOL    HW138573   1.625   0.158   2.399 -0.2219 -0.8557 -0.3023
 8980SOL    HW238574   1.634   0.246   2.516  0.2396 -1.2384  2.8529
 8981SOL     OW38575   1.780   3.696  10.511 -0.5198  0.1042 -0.3037
 8981SOL    HW138576   1.809   3.783  10.536  0.5960 -0.1863 -0.6013
 8981SOL    HW238577   1.689   3.684  10.539  0.1375  0.0643  1.7674
 8982SOL     OW38578   3.063   0.319  15.738  0.6896  0.2545  0.5442
 8982SOL    HW138579   3.136   0.264  15.766  0.9816  0.0939 -0.5622
 8982SOL    HW238580   3.009   0.323  15.817  0.7932 -2.6004  0.7470
 8983SOL     OW38581   0.631   1.026   8.482  0.2567  0.3680  1.2439
 8983SOL    HW138582   0.597   0.937   8.487  0.5286  0.2857  1.6342
 8983SOL    HW238583   0.571   1.065   8.545  1.7984  2.7418  1.2253
 8984SOL     OW38584   1.439   3.681   4.451 -0.2543 -0.2178  0.3797
 8984SOL    HW138585   1.531   3.659   4.437  0.5177  2.8812  0.5854
 8984SOL    HW238586   1.435   3.694   4.546  0.6340 -1.6773  0.6120
 8985SOL     OW38587   4.094   0.956   7.693  0.7117 -0.1991  0.5834
 8985SOL    HW138588   4.084   0.996   7.607 -1.6340  0.1052  1.0001
 8985SOL    HW238589   4.169   0.898   7.681 -1.0933 -2.0926 -1.3689
 8986SOL     OW38590   3.237   4.382   7.255 -0.2233 -0.4365  0.4706
 8986SOL    HW138591   3.274   4.453   7.308  1.2586  0.9033 -2.3141
 8986SOL    HW238592   3.311   4.323   7.243  0.3993  0.6042 -0.9082
 8987SOL     OW38593   4.596   3.836   6.712  0.2651 -0.4514  0.8693
 8987SOL    HW138594   4.644   3.885   6.645 -1.3754  1.3562  1.0341
 8987SOL    HW238595   4.551   3.759   6.677 -1.0199  0.8074 -0.1978
 8988SOL     OW38596   0.494   1.663   6.350 -0.1043 -0.2990  0.0304
 8988SOL    HW138597   0.433   1.642   6.279 -1.5130  0.0992  1.1358
 8988SOL    HW238598   0.515   1.575   6.382  0.7244 -0.3482 -0.6410
 8989SOL     OW38599   1.152   3.570   3.186 -0.0951 -0.5268  0.1127
 8989SOL    HW138600   1.233   3.564   3.135 -0.2006  0.1130 -0.1326
 8989SOL    HW238601   1.106   3.489   3.167 -0.4657 -0.2616 -0.1181
 8990SOL     OW38602   2.083   2.341  10.233  0.1391  0.2366  0.1807
 8990SOL    HW138603   2.173   2.310  10.222  0.6440  2.4231 -1.9724
 8990SOL    HW238604   2.083   2.401  10.158 -1.6546 -1.8252 -1.4858
 8991SOL     OW38605   2.763   0.681   6.670  0.1604  0.8437 -0.0984
 8991SOL    HW138606   2.779   0.709   6.580 -3.3498 -0.8558 -1.2158
 8991SOL    HW238607   2.849   0.693   6.713  0.3169 -0.8902  0.0589
 8992SOL     OW38608   0.941   3.845   2.110  0.1757 -0.1560  0.3398
 8992SOL    HW138609   0.917   3.921   2.056  0.2927 -0.7531 -0.5530
 8992SOL    HW238610   0.949   3.773   2.047  4.0820 -0.3765  1.0725
 8993SOL     OW38611   1.678   1.661   9.887 -0.0628  0.6772 -0.2662
 8993SOL    HW138612   1.620   1.735   9.871 -1.2543 -0.3312 -0.6476
 8993SOL    HW238613   1.693   1.643   9.794 -1.8045  1.2088 -0.6365
 8994SOL     OW38614   4.216   1.941   8.712  0.3747  0.3054  0.1406
 8994SOL    HW138615   4.130   1.943   8.753 -0.3102 -0.0680 -1.2637
 8994SOL    HW238616   4.256   2.023   8.740  1.0919  1.4166 -4.1953
 8995SOL     OW38617   0.224   4.039   3.461  0.5175  0.0877  0.1531
 8995SOL    HW138618   0.264   4.018   3.377 -2.1402 -2.0246 -0.5667
 8995SOL    HW238619   0.253   4.130   3.470  2.2142 -0.3220 -1.0725
 8996SOL     OW38620   4.110   0.204   7.402  0.5049 -0.3627 -0.5187
 8996SOL    HW138621   4.072   0.133   7.454 -0.5627  1.2554  0.9171
 8996SOL    HW238622   4.120   0.162   7.317 -2.7029 -1.5753 -0.2987
 8997SOL     OW38623   1.750   2.552  15.920 -0.1222 -0.0473 -0.2323
 8997SOL    HW138624   1.662   2.536  15.955 -0.4225 -1.1847 -1.4907
 8997SOL    HW238625   1.769   2.644  15.906  1.0435  0.2715  3.3301
 8998SOL     OW38626   3.154   3.657  17.253 -0.1916 -0.0209  0.3177
 8998SOL    HW138627   3.067   3.618  17.244  0.4662 -1.5215  0.3699
 8998SOL    HW238628   3.213   3.613  17.191 -0.0606 -0.6201  0.8686
 8999SOL     OW38629   1.421   1.515  17.182  0.2365 -0.1847  0.0583
 8999SOL    HW138630   1.442   1.554  17.097 -0.5914  0.4484  0.1453
 8999SOL    HW238631   1.383   1.433  17.150  1.3870 -0.0290 -1.7344
 9000SOL     OW38632   1.835   3.982   6.018  0.3835  0.1386  0.4383
 9000SOL    HW138633   1.850   4.073   6.041  3.3709 -0.5514  1.2093
 9000SOL    HW238634   1.878   3.978   5.933 -0.4650 -0.8835  0.0561
 9001SOL     OW38635   0.817   3.038   8.299  0.0747 -0.1848  0.0318
 9001SOL    HW138636   0.818   2.970   8.231  1.2112 -0.2339  0.0998
 9001SOL    HW238637   0.907   3.063   8.319 -0.5280  2.6480 -0.6702
 9002SOL     OW38638   1.745   0.215  16.215 -0.4103 -0.1586  0.1208
 9002SOL    HW138639   1.796   0.270  16.156  0.8862 -0.9678  0.4820
 9002SOL    HW238640   1.715   0.143  16.160  0.1525 -1.0003  0.9046
 9003SOL     OW38641   3.085   3.850   8.634 -0.2695  0.6124  0.4432
 9003SOL    HW138642   3.147   3.868   8.704 -0.5970  1.8680  0.3984
 9003SOL    HW238643   3.010   3.843   8.694 -1.4874 -1.8319 -1.3237
 9004SOL     OW38644   1.574   0.678   5.267 -0.6904 -0.3264 -0.1392
 9004SOL    HW138645   1.569   0.773   5.275 -0.7753 -0.3972  0.6787
 9004SOL    HW238646   1.482   0.657   5.249 -1.1421  0.9611  0.6303
 9005SOL     OW38647   3.745   1.859   6.724  0.0285 -0.2528 -0.3730
 9005SOL    HW138648   3.658   1.861   6.684 -0.7061 -2.0042  1.1784
 9005SOL    HW238649   3.717   1.815   6.804 -0.2989  1.9768  0.7411
 9006SOL     OW38650   4.300   3.843   6.059 -0.2782 -0.0689 -0.3570
 9006SOL    HW138651   4.320   3.833   6.152  0.4295 -1.5117 -0.6715
 9006SOL    HW238652   4.326   3.761   6.017  0.4439 -0.0245  0.0081
 9007SOL     OW38653   1.743   3.759   5.431 -0.1855  0.1226 -0.0128
 9007SOL    HW138654   1.687   3.743   5.356  0.6505  1.8109 -0.9910
 9007SOL    HW238655   1.682   3.810   5.484 -0.7829 -0.2776 -0.3166
 9008SOL     OW38656   2.226   3.070   7.605 -0.0887 -0.2837 -0.1282
 9008SOL    HW138657   2.239   3.113   7.689  0.1300 -3.8216  1.6546
 9008SOL    HW238658   2.313   3.044   7.574 -0.3882  1.0967 -2.1344
 9009SOL     OW38659   4.023   0.255   9.213 -0.2545 -0.7501  0.3972
 9009SOL    HW138660   3.927   0.252   9.212 -0.2954  1.0017 -0.2913
 9009SOL    HW238661   4.041   0.164   9.238 -0.3657 -0.6533  0.8347
 9010SOL     OW38662   1.635   2.424   9.760  0.4913  0.0713 -0.1605
 9010SOL    HW138663   1.551   2.459   9.791  0.0897  0.7255 -2.0197
 9010SOL    HW238664   1.660   2.341   9.800 -0.9670 -0.4280 -0.2893
 9011SOL     OW38665   1.853   4.022   2.416  0.6798 -0.3918 -0.2146
 9011SOL    HW138666   1.804   4.019   2.334  1.2069 -0.1851 -0.5381
 9011SOL    HW238667   1.857   3.930   2.443  0.1736  0.0396  1.3018
 9012SOL     OW38668   0.220   0.403   4.774  0.6109 -0.0585  0.3473
 9012SOL    HW138669   0.284   0.438   4.836  3.0624  1.1822 -2.8910
 9012SOL    HW238670   0.285   0.388   4.706 -1.0206 -0.9545 -1.0029
 9013SOL     OW38671   0.623   2.162   2.828 -0.2504 -0.4195 -0.1419
 9013SOL    HW138672   0.613   2.116   2.745  0.4773 -0.9439  0.0644
 9013SOL    HW238673   0.710   2.143   2.862  0.9941  1.9736 -1.9558
 9014SOL     OW38674   2.700   3.012   8.867 -0.4461  0.1577  0.4154
 9014SOL    HW138675   2.659   3.079   8.921 -0.8212  0.2218  0.0509
 9014SOL    HW238676   2.623   2.961   8.842  1.5691 -3.3587  1.3992
 9015SOL     OW38677   1.651   4.199  16.610 -0.1137  0.2846  0.3312
 9015SOL    HW138678   1.735   4.209  16.566 -1.1244 -0.0557 -1.6751
 9015SOL    HW238679   1.597   4.252  16.551 -1.6463  1.2268  2.5358
 9016SOL     OW38680   3.600   1.855  14.122 -0.4224  0.0312  0.1580
 9016SOL    HW138681   3.588   1.931  14.065  1.6961 -0.8680 -1.4910
 9016SOL    HW238682   3.579   1.878  14.213 -0.7146  0.6968 -0.0835
 9017SOL     OW38683   2.571   3.178   4.811  0.3413 -0.2748  0.5995
 9017SOL    HW138684   2.644   3.152   4.755  0.5652  0.3604  0.5919
 9017SOL    HW238685   2.579   3.105   4.873  0.3194 -0.2366  0.6476
 9018SOL     OW38686   0.118   1.996   0.896 -0.1652  0.2017 -0.0133
 9018SOL    HW138687   0.098   2.082   0.861  1.2868  0.3039 -0.6123
 9018SOL    HW238688   0.179   1.961   0.831  2.2121  1.5928  1.4786
 9019SOL     OW38689   2.934   2.835  16.101  0.0855 -0.1994  0.6603
 9019SOL    HW138690   2.955   2.790  16.019  2.3665  0.6970  0.7349
 9019SOL    HW238691   2.845   2.802  16.111 -0.4402  0.9282 -0.3726
 9020SOL     OW38692   3.232   1.935   2.414  0.4357 -0.5032 -0.4222
 9020SOL    HW138693   3.161   1.998   2.428  0.6920 -0.0754 -1.0380
 9020SOL    HW238694   3.193   1.872   2.353 -1.4949 -1.0681  1.4269
 9021SOL     OW38695   0.379   3.937   0.301  0.5863  0.7740  0.0175
 9021SOL    HW138696   0.312   3.981   0.249  0.3391 -0.6275 -0.8321
 9021SOL    HW238697   0.342   3.946   0.390  0.3678 -0.0904  0.0092
 9022SOL     OW38698   2.180   3.783   0.219 -0.5127  0.7796 -1.0255
 9022SOL    HW138699   2.245   3.755   0.154 -0.2555  0.2871 -0.5606
 9022SOL    HW238700   2.239   3.817   0.286 -1.0336  1.8021 -1.0928
 9023SOL     OW38701   1.019   3.626   1.848  0.1971  0.2206  0.0806
 9023SOL    HW138702   1.103   3.669   1.829  0.2150  0.1188 -0.0752
 9023SOL    HW238703   0.979   3.638   1.762  0.9476  3.1624  0.1369
 9024SOL     OW38704   0.202   1.626   2.836 -0.3642  0.2227 -0.6987
 9024SOL    HW138705   0.207   1.721   2.838  1.4084  0.0870  1.5047
 9024SOL    HW238706   0.219   1.618   2.930 -1.5079  1.0001 -0.4288
 9025SOL     OW38707   3.631   0.497  15.452  0.1416  0.1750  0.0428
 9025SOL    HW138708   3.682   0.570  15.417  1.7218 -0.7241  0.4519
 9025SOL    HW238709   3.623   0.532  15.540  1.1731 -1.7334  0.8815
 9026SOL     OW38710   1.592   3.994   2.274  0.4642  0.5346  0.0101
 9026SOL    HW138711   1.557   4.078   2.245 -1.3430 -0.4255 -0.6219
 9026SOL    HW238712   1.633   3.963   2.193 -1.2422  1.1287 -1.0638
 9027SOL     OW38713   2.861   0.021  14.086  0.0640  0.1043  0.0288
 9027SOL    HW138714   2.812   4.729  14.162 -0.4093 -2.6638 -1.3357
 9027SOL    HW238715   2.909   0.087  14.136 -2.1497  0.5376  1.5662
 9028SOL     OW38716   3.948   3.918   8.165  0.3865  0.1006  0.5842
 9028SOL    HW138717   3.855   3.899   8.179  0.2324  0.7962  0.5497
 9028SOL    HW238718   3.969   3.928   8.258 -2.9773 -2.6834  1.6244
 9029SOL     OW38719   2.333   1.683   5.587  0.3232  0.7528 -0.7311
 9029SOL    HW138720   2.255   1.689   5.531  1.6157  1.3815 -2.4567
 9029SOL    HW238721   2.292   1.687   5.673 -0.0935  1.2374 -0.9523
 9030SOL     OW38722   3.679   0.159  11.665 -0.6075  0.0172 -0.1244
 9030SOL    HW138723   3.626   0.138  11.588  0.1449  0.0212 -0.6350
 9030SOL    HW238724   3.752   0.203  11.622  0.0614 -0.0723  0.9300
 9031SOL     OW38725   1.414   4.181   3.734 -0.1400  0.0405 -0.1607
 9031SOL    HW138726   1.498   4.139   3.751 -0.6485 -1.7882 -2.1485
 9031SOL    HW238727   1.389   4.211   3.821  1.5721  1.4645 -0.1823
 9032SOL     OW38728   2.784   3.280  13.522 -0.2874 -0.0124 -0.3146
 9032SOL    HW138729   2.689   3.277  13.510 -0.4008  2.3121 -0.0681
 9032SOL    HW238730   2.784   3.221  13.597  1.3701 -1.9371 -1.8415
 9033SOL     OW38731   2.561   4.468   8.259  0.5611  0.0715 -0.2337
 9033SOL    HW138732   2.503   4.541   8.236  0.2916 -0.7549 -2.1680
 9033SOL    HW238733   2.579   4.439   8.169 -2.4741 -0.7192 -0.6021
 9034SOL     OW38734   2.648   0.994  15.296 -0.0493 -0.4106  0.3797
 9034SOL    HW138735   2.696   1.072  15.269 -1.0791  0.0753 -0.0202
 9034SOL    HW238736   2.559   1.022  15.277  0.2656 -0.5845 -1.3648
 9035SOL     OW38737   2.210   0.710   1.141 -0.0570  0.2655  0.2589
 9035SOL    HW138738   2.277   0.704   1.073  0.0345  1.1445  0.2750
 9035SOL    HW238739   2.236   0.790   1.186 -2.1011  1.5876 -0.8732
 9036SOL     OW38740   4.625   4.523  16.100  0.1029 -0.0768 -0.3807
 9036SOL    HW138741   4.695   4.527  16.035 -0.4517  2.3627 -0.8124
 9036SOL    HW238742   4.608   4.613  16.125 -0.5598 -0.3596  0.2148
 9037SOL     OW38743   3.945   0.146  12.030  0.2333  0.2277 -0.0259
 9037SOL    HW138744   3.927   0.102  11.947 -1.9193 -1.5076  1.3722
 9037SOL    HW238745   3.895   0.090  12.088  0.8500 -1.4331 -1.0934
 9038SOL     OW38746   1.556   2.331   7.813 -0.1064  0.6960 -0.0474
 9038SOL    HW138747   1.567   2.390   7.887 -0.5751  0.1802  0.4313
 9038SOL    HW238748   1.462   2.315   7.810  0.3065 -1.8372  0.1263
 9039SOL     OW38749   3.731   0.338  12.868 -0.0433 -0.0196  0.3351
 9039SOL    HW138750   3.780   0.316  12.789  2.4939  0.0241  1.8822
 9039SOL    HW238751   3.648   0.358  12.826 -1.1902 -2.3110  1.5052
 9040SOL     OW38752   1.337   2.958  15.431 -0.0073 -0.5956  0.7400
 9040SOL    HW138753   1.347   2.866  15.411  3.4332 -0.0544  0.0287
 9040SOL    HW238754   1.400   2.974  15.502 -1.3803  1.6819  1.4778
 9041SOL     OW38755   2.164   2.380   8.568  0.0884  0.7257  0.0056
 9041SOL    HW138756   2.258   2.390   8.576 -0.3790  2.6975  3.2479
 9041SOL    HW238757   2.152   2.287   8.592  0.1820  0.6485 -0.2537
 9042SOL     OW38758   4.206   1.708   5.141  0.1702 -0.5693  0.2368
 9042SOL    HW138759   4.225   1.632   5.195 -0.3192  0.1325  1.4046
 9042SOL    HW238760   4.295   1.729   5.113 -0.9823  2.6237 -1.0407
 9043SOL     OW38761   0.567   0.115   7.219 -0.5206 -0.2251 -0.0876
 9043SOL    HW138762   0.556   0.207   7.194 -1.2501 -0.2872  0.0133
 9043SOL    HW238763   0.550   0.118   7.313 -0.0166 -3.8254  0.1480
 9044SOL     OW38764   4.096   4.053   4.940  0.0208  0.1198 -0.4400
 9044SOL    HW138765   4.008   4.050   4.902  0.6943 -0.2018 -1.9835
 9044SOL    HW238766   4.114   4.146   4.945  2.0704 -0.1678 -2.0215
 9045SOL     OW38767   3.466   0.166   7.317 -0.1581 -0.1127 -0.0072
 9045SOL    HW138768   3.546   0.169   7.371 -1.2810 -0.4636  1.6765
 9045SOL    HW238769   3.507   0.138   7.235 -1.6878 -1.6128 -0.2542
 9046SOL     OW38770   1.495   3.181  15.334  0.1132 -0.2272  0.1544
 9046SOL    HW138771   1.482   3.247  15.402 -1.5800  0.3727 -0.7559
 9046SOL    HW238772   1.452   3.106  15.375  0.1930 -0.5430 -0.3403
 9047SOL     OW38773   4.133   0.347   2.084 -0.2565  0.0863  0.0713
 9047SOL    HW138774   4.119   0.255   2.108  1.5367  0.4816  2.6629
 9047SOL    HW238775   4.188   0.331   2.008 -0.8864 -0.3630 -0.2901
 9048SOL     OW38776   1.641   1.380   5.697  0.4644 -0.4061 -0.1592
 9048SOL    HW138777   1.645   1.412   5.787  1.6725  1.5724 -0.9132
 9048SOL    HW238778   1.592   1.298   5.691  0.2471 -0.2886  0.0317
 9049SOL     OW38779   3.401   0.491   6.471 -0.5457 -0.4224 -0.0908
 9049SOL    HW138780   3.464   0.448   6.414  0.2585  1.2812 -0.4985
 9049SOL    HW238781   3.461   0.519   6.540 -0.0220 -0.4410 -0.5436
 9050SOL     OW38782   1.576   2.098   8.520  0.1603  0.5073 -0.1088
 9050SOL    HW138783   1.634   2.173   8.506 -0.6709  1.1915  0.1085
 9050SOL    HW238784   1.523   2.120   8.596  0.7216 -1.3663  0.8200
 9051SOL     OW38785   4.039   2.387  13.642  0.0620 -1.0531  0.3610
 9051SOL    HW138786   4.125   2.427  13.652 -0.5040  0.1892  0.2606
 9051SOL    HW238787   4.001   2.457  13.588 -0.1085 -1.5475 -0.1636
 9052SOL     OW38788   0.147   1.821   6.535  0.0236 -0.1280  0.2171
 9052SOL    HW138789   0.194   1.798   6.616  0.3569  1.3255  0.4313
 9052SOL    HW238790   0.070   1.765   6.529 -0.6753  1.1171 -2.1494
 9053SOL     OW38791   0.457   3.100  13.931  0.5061  0.2578 -0.0588
 9053SOL    HW138792   0.398   3.047  13.984  0.5882  0.1338 -0.0903
 9053SOL    HW238793   0.441   3.062  13.845  0.2935  1.1591 -0.4148
 9054SOL     OW38794   3.833   0.029   9.266  0.0529 -0.1869 -0.0887
 9054SOL    HW138795   3.821   4.672   9.258 -0.2224 -0.4254  2.9209
 9054SOL    HW238796   3.743   0.058   9.254  0.5337  1.2059 -0.3899
 9055SOL     OW38797   4.646   4.107   4.400  0.2008  0.0508  0.1088
 9055SOL    HW138798   4.613   4.117   4.311  1.4325  3.0423  0.0155
 9055SOL    HW238799   4.570   4.066   4.443  0.3224  0.8330  1.0869
 9056SOL     OW38800   4.503   1.399   9.172 -0.1053 -0.2062  0.0659
 9056SOL    HW138801   4.526   1.453   9.096  1.1772 -2.1494 -0.9540
 9056SOL    HW238802   4.415   1.368   9.150 -0.5462  1.9938 -1.2681
 9057SOL     OW38803   2.668   2.624  12.801  0.3039 -0.1492 -0.3203
 9057SOL    HW138804   2.629   2.676  12.872  1.1153  0.7143 -0.5038
 9057SOL    HW238805   2.739   2.683  12.774 -1.2634  2.1904  0.6272
 9058SOL     OW38806   3.789   0.424   7.353  0.1478 -0.1868  0.3610
 9058SOL    HW138807   3.769   0.516   7.371  1.9334  0.1210  0.7294
 9058SOL    HW238808   3.805   0.398   7.444  0.6013  0.2211  0.3978
 9059SOL     OW38809   1.688   1.683  12.120  0.0358  0.2511  0.0748
 9059SOL    HW138810   1.715   1.773  12.137 -0.3942  0.1322  1.3845
 9059SOL    HW238811   1.769   1.634  12.133 -0.7122 -1.2541 -0.9051
 9060SOL     OW38812   2.109   2.370   4.776  0.2483 -0.3049  0.0448
 9060SOL    HW138813   2.024   2.415   4.772  0.3051 -0.1927  0.1007
 9060SOL    HW238814   2.158   2.415   4.845  2.6626  0.2845 -2.0475
 9061SOL     OW38815   2.421   1.113   7.078  0.5543  0.4338  0.4728
 9061SOL    HW138816   2.480   1.083   7.008  0.1159 -1.4939  0.9375
 9061SOL    HW238817   2.366   1.041   7.108 -0.2448  0.6903 -0.3734
 9062SOL     OW38818   1.817   4.361   9.889 -0.0056 -0.2672  0.0401
 9062SOL    HW138819   1.880   4.431   9.907 -1.0063  0.9407 -1.1328
 9062SOL    HW238820   1.869   4.283   9.904 -1.5452 -1.8345 -2.7765
 9063SOL     OW38821   2.247   2.483   6.091 -0.1389 -0.1835  0.5380
 9063SOL    HW138822   2.190   2.507   6.163 -1.1402 -0.0260 -0.3025
 9063SOL    HW238823   2.295   2.565   6.099  0.9994 -0.6963 -0.8293
 9064SOL     OW38824   2.734   0.216   7.396 -0.7793 -0.6631 -0.2046
 9064SOL    HW138825   2.827   0.191   7.396 -0.0650  2.0971 -1.2550
 9064SOL    HW238826   2.719   0.289   7.337 -0.1738 -0.8492 -0.5866
 9065SOL     OW38827   2.101   0.342  15.194  0.2839 -0.2613  0.2405
 9065SOL    HW138828   2.187   0.352  15.234 -0.5033  0.9177  1.6624
 9065SOL    HW238829   2.112   0.378  15.106 -1.5355  1.4420  0.7108
 9066SOL     OW38830   3.110   2.427  14.109  0.3090 -0.1644 -0.3262
 9066SOL    HW138831   3.115   2.522  14.120 -0.5173 -0.2776  1.1238
 9066SOL    HW238832   3.040   2.417  14.044 -0.9161  0.5038  0.8819
 9067SOL     OW38833   4.251   2.339  16.215 -0.0291  0.1410  0.1405
 9067SOL    HW138834   4.202   2.419  16.235  3.3963  2.0141  1.0813
 9067SOL    HW238835   4.279   2.312  16.302  0.1999  0.8093  0.2702
 9068SOL     OW38836   3.659   4.533  13.260 -0.2246 -0.2672 -0.3081
 9068SOL    HW138837   3.679   4.550  13.168  0.7505  1.0164  0.1302
 9068SOL    HW238838   3.724   4.576  13.316  0.7421  0.1327 -1.7478
 9069SOL     OW38839   3.743   4.068   8.796 -0.4771  0.0198 -0.3710
 9069SOL    HW138840   3.786   4.116   8.725 -1.1383 -0.4157 -1.0676
 9069SOL    HW238841   3.805   3.998   8.812  1.1869  0.7340 -3.6282
 9070SOL     OW38842   2.569   0.268   4.527 -0.0368 -0.7334  0.2320
 9070SOL    HW138843   2.499   0.334   4.525  2.0885  1.5551  1.3350
 9070SOL    HW238844   2.565   0.253   4.621  0.3785 -0.4265  0.2958
 9071SOL     OW38845   1.872   2.655   9.181 -0.2369 -0.4556 -0.4158
 9071SOL    HW138846   1.814   2.640   9.256 -1.4280  1.5923 -0.9229
 9071SOL    HW238847   1.810   2.700   9.123 -0.3196  0.0992  0.1086
 9072SOL     OW38848   2.769   0.427   8.114  0.1922 -0.0951  0.5276
 9072SOL    HW138849   2.741   0.415   8.023 -2.4441  0.5654  1.2543
 9072SOL    HW238850   2.734   0.515   8.128  2.1466  1.1190 -2.0748
 9073SOL     OW38851   0.795   4.291   5.702 -0.1153  0.1041 -0.2799
 9073SOL    HW138852   0.803   4.381   5.731  0.7070 -0.2587  0.6412
 9073SOL    HW238853   0.725   4.296   5.638  1.2348  1.1399 -1.6750
 9074SOL     OW38854   2.472   4.323   5.756  0.0904 -0.2662  0.2586
 9074SOL    HW138855   2.500   4.266   5.827  1.3181 -2.0103 -1.6144
 9074SOL    HW238856   2.425   4.391   5.804  0.8061 -0.0613  0.6753
 9075SOL     OW38857   4.515   4.190   9.037 -1.0138 -0.1659 -0.1862
 9075SOL    HW138858   4.449   4.258   9.046 -0.0885  0.9301 -1.7612
 9075SOL    HW238859   4.543   4.208   8.947 -1.0237 -0.7647 -0.3084
 9076SOL     OW38860   3.760   2.347   0.400  0.0988 -0.0824 -0.3942
 9076SOL    HW138861   3.824   2.398   0.451 -0.1863 -0.2668  0.1461
 9076SOL    HW238862   3.680   2.394   0.421 -0.2612 -1.1328  0.5384
 9077SOL     OW38863   0.618   2.614   3.062 -0.2086 -0.4983 -0.3110
 9077SOL    HW138864   0.622   2.546   3.129  0.7651  0.9051  1.0405
 9077SOL    HW238865   0.536   2.661   3.075 -1.5003 -2.4811 -1.2768
 9078SOL     OW38866   1.793   0.594   1.397  0.3350  0.3561 -0.1157
 9078SOL    HW138867   1.769   0.573   1.487  2.8397  0.7302  0.6419
 9078SOL    HW238868   1.861   0.661   1.404  2.6327 -2.0309  0.0062
 9079SOL     OW38869   4.125   3.585  16.506  0.3514 -0.1993  0.2660
 9079SOL    HW138870   4.125   3.504  16.454 -0.5092  0.0168 -0.0652
 9079SOL    HW238871   4.158   3.650  16.445 -0.5606  1.0107  1.0570
 9080SOL     OW38872   3.237   3.672   3.103 -0.1519  0.3747  0.2041
 9080SOL    HW138873   3.256   3.751   3.052  1.9546  0.1688  0.6461
 9080SOL    HW238874   3.311   3.615   3.082 -0.5994 -0.7268  1.6544
 9081SOL     OW38875   0.221   2.962   6.833  0.1385  0.2436 -0.2261
 9081SOL    HW138876   0.293   2.924   6.783 -0.1586 -3.6628  2.3447
 9081SOL    HW238877   0.224   2.916   6.917  1.0041  1.4104  0.3749
 9082SOL     OW38878   2.929   4.512   2.803 -0.3531  0.2921 -0.2842
 9082SOL    HW138879   2.891   4.433   2.764 -1.5951  1.6849 -1.8735
 9082SOL    HW238880   2.974   4.538   2.723  0.0436 -0.8947 -0.4432
 9083SOL     OW38881   1.642   4.580  17.530 -0.0653 -0.1491 -0.3956
 9083SOL    HW138882   1.620   4.636  17.455 -0.2909  3.8637  2.6235
 9083SOL    HW238883   1.651   4.643  17.602  1.4428  0.8537 -1.4666
 9084SOL     OW38884   2.468   3.194   1.905  0.4635  0.2699 -0.6445
 9084SOL    HW138885   2.423   3.111   1.887 -0.1121  0.1885  1.1898
 9084SOL    HW238886   2.393   3.253   1.908  1.2597  1.1160  2.0897
 9085SOL     OW38887   0.686   3.302  17.212 -0.2707  0.1352  0.4995
 9085SOL    HW138888   0.626   3.261  17.150  0.8374  1.3615 -1.3912
 9085SOL    HW238889   0.659   3.391  17.235  1.1686  0.8141 -0.4213
 9086SOL     OW38890   1.444   4.119   9.587  0.0755 -0.2451  0.0332
 9086SOL    HW138891   1.526   4.112   9.636 -1.2914  2.8812  2.7868
 9086SOL    HW238892   1.434   4.214   9.599  2.6137 -0.0304  0.4300
 9087SOL     OW38893   3.188   0.502   6.633  0.1201  0.2440  0.7350
 9087SOL    HW138894   3.263   0.493   6.574 -1.8662 -1.0548 -1.5669
 9087SOL    HW238895   3.125   0.445   6.589  0.8125  0.1237 -0.1024
 9088SOL     OW38896   4.041   4.613   5.408  0.2704 -0.5214  0.2000
 9088SOL    HW138897   4.088   4.641   5.486  0.1101 -0.5659  0.3125
 9088SOL    HW238898   3.952   4.615   5.443  0.6944  1.2267  1.1234
 9089SOL     OW38899   4.152   0.120   8.259  0.7035 -0.1916 -0.0494
 9089SOL    HW138900   4.229   0.142   8.206  0.4454  0.0328 -0.3333
 9089SOL    HW238901   4.177   0.156   8.345 -1.8470 -0.6828  0.8916
 9090SOL     OW38902   4.638   4.309   6.567  0.0498  0.3065 -0.1107
 9090SOL    HW138903   4.716   4.270   6.528  1.5825  0.0779  3.2407
 9090SOL    HW238904   4.591   4.355   6.497  0.2061  1.0260  0.2596
 9091SOL     OW38905   1.044   0.776   0.355  0.7365  0.1218 -0.4280
 9091SOL    HW138906   1.109   0.847   0.352 -0.8139  1.4738 -2.1643
 9091SOL    HW238907   1.074   0.726   0.431 -1.2260  0.6640  0.6980
 9092SOL     OW38908   1.931   1.845  10.425 -0.4166  0.8690 -0.4096
 9092SOL    HW138909   1.959   1.755  10.413  2.1986  1.7036 -0.7242
 9092SOL    HW238910   1.852   1.840  10.372  1.0383  1.6723 -2.6611
 9093SOL     OW38911   0.641   1.456   3.803  0.0155 -0.7813  0.5591
 9093SOL    HW138912   0.549   1.472   3.824  0.3247 -0.9171  2.0467
 9093SOL    HW238913   0.669   1.547   3.790  1.1945 -0.8743  2.4177
 9094SOL     OW38914   2.278   0.062   3.949  0.0179  0.4352 -0.2080
 9094SOL    HW138915   2.314   0.127   3.889  0.0029  0.3872 -0.2693
 9094SOL    HW238916   2.190   0.097   3.959 -0.1659  0.5650 -2.3882
 9095SOL     OW38917   1.130   4.679   5.377  0.6947 -0.6207  0.5018
 9095SOL    HW138918   1.141   4.585   5.367  0.3357 -0.5976 -0.0959
 9095SOL    HW238919   1.038   4.684   5.403  1.2397  2.1162  1.9631
 9096SOL     OW38920   0.294   4.095  17.382  0.3297 -0.4417  0.0319
 9096SOL    HW138921   0.345   4.076  17.304 -0.4608  2.8859 -1.2868
 9096SOL    HW238922   0.364   4.080  17.445 -1.1021  1.9048  2.1918
 9097SOL     OW38923   1.480   3.518  11.910 -0.3897  0.4507 -0.4581
 9097SOL    HW138924   1.481   3.422  11.915  0.2688  0.4047 -1.6208
 9097SOL    HW238925   1.427   3.531  11.989  0.2590 -2.0502  0.3946
 9098SOL     OW38926   4.218   0.128  12.077 -0.3247 -0.1261 -0.0494
 9098SOL    HW138927   4.130   0.123  12.039  0.7033 -3.0965 -2.0360
 9098SOL    HW238928   4.243   0.205  12.026  0.4723 -0.9523 -0.9147
 9099SOL     OW38929   1.537   1.353   6.175 -0.4640 -0.3186  0.2887
 9099SOL    HW138930   1.607   1.305   6.218  0.6370  0.5327 -0.5614
 9099SOL    HW238931   1.467   1.294   6.205 -1.1874  0.2694 -0.2556
 9100SOL     OW38932   1.190   2.052   2.584 -0.0567  0.3739 -0.4884
 9100SOL    HW138933   1.157   1.990   2.648  0.1115  0.5600 -0.2223
 9100SOL    HW238934   1.265   2.001   2.553 -1.5864 -0.0283 -3.5118
 9101SOL     OW38935   1.045   0.778  12.403  0.3087 -0.1551 -0.4385
 9101SOL    HW138936   1.028   0.825  12.321  0.6034 -0.4228 -0.6508
 9101SOL    HW238937   1.033   0.852  12.463  2.6720  1.0168 -1.4023
 9102SOL     OW38938   0.415   3.946  11.260 -0.0319  0.2410 -0.4307
 9102SOL    HW138939   0.363   4.006  11.207  0.3269  0.4647 -0.5256
 9102SOL    HW238940   0.476   3.916  11.192  2.1893  1.0258  1.2231
 9103SOL     OW38941   2.308   4.551   5.077 -0.4466 -0.1378 -0.1821
 9103SOL    HW138942   2.351   4.580   4.997  0.9572  0.9137  0.9717
 9103SOL    HW238943   2.240   4.618   5.072 -2.1311 -1.6839  2.1823
 9104SOL     OW38944   0.373   2.396   4.629 -0.2976 -0.3147  0.6745
 9104SOL    HW138945   0.457   2.353   4.614  0.6596  1.8898 -0.3072
 9104SOL    HW238946   0.405   2.482   4.600 -2.4755 -0.0219 -0.8675
 9105SOL     OW38947   2.460   1.363  12.073  0.2369  0.1188 -0.1374
 9105SOL    HW138948   2.502   1.278  12.083 -1.0495 -0.5923 -0.8504
 9105SOL    HW238949   2.381   1.346  12.123  0.2029  0.5092 -0.0523
 9106SOL     OW38950   1.737   3.445   7.950  0.6543 -0.2019 -0.1915
 9106SOL    HW138951   1.686   3.409   7.878 -0.3658 -0.2646  0.5570
 9106SOL    HW238952   1.744   3.376   8.016  0.3464  0.6449  0.7462
 9107SOL     OW38953   2.976   4.028   5.934  0.5220  0.3977  0.1934
 9107SOL    HW138954   3.071   4.023   5.921  0.6516 -1.4001  1.8145
 9107SOL    HW238955   2.957   4.116   5.900 -4.0099  0.1473  2.0663
 9108SOL     OW38956   3.993   1.411   5.892  0.0408  0.8151  0.5400
 9108SOL    HW138957   3.909   1.455   5.902  0.0068  0.3755  2.1182
 9108SOL    HW238958   4.027   1.456   5.814 -0.9014  0.4936 -0.0584
 9109SOL     OW38959   3.209   3.788   7.728 -1.1451 -0.7355  0.1449
 9109SOL    HW138960   3.298   3.768   7.755 -1.2302  1.1876  1.8789
 9109SOL    HW238961   3.216   3.839   7.647 -1.2373 -0.7103  0.1523
 9110SOL     OW38962   1.546   3.722   9.730  0.0079  0.3395 -0.0312
 9110SOL    HW138963   1.574   3.679   9.811 -0.5524 -2.1207 -1.1352
 9110SOL    HW238964   1.619   3.783   9.723 -1.2321  1.8566  0.2661
 9111SOL     OW38965   2.962   0.972   5.603  0.0922 -0.4483  0.1083
 9111SOL    HW138966   3.013   1.049   5.630 -3.4683  1.4500  1.4739
 9111SOL    HW238967   2.929   1.002   5.518  0.2895  0.3580  0.3169
 9112SOL     OW38968   0.206   0.956   0.612 -0.2155  0.1728  0.2079
 9112SOL    HW138969   0.139   0.907   0.564 -0.1022  0.9894 -0.7915
 9112SOL    HW238970   0.264   0.994   0.546  0.9444 -2.0296 -0.0365
 9113SOL     OW38971   2.927   1.588   8.965  0.1130  0.2204  0.3408
 9113SOL    HW138972   2.848   1.641   8.961  0.7259  1.2139  1.4506
 9113SOL    HW238973   2.913   1.539   9.046 -0.4624  0.2246  0.2419
 9114SOL     OW38974   2.513   2.675   4.711 -0.3540 -0.0434  0.8684
 9114SOL    HW138975   2.441   2.624   4.675  0.6863 -1.0923  0.2871
 9114SOL    HW238976   2.525   2.736   4.638 -0.2837 -2.3348 -1.0085
 9115SOL     OW38977   1.763   2.172   9.466 -0.5764 -0.0984  0.5366
 9115SOL    HW138978   1.744   2.078   9.470 -0.2335 -0.1687  0.4743
 9115SOL    HW238979   1.830   2.173   9.534 -2.0542  2.4803  1.9585
 9116SOL     OW38980   1.371   4.588   6.632  0.7749 -0.1407  0.1420
 9116SOL    HW138981   1.291   4.574   6.682  0.0834  1.6427 -0.4667
 9116SOL    HW238982   1.352   4.660   6.572 -0.6447 -0.3287  0.3598
 9117SOL     OW38983   2.696   1.980   3.824 -0.2497 -0.4212  0.2305
 9117SOL    HW138984   2.626   1.936   3.872 -0.8221 -1.1879 -1.3027
 9117SOL    HW238985   2.714   1.919   3.752 -1.5604 -1.2622  0.6209
 9118SOL     OW38986   3.064   2.154  16.921  0.4986 -0.2895  0.2072
 9118SOL    HW138987   3.064   2.112  16.835 -0.4931 -0.6195  0.3658
 9118SOL    HW238988   3.066   2.243  16.887  2.2630  0.1724  1.5466
 9119SOL     OW38989   2.127   4.557   7.166  0.4281 -0.3134 -0.0243
 9119SOL    HW138990   2.165   4.621   7.106  1.1429  0.6797  1.4888
 9119SOL    HW238991   2.129   4.620   7.238 -2.1541 -0.1812 -0.0858
 9120SOL     OW38992   0.008   0.554   8.510  0.6278  0.5531  0.6535
 9120SOL    HW138993   4.737   0.568   8.415 -2.7513  2.4135  1.2325
 9120SOL    HW238994   0.101   0.561   8.534  1.0133 -2.7844  0.0576
 9121SOL     OW38995   4.135   0.212   7.679 -0.3154  0.3015  0.2362
 9121SOL    HW138996   4.170   0.177   7.597  0.2196 -2.1764  1.5047
 9121SOL    HW238997   4.096   0.293   7.647  0.2780 -0.0056 -1.2362
 9122SOL     OW38998   2.777   1.453  15.092 -0.1549  0.0662 -0.2967
 9122SOL    HW138999   2.765   1.358  15.089 -0.8965  0.1830 -1.1671
 9122SOL    HW239000   2.729   1.471  15.011 -0.3557  2.2304  0.2844
 9123SOL     OW39001   2.987   0.170  14.907  0.0918  0.4269  0.0908
 9123SOL    HW139002   2.930   0.206  14.975  1.1827  2.8791 -0.2960
 9123SOL    HW239003   2.960   0.223  14.833 -1.8363  0.0110  0.4821
 9124SOL     OW39004   0.376   0.768   6.997 -0.3936  0.2768 -0.1538
 9124SOL    HW139005   0.425   0.724   6.928  1.6377  0.5754  1.0768
 9124SOL    HW239006   0.424   0.843   7.033  1.8535 -0.0236 -2.5543
 9125SOL     OW39007   3.150   0.701  11.936  0.1130  0.2550 -0.7563
 9125SOL    HW139008   3.182   0.717  11.847 -1.0442 -0.7913 -1.3456
 9125SOL    HW239009   3.213   0.632  11.959  0.1351  0.8583  0.9830
 9126SOL     OW39010   1.368   0.556  17.596  0.0642  0.5093 -0.3618
 9126SOL    HW139011   1.426   0.622  17.558 -0.9323  1.1780 -0.7415
 9126SOL    HW239012   1.413   0.539  17.679 -0.4109 -1.2867 -0.4728
 9127SOL     OW39013   0.751   1.923  14.308 -0.3433 -0.1481 -0.3358
 9127SOL    HW139014   0.662   1.956  14.290  0.0054  0.8564 -0.2364
 9127SOL    HW239015   0.733   1.829  14.304  0.9021 -0.5545  3.1224
 9128SOL     OW39016   1.484   1.049  15.707  0.5075 -0.0060  0.3572
 9128SOL    HW139017   1.490   0.968  15.656 -0.9702  1.2715 -1.8353
 9128SOL    HW239018   1.434   1.102  15.646  1.6972 -0.2925 -0.8564
 9129SOL     OW39019   2.115   2.251   3.592 -0.1676  0.5013  0.6618
 9129SOL    HW139020   2.106   2.173   3.537  0.8237  0.0548  1.1260
 9129SOL    HW239021   2.191   2.230   3.646  0.0514  0.9809  0.5426
 9130SOL     OW39022   2.169   0.745   4.908 -0.3504  0.5754  0.3363
 9130SOL    HW139023   2.155   0.651   4.917  2.2122  0.4088  2.6935
 9130SOL    HW239024   2.189   0.765   5.000 -0.1708 -2.0609  0.8753
 9131SOL     OW39025   4.081   1.973   6.374  0.5584  0.5745 -0.0079
 9131SOL    HW139026   4.095   2.002   6.464 -1.0515 -1.1793  0.7967
 9131SOL    HW239027   4.045   1.886   6.392  1.8042  0.0264 -0.1514
 9132SOL     OW39028   0.913   0.131   3.329  0.2373 -0.2184 -0.1144
 9132SOL    HW139029   0.885   0.191   3.260  1.8248 -0.4664 -0.9765
 9132SOL    HW239030   0.897   0.052   3.277  2.2313  1.5103 -3.3448
 9133SOL     OW39031   1.811   1.989   2.623 -0.4529 -0.0397  0.1279
 9133SOL    HW139032   1.884   1.986   2.561 -1.0877  2.3206 -0.7046
 9133SOL    HW239033   1.769   2.075   2.619 -0.6064 -0.1449 -0.4363
 9134SOL     OW39034   2.133   4.477   3.798 -0.2597 -0.0154 -0.0388
 9134SOL    HW139035   2.153   4.384   3.799 -1.9582 -0.3654 -0.3196
 9134SOL    HW239036   2.222   4.506   3.822 -0.7623  0.6389  1.0372
 9135SOL     OW39037   3.096   0.851   6.419  0.3297 -0.8075  0.4113
 9135SOL    HW139038   3.010   0.809   6.430  0.6582 -1.2724  1.1778
 9135SOL    HW239039   3.120   0.886   6.504 -0.7590 -0.2210  0.4706
 9136SOL     OW39040   2.785   2.355  11.887 -0.4862  0.5543  0.2235
 9136SOL    HW139041   2.846   2.425  11.910  1.2421 -0.5723 -0.9678
 9136SOL    HW239042   2.721   2.405  11.835 -1.4242 -0.3779  0.4912
 9137SOL     OW39043   0.942   0.216   1.781 -0.4472  0.4699 -0.0565
 9137SOL    HW139044   0.917   0.163   1.705 -0.1772  0.7989 -0.3720
 9137SOL    HW239045   0.871   0.200   1.843 -1.8246  0.8902 -1.5474
 9138SOL     OW39046   4.183   1.849   5.602 -0.4915  0.8632  0.3380
 9138SOL    HW139047   4.265   1.822   5.560 -1.4298  0.6751 -1.3825
 9138SOL    HW239048   4.144   1.889   5.524 -0.3515 -2.4371 -1.4204
 9139SOL     OW39049   1.676   0.337   6.052 -0.3603  0.0277  0.2074
 9139SOL    HW139050   1.592   0.356   6.093  0.5700  1.9527  1.2499
 9139SOL    HW239051   1.653   0.253   6.012 -0.4805  0.4527 -0.6218
 9140SOL     OW39052   2.716   4.645   6.907 -0.0659  0.2487  0.0898
 9140SOL    HW139053   2.657   4.639   6.832  0.1433 -3.1942  0.2074
 9140SOL    HW239054   2.752   4.558   6.894 -0.6720  0.1941 -1.2388
 9141SOL     OW39055   2.171   1.725   4.206  0.0768  0.1803 -0.4322
 9141SOL    HW139056   2.257   1.754   4.238  0.7479 -1.2631 -0.9103
 9141SOL    HW239057   2.121   1.730   4.287  0.0219 -2.0692 -0.3132
 9142SOL     OW39058   3.100   3.555   1.816 -0.3739 -0.1554  1.2411
 9142SOL    HW139059   3.042   3.604   1.874  1.1816  4.6514 -1.2459
 9142SOL    HW239060   3.038   3.491   1.780 -1.8998  2.2693 -0.4460
 9143SOL     OW39061   4.653   0.567   8.223  0.1576  0.4762  0.0517
 9143SOL    HW139062   0.007   0.550   8.202  0.9002  3.8161  0.5259
 9143SOL    HW239063   4.612   0.570   8.136  0.0510 -0.2164  0.0790
 9144SOL     OW39064   3.506   3.785   5.571 -0.3135  0.1306 -0.2235
 9144SOL    HW139065   3.542   3.724   5.506 -0.8135 -0.3681 -0.0320
 9144SOL    HW239066   3.583   3.838   5.592 -0.7346 -0.7734  3.4680
 9145SOL     OW39067   3.989   1.805   7.959  0.0046  0.0350  0.1363
 9145SOL    HW139068   4.070   1.855   7.953 -0.5059  1.0944  2.0112
 9145SOL    HW239069   4.030   1.719   7.967 -1.7730 -0.7145  1.4301
 9146SOL     OW39070   0.609   3.308   9.607  0.1665 -0.0048  0.0474
 9146SOL    HW139071   0.624   3.402   9.598  3.8641 -0.7051 -0.9729
 9146SOL    HW239072   0.576   3.303   9.697  1.2950  2.4794  0.6002
 9147SOL     OW39073   1.669   2.069   1.586  0.1129 -0.6458  0.0131
 9147SOL    HW139074   1.583   2.108   1.566 -0.0305 -0.0548  1.7482
 9147SOL    HW239075   1.724   2.143   1.611 -0.0541 -0.7409  0.6840
 9148SOL     OW39076   3.090   4.443   1.633 -0.6604 -0.3090  0.0454
 9148SOL    HW139077   3.134   4.527   1.625  0.3671 -0.8075  0.4667
 9148SOL    HW239078   2.997   4.465   1.642 -1.0571 -2.9088  2.5869
 9149SOL     OW39079   1.832   2.643   2.911 -0.0468 -0.2305  0.1716
 9149SOL    HW139080   1.915   2.681   2.880  1.3793 -1.4538  2.5745
 9149SOL    HW239081   1.817   2.721   2.964  1.4547  0.5252 -0.5094
 9150SOL     OW39082   1.479   2.385  10.091 -0.0432 -0.0271  0.1835
 9150SOL    HW139083   1.571   2.385  10.066 -0.1629 -1.6965 -0.2597
 9150SOL    HW239084   1.486   2.403  10.185 -1.8560  0.5528  0.2043
 9151SOL     OW39085   1.694   2.168   5.099 -0.3311  0.1937  0.1551
 9151SOL    HW139086   1.679   2.262   5.103 -0.8788  0.1103  0.0393
 9151SOL    HW239087   1.638   2.140   5.172  0.0511  0.6740  0.6361
 9152SOL     OW39088   2.685   1.526   9.818  0.1485  0.3035  0.0651
 9152SOL    HW139089   2.643   1.597   9.770 -0.6720 -1.1874 -1.4371
 9152SOL    HW239090   2.769   1.562   9.846  0.2894  0.2310 -0.2625
 9153SOL     OW39091   2.159   2.981   4.226 -0.0698 -0.8296 -0.2297
 9153SOL    HW139092   2.229   2.954   4.285 -0.2558  0.6260  0.6362
 9153SOL    HW239093   2.074   2.958   4.264 -0.5488  1.6983  0.2013
 9154SOL     OW39094   1.083   0.592   4.293 -0.3428  0.5581  0.2681
 9154SOL    HW139095   1.054   0.591   4.202 -2.0075 -1.1056  0.8173
 9154SOL    HW239096   1.046   0.679   4.308 -0.6631  0.2971  0.9875
 9155SOL     OW39097   0.878   2.394   8.064  0.4820 -0.3266 -0.1449
 9155SOL    HW139098   0.790   2.358   8.053  1.4444 -1.7350 -3.2544
 9155SOL    HW239099   0.869   2.474   8.013  0.0327 -0.8605 -0.9017
 9156SOL     OW39100   4.580   3.230   4.473  0.2005  0.1107 -0.1541
 9156SOL    HW139101   4.586   3.134   4.467  2.9992  0.2788  0.2611
 9156SOL    HW239102   4.490   3.235   4.507  0.0389 -0.0816 -0.5560
 9157SOL     OW39103   1.747   4.414   6.004  0.3869  0.5344  0.3001
 9157SOL    HW139104   1.736   4.402   5.910 -1.2257  1.9814  0.3023
 9157SOL    HW239105   1.833   4.373   6.015  1.3222  2.2056 -0.7671
 9158SOL     OW39106   3.798   1.574  15.025  0.2211  0.5939  0.1684
 9158SOL    HW139107   3.798   1.606  14.935 -0.6306  0.8672  0.2713
 9158SOL    HW239108   3.891   1.577  15.047  0.2554  0.6944  0.0067
 9159SOL     OW39109   1.567   2.622   2.686 -0.1096  0.0676 -0.6123
 9159SOL    HW139110   1.536   2.602   2.775  0.6406  0.5136 -0.2480
 9159SOL    HW239111   1.538   2.548   2.633 -0.9443 -0.7109  0.9039
 9160SOL     OW39112   2.732   3.187   5.864  0.0328 -0.2406  0.0373
 9160SOL    HW139113   2.772   3.102   5.845  1.5200  0.4911 -0.1628
 9160SOL    HW239114   2.680   3.202   5.785  0.6406 -1.5497 -0.6036
 9161SOL     OW39115   1.616   1.418   0.147  0.1496  1.2411 -0.6594
 9161SOL    HW139116   1.657   1.503   0.163  2.0496 -0.0554  1.2984
 9161SOL    HW239117   1.630   1.412   0.052 -0.9846  1.7240 -0.8569
 9162SOL     OW39118   1.074   0.081  15.573  0.1181 -0.1474  0.3351
 9162SOL    HW139119   1.014   0.154  15.588 -1.4283 -1.2675 -0.4194
 9162SOL    HW239120   1.037   0.001  15.609  2.3646 -1.8180 -1.0535
 9163SOL     OW39121   1.513   1.795   5.648 -0.4550 -0.1905  0.4246
 9163SOL    HW139122   1.515   1.884   5.682 -1.6520  0.6088 -1.6136
 9163SOL    HW239123   1.450   1.805   5.577  0.9020  1.2397 -0.5704
 9164SOL     OW39124   4.042   1.049   1.281  0.2410  0.2081  0.3868
 9164SOL    HW139125   4.099   0.976   1.306  0.5781  0.8590  1.5474
 9164SOL    HW239126   4.097   1.127   1.277  1.3408 -0.3899  3.0063
 9165SOL     OW39127   1.679   0.843   6.003 -0.0739  0.3922 -0.5126
 9165SOL    HW139128   1.611   0.907   6.024 -0.2783 -0.5148  1.5981
 9165SOL    HW239129   1.685   0.787   6.081  0.7194  2.7325  1.1177
 9166SOL     OW39130   4.362   2.787   3.655 -0.0733  0.5923 -0.2786
 9166SOL    HW139131   4.304   2.812   3.582 -0.3739 -0.2283 -0.3168
 9166SOL    HW239132   4.349   2.862   3.713 -3.1154 -1.1266  1.2595
 9167SOL     OW39133   4.475   3.657  12.019  0.0225 -0.0663  0.3912
 9167SOL    HW139134   4.549   3.623  11.969 -1.0022 -1.3148 -0.3009
 9167SOL    HW239135   4.461   3.603  12.097 -0.6695 -0.7997 -0.2339
 9168SOL     OW39136   0.458   0.473   6.089  0.6368  0.2092  0.0025
 9168SOL    HW139137   0.519   0.509   6.153 -0.3838  2.2385 -0.1556
 9168SOL    HW239138   0.509   0.434   6.018 -0.8390 -1.4775 -0.1554
 9169SOL     OW39139   0.105   2.767   5.824  0.1505  0.7002 -0.1013
 9169SOL    HW139140   0.131   2.711   5.897 -0.4845  2.1384  1.2328
 9169SOL    HW239141   0.010   2.752   5.828  0.6038 -2.2492  0.0110
 9170SOL     OW39142   2.245   1.268  17.464 -0.4485 -0.1329 -0.7757
 9170SOL    HW139143   2.244   1.227  17.551 -1.0591  0.0804 -0.6794
 9170SOL    HW239144   2.282   1.206  17.402  1.8454  0.4273  0.0277
 9171SOL     OW39145   0.669   2.420   1.069 -0.1015  0.0734  0.5020
 9171SOL    HW139146   0.611   2.403   1.143  1.6281 -1.6449  1.4321
 9171SOL    HW239147   0.745   2.372   1.102  1.9368  2.0895 -1.2730
 9172SOL     OW39148   2.295   0.859   7.913 -0.5795  0.9247 -0.3786
 9172SOL    HW139149   2.304   0.945   7.872  0.9271  0.9664  0.0420
 9172SOL    HW239150   2.369   0.821   7.865 -0.0398  1.1448  0.2823
 9173SOL     OW39151   3.412   3.524   4.563 -0.1257  0.0486 -0.3969
 9173SOL    HW139152   3.446   3.444   4.523 -3.5140 -0.5750 -1.9852
 9173SOL    HW239153   3.474   3.572   4.508  1.0585  1.1934  1.9015
 9174SOL     OW39154   4.252   3.065   3.056  0.0309  0.3498  0.7862
 9174SOL    HW139155   4.223   3.068   3.147 -0.1462  0.1062  0.7359
 9174SOL    HW239156   4.173   3.040   3.010  0.2747  2.5662 -0.8666
 9175SOL     OW39157   0.235   3.954   1.547 -0.1523 -0.1003  0.2513
 9175SOL    HW139158   0.256   4.046   1.533  2.1464 -0.5635  0.7963
 9175SOL    HW239159   0.212   3.921   1.460 -1.1195 -0.5451  0.6743
 9176SOL     OW39160   4.118   3.563   6.020 -0.7707 -0.2019  0.3661
 9176SOL    HW139161   4.028   3.587   6.043 -0.2604  1.5455  0.5883
 9176SOL    HW239162   4.111   3.538   5.928 -0.4431 -1.9320  0.8092
 9177SOL     OW39163   3.626   3.809   2.185  0.1975  0.0263 -0.5934
 9177SOL    HW139164   3.701   3.758   2.216 -0.6392 -0.0950  1.2322
 9177SOL    HW239165   3.663   3.821   2.098 -0.8460  1.3816 -0.8581
 9178SOL     OW39166   3.145   0.704   0.763 -0.3389  0.0793  0.0224
 9178SOL    HW139167   3.210   0.741   0.703 -0.8994  0.1808 -0.5101
 9178SOL    HW239168   3.145   0.782   0.819  0.0272  1.8399 -2.4651
 9179SOL     OW39169   2.466   2.849   7.711  0.3713 -0.1713 -0.0232
 9179SOL    HW139170   2.514   2.858   7.628  3.5470 -0.7982  1.7288
 9179SOL    HW239171   2.490   2.928   7.761 -2.1117 -0.4988  1.6579
 9180SOL     OW39172   1.612   0.711   9.584  0.2252  0.4968 -0.5540
 9180SOL    HW139173   1.591   0.636   9.640  1.9144  1.3793  1.2529
 9180SOL    HW239174   1.532   0.762   9.577  0.4879  1.2206  2.1140
 9181SOL     OW39175   3.780   0.285   6.941 -0.3543  0.5258  0.4020
 9181SOL    HW139176   3.751   0.362   6.893  1.2524 -0.3829 -2.0260
 9181SOL    HW239177   3.768   0.320   7.029 -3.2306 -0.3513  0.3499
 9182SOL     OW39178   0.658   4.232  16.384  0.2651 -0.3060 -0.0954
 9182SOL    HW139179   0.729   4.237  16.320 -1.1695  1.2093 -1.5679
 9182SOL    HW239180   0.673   4.301  16.448 -1.1944  2.1842 -2.4143
 9183SOL     OW39181   0.741   2.436   2.000 -0.3807  0.2383 -0.1106
 9183SOL    HW139182   0.775   2.500   2.062  0.2450  1.0615 -1.3196
 9183SOL    HW239183   0.785   2.353   2.023 -3.2221 -1.2683 -0.1242
 9184SOL     OW39184   1.685   3.405  17.460  0.7056  0.6300 -0.0541
 9184SOL    HW139185   1.636   3.486  17.477  1.0499  0.7195  0.5026
 9184SOL    HW239186   1.728   3.428  17.378  0.3758 -0.8892 -0.6540
 9185SOL     OW39187   1.921   0.323   1.315  0.0198  0.0817 -0.3585
 9185SOL    HW139188   1.924   0.387   1.244  2.1901  0.3903  0.0361
 9185SOL    HW239189   1.993   0.370   1.358  0.3141  0.0778 -0.8490
 9186SOL     OW39190   3.658   2.525   6.656 -0.0633  0.2993 -0.0224
 9186SOL    HW139191   3.718   2.481   6.597 -0.7020 -1.2247  0.4533
 9186SOL    HW239192   3.573   2.512   6.614  0.3048 -1.4700 -0.2014
 9187SOL     OW39193   3.244   1.720  10.423  0.1017 -0.2739  0.2409
 9187SOL    HW139194   3.246   1.776  10.501 -1.1742  2.1603 -1.4710
 9187SOL    HW239195   3.160   1.747  10.386  1.3062  0.2028 -2.1155
 9188SOL     OW39196   1.771   2.444  12.833 -0.1191 -0.2686 -0.1317
 9188SOL    HW139197   1.835   2.378  12.805  1.9681  1.5412  0.3982
 9188SOL    HW239198   1.705   2.426  12.766 -1.3674 -0.4275  1.1278
 9189SOL     OW39199   4.656   1.221   3.259 -0.3736  0.4149  0.3816
 9189SOL    HW139200   4.579   1.278   3.259 -0.2812  0.5445 -0.3286
 9189SOL    HW239201   4.724   1.265   3.310 -1.2516  1.7490  0.4169
 9190SOL     OW39202   0.957   3.505  12.491 -0.5113 -0.2218  0.3070
 9190SOL    HW139203   0.901   3.462  12.555 -0.6548 -0.6119 -0.0777
 9190SOL    HW239204   0.926   3.596  12.492 -0.2096 -0.1078 -0.5183
 9191SOL     OW39205   2.740   3.977  17.621  0.4395 -0.4039  0.6213
 9191SOL    HW139206   2.813   3.922  17.652 -0.8845 -2.1646  0.6204
 9191SOL    HW239207   2.674   3.914  17.592 -0.0936  0.9104 -0.9778
 9192SOL     OW39208   2.388   3.570  10.292  0.0640  0.0643 -0.7261
 9192SOL    HW139209   2.308   3.525  10.320 -0.3281  0.9385 -0.4541
 9192SOL    HW239210   2.445   3.520  10.352  1.4309  2.1960 -0.2401
 9193SOL     OW39211   0.954   1.054  17.113  0.2725 -0.9533 -0.2610
 9193SOL    HW139212   0.965   0.961  17.132 -1.4847 -1.8356 -3.5255
 9193SOL    HW239213   1.036   1.088  17.149 -1.1362  2.2967 -0.1563
 9194SOL     OW39214   3.349   4.449  13.601 -0.0282  0.0322 -0.4231
 9194SOL    HW139215   3.415   4.497  13.652 -1.7460  2.7319 -0.7377
 9194SOL    HW239216   3.369   4.490  13.517  2.7646 -1.2660 -0.3914
 9195SOL     OW39217   2.481   4.139  17.371  0.5388  1.0262  0.3173
 9195SOL    HW139218   2.574   4.126  17.352  0.4669  1.8382 -0.6009
 9195SOL    HW239219   2.463   4.210  17.310 -0.2171 -0.5553 -1.2960
 9196SOL     OW39220   2.094   1.479  15.868  0.4011 -0.2415  0.1380
 9196SOL    HW139221   2.024   1.424  15.832  0.1672  0.9946 -1.2843
 9196SOL    HW239222   2.052   1.506  15.949 -0.2237 -1.9565  0.3904
 9197SOL     OW39223   4.028   1.120   1.803 -0.0391 -0.7338  0.1463
 9197SOL    HW139224   4.063   1.178   1.736 -0.9512  0.0949  0.3930
 9197SOL    HW239225   4.001   1.044   1.752 -0.2962 -0.5426 -0.0018
 9198SOL     OW39226   1.417   2.748  15.796  0.1728  0.2317  0.3623
 9198SOL    HW139227   1.403   2.654  15.790  2.5864  0.0135 -1.8031
 9198SOL    HW239228   1.429   2.758  15.890 -1.2132  0.0185  0.5703
 9199SOL     OW39229   0.257   0.169  11.034  0.4071 -0.2278 -0.1328
 9199SOL    HW139230   0.293   0.234  11.094 -1.1391 -1.1700  1.7753
 9199SOL    HW239231   0.237   0.094  11.089 -3.2872  1.4118  0.7943
 9200SOL     OW39232   1.317   1.103   5.400 -0.0045  0.1741 -0.1381
 9200SOL    HW139233   1.244   1.121   5.341 -2.5592 -1.5533  2.5085
 9200SOL    HW239234   1.394   1.108   5.343  0.7860  1.2312  1.0247
 9201SOL     OW39235   1.047   0.851   5.222 -0.9325  0.1235  0.6182
 9201SOL    HW139236   1.019   0.765   5.252 -1.5558 -0.3679 -1.4070
 9201SOL    HW239237   0.994   0.912   5.274 -0.4484  1.0914 -0.0218
 9202SOL     OW39238   4.108   0.797   6.471 -0.6700  0.1825 -0.0230
 9202SOL    HW139239   4.182   0.752   6.429 -0.2385  1.9491 -1.1582
 9202SOL    HW239240   4.042   0.729   6.475 -0.2165 -0.1753  1.1576
 9203SOL     OW39241   3.136   3.178   5.566 -0.4745 -0.0910  0.0373
 9203SOL    HW139242   3.150   3.098   5.516  0.9085  0.4708 -0.4853
 9203SOL    HW239243   3.111   3.144   5.652  3.2878 -2.3708  0.2317
 9204SOL     OW39244   2.778   0.054   4.578  0.0683  0.4788  0.1061
 9204SOL    HW139245   2.734   4.734   4.516  0.7048  0.6097 -0.4723
 9204SOL    HW239246   2.721   0.051   4.654  2.2548 -1.0543  1.7062
 9205SOL     OW39247   3.664   3.050  15.727  0.2762 -0.2270  0.6658
 9205SOL    HW139248   3.660   3.127  15.670  1.7614 -0.2219  0.5857
 9205SOL    HW239249   3.725   3.000  15.672 -1.3275 -1.0961 -0.3488
 9206SOL     OW39250   0.855   0.922   1.755 -0.1936  0.6019 -0.8098
 9206SOL    HW139251   0.859   0.922   1.659 -0.2764 -0.4839 -0.8214
 9206SOL    HW239252   0.867   0.830   1.780  1.1140  1.0801  0.2804
 9207SOL     OW39253   0.856   0.328   3.152 -0.3527 -0.5508 -0.1657
 9207SOL    HW139254   0.793   0.388   3.111 -0.9011  1.4267  3.6029
 9207SOL    HW239255   0.936   0.378   3.140  0.0021 -1.5517 -1.9217
 9208SOL     OW39256   0.596   4.414   7.178  0.3165  0.3276 -0.3140
 9208SOL    HW139257   0.580   4.455   7.263  0.0232  0.7995 -0.5944
 9208SOL    HW239258   0.541   4.459   7.114 -1.1150 -0.0941  0.6349
 9209SOL     OW39259   0.566   3.644   3.064 -0.1296  0.0987  0.5732
 9209SOL    HW139260   0.597   3.595   2.987 -1.6771 -1.6486  1.0550
 9209SOL    HW239261   0.505   3.705   3.024 -2.3768 -1.4032  1.7212
 9210SOL     OW39262   2.319   2.993   3.109  0.4186 -0.1118 -0.7513
 9210SOL    HW139263   2.339   2.912   3.157  0.8124  1.3138  1.4513
 9210SOL    HW239264   2.334   2.962   3.019  2.0308  0.9783 -0.8683
 9211SOL     OW39265   2.892   0.128   5.197 -0.0026  0.1499 -0.0192
 9211SOL    HW139266   2.896   0.120   5.292  1.7561 -0.3286 -0.1382
 9211SOL    HW239267   2.935   0.213   5.186 -1.3648  0.6026 -1.9973
 9212SOL     OW39268   0.136   1.341   3.382  0.5929 -0.0808 -0.1502
 9212SOL    HW139269   0.197   1.330   3.455  0.2631  0.7048  0.2521
 9212SOL    HW239270   0.122   1.436   3.391 -0.3341 -0.1695 -0.6734
 9213SOL     OW39271   2.812   0.326   2.789 -0.0055  0.0280 -0.0026
 9213SOL    HW139272   2.734   0.274   2.774 -0.4725  0.3321  1.3551
 9213SOL    HW239273   2.871   0.257   2.820 -0.0712 -0.1635 -0.3134
 9214SOL     OW39274   4.708   1.818   2.804 -0.0071  0.6088  0.6961
 9214SOL    HW139275   4.681   1.850   2.718  1.4463 -2.6033 -0.9516
 9214SOL    HW239276   4.706   1.896   2.860 -3.8402 -0.5135  2.1234
 9215SOL     OW39277   4.235   2.510  14.856  0.0669 -0.1984  0.3529
 9215SOL    HW139278   4.187   2.591  14.872 -1.5903 -1.5066  2.0728
 9215SOL    HW239279   4.202   2.491  14.769  0.7524 -1.8394  0.4389
 9216SOL     OW39280   2.265   1.182   3.897 -0.1021 -0.3369 -0.0530
 9216SOL    HW139281   2.223   1.099   3.876  1.2652 -0.8597 -0.7079
 9216SOL    HW239282   2.312   1.211   3.819  2.0670 -0.2311  1.2704
 9217SOL     OW39283   1.346   2.551   4.568 -0.5586 -0.1685  0.0412
 9217SOL    HW139284   1.298   2.579   4.490 -0.5511 -0.4397 -0.0602
 9217SOL    HW239285   1.282   2.573   4.635  1.6983  0.3737  2.0026
 9218SOL     OW39286   3.515   2.166   6.822  0.1981 -0.5307 -0.1764
 9218SOL    HW139287   3.572   2.089   6.832 -0.2551 -0.4894  2.7453
 9218SOL    HW239288   3.579   2.231   6.849 -1.7807  2.0006 -1.6030
 9219SOL     OW39289   3.369   4.135   5.342 -0.2594  0.6540 -0.2244
 9219SOL    HW139290   3.413   4.080   5.277  0.1964  0.4773  0.2354
 9219SOL    HW239291   3.296   4.077   5.363  1.0153 -0.6739  0.4839
 9220SOL     OW39292   3.620   1.624   4.784 -0.0572 -0.3399  0.2034
 9220SOL    HW139293   3.526   1.612   4.769  0.0307 -3.4007  2.1285
 9220SOL    HW239294   3.644   1.532   4.787 -0.8110 -0.5261  0.4539
 9221SOL     OW39295   0.372   2.477  13.715 -0.0656  0.1945 -0.2303
 9221SOL    HW139296   0.361   2.420  13.791  1.8809  0.4078  0.2017
 9221SOL    HW239297   0.464   2.501  13.703  0.0625  0.6119  1.6407
 9222SOL     OW39298   3.159   1.128  12.386 -0.1094 -0.2178  0.1149
 9222SOL    HW139299   3.164   1.181  12.307  2.9570 -1.8414 -0.8004
 9222SOL    HW239300   3.103   1.185  12.440 -0.9447 -0.7730 -0.1743
 9223SOL     OW39301   1.622   4.645   1.840  0.4110  0.0525  0.3570
 9223SOL    HW139302   1.541   4.653   1.789  0.3060 -2.0945  0.1858
 9223SOL    HW239303   1.672   4.571   1.804 -2.0195 -0.5999 -1.6640
 9224SOL     OW39304   4.545   2.121   8.418  0.4957 -0.1420 -0.0213
 9224SOL    HW139305   4.565   2.214   8.415  0.2618 -0.1277 -1.1110
 9224SOL    HW239306   4.625   2.091   8.460 -0.0749 -2.2629 -0.4163
 9225SOL     OW39307   3.202   0.637   8.864 -0.3747  0.3730 -0.3104
 9225SOL    HW139308   3.251   0.582   8.803 -0.3882 -0.1798  0.1860
 9225SOL    HW239309   3.119   0.641   8.817  1.3368  0.3511 -3.3406
 9226SOL     OW39310   2.032   3.960   7.462  0.0679  0.5301  0.1885
 9226SOL    HW139311   2.044   3.886   7.402 -1.0926  0.8599 -0.4555
 9226SOL    HW239312   1.968   3.931   7.527  2.3545 -4.4541  0.2245
 9227SOL     OW39313   1.247   1.973   9.161 -0.0302 -0.7610 -0.2860
 9227SOL    HW139314   1.191   2.035   9.208  1.8712  0.3014  0.5849
 9227SOL    HW239315   1.201   1.891   9.174  0.2831 -0.7878  0.6760
 9228SOL     OW39316   0.932   0.375   3.639  0.0730  0.3040  0.0180
 9228SOL    HW139317   0.983   0.409   3.566  2.3330  0.6527  1.7763
 9228SOL    HW239318   0.857   0.433   3.650 -2.0646 -2.2379 -1.0484
 9229SOL     OW39319   0.343   4.236  15.742  0.0226 -0.2719 -0.2590
 9229SOL    HW139320   0.325   4.144  15.760 -1.1317  0.0565  0.3432
 9229SOL    HW239321   0.425   4.246  15.695  0.0428 -2.0976 -0.6179
 9230SOL     OW39322   0.881   2.592   4.097 -0.2831  0.3891 -0.3252
 9230SOL    HW139323   0.914   2.648   4.027  0.3481 -0.1628 -0.4779
 9230SOL    HW239324   0.911   2.634   4.178  1.7614 -1.4758 -0.0973
 9231SOL     OW39325   3.570   0.505   6.055 -0.0168  0.0892  0.1513
 9231SOL    HW139326   3.506   0.572   6.033  1.3102  1.3132  0.0432
 9231SOL    HW239327   3.637   0.563   6.020 -0.4527  1.4653  1.5783
 9232SOL     OW39328   2.187   0.325   2.005  0.3608 -0.0577  0.4042
 9232SOL    HW139329   2.268   0.354   2.047  0.8149 -0.9090  0.1077
 9232SOL    HW239330   2.223   0.268   1.938 -1.3044  0.6933 -1.1487
 9233SOL     OW39331   0.124   2.544   2.012 -0.3947  0.4384 -0.5312
 9233SOL    HW139332   0.199   2.523   2.068  0.1565 -0.9690 -1.7854
 9233SOL    HW239333   0.135   2.638   1.997 -0.6076  0.5399 -0.0557
 9234SOL     OW39334   0.397   4.590  14.020 -0.2419 -0.1629 -0.1781
 9234SOL    HW139335   0.303   4.594  14.033 -0.3158 -2.5341 -0.1039
 9234SOL    HW239336   0.406   4.636  13.936  2.7606  2.3114  1.4985
 9235SOL     OW39337   2.329   2.368   4.159 -0.0824  0.3519 -0.1214
 9235SOL    HW139338   2.331   2.296   4.096  1.8262 -0.1593  0.5435
 9235SOL    HW239339   2.390   2.429   4.118 -0.3125  0.5129 -0.2291
 9236SOL     OW39340   3.205   0.017  14.941 -0.2278 -0.5788 -0.4095
 9236SOL    HW139341   3.132   0.069  14.908  0.9792  1.9908  0.9279
 9236SOL    HW239342   3.161   4.728  15.022 -0.1379 -1.2588 -0.5809
 9237SOL     OW39343   1.549   3.581   5.734 -0.5453 -0.4767 -0.3560
 9237SOL    HW139344   1.593   3.662   5.707 -0.6370  0.0632  1.1171
 9237SOL    HW239345   1.545   3.593   5.829  0.6529 -0.0862 -0.3498
 9238SOL     OW39346   3.597   0.302   9.040  0.1545 -0.1733  0.7180
 9238SOL    HW139347   3.592   0.220   8.991  0.8513 -0.4126  1.0505
 9238SOL    HW239348   3.619   0.282   9.131 -1.8660  0.6225  1.3972
 9239SOL     OW39349   3.361   0.780   0.605 -0.0059  0.2573  0.0088
 9239SOL    HW139350   3.451   0.801   0.629 -0.3405  2.0667 -0.3024
 9239SOL    HW239351   3.355   0.814   0.516  0.8328  2.3550  0.7514
 9240SOL     OW39352   3.188   1.349  14.633  0.0158 -0.2114 -0.2242
 9240SOL    HW139353   3.221   1.423  14.582  3.1958 -0.6469  1.1657
 9240SOL    HW239354   3.253   1.281  14.614  0.4910  0.0034  0.6338
 9241SOL     OW39355   1.139   4.213  10.705  0.0113 -0.1033  0.1204
 9241SOL    HW139356   1.166   4.157  10.632 -0.9408  3.0346 -2.6269
 9241SOL    HW239357   1.156   4.297  10.663  1.2230 -0.3803  0.0599
 9242SOL     OW39358   0.061   0.811   8.684  0.0971  0.9526  0.2873
 9242SOL    HW139359   0.135   0.777   8.635 -0.5847 -1.5705  0.9953
 9242SOL    HW239360   0.069   0.903   8.658  2.0910  0.2780 -1.4471
 9243SOL     OW39361   4.438   2.950   2.918 -0.3791 -0.2587 -0.2270
 9243SOL    HW139362   4.422   2.855   2.919 -1.2082 -0.1143 -0.5994
 9243SOL    HW239363   4.358   2.981   2.960  1.3421  1.2048  2.0138
 9244SOL     OW39364   1.559   1.657   5.246 -0.5463 -0.2188 -0.0222
 9244SOL    HW139365   1.591   1.623   5.330 -1.4949  0.5603  0.6467
 9244SOL    HW239366   1.643   1.684   5.209  0.6187 -0.2749  2.5376
 9245SOL     OW39367   4.220   0.250   3.286 -0.3621  0.0654 -0.1879
 9245SOL    HW139368   4.160   0.227   3.357 -1.0072  0.1267 -0.7192
 9245SOL    HW239369   4.245   0.162   3.260 -0.0645 -0.9416  3.4524
 9246SOL     OW39370   3.601   3.400   1.205  0.4653  0.0742 -0.7544
 9246SOL    HW139371   3.537   3.333   1.228 -1.1845  1.9599  0.2071
 9246SOL    HW239372   3.657   3.385   1.281 -0.0695 -0.0137 -0.3748
 9247SOL     OW39373   0.841   1.210   0.699  0.4115 -0.1069  0.3207
 9247SOL    HW139374   0.753   1.229   0.668  1.0365  1.4174 -0.4834
 9247SOL    HW239375   0.869   1.157   0.624 -2.5863 -0.4646 -0.5323
 9248SOL     OW39376   2.015   1.208  10.721 -0.2582 -0.8798 -0.1915
 9248SOL    HW139377   2.020   1.120  10.759  0.3495 -0.9444 -0.4249
 9248SOL    HW239378   2.094   1.193  10.669  0.6687  3.5632 -0.0117
 9249SOL     OW39379   1.067   2.933   3.288  0.0581  0.6044  0.1483
 9249SOL    HW139380   1.149   2.945   3.240 -0.6898  1.7882 -0.8211
 9249SOL    HW239381   1.055   3.012   3.340  0.8341  1.0161 -0.2988
 9250SOL     OW39382   0.851   3.714   1.147 -0.5740  0.0514  0.1435
 9250SOL    HW139383   0.917   3.644   1.142 -1.3834 -0.8164  1.5627
 9250SOL    HW239384   0.773   3.659   1.156  0.6598 -1.6667  0.3704
 9251SOL     OW39385   4.177   1.540   4.062  0.1186 -0.1971  0.2034
 9251SOL    HW139386   4.163   1.590   3.982 -0.9129  1.3037  1.2950
 9251SOL    HW239387   4.265   1.503   4.055 -0.0177 -0.3894 -0.4354
 9252SOL     OW39388   0.348   1.554   6.997 -0.4225 -0.3759  0.1315
 9252SOL    HW139389   0.316   1.464   6.983 -0.3631 -0.1848 -1.2562
 9252SOL    HW239390   0.333   1.573   7.090 -2.5706  0.0090 -0.2788
 9253SOL     OW39391   0.455   3.811   8.185  0.3836  0.0557 -0.2063
 9253SOL    HW139392   0.532   3.863   8.208  0.0607  0.8485 -0.8934
 9253SOL    HW239393   0.419   3.871   8.120  2.6489  3.3422  1.5488
 9254SOL     OW39394   3.566   4.120   6.845  0.1124 -0.1569  0.1122
 9254SOL    HW139395   3.574   4.210   6.876 -0.4682 -0.9151  2.4994
 9254SOL    HW239396   3.472   4.107   6.860 -0.0653 -0.2214 -1.0868
 9255SOL     OW39397   0.639   2.858  13.149 -0.2563  0.2954 -0.4407
 9255SOL    HW139398   0.584   2.878  13.225  0.0726 -0.3271 -0.0404
 9255SOL    HW239399   0.692   2.937  13.148 -0.8730  0.7373  3.4206
 9256SOL     OW39400   0.955   3.585  14.565  0.1215 -0.7522  0.2553
 9256SOL    HW139401   0.964   3.536  14.646 -1.9662 -2.0023 -0.2674
 9256SOL    HW239402   1.047   3.603  14.545  0.3649 -1.3839  0.7962
 9257SOL     OW39403   4.357   1.787   8.176 -1.2379 -0.1408  0.4998
 9257SOL    HW139404   4.383   1.700   8.147 -0.9946  0.6226 -1.6201
 9257SOL    HW239405   4.395   1.785   8.263 -3.3163  0.0501  1.4031
 9258SOL     OW39406   2.024   3.728   4.890  0.5302  0.4060  0.3879
 9258SOL    HW139407   2.081   3.795   4.855 -2.4669  1.1209 -3.0456
 9258SOL    HW239408   2.042   3.713   4.983 -1.8918 -2.6831  0.3583
 9259SOL     OW39409   1.629   1.108   3.126  0.4819  0.6933 -0.0311
 9259SOL    HW139410   1.571   1.184   3.121  0.7108  0.7501 -1.6589
 9259SOL    HW239411   1.611   1.073   3.039 -1.8730  0.1944  0.6326
 9260SOL     OW39412   4.019   3.598   1.903  0.1806  0.2528 -0.0385
 9260SOL    HW139413   3.983   3.513   1.879 -1.5068  0.7822  0.6680
 9260SOL    HW239414   4.087   3.574   1.966 -0.1205  1.0707  0.5958
 9261SOL     OW39415   0.676   3.656   0.869 -0.5608  0.1431 -0.4721
 9261SOL    HW139416   0.760   3.622   0.901 -0.7418  1.2451  1.1288
 9261SOL    HW239417   0.621   3.578   0.871 -2.3182  1.4691  2.9070
 9262SOL     OW39418   2.386   0.698   3.514 -0.4781 -0.3775 -0.4095
 9262SOL    HW139419   2.469   0.674   3.472  0.2346  0.1597  0.6946
 9262SOL    HW239420   2.356   0.609   3.534 -1.4123  0.0289  0.0305
 9263SOL     OW39421   0.331   2.174   2.044 -0.4468  0.4834 -0.1138
 9263SOL    HW139422   0.291   2.089   2.061  1.7362 -0.5125 -0.0643
 9263SOL    HW239423   0.407   2.165   2.101  1.4341  0.1675 -2.6915
 9264SOL     OW39424   0.635   0.579   7.499 -0.2762 -0.0910  0.0130
 9264SOL    HW139425   0.560   0.617   7.453  0.1751  1.5949  0.6427
 9264SOL    HW239426   0.689   0.658   7.506  1.0636 -1.0712  0.8471
 9265SOL     OW39427   0.458   0.187   4.393  0.4811 -0.0503  0.7635
 9265SOL    HW139428   0.401   0.110   4.385  1.7284 -0.9191  0.2241
 9265SOL    HW239429   0.545   0.152   4.374  0.8323 -0.1499  2.5837
 9266SOL     OW39430   3.500   1.954   1.338  0.4938 -0.5767 -0.1406
 9266SOL    HW139431   3.514   1.861   1.358  1.3714  0.4212  3.9652
 9266SOL    HW239432   3.455   1.950   1.254  1.4119 -0.5781 -0.6305
 9267SOL     OW39433   2.926   3.620  11.480 -0.3201 -0.0767  0.4019
 9267SOL    HW139434   3.015   3.640  11.453 -0.1315 -0.8966  0.4281
 9267SOL    HW239435   2.880   3.655  11.404 -1.0023  1.5946  1.5862
 9268SOL     OW39436   3.978   2.908   4.669 -1.0876 -0.1820  0.4975
 9268SOL    HW139437   3.975   3.003   4.654 -0.8219 -0.0846  1.0692
 9268SOL    HW239438   4.072   2.891   4.674 -0.8036  0.3195 -3.0010
 9269SOL     OW39439   1.594   3.665   8.095 -0.1289  0.1490  0.4677
 9269SOL    HW139440   1.510   3.638   8.132 -0.1047 -1.8179 -0.9407
 9269SOL    HW239441   1.615   3.583   8.050  0.4353 -0.6543  2.1969
 9270SOL     OW39442   3.800   3.399  11.174  0.2760  0.3056  0.1755
 9270SOL    HW139443   3.859   3.474  11.184  0.0728  0.3380  1.1746
 9270SOL    HW239444   3.730   3.417  11.237 -0.4585 -0.1646 -0.5152
 9271SOL     OW39445   4.090   2.962   9.170 -0.2802 -0.5974 -0.7672
 9271SOL    HW139446   4.054   2.875   9.184 -0.6511 -0.2631  0.3897
 9271SOL    HW239447   4.012   3.017   9.174  1.5415  2.1153 -1.9944
 9272SOL     OW39448   0.941   3.421  14.779 -0.2899  0.1909  0.5295
 9272SOL    HW139449   0.876   3.429  14.849 -0.6855 -0.1576  0.2026
 9272SOL    HW239450   1.022   3.399  14.826 -0.0448 -0.4816 -0.2085
 9273SOL     OW39451   2.952   0.893  11.158 -0.0651 -0.2393 -0.1646
 9273SOL    HW139452   3.035   0.935  11.134  0.2981 -0.4251  0.7747
 9273SOL    HW239453   2.924   0.936  11.239  0.8048 -0.8370  0.4539
 9274SOL     OW39454   1.196   4.003   4.164  0.3628  0.2263 -0.3260
 9274SOL    HW139455   1.185   4.098   4.172  0.4427  0.4016 -2.3720
 9274SOL    HW239456   1.150   3.991   4.081 -0.7768 -2.8227  0.7505
 9275SOL     OW39457   2.472   2.307  15.705  0.1243 -0.1110  0.2398
 9275SOL    HW139458   2.539   2.254  15.661  1.5368  1.1210  0.9025
 9275SOL    HW239459   2.411   2.344  15.641  1.2858  0.1468 -0.7216
 9276SOL     OW39460   2.424   4.042   3.975 -0.8797  0.3283 -0.2396
 9276SOL    HW139461   2.486   3.981   4.014 -0.2476  0.5512 -0.9150
 9276SOL    HW239462   2.349   4.033   4.035 -0.3249 -1.3059  0.2033
 9277SOL     OW39463   3.250   2.860   4.043 -0.6184  0.2644  0.1941
 9277SOL    HW139464   3.277   2.769   4.054  0.3826  0.2088 -2.6485
 9277SOL    HW239465   3.241   2.882   4.136  3.2007  1.7737  0.2002
 9278SOL     OW39466   1.784   3.771   3.250  0.1330 -0.0949  0.1434
 9278SOL    HW139467   1.718   3.820   3.201  0.1580 -0.5331 -0.3348
 9278SOL    HW239468   1.849   3.840   3.269 -0.5740  0.6530 -0.1489
 9279SOL     OW39469   0.612   0.882   2.284 -0.4217  0.3820 -0.7435
 9279SOL    HW139470   0.647   0.797   2.254 -2.9671 -0.1440 -2.2095
 9279SOL    HW239471   0.649   0.943   2.221  1.0902 -0.4868 -0.6966
 9280SOL     OW39472   1.019   4.316   2.401  0.7745  0.1735 -0.4903
 9280SOL    HW139473   1.106   4.276   2.405  0.9652  0.6894  0.4408
 9280SOL    HW239474   1.033   4.378   2.472  3.7174  0.6739 -1.5209
 9281SOL     OW39475   4.284   4.260   3.346  0.3593 -0.2790 -0.1010
 9281SOL    HW139476   4.201   4.299   3.374  2.0527  3.0221  0.4489
 9281SOL    HW239477   4.262   4.293   3.259 -0.5492  0.4955  0.4175
 9282SOL     OW39478   1.106   3.269   9.330 -0.6965 -0.4370 -0.4838
 9282SOL    HW139479   1.181   3.296   9.384 -1.4979 -0.3663  0.5921
 9282SOL    HW239480   1.036   3.326   9.360 -0.2836 -0.6709  0.9402
 9283SOL     OW39481   4.239   1.995   4.732  0.0917 -0.4197 -0.5177
 9283SOL    HW139482   4.203   2.055   4.667  1.6037  2.3808  1.2368
 9283SOL    HW239483   4.221   1.911   4.689 -0.4034 -0.9197  0.6533
 9284SOL     OW39484   3.472   1.199  13.996 -0.4989  0.3911 -0.0597
 9284SOL    HW139485   3.436   1.288  14.000 -2.1903 -0.2994  0.0398
 9284SOL    HW239486   3.497   1.182  14.087 -0.8467  1.5137  0.2467
 9285SOL     OW39487   0.464   1.696   0.517  0.1269 -0.6938 -0.1191
 9285SOL    HW139488   0.487   1.657   0.602 -0.0535  0.1664  0.3276
 9285SOL    HW239489   0.508   1.781   0.525  2.2916 -1.6363 -2.2327
 9286SOL     OW39490   1.024   0.018  14.363  0.1824 -0.0882 -0.2431
 9286SOL    HW139491   1.105   4.707  14.349  0.9581  1.6457 -1.7553
 9286SOL    HW239492   0.979   0.019  14.278 -1.3737  0.0620  0.5849
 9287SOL     OW39493   3.993   3.336   5.146  0.2322 -0.9511  0.3090
 9287SOL    HW139494   4.014   3.339   5.053 -1.2062 -0.1294  0.0175
 9287SOL    HW239495   4.065   3.378   5.193  0.8265 -0.5844 -0.9457
 9288SOL     OW39496   3.428   2.688   0.919 -0.0178 -0.4843 -0.4163
 9288SOL    HW139497   3.451   2.595   0.916 -0.9975 -0.8094  2.0904
 9288SOL    HW239498   3.493   2.724   0.858  1.7428 -2.0532  0.5150
 9289SOL     OW39499   4.483   2.692  10.705 -0.5443 -0.0718 -0.0803
 9289SOL    HW139500   4.454   2.601  10.693 -0.9541 -0.0732  0.8994
 9289SOL    HW239501   4.505   2.712  10.614 -0.8915 -2.4242 -0.6927
 9290SOL     OW39502   1.602   4.571   7.062  0.1585  0.0180 -0.3706
 9290SOL    HW139503   1.558   4.542   7.142 -0.0157  0.6395 -0.2404
 9290SOL    HW239504   1.684   4.595   7.104 -0.2340  2.2099 -0.8780
 9291SOL     OW39505   2.524   1.487   0.194 -0.3548 -0.6608 -0.1491
 9291SOL    HW139506   2.444   1.511   0.148  0.1850  1.7665  0.2131
 9291SOL    HW239507   2.490   1.426   0.260  0.5016  0.8902  1.7476
 9292SOL     OW39508   0.269   0.655   3.397 -0.2157 -0.4090  0.5096
 9292SOL    HW139509   0.313   0.710   3.462  0.6210 -0.7605  0.2285
 9292SOL    HW239510   0.180   0.686   3.414 -0.4731 -1.4460  1.0531
 9293SOL     OW39511   2.035   4.660   5.737  0.4499 -0.3625 -0.0010
 9293SOL    HW139512   2.059   4.709   5.816  1.9111  0.5715 -1.0289
 9293SOL    HW239513   2.100   4.696   5.677 -0.2655  2.3090  0.7949
 9294SOL     OW39514   1.524   2.242  14.653  0.5923 -0.0261 -0.6163
 9294SOL    HW139515   1.488   2.225  14.565  0.6044  0.5227 -0.7328
 9294SOL    HW239516   1.612   2.205  14.648  1.7527  2.8372 -1.6665
 9295SOL     OW39517   0.278   3.765  10.214  0.3828  0.7141  0.4549
 9295SOL    HW139518   0.244   3.684  10.251  2.9933 -1.3322 -1.5712
 9295SOL    HW239519   0.329   3.731  10.140  0.4758 -2.3114  1.9422
 9296SOL     OW39520   4.049   2.411   5.251  0.0318  0.2236  0.3753
 9296SOL    HW139521   4.105   2.477   5.212  0.8156 -0.7486 -0.1616
 9296SOL    HW239522   4.105   2.342   5.288 -2.1331 -2.2048 -0.8475
 9297SOL     OW39523   3.045   2.703  15.882 -0.3594  0.4112  0.8145
 9297SOL    HW139524   3.043   2.611  15.856 -2.9165  0.3091  1.3428
 9297SOL    HW239525   3.134   2.719  15.914 -1.0964  1.2799  2.4442
 9298SOL     OW39526   0.542   2.892   2.867 -0.4245 -0.3202  0.5428
 9298SOL    HW139527   0.466   2.945   2.889 -1.0441 -0.9276 -0.1381
 9298SOL    HW239528   0.602   2.946   2.816 -2.1420  0.6803 -0.3983
 9299SOL     OW39529   3.425   3.141   1.304  0.2610 -0.3008  0.2343
 9299SOL    HW139530   3.388   3.053   1.308 -1.8672  0.6546  1.1661
 9299SOL    HW239531   3.420   3.154   1.209  1.7186 -1.5375 -0.0200
 9300SOL     OW39532   2.070   0.865   6.143 -0.1949  0.5118  0.0918
 9300SOL    HW139533   2.133   0.796   6.167 -1.4027  0.3726  2.7469
 9300SOL    HW239534   2.110   0.891   6.060  0.1398  0.7216  0.3190
 9301SOL     OW39535   1.111   1.830  14.670 -0.4052 -0.4097 -0.8741
 9301SOL    HW139536   1.134   1.904  14.615  0.9297  0.1035  0.3616
 9301SOL    HW239537   1.025   1.802  14.637 -0.6739  0.4001 -0.8501
 9302SOL     OW39538   4.250   1.335   4.583  0.5466  0.3440  0.1264
 9302SOL    HW139539   4.230   1.378   4.499  1.1926 -0.4225 -0.4244
 9302SOL    HW239540   4.279   1.412   4.632  0.9110  1.0105 -1.1287
 9303SOL     OW39541   1.101   1.136   8.151  0.1765 -0.1111 -0.1382
 9303SOL    HW139542   1.160   1.105   8.220  2.2385 -1.1935 -2.3674
 9303SOL    HW239543   1.136   1.224   8.158 -1.0560  0.2407  1.8386
 9304SOL     OW39544   3.213   1.319   6.673  0.2186  0.1090 -0.1963
 9304SOL    HW139545   3.189   1.255   6.741 -0.0661 -0.4076 -0.7797
 9304SOL    HW239546   3.262   1.380   6.728 -0.5500 -0.1912  0.8227
 9305SOL     OW39547   1.763   2.409  10.054 -0.1666  0.7052  0.3907
 9305SOL    HW139548   1.764   2.330  10.109  1.5710  0.0944 -0.4981
 9305SOL    HW239549   1.847   2.404  10.007  0.1589  0.7658  0.9585
 9306SOL     OW39550   2.826   2.663   1.930  0.1329 -0.2220 -0.2304
 9306SOL    HW139551   2.891   2.700   1.871  1.0031 -2.4240 -0.6342
 9306SOL    HW239552   2.873   2.675   2.013 -0.2123 -1.1625  0.1086
 9307SOL     OW39553   0.090   1.155   1.795 -0.7380  0.1903 -0.2210
 9307SOL    HW139554   0.017   1.211   1.769 -2.0764 -1.3424  0.2494
 9307SOL    HW239555   0.057   1.128   1.880 -0.7840 -1.6316 -0.8134
 9308SOL     OW39556   3.834   2.524  14.418  0.1955  0.2475  0.0564
 9308SOL    HW139557   3.828   2.609  14.374  0.3046 -0.0805 -0.5947
 9308SOL    HW239558   3.806   2.465  14.348 -2.4521  0.6024  0.7853
 9309SOL     OW39559   1.878   4.511   2.800 -0.2725 -0.5026  0.1260
 9309SOL    HW139560   1.783   4.499   2.808 -0.2939  0.6694  1.7342
 9309SOL    HW239561   1.898   4.565   2.877 -3.0470  0.7746 -0.0572
 9310SOL     OW39562   4.573   0.893   5.291  0.2912 -0.0649  0.1944
 9310SOL    HW139563   4.487   0.930   5.310  0.3833 -0.8652  2.1242
 9310SOL    HW239564   4.621   0.935   5.363  0.0810  0.2543  0.1484
 9311SOL     OW39565   0.095   3.577   1.185  0.4530  0.0853  0.0179
 9311SOL    HW139566   0.029   3.565   1.252 -0.0196  0.0054 -0.4654
 9311SOL    HW239567   0.141   3.651   1.224 -0.2040  1.1029 -1.1126
 9312SOL     OW39568   2.794   2.868  10.464 -0.0245 -0.2623 -0.1099
 9312SOL    HW139569   2.734   2.922  10.414  0.9559  0.1803 -0.7988
 9312SOL    HW239570   2.740   2.863  10.543  0.6247  0.5266  0.3822
 9313SOL     OW39571   1.633   3.486   2.776 -0.1880  0.0204 -0.3334
 9313SOL    HW139572   1.653   3.392   2.771  1.7736  0.4589 -0.6627
 9313SOL    HW239573   1.660   3.507   2.865 -0.3970 -0.7565 -0.0890
 9314SOL     OW39574   3.051   0.359   3.125  0.0655  0.4059  0.0803
 9314SOL    HW139575   2.967   0.313   3.132 -0.0688  0.3896 -1.6228
 9314SOL    HW239576   3.047   0.430   3.189  2.5785  0.2333  0.4430
 9315SOL     OW39577   4.298   3.030   6.620 -0.1218  0.3904 -0.3736
 9315SOL    HW139578   4.356   3.004   6.691 -1.2563 -1.7616 -0.2481
 9315SOL    HW239579   4.281   3.120   6.647 -1.6211  0.0749 -0.2510
 9316SOL     OW39580   2.545   2.047   2.474  0.1370  0.8425 -0.1377
 9316SOL    HW139581   2.574   2.025   2.386  0.2237 -0.0945  0.1295
 9316SOL    HW239582   2.579   2.137   2.477  1.2412  0.4221  0.0581
 9317SOL     OW39583   0.833   2.726   6.517 -0.5228  0.9001 -0.2638
 9317SOL    HW139584   0.828   2.644   6.467  2.1866  1.9320 -2.1684
 9317SOL    HW239585   0.925   2.745   6.503 -0.7019  2.1137  0.2430
 9318SOL     OW39586   3.160   1.276   2.109  0.7373  0.2076  0.0224
 9318SOL    HW139587   3.087   1.337   2.107  0.0870 -0.5393  0.8686
 9318SOL    HW239588   3.226   1.319   2.055  2.2246 -2.5123 -0.3415
 9319SOL     OW39589   4.051   2.483  12.032  0.2242 -0.0630  0.4069
 9319SOL    HW139590   4.125   2.505  12.089  1.1241  2.6986 -1.7950
 9319SOL    HW239591   4.055   2.387  12.041 -1.3708  0.1336  3.0383
 9320SOL     OW39592   4.052   0.514  12.200 -0.0896 -0.4153  0.0567
 9320SOL    HW139593   4.057   0.610  12.197 -1.9263 -0.3448 -0.5130
 9320SOL    HW239594   4.040   0.501  12.294 -0.9046  2.3823  0.3476
 9321SOL     OW39595   4.245   4.649   4.280  0.4059 -0.2326  0.8283
 9321SOL    HW139596   4.251   0.007   4.273  0.6280 -0.2053  1.3989
 9321SOL    HW239597   4.229   4.617   4.191 -0.4036  0.9670  0.5333
 9322SOL     OW39598   4.012   3.922  13.003  0.2446 -0.3281  0.2873
 9322SOL    HW139599   3.956   3.846  13.019 -0.3574  0.5261  2.1639
 9322SOL    HW239600   4.098   3.884  12.983 -0.1759 -1.0699 -0.1031
 9323SOL     OW39601   0.731   0.185   3.814 -0.2788  0.0449 -0.5584
 9323SOL    HW139602   0.767   0.136   3.888 -2.0338 -0.5329 -0.0890
 9323SOL    HW239603   0.799   0.171   3.747 -1.4500 -1.0713 -1.5164
 9324SOL     OW39604   1.993   1.595   2.215 -0.2208 -0.9097 -0.2207
 9324SOL    HW139605   2.064   1.651   2.245 -0.5284  0.2008 -1.5463
 9324SOL    HW239606   1.996   1.532   2.287 -1.3802 -0.3014  0.3560
 9325SOL     OW39607   0.812   1.904   8.703  0.1405 -0.1733 -0.8377
 9325SOL    HW139608   0.741   1.962   8.677  1.1261  1.5338  0.1769
 9325SOL    HW239609   0.803   1.832   8.641  2.7765 -0.1640 -1.2531
 9326SOL     OW39610   1.221   0.798   1.041 -0.0951  0.3687 -0.1146
 9326SOL    HW139611   1.209   0.893   1.038  1.2033  0.5914  1.8162
 9326SOL    HW239612   1.153   0.770   1.101  1.1283  0.0932  1.1488
 9327SOL     OW39613   3.025   1.249   3.222  0.4321  0.2406  0.1197
 9327SOL    HW139614   3.042   1.173   3.279 -0.8187 -0.4168 -0.3924
 9327SOL    HW239615   3.039   1.214   3.134  0.6669 -0.6595  0.5085
 9328SOL     OW39616   2.273   2.700   8.704 -0.1870 -0.1532 -0.0061
 9328SOL    HW139617   2.288   2.639   8.631 -2.3319 -1.6989  0.8287
 9328SOL    HW239618   2.227   2.774   8.664  0.0182  0.1598  0.3411
 9329SOL     OW39619   4.111   1.691   6.656 -0.3086  0.3107  0.2530
 9329SOL    HW139620   4.094   1.668   6.565  4.0583 -1.3523 -0.1413
 9329SOL    HW239621   4.207   1.695   6.654 -0.3413 -0.8019 -2.8198
 9330SOL     OW39622   0.118   4.144  14.943  0.6124  0.3762  0.0315
 9330SOL    HW139623   0.207   4.167  14.916 -0.0674  2.1130 -0.7045
 9330SOL    HW239624   0.079   4.115  14.861  0.1679 -1.4216  0.8625
 9331SOL     OW39625   0.770   3.112   0.433 -0.0897  0.2882 -0.5274
 9331SOL    HW139626   0.834   3.132   0.365  1.6054 -3.9896 -0.2123
 9331SOL    HW239627   0.724   3.194   0.454 -1.2840 -0.8473  1.2857
 9332SOL     OW39628   2.302   2.022   8.528 -0.5669  0.4906 -0.1718
 9332SOL    HW139629   2.287   2.104   8.481  1.5956  0.7304 -0.4152
 9332SOL    HW239630   2.330   1.974   8.450  1.0176  1.3461 -0.1080
 9333SOL     OW39631   3.493   4.680   2.680 -0.2514 -0.1451  0.2419
 9333SOL    HW139632   3.466   4.673   2.772 -2.6905  1.9876 -0.3224
 9333SOL    HW239633   3.445   0.017   2.646 -0.8479 -0.2028  0.9476
 9334SOL     OW39634   0.645   2.444   6.204 -0.0434 -0.3045 -0.2432
 9334SOL    HW139635   0.713   2.413   6.263 -0.5221  2.9303  1.9633
 9334SOL    HW239636   0.630   2.367   6.148 -2.9473  0.4109 -0.4443
 9335SOL     OW39637   1.304   0.541  12.360 -0.8261  0.2403  0.4776
 9335SOL    HW139638   1.221   0.554  12.314  0.7588  0.8051 -2.2190
 9335SOL    HW239639   1.290   0.595  12.438  1.4287 -1.8538  2.3454
 9336SOL     OW39640   0.433   0.598   1.745 -0.6299  0.3765 -0.2193
 9336SOL    HW139641   0.341   0.577   1.728 -0.2632 -0.0780 -1.5832
 9336SOL    HW239642   0.467   0.608   1.656  0.3780 -0.0569  0.1197
 9337SOL     OW39643   1.448   4.356   6.494  0.4342 -0.6219  0.0197
 9337SOL    HW139644   1.495   4.396   6.421  2.0190 -0.7685  0.9646
 9337SOL    HW239645   1.425   4.435   6.542 -0.8454 -0.7364 -0.4092
 9338SOL     OW39646   2.180   3.888   5.967  0.4779  0.2706  0.6875
 9338SOL    HW139647   2.104   3.933   5.929 -0.4110 -1.1636  0.7743
 9338SOL    HW239648   2.244   3.954   5.940  1.7094 -0.9643  0.6465
 9339SOL     OW39649   4.224   3.729   7.652 -0.3147  0.5125  0.1459
 9339SOL    HW139650   4.245   3.688   7.736  0.8040  0.1069 -0.3295
 9339SOL    HW239651   4.289   3.683   7.599 -1.1759 -0.9760  0.3979
 9340SOL     OW39652   3.117   0.601  10.580 -0.5237 -0.4675  1.0021
 9340SOL    HW139653   3.202   0.632  10.547 -0.4542 -0.1018  1.5236
 9340SOL    HW239654   3.123   0.512  10.546  0.2395  0.8201 -2.2658
 9341SOL     OW39655   2.488   0.869   1.915  0.0422 -0.2006  0.3213
 9341SOL    HW139656   2.422   0.937   1.926  0.2389  0.2210 -1.2392
 9341SOL    HW239657   2.564   0.926   1.904  1.0956 -1.5229  0.7278
 9342SOL     OW39658   4.315   1.533   5.290  0.0232 -0.4570 -0.5986
 9342SOL    HW139659   4.311   1.440   5.314 -1.9352 -0.6859 -1.8172
 9342SOL    HW239660   4.408   1.544   5.312 -0.6026  0.7597  1.4491
 9343SOL     OW39661   2.215   4.583   0.542 -0.0322 -0.3729  0.2656
 9343SOL    HW139662   2.153   4.628   0.484 -1.6391 -0.3093  2.0584
 9343SOL    HW239663   2.164   4.516   0.588 -0.4162  1.4792  2.5156
 9344SOL     OW39664   3.354   3.839   6.103  0.5288  0.2657  0.1601
 9344SOL    HW139665   3.301   3.777   6.153  1.2174 -1.0971 -0.8012
 9344SOL    HW239666   3.419   3.874   6.164 -0.0919 -1.9883  2.1023
 9345SOL     OW39667   1.445   0.893   6.257 -0.4104  0.1061 -0.5000
 9345SOL    HW139668   1.496   0.813   6.241 -0.1995  0.3912 -1.2107
 9345SOL    HW239669   1.363   0.849   6.233 -0.5322 -0.6646  1.2916
 9346SOL     OW39670   4.352   0.799  17.032  0.2857 -0.4597 -0.2146
 9346SOL    HW139671   4.299   0.879  17.025 -1.7564 -1.9320 -1.7010
 9346SOL    HW239672   4.410   0.809  17.107 -1.0388 -0.6444  0.8362
 9347SOL     OW39673   3.547   2.042   7.131 -0.0666 -0.1901  0.0467
 9347SOL    HW139674   3.479   2.099   7.166 -0.6778 -0.2601 -1.0053
 9347SOL    HW239675   3.509   2.006   7.050  1.7922 -3.0815  0.4706
 9348SOL     OW39676   4.492   4.502  11.559  0.2209 -0.1012  0.1553
 9348SOL    HW139677   4.529   4.584  11.527 -0.4949  0.9266  1.9759
 9348SOL    HW239678   4.481   4.451  11.479 -2.8124 -1.4897  1.4572
 9349SOL     OW39679   1.534   1.244   3.750 -0.2260  0.6149 -0.6561
 9349SOL    HW139680   1.487   1.177   3.799  0.6895  0.0683 -0.5172
 9349SOL    HW239681   1.468   1.277   3.689 -1.8370  0.1706  0.8822
 9350SOL     OW39682   1.119   4.294   0.730 -0.0434 -0.1108 -0.3307
 9350SOL    HW139683   1.108   4.389   0.721 -0.6061  0.0666  2.1752
 9350SOL    HW239684   1.086   4.257   0.648 -1.3907  2.7989 -1.1120
 9351SOL     OW39685   1.312   4.409  15.664  0.2181  0.0394  0.0446
 9351SOL    HW139686   1.244   4.422  15.730 -1.3635  0.9404 -1.7597
 9351SOL    HW239687   1.265   4.434  15.585  0.7834  1.1989  0.0824
 9352SOL     OW39688   1.091   2.528  17.547  0.0593  0.1088  0.6887
 9352SOL    HW139689   1.067   2.540  17.639 -0.5876 -2.9172  0.9266
 9352SOL    HW239690   1.030   2.456  17.531  1.3175 -0.8854  0.4182
 9353SOL     OW39691   2.763   1.235   6.879  0.0943 -0.0489 -0.2401
 9353SOL    HW139692   2.799   1.194   6.958 -1.7663  0.9726  1.1267
 9353SOL    HW239693   2.671   1.214   6.895  0.4845 -2.1116 -0.6587
 9354SOL     OW39694   3.445   2.152  10.821 -0.3018  0.3407  0.0914
 9354SOL    HW139695   3.409   2.072  10.860 -0.2569  0.1524 -0.2497
 9354SOL    HW239696   3.442   2.133  10.727  2.4750  0.8850 -0.1106
 9355SOL     OW39697   2.948   1.947   2.435 -0.6853 -0.0671  0.5608
 9355SOL    HW139698   2.863   1.985   2.457 -0.9748 -0.4021  0.0351
 9355SOL    HW239699   2.927   1.939   2.342 -0.4308 -1.7395  0.6517
 9356SOL     OW39700   4.178   2.505   6.306  0.6042  0.1509 -0.1352
 9356SOL    HW139701   4.170   2.509   6.402 -0.4615 -0.7503 -0.1787
 9356SOL    HW239702   4.213   2.592   6.287 -0.5965  0.5626 -0.4713
 9357SOL     OW39703   4.408   2.345   9.266  0.1298  0.0670 -0.0682
 9357SOL    HW139704   4.356   2.426   9.268 -0.1288  0.0559 -4.3853
 9357SOL    HW239705   4.343   2.298   9.318  1.4059 -1.7164 -0.1010
 9358SOL     OW39706   3.789   0.716   8.974  0.0427  0.4611 -0.3608
 9358SOL    HW139707   3.867   0.669   8.945  0.5115  0.3047  1.1473
 9358SOL    HW239708   3.830   0.797   9.003 -2.1415  1.2142  0.6004
 9359SOL     OW39709   2.596   3.098  15.062  0.2005 -0.1350 -0.2447
 9359SOL    HW139710   2.579   3.069  14.973 -1.5615  0.0548  0.0394
 9359SOL    HW239711   2.603   3.191  15.041  0.5229 -0.3246 -0.9567
 9360SOL     OW39712   2.222   2.812   3.320  0.3317 -0.4266 -0.3969
 9360SOL    HW139713   2.143   2.860   3.346  0.5499 -1.3961  2.0998
 9360SOL    HW239714   2.283   2.845   3.386  0.9654 -3.0266  0.3189
 9361SOL     OW39715   1.442   1.459  11.008  0.3980 -0.7424 -0.0845
 9361SOL    HW139716   1.357   1.449  11.051  1.3599 -1.8795  1.5199
 9361SOL    HW239717   1.494   1.454  11.088  1.8282 -0.4441 -0.9967
 9362SOL     OW39718   1.587   1.202   0.643 -0.0505  0.1134 -0.1017
 9362SOL    HW139719   1.656   1.149   0.603 -0.8860 -2.1766  1.4490
 9362SOL    HW239720   1.569   1.279   0.589  3.7572  1.4146  0.4638
 9363SOL     OW39721   4.730   3.943   8.226  0.5835  0.3479  0.0047
 9363SOL    HW139722   0.053   4.018   8.219  1.3756 -0.1183  1.7113
 9363SOL    HW239723   4.732   3.926   8.320 -1.5366 -0.2480 -0.0781
 9364SOL     OW39724   3.079   2.010  10.514  0.1548 -0.0272  0.5099
 9364SOL    HW139725   3.002   2.015  10.570  0.2422  1.7574  0.4731
 9364SOL    HW239726   3.130   1.944  10.560 -0.0014 -0.2236  0.4023
 9365SOL     OW39727   1.555   3.543   3.872 -0.1739  0.0588 -0.3367
 9365SOL    HW139728   1.551   3.508   3.961  1.2189  0.0295 -0.2896
 9365SOL    HW239729   1.578   3.636   3.880  0.8342 -0.0787 -1.6056
 9366SOL     OW39730   2.238   2.034   3.789  0.4133 -0.1067  0.2028
 9366SOL    HW139731   2.262   1.972   3.857  3.9061  1.0588  0.0390
 9366SOL    HW239732   2.231   1.968   3.720 -1.2389 -0.2310  0.5097
 9367SOL     OW39733   2.055   1.625   9.259 -0.0613 -0.2844  0.0906
 9367SOL    HW139734   2.055   1.588   9.347  0.8221  0.0824  0.2390
 9367SOL    HW239735   1.961   1.618   9.245 -0.2084  0.2843  0.8402
 9368SOL     OW39736   1.948   3.379   9.049 -0.0466  0.6433  0.1105
 9368SOL    HW139737   1.856   3.388   9.024  0.5313  0.0757 -2.1704
 9368SOL    HW239738   1.936   3.318   9.122  1.0747 -0.6118 -0.7660
 9369SOL     OW39739   0.818   4.489   1.940  0.0092  0.3675  0.6344
 9369SOL    HW139740   0.898   4.542   1.936  0.9270 -1.1591 -1.2371
 9369SOL    HW239741   0.851   4.400   1.956  1.5679  0.4331 -2.0305
 9370SOL     OW39742   0.915   3.778  12.429 -0.1882 -0.2766  0.3054
 9370SOL    HW139743   0.975   3.800  12.358  0.8275 -0.6805  1.0439
 9370SOL    HW239744   0.851   3.733  12.373 -1.1402  0.1759  1.0287
 9371SOL     OW39745   0.571   2.135  16.599  0.4051  0.5832  1.1624
 9371SOL    HW139746   0.525   2.055  16.571  1.7531  0.0250  0.5301
 9371SOL    HW239747   0.626   2.095  16.666 -0.2116 -1.7906  0.2866
 9372SOL     OW39748   4.145   3.441  16.193  0.4732 -0.3663 -0.1721
 9372SOL    HW139749   4.141   3.536  16.182  0.1697 -0.2457  0.9694
 9372SOL    HW239750   4.187   3.411  16.113  1.7130 -1.0609  0.7368
 9373SOL     OW39751   3.013   2.985  13.729  0.4420 -0.4243  0.7961
 9373SOL    HW139752   2.980   2.923  13.664 -2.6831  3.0030 -0.8234
 9373SOL    HW239753   2.930   3.022  13.760  0.0196 -1.7271  1.2180
 9374SOL     OW39754   3.094   1.258   2.937 -0.1789  0.0939  0.4165
 9374SOL    HW139755   3.082   1.344   2.897 -0.0120 -0.3515 -0.5750
 9374SOL    HW239756   3.068   1.201   2.866  0.4074  0.6434 -0.2348
 9375SOL     OW39757   0.183   1.449   6.581 -0.4547 -0.1616  0.5912
 9375SOL    HW139758   0.135   1.436   6.663  1.4728 -1.2331  1.5516
 9375SOL    HW239759   0.116   1.449   6.513 -0.2310 -1.1050  0.3765
 9376SOL     OW39760   3.128   4.498  17.613 -0.5313  0.8987 -0.0698
 9376SOL    HW139761   3.221   4.477  17.604 -0.8565 -0.8019  0.4567
 9376SOL    HW239762   3.118   4.440  17.689  0.7067 -1.1349 -1.4595
 9377SOL     OW39763   2.356   2.093   4.257 -0.0034 -0.7489  0.0293
 9377SOL    HW139764   2.372   2.187   4.265  1.3237 -1.0384  0.8159
 9377SOL    HW239765   2.306   2.070   4.335 -0.2115  1.1070  0.4393
 9378SOL     OW39766   3.355   0.143   4.349 -0.0157 -0.2099 -0.0002
 9378SOL    HW139767   3.317   0.151   4.436  1.6281  0.8852  0.6290
 9378SOL    HW239768   3.437   0.194   4.348 -1.2457  1.7731 -0.4750
 9379SOL     OW39769   4.733   2.840  12.897 -0.4124 -0.8623  0.1005
 9379SOL    HW139770   4.645   2.804  12.901 -1.1360  0.9841  0.7246
 9379SOL    HW239771   4.711   2.926  12.933  2.2722 -0.5225  0.9347
 9380SOL     OW39772   0.176   4.259   5.621  0.2394 -0.1586 -0.4697
 9380SOL    HW139773   0.134   4.198   5.682  0.1763 -0.4956 -0.8513
 9380SOL    HW239774   0.134   4.244   5.537 -1.1838 -0.0694  0.2314
 9381SOL     OW39775   1.380   3.713   1.559 -0.1056  0.3336  0.7076
 9381SOL    HW139776   1.431   3.751   1.488 -0.3527 -1.8105 -0.6057
 9381SOL    HW239777   1.403   3.623   1.539  0.3163 -0.2411  3.8130
 9382SOL     OW39778   3.296   4.399   1.863  0.0020 -0.1022  0.2969
 9382SOL    HW139779   3.215   4.400   1.811  0.7174 -1.3268 -0.8529
 9382SOL    HW239780   3.356   4.450   1.808 -0.7063 -0.8779 -1.1946
 9383SOL     OW39781   1.026   3.295   8.542 -0.2097 -0.1922 -0.0652
 9383SOL    HW139782   0.989   3.317   8.628  2.7483  1.6152  0.7396
 9383SOL    HW239783   0.987   3.363   8.487 -0.4054 -0.1125  0.1708
 9384SOL     OW39784   1.030   4.149   0.497  0.1723 -0.3806 -0.1348
 9384SOL    HW139785   1.020   4.054   0.494 -2.4480 -0.0409 -2.4298
 9384SOL    HW239786   0.939   4.171   0.476  0.6744 -0.7971 -2.7786
 9385SOL     OW39787   1.449   1.557   2.349 -0.3847 -0.1173  0.2910
 9385SOL    HW139788   1.358   1.570   2.324 -0.1457 -0.1498 -0.5841
 9385SOL    HW239789   1.502   1.542   2.271  1.1994  0.4015  1.2481
 9386SOL     OW39790   2.134   4.566   5.363  0.8660  0.3687  0.1002
 9386SOL    HW139791   2.173   4.575   5.276 -2.7462  3.2016 -1.1949
 9386SOL    HW239792   2.043   4.545   5.342  1.4201 -0.3994 -1.5217
 9387SOL     OW39793   0.755   1.525   4.342 -0.6751  0.1593 -0.2800
 9387SOL    HW139794   0.685   1.461   4.333 -1.7205  1.2508 -0.0121
 9387SOL    HW239795   0.718   1.568   4.420  2.5460  0.8519  0.8747
 9388SOL     OW39796   4.157   0.312  13.305 -0.4713  0.0151  0.7601
 9388SOL    HW139797   4.119   0.361  13.232 -2.1788 -0.8760  1.0611
 9388SOL    HW239798   4.167   0.228  13.262 -0.7443 -1.4553  3.5821
 9389SOL     OW39799   4.346   3.016   3.801 -0.3155  0.0923  0.4620
 9389SOL    HW139800   4.403   3.093   3.790  0.9367 -0.4696  2.9530
 9389SOL    HW239801   4.261   3.057   3.817 -0.2994  0.1825  0.3227
 9390SOL     OW39802   3.658   4.038  14.756  0.0896 -0.0678  0.5955
 9390SOL    HW139803   3.746   4.005  14.776  1.0449  1.8345 -0.4543
 9390SOL    HW239804   3.675   4.129  14.782  2.2819  0.1567 -1.6204
 9391SOL     OW39805   4.682   3.978   6.490  0.1645  0.7437 -0.0528
 9391SOL    HW139806   0.036   4.003   6.475 -0.2824  0.9593 -2.4526
 9391SOL    HW239807   4.637   4.049   6.443 -0.0685  2.0632  2.1728
 9392SOL     OW39808   0.321   1.951  17.123  0.6456  0.2124  0.7828
 9392SOL    HW139809   0.411   1.950  17.157  1.2045 -0.3782 -0.7132
 9392SOL    HW239810   0.292   2.037  17.153 -2.5731 -0.0390 -1.5776
 9393SOL     OW39811   0.886   1.377   0.908 -0.5678  0.0886 -0.0848
 9393SOL    HW139812   0.871   1.458   0.860  0.3900 -1.0250 -2.2911
 9393SOL    HW239813   0.889   1.304   0.845  0.9829 -0.4978  0.6626
 9394SOL     OW39814   0.198   1.486   5.530  0.1804 -0.0600  0.2939
 9394SOL    HW139815   0.151   1.523   5.605  0.1371  1.3384 -0.4302
 9394SOL    HW239816   0.160   1.531   5.455  1.6795  0.3042 -0.2505
 9395SOL     OW39817   0.088   4.506   2.165 -0.1068 -0.0338 -0.6628
 9395SOL    HW139818   4.734   4.513   2.195  0.7851  0.6574  1.8813
 9395SOL    HW239819   0.124   4.594   2.174  2.2568 -1.0007 -0.8519
 9396SOL     OW39820   1.776   3.425  17.202  0.3506 -0.0660  0.0454
 9396SOL    HW139821   1.868   3.398  17.202  1.0058  2.1483 -0.4866
 9396SOL    HW239822   1.766   3.432  17.107 -1.8108  0.8332  0.3508
 9397SOL     OW39823   4.455   4.160   0.599  0.1958 -0.0878  0.0851
 9397SOL    HW139824   4.482   4.069   0.595 -0.4589 -0.3860  2.4611
 9397SOL    HW239825   4.380   4.157   0.659  1.7338 -0.9206  1.9458
 9398SOL     OW39826   2.050   4.517   3.300  0.8248  0.2453 -0.2890
 9398SOL    HW139827   2.097   4.537   3.219  0.8776 -2.9285 -1.0435
 9398SOL    HW239828   2.089   4.433   3.324  2.0455  0.7341 -0.5535
 9399SOL     OW39829   0.233   3.540   1.480  0.0922 -0.4239 -0.4820
 9399SOL    HW139830   0.216   3.625   1.440 -2.1060 -0.4676  0.3628
 9399SOL    HW239831   0.148   3.526   1.521  1.1528 -1.3723  1.3847
 9400SOL     OW39832   3.392   2.588   2.883  0.1764  0.2795  0.1904
 9400SOL    HW139833   3.364   2.669   2.841  1.0445  1.7454  2.4529
 9400SOL    HW239834   3.411   2.634   2.964 -0.6084  1.2953 -0.2049
 9401SOL     OW39835   2.568   4.226  14.986 -0.0830  0.0890  0.0485
 9401SOL    HW139836   2.490   4.199  15.035  1.7821  1.3963  3.6573
 9401SOL    HW239837   2.529   4.295  14.931  0.9229 -0.7277 -1.6924
 9402SOL     OW39838   2.853   2.390   1.696 -0.2596  0.0055  0.3486
 9402SOL    HW139839   2.872   2.371   1.788 -1.9310  0.4988  0.7943
 9402SOL    HW239840   2.922   2.340   1.651 -0.2444  0.8136 -0.5327
 9403SOL     OW39841   2.359   1.614  11.729 -0.2964  0.2898  0.1964
 9403SOL    HW139842   2.440   1.603  11.778 -1.3506  0.8266  2.0339
 9403SOL    HW239843   2.390   1.641  11.642  0.1366  0.5218  0.4224
 9404SOL     OW39844   4.401   3.540   3.701  0.7674  0.2360 -0.4646
 9404SOL    HW139845   4.356   3.576   3.624 -0.1334  0.9885  0.4186
 9404SOL    HW239846   4.368   3.597   3.770 -3.0567 -1.0429 -1.2355
 9405SOL     OW39847   0.816   1.598   7.738  0.6601 -0.2565  0.1067
 9405SOL    HW139848   0.865   1.638   7.667 -2.0237 -0.5959 -1.9460
 9405SOL    HW239849   0.882   1.547   7.785  1.3887 -0.8321 -1.5351
 9406SOL     OW39850   0.622   2.378   8.158  0.0359  0.2958 -0.3388
 9406SOL    HW139851   0.639   2.461   8.202 -0.7358  0.5031 -0.4287
 9406SOL    HW239852   0.622   2.329   8.240 -2.3919  0.0519 -0.4764
 9407SOL     OW39853   1.053   4.495  15.823  0.3043 -0.4782  0.6969
 9407SOL    HW139854   1.056   4.401  15.837  0.7156 -0.6392 -0.4688
 9407SOL    HW239855   0.994   4.522  15.893 -0.0829 -0.9424  0.5489
 9408SOL     OW39856   2.438   3.210  17.016  0.1255  0.3590 -0.0537
 9408SOL    HW139857   2.516   3.173  16.976  0.8215  1.2449  0.4932
 9408SOL    HW239858   2.454   3.192  17.109  1.5886 -0.9837 -0.5599
 9409SOL     OW39859   3.858   4.631   2.151 -0.2452  0.2405  0.1905
 9409SOL    HW139860   3.809   4.550   2.142 -0.4401  0.2801  0.9402
 9409SOL    HW239861   3.877   4.628   2.245  0.7372 -0.5307 -0.0249
 9410SOL     OW39862   0.463   4.707  12.977 -0.0045  0.0632 -0.0345
 9410SOL    HW139863   0.430   0.052  12.941  1.1739  0.0541 -1.1626
 9410SOL    HW239864   0.490   4.719  13.068  1.8222 -0.0318 -0.5648
 9411SOL     OW39865   1.096   4.542   3.458 -0.5489 -0.2715 -0.0338
 9411SOL    HW139866   1.031   4.472   3.465  1.0528 -1.5862  1.4611
 9411SOL    HW239867   1.038   4.610   3.423 -1.1716 -0.2410  1.0655
 9412SOL     OW39868   1.732   2.707   9.402  0.5554 -0.0028 -0.5508
 9412SOL    HW139869   1.643   2.740   9.413  1.3761  1.2072  2.4644
 9412SOL    HW239870   1.730   2.627   9.455  0.3628 -0.3709 -1.1218
 9413SOL     OW39871   2.463   2.958   1.590  0.6578  0.4203  0.0147
 9413SOL    HW139872   2.540   2.926   1.637 -0.0255  1.1472  1.6207
 9413SOL    HW239873   2.404   2.997   1.655  1.2531  0.9469  0.2469
 9414SOL     OW39874   0.451   3.746  16.034  0.2965  0.6017  0.2105
 9414SOL    HW139875   0.386   3.816  16.029 -1.6868 -1.2186  0.0272
 9414SOL    HW239876   0.523   3.783  16.084  1.1367 -1.5573  0.5955
 9415SOL     OW39877   3.021   1.549   5.765  0.0222 -0.5482  0.4582
 9415SOL    HW139878   2.970   1.472   5.788 -1.6210  0.4893  0.2751
 9415SOL    HW239879   3.109   1.513   5.775 -0.7766 -2.3643  0.9270
 9416SOL     OW39880   3.841   3.423  10.233 -0.0368 -0.1089  0.0424
 9416SOL    HW139881   3.781   3.483  10.277  0.7253  0.7946 -0.1365
 9416SOL    HW239882   3.913   3.440  10.294 -0.1270  0.8610 -0.1210
 9417SOL     OW39883   3.061   3.386   9.771  0.0129  0.2154  0.4523
 9417SOL    HW139884   3.048   3.452   9.702 -0.9903 -0.5392 -0.0811
 9417SOL    HW239885   3.142   3.416   9.813 -0.5951  2.5256 -0.0343
 9418SOL     OW39886   3.268   3.625   4.231  0.1599  0.3387  0.3787
 9418SOL    HW139887   3.300   3.715   4.238 -0.2477  0.5236 -0.1460
 9418SOL    HW239888   3.180   3.645   4.198 -0.2654 -0.2157  1.1737
 9419SOL     OW39889   3.125   4.287  16.226 -0.0646 -0.3851  0.1571
 9419SOL    HW139890   3.116   4.372  16.269 -0.8633 -0.6525  0.5173
 9419SOL    HW239891   3.167   4.239  16.297 -0.2022 -1.1727 -0.2814
 9420SOL     OW39892   1.797   2.486   5.849 -0.2349 -0.1755 -0.3287
 9420SOL    HW139893   1.861   2.512   5.782  0.9104  0.1404  0.9069
 9420SOL    HW239894   1.845   2.507   5.929  1.5489 -2.0712 -0.9167
 9421SOL     OW39895   4.584   1.007   2.932  0.6211 -0.0015 -0.8405
 9421SOL    HW139896   4.524   1.081   2.917  0.6864  0.3365  0.5655
 9421SOL    HW239897   4.545   0.942   2.873  1.3342 -1.3304  0.1519
 9422SOL     OW39898   0.384   1.021   4.059 -0.2075  0.3461 -0.2585
 9422SOL    HW139899   0.464   1.060   4.093 -0.6145  2.5468 -1.7897
 9422SOL    HW239900   0.322   1.032   4.131  0.5672  0.7182  0.3443
 9423SOL     OW39901   3.613   4.499  12.198  0.1455 -0.3199 -0.1516
 9423SOL    HW139902   3.518   4.493  12.201  0.2332  0.0527  2.8960
 9423SOL    HW239903   3.647   4.409  12.193 -0.5884 -0.5827 -0.4203
 9424SOL     OW39904   3.869   2.678  11.895  0.4622  0.0055 -0.0128
 9424SOL    HW139905   3.951   2.660  11.941  0.4771  1.1721  0.4164
 9424SOL    HW239906   3.894   2.652  11.806 -0.8939  0.8678 -0.6632
 9425SOL     OW39907   4.293   3.686   3.120 -0.3398  0.1092 -0.1372
 9425SOL    HW139908   4.364   3.627   3.095 -0.1683  0.5581 -0.7172
 9425SOL    HW239909   4.215   3.652   3.075 -0.2428 -0.6580  0.2775
 9426SOL     OW39910   3.628   0.503   2.321  0.0604 -0.2871 -0.4126
 9426SOL    HW139911   3.588   0.584   2.288 -0.0697 -0.5427 -0.8881
 9426SOL    HW239912   3.721   0.523   2.330  0.3429 -1.3130 -1.0751
 9427SOL     OW39913   2.834   2.135   2.617 -0.3673  0.5333  0.2181
 9427SOL    HW139914   2.763   2.197   2.633  1.1444  1.6186  2.7401
 9427SOL    HW239915   2.909   2.195   2.607  0.7509 -0.5887  1.8420
 9428SOL     OW39916   0.371   4.087   5.552 -0.3308 -0.1969 -0.2524
 9428SOL    HW139917   0.299   4.144   5.581 -1.0721 -0.5115 -1.5131
 9428SOL    HW239918   0.387   4.039   5.633 -0.4861 -0.5682 -0.4448
 9429SOL     OW39919   2.906   0.139  16.225  0.0020 -0.4076 -0.2252
 9429SOL    HW139920   2.859   0.116  16.306 -0.9678  0.7725 -0.4558
 9429SOL    HW239921   2.854   0.085  16.165 -3.6236  1.5494  1.1591
 9430SOL     OW39922   1.913   1.786  13.038 -0.1874 -0.4441 -0.2023
 9430SOL    HW139923   1.920   1.706  13.091 -1.2304  1.0223  2.1606
 9430SOL    HW239924   1.819   1.797  13.024 -0.0111  1.2988  0.0297
 9431SOL     OW39925   3.699   3.662   3.743  0.1814 -0.2587 -0.4094
 9431SOL    HW139926   3.680   3.732   3.680 -0.4458 -1.7489 -1.8845
 9431SOL    HW239927   3.624   3.650   3.801  0.5425  0.4307  0.1946
 9432SOL     OW39928   4.227   1.955   9.052  0.3778  0.0697  0.1703
 9432SOL    HW139929   4.206   1.945   9.145 -0.7905  1.1339  0.0290
 9432SOL    HW239930   4.197   2.045   9.039  2.7356  0.6651 -1.1239
 9433SOL     OW39931   1.590   2.815   1.775  0.1765  0.0771 -0.6772
 9433SOL    HW139932   1.607   2.889   1.717  0.2238  0.3375 -0.3239
 9433SOL    HW239933   1.515   2.856   1.818 -0.7110 -2.4105  0.1446
 9434SOL     OW39934   2.621   2.466   9.102  0.0587 -0.1852 -0.0936
 9434SOL    HW139935   2.688   2.481   9.169 -0.7361 -2.1247  1.1087
 9434SOL    HW239936   2.651   2.417   9.025  1.4687 -0.0863  0.3899
 9435SOL     OW39937   1.811   1.268  10.916 -0.0080  0.7166 -0.1064
 9435SOL    HW139938   1.824   1.359  10.890  1.8130  0.4906  0.0641
 9435SOL    HW239939   1.893   1.230  10.884  0.2637 -0.1831  1.6447
 9436SOL     OW39940   0.004   0.916  13.570  0.1620  0.0116 -0.1030
 9436SOL    HW139941   4.714   0.835  13.527  0.1073  0.1855 -0.3918
 9436SOL    HW239942   4.660   0.940  13.614 -0.2837  0.5531 -1.2264
 9437SOL     OW39943   1.792   3.904   9.380 -0.4197 -0.2059 -0.3646
 9437SOL    HW139944   1.857   3.879   9.314  0.1196  1.5963 -0.5271
 9437SOL    HW239945   1.792   4.000   9.375 -1.8409 -0.1999 -0.2281
 9438SOL     OW39946   3.987   3.695   6.803  1.1526 -0.1767  0.0583
 9438SOL    HW139947   3.903   3.721   6.766  0.0920 -0.1809  2.4906
 9438SOL    HW239948   3.970   3.651   6.886 -0.5013  0.2478 -0.0680
 9439SOL     OW39949   0.732   1.354   8.100 -0.0649 -0.3172  0.1814
 9439SOL    HW139950   0.805   1.333   8.041 -0.7654 -2.1606 -0.0249
 9439SOL    HW239951   0.716   1.273   8.148  0.0090 -0.9745 -0.9019
 9440SOL     OW39952   4.030   3.375   4.871 -0.7381  0.5990  0.1280
 9440SOL    HW139953   3.984   3.458   4.859 -0.5847  0.5979 -0.4926
 9440SOL    HW239954   4.078   3.357   4.790  1.1980  0.4883  1.2918
 9441SOL     OW39955   3.267   2.223   6.969 -0.0906  0.2018 -0.4846
 9441SOL    HW139956   3.341   2.199   6.913  0.1427 -2.3799  0.9568
 9441SOL    HW239957   3.302   2.229   7.058  3.1979  1.8044 -1.8828
 9442SOL     OW39958   1.877   3.027   4.937  0.1708  0.3139 -0.4958
 9442SOL    HW139959   1.970   3.024   4.957  0.0910  0.3164 -0.1155
 9442SOL    HW239960   1.845   3.013   5.026  1.4867 -0.5573 -0.1709
 9443SOL     OW39961   0.735   2.444   5.415  0.0092 -0.2738 -0.2763
 9443SOL    HW139962   0.733   2.538   5.398  2.2788  0.0149  1.0365
 9443SOL    HW239963   0.824   2.421   5.389 -0.0585 -0.2117 -0.5567
 9444SOL     OW39964   3.873   2.102   6.645 -0.0907 -0.8302 -0.2079
 9444SOL    HW139965   3.840   2.014   6.663 -0.7143 -0.4842  0.3370
 9444SOL    HW239966   3.964   2.078   6.628  0.2756  1.7515 -2.0317
 9445SOL     OW39967   3.571   1.531  16.913  0.3709 -0.5926  0.3286
 9445SOL    HW139968   3.631   1.457  16.917  0.9213 -0.1745 -0.2285
 9445SOL    HW239969   3.509   1.508  16.844  0.6292 -0.2454 -0.0219
 9446SOL     OW39970   2.081   4.095   4.390  0.5930  0.4492  0.6360
 9446SOL    HW139971   2.141   4.024   4.366  0.8695  0.5450  1.0487
 9446SOL    HW239972   2.062   4.077   4.483 -0.4525  0.6148  0.4546
 9447SOL     OW39973   3.124   1.998  13.528  0.1543 -0.1262  0.3004
 9447SOL    HW139974   3.116   1.983  13.622 -2.0140  0.1770  0.1814
 9447SOL    HW239975   3.076   1.925  13.488 -0.2368  0.8804 -1.0719
 9448SOL     OW39976   2.746   2.069   5.992 -0.3905  0.2788  0.2438
 9448SOL    HW139977   2.812   2.055   6.060 -1.6825  1.8091  1.7804
 9448SOL    HW239978   2.666   2.081   6.041  0.1418  1.8490  0.7030
 9449SOL     OW39979   2.170   2.960  10.358  0.1534  0.4095 -0.1586
 9449SOL    HW139980   2.247   2.955  10.415 -0.5731 -1.9305  0.6138
 9449SOL    HW239981   2.207   2.927  10.276  2.3004 -1.4308  1.5171
 9450SOL     OW39982   4.643   1.997  10.064  0.1820 -0.0149  0.2167
 9450SOL    HW139983   4.713   2.061  10.080 -0.3395  0.5215  0.3198
 9450SOL    HW239984   4.616   1.983  10.154  1.3973 -2.4147  0.2092
 9451SOL     OW39985   2.326   3.515   6.208  0.3497  0.1189 -0.7672
 9451SOL    HW139986   2.286   3.590   6.253  3.6726  0.4823  1.5218
 9451SOL    HW239987   2.254   3.476   6.158 -0.9149  0.3105  0.8807
 9452SOL     OW39988   0.989   3.460   4.760 -0.0456 -0.1230 -0.1671
 9452SOL    HW139989   1.079   3.494   4.761 -0.7267  1.7810 -2.4125
 9452SOL    HW239990   0.952   3.519   4.694  2.9915  1.5013 -0.4214
 9453SOL     OW39991   3.887   1.552   2.503 -0.2301 -0.6121  0.1592
 9453SOL    HW139992   3.893   1.647   2.500  1.8615 -0.7374  0.0705
 9453SOL    HW239993   3.807   1.538   2.452  0.6227  1.6867 -1.8282
 9454SOL     OW39994   4.406   4.049  12.436  0.2772 -0.3459  0.5755
 9454SOL    HW139995   4.394   4.132  12.391  0.6496 -1.1443 -0.9913
 9454SOL    HW239996   4.473   4.012  12.378 -1.3619 -0.0081 -1.4824
 9455SOL     OW39997   3.106   0.325   3.405 -0.4480 -0.1563 -0.2270
 9455SOL    HW139998   3.059   0.394   3.453  0.0082  0.3579 -0.5168
 9455SOL    HW239999   3.030   0.278   3.370 -0.9479 -1.6699  2.9196
 9456SOL     OW40000   4.117   2.890   1.162 -0.4591 -0.4586 -0.5590
 9456SOL    HW140001   4.059   2.923   1.093 -0.3330  1.4895  0.2561
 9456SOL    HW240002   4.094   2.945   1.237  0.4493  0.4866 -0.9751
 9457SOL     OW40003   3.366   0.266  13.252 -0.2911  0.6837 -0.1454
 9457SOL    HW140004   3.281   0.232  13.279 -0.9529  1.8111 -0.8558
 9457SOL    HW240005   3.387   0.199  13.186  0.2969 -0.8900  1.6189
 9458SOL     OW40006   1.638   3.137   1.365 -0.1858  0.2710  0.2644
 9458SOL    HW140007   1.693   3.189   1.306 -1.1680  0.7642 -0.2190
 9458SOL    HW240008   1.556   3.119   1.320 -0.8364  2.4458  0.5636
 9459SOL     OW40009   0.599   1.775   3.142  0.2528  0.6305  0.7330
 9459SOL    HW140010   0.519   1.827   3.137 -0.4571 -0.5428 -0.1165
 9459SOL    HW240011   0.664   1.844   3.156  1.1241  0.2659 -1.4770
 9460SOL     OW40012   2.432   3.769  13.679  0.2303 -0.2490  0.6328
 9460SOL    HW140013   2.465   3.807  13.761  1.7624  1.6582 -0.8565
 9460SOL    HW240014   2.497   3.798  13.616 -1.4205  1.3556 -0.3097
 9461SOL     OW40015   3.913   3.325   8.574 -0.1672  0.0259 -0.2801
 9461SOL    HW140016   3.998   3.281   8.564  0.0775  0.0291  1.8210
 9461SOL    HW240017   3.899   3.319   8.668 -0.0773  1.8569 -0.1562
 9462SOL     OW40018   3.522   0.751  14.254 -0.1946 -0.1281  0.0845
 9462SOL    HW140019   3.604   0.730  14.299 -1.0351  0.4582  1.8794
 9462SOL    HW240020   3.496   0.821  14.313  0.6757 -1.1184  1.6339
 9463SOL     OW40021   0.725   1.381   5.257  0.1956 -0.1254 -0.3163
 9463SOL    HW140022   0.808   1.429   5.256  0.1785 -0.1218 -1.1988
 9463SOL    HW240023   0.751   1.310   5.199  0.3338 -0.2436 -0.1096
 9464SOL     OW40024   1.093   1.952  11.051  0.2950  0.7615 -0.1524
 9464SOL    HW140025   1.088   1.922  11.142 -0.3652  1.7140  0.1113
 9464SOL    HW240026   1.117   2.043  11.069  0.2756  0.5038  1.1738
 9465SOL     OW40027   1.244   2.894  10.101 -0.8458  0.8150 -0.4523
 9465SOL    HW140028   1.154   2.869  10.120 -0.2652  1.3271  3.0042
 9465SOL    HW240029   1.276   2.903  10.191 -0.4821 -0.3751 -0.4547
 9466SOL     OW40030   1.820   1.081   5.922 -0.4003 -0.0645  0.2799
 9466SOL    HW140031   1.862   1.086   5.836 -0.5026 -1.0390  0.1690
 9466SOL    HW240032   1.766   1.002   5.908  0.3776 -0.3914 -0.8905
 9467SOL     OW40033   1.658   3.288   6.115  0.0053  0.1091  0.5377
 9467SOL    HW140034   1.708   3.226   6.062  1.0197  1.8848 -0.5769
 9467SOL    HW240035   1.575   3.240   6.117 -0.1677  0.5171  3.4562
 9468SOL     OW40036   4.438   2.476   6.092 -0.5219  0.0386  0.0560
 9468SOL    HW140037   4.454   2.559   6.138 -0.8300 -0.2912  0.7491
 9468SOL    HW240038   4.414   2.415   6.161 -2.4808  0.0607 -0.6205
 9469SOL     OW40039   3.616   0.530   8.008 -0.1177  0.3505 -0.0002
 9469SOL    HW140040   3.544   0.544   8.070 -0.1413  2.6477 -0.5625
 9469SOL    HW240041   3.643   0.442   8.033 -0.8996 -0.3308 -1.5719
 9470SOL     OW40042   0.010   1.893   5.260 -0.5830  0.5848  0.3837
 9470SOL    HW140043   0.004   1.901   5.355  1.6223  1.2363  0.4718
 9470SOL    HW240044   0.028   1.984   5.235 -1.2549  0.0258 -2.0875
 9471SOL     OW40045   4.253   1.889   5.924 -0.2831 -0.2651 -0.4826
 9471SOL    HW140046   4.159   1.875   5.914  0.1726 -1.8402 -2.7165
 9471SOL    HW240047   4.256   1.928   6.011  0.1092  0.0344 -0.6259
 9472SOL     OW40048   3.197   1.448   3.138  0.3664 -0.1296  0.1513
 9472SOL    HW140049   3.149   1.366   3.149  0.4935 -0.1948  0.2206
 9472SOL    HW240050   3.218   1.442   3.045 -0.3718 -1.9379  0.1007
 9473SOL     OW40051   1.078   3.852   5.350 -0.0563  0.2334 -0.3020
 9473SOL    HW140052   1.054   3.814   5.435 -0.4543  0.4235 -0.3320
 9473SOL    HW240053   1.046   3.941   5.364 -0.0628  0.2984 -0.7431
 9474SOL     OW40054   3.655   2.053   2.203  0.5680 -0.2325  0.1792
 9474SOL    HW140055   3.716   2.082   2.270  0.9107  1.0833 -0.7137
 9474SOL    HW240056   3.575   2.073   2.252  1.0384 -1.4524  1.4691
 9475SOL     OW40057   4.211   3.382   6.224  0.3311  0.6680  0.4178
 9475SOL    HW140058   4.159   3.432   6.161 -0.6255 -3.3637 -2.0106
 9475SOL    HW240059   4.152   3.307   6.230 -1.1039  1.7503 -0.3276
 9476SOL     OW40060   1.815   2.565   5.028 -0.4408 -0.2336  0.2286
 9476SOL    HW140061   1.870   2.584   5.104 -1.8356  1.1980  0.9030
 9476SOL    HW240062   1.880   2.590   4.962 -3.5933  0.0590 -2.7778
 9477SOL     OW40063   0.416   1.374   0.777  0.1273  0.3667 -0.5481
 9477SOL    HW140064   0.393   1.381   0.870  2.2361  1.2270 -0.0973
 9477SOL    HW240065   0.478   1.446   0.767  0.2325  0.3770  0.1317
 9478SOL     OW40066   2.852   1.863   4.940 -0.4421  0.1909 -0.0428
 9478SOL    HW140067   2.787   1.792   4.941 -1.3310  1.0224  1.0332
 9478SOL    HW240068   2.883   1.856   5.030 -3.2620 -1.0062  0.8343
 9479SOL     OW40069   3.951   2.857   1.978  0.2602 -0.0006 -0.3174
 9479SOL    HW140070   3.860   2.870   1.953 -0.2816 -2.1047  0.5824
 9479SOL    HW240071   3.994   2.791   1.923  0.0633 -1.6873  1.5576
 9480SOL     OW40072   2.871   4.636   2.352  0.2524  0.0889 -0.1894
 9480SOL    HW140073   2.820   4.615   2.273  1.1220 -0.2423 -0.6596
 9480SOL    HW240074   2.908   4.715   2.312  1.3498  0.4934  1.6476
 9481SOL     OW40075   2.222   3.355   6.730 -0.0217  0.0637 -0.3457
 9481SOL    HW140076   2.268   3.323   6.652 -1.7975 -0.4968 -1.1676
 9481SOL    HW240077   2.176   3.275   6.756 -0.6354  0.4977 -0.0847
 9482SOL     OW40078   1.509   1.961  11.476  0.4387  0.6924 -0.0434
 9482SOL    HW140079   1.444   2.029  11.491 -1.8131 -1.5447  0.2959
 9482SOL    HW240080   1.591   2.010  11.481  1.3564 -0.4945 -3.7855
 9483SOL     OW40081   3.185   2.790   3.145 -0.3458 -0.3124 -0.3517
 9483SOL    HW140082   3.188   2.797   3.241 -0.9342  2.7191 -0.5485
 9483SOL    HW240083   3.270   2.749   3.130 -1.1864 -1.9732 -0.4568
 9484SOL     OW40084   1.816   2.150  14.371 -0.0394 -0.6613  0.4256
 9484SOL    HW140085   1.797   2.243  14.366 -0.0724 -0.6205  1.3075
 9484SOL    HW240086   1.791   2.132  14.462 -1.2432  0.3581  0.2954
 9485SOL     OW40087   4.030   4.060   9.386 -0.2892 -0.0415 -0.3891
 9485SOL    HW140088   4.035   3.967   9.410 -0.8350 -0.0185 -0.1841
 9485SOL    HW240089   4.081   4.111   9.448 -0.7689 -0.6773  0.5332
 9486SOL     OW40090   0.268   1.809   4.017  0.8512 -0.0148  0.4356
 9486SOL    HW140091   0.344   1.865   4.033  1.9335 -1.1909 -0.5431
 9486SOL    HW240092   0.207   1.878   3.990  1.0115 -1.3535 -3.2979
 9487SOL     OW40093   0.446   2.214   6.232  0.0355  0.3925 -0.1016
 9487SOL    HW140094   0.373   2.269   6.202 -0.8795 -1.1108 -0.6067
 9487SOL    HW240095   0.398   2.162   6.296  0.8466  0.4994  0.6022
 9488SOL     OW40096   1.789   1.551   9.327  0.5396  0.2204  0.1090
 9488SOL    HW140097   1.732   1.518   9.396 -2.0272 -2.4108 -3.2500
 9488SOL    HW240098   1.729   1.624   9.308  0.0495 -0.2075  0.0262
 9489SOL     OW40099   3.922   3.823  10.427 -0.3265 -0.4551  0.4962
 9489SOL    HW140100   4.005   3.794  10.391  0.8939  0.8085  2.2843
 9489SOL    HW240101   3.946   3.895  10.486  0.6710 -1.4880  1.3410
 9490SOL     OW40102   3.469   3.436   0.941 -0.1415 -0.0281 -0.1295
 9490SOL    HW140103   3.387   3.485   0.937 -0.2817 -0.2599 -0.1207
 9490SOL    HW240104   3.508   3.467   1.022 -1.7464 -1.7830  1.2986
 9491SOL     OW40105   0.620   3.580   1.196  0.0922  0.5795  0.5999
 9491SOL    HW140106   0.569   3.546   1.122  2.0168  1.7329 -1.2609
 9491SOL    HW240107   0.561   3.548   1.264 -2.4377  0.7041 -1.5437
 9492SOL     OW40108   2.170   3.877   6.259 -0.3570 -0.1487 -0.2515
 9492SOL    HW140109   2.121   3.802   6.293 -0.0875  0.1747  0.8408
 9492SOL    HW240110   2.132   3.893   6.172 -2.4526  0.4606  0.7768
 9493SOL     OW40111   3.775   1.080   1.962  0.5128  0.7443 -0.0771
 9493SOL    HW140112   3.831   1.108   1.890  0.3237 -1.5055 -1.0794
 9493SOL    HW240113   3.772   0.985   1.950  0.2531  0.6449  0.8132
 9494SOL     OW40114   1.605   1.340  13.715  0.5027 -0.0402 -0.3118
 9494SOL    HW140115   1.588   1.369  13.626 -1.0236 -1.8303 -0.5972
 9494SOL    HW240116   1.676   1.402  13.734  0.3121  0.4479 -1.2199
 9495SOL     OW40117   3.345   0.925  12.380  0.7611 -0.0992  0.3780
 9495SOL    HW140118   3.278   0.988  12.407  0.3153 -0.6915  0.6554
 9495SOL    HW240119   3.326   0.907  12.288 -1.9274 -1.8657  1.2507
 9496SOL     OW40120   2.343   3.637   4.766 -0.3603 -0.7805  0.3968
 9496SOL    HW140121   2.398   3.577   4.716  0.6179  1.3901 -1.1162
 9496SOL    HW240122   2.253   3.604   4.763 -0.5412 -0.2862  0.3775
 9497SOL     OW40123   0.476   2.729   5.445 -0.3625  0.3044 -0.4779
 9497SOL    HW140124   0.549   2.722   5.384  0.8287 -0.3103  1.0386
 9497SOL    HW240125   0.495   2.661   5.509 -0.8039  1.2588  0.6641
 9498SOL     OW40126   1.429   0.121   9.647 -0.0342  0.1572  0.0818
 9498SOL    HW140127   1.503   0.137   9.706  0.1431 -0.2672 -0.0269
 9498SOL    HW240128   1.363   0.121   9.716 -1.7657 -0.0908 -1.5679
 9499SOL     OW40129   2.220   4.042   5.171 -0.6234 -0.0477 -0.1387
 9499SOL    HW140130   2.301   4.010   5.132 -1.8145 -1.4774 -1.4255
 9499SOL    HW240131   2.223   4.128   5.131 -0.7718 -0.3369 -0.7660
 9500SOL     OW40132   3.353   0.027  12.728  0.5563 -0.7331 -0.7553
 9500SOL    HW140133   3.334   0.103  12.782 -3.7587 -2.2894 -0.0917
 9500SOL    HW240134   3.338   4.696  12.793  0.0026 -0.3172 -0.4505
 9501SOL     OW40135   0.084   0.177   8.986 -0.4620  0.0451  0.4330
 9501SOL    HW140136   4.729   0.202   8.978  0.1430  1.1971 -3.0363
 9501SOL    HW240137   0.073   0.090   9.024  0.9702 -0.1005  0.4861
 9502SOL     OW40138   2.518   4.133   7.078 -0.1724 -0.9000 -0.1870
 9502SOL    HW140139   2.520   4.207   7.138  1.3376 -1.0548 -0.0511
 9502SOL    HW240140   2.587   4.077   7.113  1.3073  2.2699  1.9491
 9503SOL     OW40141   1.837   1.647  15.175 -0.1856  0.5275 -0.6345
 9503SOL    HW140142   1.790   1.728  15.193  0.3359  0.4804  0.9092
 9503SOL    HW240143   1.881   1.628  15.258 -1.5771  0.8735  0.1755
 9504SOL     OW40144   0.638   2.271   7.387 -0.8992  0.0641 -0.3497
 9504SOL    HW140145   0.728   2.290   7.414 -0.9042  0.0846 -0.3468
 9504SOL    HW240146   0.623   2.180   7.364  1.9087 -0.7314  1.0243
 9505SOL     OW40147   1.205   0.958  16.670 -0.0262 -0.1106 -0.2145
 9505SOL    HW140148   1.282   0.902  16.661 -0.2236 -0.9873  3.4552
 9505SOL    HW240149   1.149   0.912  16.609  1.3328 -3.0138  0.6909
 9506SOL     OW40150   4.581   0.306   7.277  0.0934  0.3272 -0.8449
 9506SOL    HW140151   4.521   0.369   7.235  1.4706  1.1370 -1.5760
 9506SOL    HW240152   4.564   0.219   7.243  0.7037 -0.1730  0.1276
 9507SOL     OW40153   3.795   2.090   8.515  0.1953 -0.4909  0.5640
 9507SOL    HW140154   3.847   2.168   8.498  0.0478  0.0173  2.4064
 9507SOL    HW240155   3.862   2.033   8.478 -1.0032  0.3465 -2.9342
 9508SOL     OW40156   2.414   4.722   8.453  0.5675  0.2197  0.1464
 9508SOL    HW140157   2.365   0.064   8.429  1.5749  1.1101  1.0717
 9508SOL    HW240158   2.348   4.664   8.490  2.1487 -0.2280  2.2257
 9509SOL     OW40159   3.086   3.710   8.119 -0.7994  0.3103  0.0791
 9509SOL    HW140160   3.096   3.805   8.118  1.3667  0.0763 -0.7288
 9509SOL    HW240161   2.998   3.713   8.082 -1.2445 -0.9673  1.0608
 9510SOL     OW40162   1.215   1.892   6.554  0.2189 -0.1316 -0.5892
 9510SOL    HW140163   1.286   1.948   6.585 -1.3766  0.6818  1.6261
 9510SOL    HW240164   1.254   1.863   6.471 -0.8551 -0.3975 -1.0120
 9511SOL     OW40165   3.696   3.263  15.562  0.4943  0.1725 -0.6364
 9511SOL    HW140166   3.625   3.248  15.499 -0.6806 -0.4462  0.8205
 9511SOL    HW240167   3.772   3.262  15.503 -1.0264 -2.7540 -2.5615
 9512SOL     OW40168   2.491   1.744  15.866  0.0026  0.0461  0.1142
 9512SOL    HW140169   2.428   1.810  15.894  0.2659 -0.3996  1.7554
 9512SOL    HW240170   2.553   1.809  15.833  1.7355 -1.2089  0.8640
 9513SOL     OW40171   0.545   3.731   7.428  0.0541 -0.2219  0.5570
 9513SOL    HW140172   0.552   3.726   7.332 -2.6816  0.1442  0.3638
 9513SOL    HW240173   0.465   3.775   7.453  0.6449  0.1350  1.8084
 9514SOL     OW40174   0.599   3.911   3.375  0.7132  0.2186 -0.0096
 9514SOL    HW140175   0.636   3.992   3.339  0.2649  0.6873  0.5908
 9514SOL    HW240176   0.526   3.885   3.319 -0.0585  0.3563  0.9430
 9515SOL     OW40177   2.116   0.262   9.180  0.1916 -0.2591  0.1982
 9515SOL    HW140178   2.182   0.230   9.242  0.6323 -0.4770 -0.3775
 9515SOL    HW240179   2.142   0.230   9.094 -1.6799 -0.4598 -0.2771
 9516SOL     OW40180   0.404   0.451   4.945 -0.1481 -0.3921  0.6664
 9516SOL    HW140181   0.499   0.439   4.940 -0.2168 -1.7057  2.3468
 9516SOL    HW240182   0.404   0.421   5.036 -1.5995  1.3321  1.2302
 9517SOL     OW40183   2.924   0.752   0.185  0.3601  0.2742 -0.4035
 9517SOL    HW140184   2.846   0.736   0.238  1.5673 -1.8076  0.7244
 9517SOL    HW240185   2.951   0.665   0.155  1.8635  0.0961  1.5208
 9518SOL     OW40186   1.227   0.755   2.963  0.0543 -0.4368 -0.0216
 9518SOL    HW140187   1.137   0.780   2.943  0.0586 -0.5386 -0.1752
 9518SOL    HW240188   1.270   0.840   2.962 -0.8367  0.0507  3.2019
 9519SOL     OW40189   2.961   2.071   5.469  0.1277 -0.0925  0.3367
 9519SOL    HW140190   2.950   2.065   5.564  0.9262 -0.3417  0.4085
 9519SOL    HW240191   3.023   2.000   5.457 -0.5048 -0.4858 -0.5540
 9520SOL     OW40192   1.707   4.317   4.944  0.1149  0.0583 -0.2315
 9520SOL    HW140193   1.661   4.356   4.870 -2.4359 -0.7036  0.9412
 9520SOL    HW240194   1.799   4.299   4.925  0.1505  0.1895 -0.1805
 9521SOL     OW40195   1.025   3.656   2.889  0.4053 -0.2128  0.0344
 9521SOL    HW140196   1.086   3.582   2.888 -0.2236 -0.7511  1.0888
 9521SOL    HW240197   1.083   3.729   2.910  1.5932 -1.5858  1.5401
 9522SOL     OW40198   0.692   3.913  17.204 -0.0581  0.2024 -0.1401
 9522SOL    HW140199   0.607   3.944  17.235 -0.3297 -0.2584 -0.4338
 9522SOL    HW240200   0.662   3.849  17.139  0.8641 -0.1133 -0.2518
 9523SOL     OW40201   1.708   1.604   9.611 -0.4396  0.4769 -0.2491
 9523SOL    HW140202   1.715   1.509   9.615 -1.5400  0.4303  0.7339
 9523SOL    HW240203   1.619   1.614   9.578 -0.2848 -0.5993 -0.9794
 9524SOL     OW40204   2.986   3.439  16.994  0.5200 -0.4795 -0.2978
 9524SOL    HW140205   2.909   3.445  16.937  0.0049  0.9872  0.5385
 9524SOL    HW240206   3.050   3.498  16.954  1.3054 -1.0566  0.1093
 9525SOL     OW40207   2.484   1.485   9.996  0.0643 -0.2428 -0.0925
 9525SOL    HW140208   2.530   1.514  10.075  0.5367 -0.4772 -0.2757
 9525SOL    HW240209   2.551   1.486   9.928  2.0859  0.9709  1.8942
 9526SOL     OW40210   3.636   4.102   1.993  0.3364 -0.3383 -0.0581
 9526SOL    HW140211   3.553   4.150   1.985  1.1240  1.0370  0.0798
 9526SOL    HW240212   3.634   4.098   2.088  1.2687  0.3813 -0.0055
 9527SOL     OW40213   3.874   2.645  16.664  0.2840 -0.2009  0.0869
 9527SOL    HW140214   3.844   2.719  16.717  0.3791 -0.4410  0.4782
 9527SOL    HW240215   3.788   2.608  16.643 -0.2875  0.4141  1.3397
 9528SOL     OW40216   1.862   1.528  10.821  0.4744  0.2934  0.4164
 9528SOL    HW140217   1.827   1.541  10.733 -0.9608  0.7312  1.0394
 9528SOL    HW240218   1.909   1.611  10.823 -0.5876  0.9393 -1.2772
 9529SOL     OW40219   2.962   3.548   3.382  0.0203  0.2949  0.6855
 9529SOL    HW140220   2.918   3.529   3.299  0.1677  0.3136  0.6023
 9529SOL    HW240221   2.953   3.466   3.430  2.2143 -1.2540 -1.5796
 9530SOL     OW40222   3.384   0.675   5.956  0.4306  0.3109  0.1308
 9530SOL    HW140223   3.293   0.674   5.984  0.1980  1.2003 -0.5993
 9530SOL    HW240224   3.408   0.760   5.994 -0.6620  0.8733 -0.4443
 9531SOL     OW40225   1.765   0.519   4.571  0.2381  0.3842 -0.6604
 9531SOL    HW140226   1.797   0.607   4.587  1.7851 -0.3172  0.1174
 9531SOL    HW240227   1.739   0.529   4.479 -0.6018 -0.4343 -0.5172
 9532SOL     OW40228   0.053   1.951   0.512 -0.0646  0.0171  0.0345
 9532SOL    HW140229   0.113   1.877   0.515 -2.7028 -2.2131 -1.6184
 9532SOL    HW240230   0.030   1.952   0.419  1.1783 -0.3092 -0.2758
 9533SOL     OW40231   4.287   2.979   4.774 -0.1544 -0.4686  0.1061
 9533SOL    HW140232   4.354   2.912   4.762 -1.0754 -1.2344 -0.8032
 9533SOL    HW240233   4.234   2.952   4.848  0.1406  2.7291  1.4713
 9534SOL     OW40234   2.129   0.954   3.677  0.1906 -0.3686 -0.1760
 9534SOL    HW140235   2.050   1.000   3.648  0.6460  0.9658  0.6698
 9534SOL    HW240236   2.098   0.878   3.726 -1.3803  0.7764  0.5957
 9535SOL     OW40237   4.146   0.060  13.186 -0.0710 -0.6783  0.0643
 9535SOL    HW140238   4.141   0.009  13.105 -0.7713  1.3844 -1.1681
 9535SOL    HW240239   4.112   0.002  13.254 -0.4913  1.0174  1.3010
 9536SOL     OW40240   2.863   4.071   4.497 -0.1089 -0.2792  0.1126
 9536SOL    HW140241   2.895   4.095   4.584  0.4300  0.1546 -0.2022
 9536SOL    HW240242   2.861   3.976   4.512 -1.5836 -0.6364 -2.4849
 9537SOL     OW40243   3.855   3.479   4.555  0.5275  0.6283 -0.1218
 9537SOL    HW140244   3.792   3.546   4.584 -1.7935 -0.6417 -2.1941
 9537SOL    HW240245   3.939   3.516   4.582  0.1479  1.7622 -0.4806
 9538SOL     OW40246   3.804   2.274  13.709  0.1629  0.4429  0.4691
 9538SOL    HW140247   3.806   2.214  13.634 -0.9099  2.5266 -1.2076
 9538SOL    HW240248   3.887   2.319  13.691  1.4379 -1.0847  2.5402
 9539SOL     OW40249   2.881   3.099   4.590 -0.1568  0.1795  0.0311
 9539SOL    HW140250   2.918   3.012   4.575 -0.6704  0.2335 -1.6510
 9539SOL    HW240251   2.909   3.110   4.681  1.5991 -0.4621 -0.4305
 9540SOL     OW40252   1.155   3.646   0.272  0.4351 -0.2929  0.0188
 9540SOL    HW140253   1.137   3.638   0.178 -1.5297  1.0383  0.2760
 9540SOL    HW240254   1.213   3.723   0.276  0.0585 -0.0807  1.3056
 9541SOL     OW40255   2.542   3.776   2.198 -0.1993 -0.5902 -0.0280
 9541SOL    HW140256   2.447   3.768   2.190 -0.2294  0.9559 -1.1264
 9541SOL    HW240257   2.571   3.752   2.110  1.4412 -1.7037  0.8170
 9542SOL     OW40258   4.470   2.681  12.283 -0.7122  0.1304 -0.0045
 9542SOL    HW140259   4.554   2.675  12.238 -1.3739  0.3377 -1.2420
 9542SOL    HW240260   4.467   2.776  12.290 -0.7569  0.3128 -2.5263
 9543SOL     OW40261   4.459   1.176  15.822  0.1104 -0.5346  0.0037
 9543SOL    HW140262   4.455   1.271  15.810  0.0638 -0.8234 -2.3138
 9543SOL    HW240263   4.368   1.153  15.801  0.0522 -0.3533  0.0572
 9544SOL     OW40264   3.259   3.140  15.505  0.7971 -0.1459  0.0457
 9544SOL    HW140265   3.331   3.145  15.443 -0.5030 -0.5355 -1.4870
 9544SOL    HW240266   3.286   3.085  15.579  1.4170 -1.5725 -1.2455
 9545SOL     OW40267   2.377   2.958  16.796 -0.2482  0.0629  0.2607
 9545SOL    HW140268   2.288   2.932  16.773 -0.8296  2.7424 -0.4853
 9545SOL    HW240269   2.428   2.925  16.722 -0.0453 -1.1043  0.9195
 9546SOL     OW40270   2.886   4.006   2.123  0.1714  0.3041  0.1856
 9546SOL    HW140271   2.904   4.001   2.029 -0.5659  1.4607 -0.0213
 9546SOL    HW240272   2.961   4.051   2.162  1.1929 -1.3602  0.1311
 9547SOL     OW40273   1.933   3.078  10.443 -0.3241  0.1359  0.1640
 9547SOL    HW140274   2.015   3.034  10.420  0.8510  1.4327  1.8699
 9547SOL    HW240275   1.946   3.084  10.538 -0.1283  0.4145  0.1204
 9548SOL     OW40276   4.379   0.590   2.980 -0.3269 -0.1380  0.3828
 9548SOL    HW140277   4.410   0.524   3.043  1.0933  1.1423  1.0380
 9548SOL    HW240278   4.295   0.615   3.018  1.0520 -1.1391  4.1189
 9549SOL     OW40279   1.673   1.990  16.840 -0.1015  0.1022  0.2685
 9549SOL    HW140280   1.604   1.991  16.774  1.8532 -0.4744 -1.7952
 9549SOL    HW240281   1.743   2.027  16.785  0.2714 -1.2448 -0.1772
 9550SOL     OW40282   1.636   4.458  14.635 -0.4368 -0.4693  0.4942
 9550SOL    HW140283   1.677   4.512  14.702 -1.3760 -0.4402  1.0400
 9550SOL    HW240284   1.623   4.519  14.562  1.6672 -0.5915  0.0226
 9551SOL     OW40285   3.638   1.749   2.166 -0.0660 -0.1519  0.1014
 9551SOL    HW140286   3.635   1.831   2.215  2.5771  0.8910 -1.4598
 9551SOL    HW240287   3.591   1.752   2.083  1.4885  0.8595 -0.7537
 9552SOL     OW40288   2.709   1.123   8.914 -0.1640 -0.6314 -0.3904
 9552SOL    HW140289   2.656   1.043   8.909 -2.5074  0.7447  1.9245
 9552SOL    HW240290   2.703   1.152   8.823  0.8087 -2.8825 -1.1746
 9553SOL     OW40291   3.855   4.112   4.836  0.4509  0.3485  0.1759
 9553SOL    HW140292   3.842   4.206   4.841  2.2004  0.6764 -1.3094
 9553SOL    HW240293   3.773   4.082   4.876  0.3394  1.9068  1.0942
 9554SOL     OW40294   0.690   3.151   9.095  0.3928  0.3663 -0.6010
 9554SOL    HW140295   0.666   3.214   9.163 -2.0763  0.3687 -1.4844
 9554SOL    HW240296   0.671   3.192   9.010 -1.5061 -0.7087 -0.6747
 9555SOL     OW40297   0.146   1.705   7.813  0.5105 -0.6350  0.3181
 9555SOL    HW140298   0.238   1.685   7.829  0.6593 -1.5113 -1.6105
 9555SOL    HW240299   0.154   1.705   7.717 -1.0041 -0.1647  0.1964
 9556SOL     OW40300   4.300   2.853   8.461  0.1834 -0.2458 -0.5625
 9556SOL    HW140301   4.362   2.913   8.501 -0.2070 -0.0676 -0.2200
 9556SOL    HW240302   4.234   2.909   8.419 -0.3517  0.1543  0.7938
 9557SOL     OW40303   3.086   2.145   5.822 -0.3676  0.2875 -0.3499
 9557SOL    HW140304   3.028   2.089   5.771 -1.0824 -0.2074  0.9919
 9557SOL    HW240305   3.150   2.086   5.862  3.1812  1.6825 -4.0007
 9558SOL     OW40306   0.079   2.478   8.217  0.1037 -0.7136 -0.0482
 9558SOL    HW140307   0.156   2.514   8.260  0.3869 -0.0450 -1.0984
 9558SOL    HW240308   0.058   2.399   8.267 -2.3908  0.4671  0.7602
 9559SOL     OW40309   1.140   2.712  14.725  0.2102  0.6013  0.6948
 9559SOL    HW140310   1.148   2.728  14.631  1.3006  0.4819  0.7647
 9559SOL    HW240311   1.119   2.801  14.754  0.2575  0.3148  1.6252
 9560SOL     OW40312   0.660   3.731  10.539 -0.0822 -0.4463 -0.2405
 9560SOL    HW140313   0.582   3.751  10.486 -0.9884 -2.0666  0.5112
 9560SOL    HW240314   0.703   3.665  10.485 -1.0074 -1.2969  0.0591
 9561SOL     OW40315   0.335   3.980  15.817 -0.1331  0.3772  0.6195
 9561SOL    HW140316   0.261   3.973  15.878 -1.2600 -0.1178 -0.8003
 9561SOL    HW240317   0.310   3.914  15.753 -0.8157 -0.8582  2.1757
 9562SOL     OW40318   1.677   2.222   3.034 -0.3754 -0.0402  0.0684
 9562SOL    HW140319   1.638   2.309   3.039 -2.3629 -0.8457 -1.8590
 9562SOL    HW240320   1.610   2.167   2.994 -0.0475 -0.4531  0.0788
 9563SOL     OW40321   0.122   0.173  16.870 -0.3519 -0.2060 -0.1457
 9563SOL    HW140322   0.212   0.176  16.838 -0.5127  3.0973 -0.2352
 9563SOL    HW240323   0.113   0.254  16.920 -1.7407  0.1698 -0.9996
 9564SOL     OW40324   1.401   3.724   0.058 -0.0065  0.1144  0.2111
 9564SOL    HW140325   1.396   3.635   0.092  2.0422  0.4462  1.3708
 9564SOL    HW240326   1.310   3.727   0.027 -0.7247 -0.3515  2.2830
 9565SOL     OW40327   0.336   0.612   6.731 -0.1430  0.0524 -0.3347
 9565SOL    HW140328   0.358   0.676   6.663 -0.9118  1.2746  0.5666
 9565SOL    HW240329   0.249   0.593   6.697 -0.0530 -1.2870  0.1816
 9566SOL     OW40330   1.413   3.335   5.788 -0.2525 -0.4668  0.0105
 9566SOL    HW140331   1.467   3.413   5.776  0.5218 -1.3278 -2.2799
 9566SOL    HW240332   1.368   3.367   5.866  0.4334 -0.5908  0.4492
 9567SOL     OW40333   3.755   1.793   3.202 -0.2407 -0.3770 -0.7926
 9567SOL    HW140334   3.756   1.886   3.224 -1.6244 -0.5113 -0.1968
 9567SOL    HW240335   3.691   1.801   3.131 -2.7902 -1.7988  1.3372
 9568SOL     OW40336   1.552   2.077   8.976 -0.0318 -0.0380  0.6082
 9568SOL    HW140337   1.620   2.101   8.913 -0.9319  1.8811  0.3902
 9568SOL    HW240338   1.479   2.072   8.914 -2.5190  1.6614  3.3777
 9569SOL     OW40339   0.935   0.636  11.337  0.0256  0.2121 -0.8492
 9569SOL    HW140340   0.963   0.700  11.271 -0.3293  1.3179  0.0646
 9569SOL    HW240341   0.847   0.664  11.362  0.6714  0.4846  1.0623
 9570SOL     OW40342   3.093   2.050   6.849 -0.2809  0.7634 -0.1734
 9570SOL    HW140343   3.154   2.124   6.851 -0.3082  0.7836 -0.0652
 9570SOL    HW240344   3.091   2.018   6.940  1.9257  1.8849  0.2756
 9571SOL     OW40345   1.582   0.695   7.964  0.1984  0.2236 -0.3705
 9571SOL    HW140346   1.611   0.604   7.974  1.7372  0.6448 -1.0683
 9571SOL    HW240347   1.578   0.728   8.053  1.3351 -0.7212  0.0249
   4.73728   4.73728  17.74740
