Membrane in water
40347
    1TMC1    C1    1   0.330   3.065  11.281  0.4129  0.3426 -0.1883
    1TMC1    C2    2   0.421   3.171  11.293 -0.2820  0.3701 -0.1955
    1TMC1    C3    3   0.514   3.191  11.193  0.4995 -0.2032 -0.6507
    1TMC1    C4    4   0.324   2.987  11.170 -0.0205  0.1846 -0.2265
    1TMC1    C5    5   0.424   3.014  11.071  0.3963  0.1744 -0.7189
    1TMC1    C6    6   0.520   3.115  11.081  0.5170  0.0769  0.0987
    1TMC1     C    7   0.263   3.022  11.402  0.1646  0.5383  0.5684
    1TMC1     O    8   0.307   3.070  11.505  0.4323  0.0676  0.5888
    1TMC1     H    9   0.424   3.242  11.374 -0.3067 -0.0214  0.1509
    1TMC1    H1   10   0.256   2.905  11.155  0.1749  0.5906 -3.5153
    1TMC1    H2   11   0.608   3.115  11.017  2.1554 -0.8522  2.3292
    1TMC1    C7   12   0.436   2.929  10.953 -0.0469  0.2442  0.6732
    1TMC1    C8   13   0.552   3.331  11.172  0.2297  0.4912 -0.0658
    1TMC1    O1   14   0.535   2.871  10.912  0.1983  0.1291 -1.0191
    1TMC1    O2   15   0.645   3.351  11.096 -0.5001  0.1149  0.1165
    1TMC1    O3   16   0.308   2.896  10.923 -0.5622 -0.4057  0.2113
    1TMC1    H3   17   0.236   2.951  10.960  0.0895 -0.0297  0.9232
    1TMC1    O5   18   0.435   3.405  11.168 -0.8418  0.1916  0.2138
    1TMC1    H5   19   0.351   3.375  11.207 -1.6460  0.7421 -1.0767
    2MPD2     C   20   4.609   2.815  11.686 -0.3104  0.4714 -0.3214
    2MPD2    C1   21   4.727   2.879  11.724 -0.1115 -0.1238 -0.5511
    2MPD2    C2   22   0.087   2.922  11.627 -0.9983  0.2733 -0.3453
    2MPD2    C3   23   0.064   2.907  11.490  0.5532 -0.3395 -0.5500
    2MPD2    C4   24   4.678   2.854  11.457  0.4825  0.0906  0.6209
    2MPD2    C5   25   4.587   2.813  11.549  0.2146 -0.3552  0.6761
    2MPD2     H   26   0.174   2.977  11.661 -0.6219 -1.4671  1.4701
    2MPD2    H1   27   4.656   2.845  11.351 -3.2719  1.6192  1.2617
    2MPD2    H2   28   4.527   2.784  11.750 -1.0706  1.4647 -0.8293
    2MPD2    H3   29   4.492   2.766  11.528  0.0049  0.1222  0.5662
    2MPD2     N   30   0.154   2.942  11.385  0.3492  0.2731 -0.3349
    2MPD2    H5   31   0.124   2.921  11.291  0.8270 -0.8553 -0.2434
    2MPD2    N1   32   0.015   2.908  11.859  0.3494 -0.6360 -0.3116
    2MPD2    H7   33   0.089   2.974  11.882 -0.1105 -0.2399  0.0471
    3TMC1    C1   34   4.444   4.075  10.437  0.3141 -0.4497 -0.4952
    3TMC1    C2   35   4.466   4.184  10.365  0.2779  0.0390  0.5845
    3TMC1    C3   36   4.502   4.170  10.227  0.0671  0.1769  0.1723
    3TMC1    C4   37   4.462   3.955  10.386 -0.6197 -0.4704  1.0173
    3TMC1    C5   38   4.505   3.942  10.253 -0.0662  0.7766  0.2582
    3TMC1    C6   39   4.515   4.053  10.170 -0.6283 -0.8971  0.1893
    3TMC1     C   40   4.373   4.078  10.568 -0.0808  0.3719  0.2126
    3TMC1     O   41   4.325   3.971  10.602  0.6572 -0.3132 -0.4118
    3TMC1     H   42   4.446   4.286  10.395  0.6023  0.3155 -0.1309
    3TMC1    H1   43   4.469   3.877  10.461  3.1575 -2.0385 -0.9651
    3TMC1    H2   44   4.539   4.035  10.065 -2.9218 -1.1695 -0.3024
    3TMC1    C7   45   4.581   3.817  10.231 -0.3627 -0.0910 -0.2446
    3TMC1    C8   46   4.510   4.292  10.153  0.0685 -0.1068 -0.2893
    3TMC1    O1   47   4.566   3.716  10.298 -0.2853  0.7377 -0.2633
    3TMC1    O2   48   4.562   4.388  10.208  0.9175 -0.1219 -0.0063
    3TMC1    O3   49   4.652   3.828  10.113  0.1701  0.0657 -0.2873
    3TMC1    H3   50   4.681   3.921  10.099  0.6879  0.2956  2.4045
    3TMC1    O5   51   4.495   4.275  10.023 -0.1727  0.4661  0.0683
    3TMC1    H5   52   4.431   4.203  10.005  0.4422 -0.2538  0.8021
    4MPD2     C   53   4.172   4.288  10.979  0.0316  0.8444 -0.3802
    4MPD2    C1   54   4.192   4.386  10.883  0.0114 -0.1121  0.4333
    4MPD2    C2   55   4.265   4.356  10.761 -0.3845  0.3720  0.0053
    4MPD2    C3   56   4.296   4.227  10.742 -0.1897 -0.1863 -0.2076
    4MPD2    C4   57   4.257   4.126  10.826  0.3152  0.3593  0.3779
    4MPD2    C5   58   4.192   4.161  10.943  0.0316  0.9974 -1.1247
    4MPD2     H   59   4.300   4.433  10.694  0.9303  0.2849  0.5898
    4MPD2    H1   60   4.281   4.021  10.814  0.4574  0.1791  2.2791
    4MPD2    H2   61   4.115   4.307  11.069 -1.8801 -0.0147 -1.4221
    4MPD2    H3   62   4.161   4.092  11.021 -1.1698  1.7582 -0.9286
    4MPD2     N   63   4.367   4.199  10.626  0.3403 -0.4013  0.2953
    4MPD2    H5   64   4.412   4.278  10.581  1.2402 -0.7031  0.6656
    4MPD2    N1   65   4.161   4.523  10.895  0.5731  0.1548  0.4415
    4MPD2    H7   66   4.191   4.591  10.826 -2.6066  1.4658  0.3513
    5TCq1    O1   67   0.396   1.463  12.630 -0.4415 -0.3366 -0.3974
    5TCq1    C1   68   0.421   1.446  12.496  0.3210  0.5943  0.6545
    5TCq1    O2   69   0.461   1.345  12.443 -0.5732  0.3015  0.3175
    5TCq1    C2   70   0.359   1.551  12.410  0.0619 -0.3363 -0.7896
    5TCq1    C3   71   0.241   1.612  12.456  0.1905 -0.1845 -0.5071
    5TCq1    C4   72   0.175   1.696  12.377  0.3140  0.4164  0.6899
    5TCq1    C5   73   0.212   1.710  12.247  0.2705  0.8191  0.4215
    5TCq1    C6   74   0.315   1.625  12.197 -0.0874 -0.1457  0.1793
    5TCq1    C7   75   0.388   1.536  12.276  0.3429 -0.2338 -0.2424
    5TCq1    C8   76   0.336   1.607  12.051 -0.4815 -0.7554  0.1213
    5TCq1    O4   77   0.406   1.510  12.020  0.4035  0.6034 -0.0254
    5TCq1    C9   78   0.054   1.763  12.418 -0.3735  0.6013  0.1226
    5TCq1    O5   79   4.710   1.803  12.329 -0.4031  0.3104  0.9373
    5TCq1    O6   80   0.020   1.744  12.538  0.6748  0.1506 -0.0341
    5TCq1    H1   81   0.375   1.557  12.647  3.2117  0.2335  0.9815
    5TCq1    H2   82   0.189   1.591  12.548 -1.1398  2.4861 -0.6432
    5TCq1    H3   83   0.147   1.773  12.187 -0.7392 -1.1694 -0.5786
    5TCq1    H4   84   0.479   1.487  12.244 -0.2748  0.7485 -3.4751
    6MPD2     C   85   0.182   1.783  11.767 -0.0703 -0.3450 -0.3731
    6MPD2    C1   86   0.242   1.683  11.834 -0.1720  0.3470  0.5170
    6MPD2    C2   87   0.265   1.567  11.764 -0.7882  0.2567  0.0921
    6MPD2    C3   88   0.251   1.564  11.626  0.4980  0.4309 -0.2928
    6MPD2    C4   89   0.205   1.671  11.560 -0.6519 -0.1906 -0.2940
    6MPD2    C5   90   0.168   1.781  11.631  0.1177  0.5396  0.1509
    6MPD2     H   91   0.299   1.474  11.809  1.9210  1.7405  1.0968
    6MPD2    H1   92   0.194   1.660  11.452  0.7689  2.2310 -0.7084
    6MPD2    H2   93   0.156   1.876  11.815  0.7123 -0.7711  0.8732
    6MPD2    H3   94   0.123   1.863  11.576  2.4846  1.0886 -0.9435
    6MPD2     N   95   0.275   1.440  11.558  0.2867 -0.2949 -0.5467
    6MPD2    H5   96   0.283   1.357  11.616  0.6763  1.1165  1.4385
    6MPD2    N1   97   0.264   1.698  11.972  0.1523 -0.1407  0.3938
    6MPD2    H7   98   0.220   1.775  12.022 -0.2336 -0.7913  1.0572
    7TCq1    O1   99   2.129   0.899  12.746 -0.5045  0.3504  0.1622
    7TCq1    C1  100   2.213   0.998  12.732 -0.2102 -0.2186  0.7407
    7TCq1    O2  101   2.259   1.044  12.628  0.6447  0.2074 -0.0912
    7TCq1    C2  102   2.263   1.028  12.867  0.0574  0.5353  0.4128
    7TCq1    C3  103   2.302   1.152  12.898  1.0042  0.0593 -0.3483
    7TCq1    C4  104   2.367   1.176  13.016 -0.2126 -0.1721 -0.3497
    7TCq1    C5  105   2.398   1.073  13.102  0.8366 -0.5640 -0.9037
    7TCq1    C6  106   2.353   0.951  13.071 -0.5366  0.4290  0.0070
    7TCq1    C7  107   2.283   0.923  12.953 -0.6278 -0.2501 -0.1402
    7TCq1    C8  108   2.396   0.832  13.151  0.7993 -0.2815 -0.0579
    7TCq1    O4  109   2.382   0.724  13.095 -0.1554 -0.1631 -0.8453
    7TCq1    C9  110   2.382   1.312  13.052 -0.7710 -0.0736 -0.4802
    7TCq1    O5  111   2.326   1.404  12.989 -0.0364  0.3518  0.5342
    7TCq1    O6  112   2.460   1.330  13.151  0.2917  0.4117  0.0642
    7TCq1    H1  113   2.101   0.892  12.839  1.0397 -0.4784  0.5623
    7TCq1    H2  114   2.271   1.234  12.833  1.2277 -0.5184 -1.1875
    7TCq1    H3  115   2.456   1.094  13.191  0.9817  0.1677 -1.1723
    7TCq1    H4  116   2.244   0.825  12.933  1.6551 -1.2231  0.0968
    8MPD2     C  117   2.599   0.640  13.585  0.4572 -0.3487 -0.1531
    8MPD2    C1  118   2.574   0.584  13.459 -0.1775 -0.3296 -0.5614
    8MPD2    C2  119   2.517   0.662  13.358 -0.7663  0.3112 -1.2634
    8MPD2    C3  120   2.495   0.799  13.377  0.4167 -0.5682  0.2967
    8MPD2    C4  121   2.525   0.851  13.502 -0.2887 -0.1167  0.0515
    8MPD2    C5  122   2.576   0.776  13.605 -0.3320 -0.3034  0.6264
    8MPD2     H  123   2.494   0.619  13.261  1.8314  0.1618 -1.8060
    8MPD2    H1  124   2.498   0.953  13.527 -1.4401 -0.5570  0.6161
    8MPD2    H2  125   2.635   0.585  13.670  2.1004  1.6038  0.4032
    8MPD2    H3  126   2.598   0.823  13.700 -1.0306  0.3054  0.4859
    8MPD2     N  127   2.436   0.879  13.278  0.3180 -0.4847 -0.0351
    8MPD2    H5  128   2.429   0.979  13.296 -1.4397 -0.7101  0.4572
    8MPD2    N1  129   2.608   0.448  13.449 -0.7449  0.9052 -0.0333
    8MPD2    H7  130   2.650   0.404  13.530  1.6628  3.8164  0.2865
    9TMC1    C1  131   0.439   3.961  11.457 -0.2402 -0.9604  0.3377
    9TMC1    C2  132   0.365   3.848  11.493  0.4127 -0.0970  0.3879
    9TMC1    C3  133   0.364   3.744  11.409 -0.5291 -0.1547 -0.7447
    9TMC1    C4  134   0.496   3.960  11.330  0.9651 -0.3480  0.6067
    9TMC1    C5  135   0.475   3.859  11.239 -0.5053 -0.6981 -1.0974
    9TMC1    C6  136   0.420   3.744  11.278 -0.1505  0.0172  0.8120
    9TMC1     C  137   0.498   4.063  11.552  0.5311 -0.0621 -0.2251
    9TMC1     O  138   0.604   4.110  11.521  0.2829 -0.3816  0.2366
    9TMC1     H  139   0.329   3.823  11.592 -2.8416 -1.2434 -1.0948
    9TMC1    H1  140   0.541   4.051  11.292 -1.3332  0.6431  0.3040
    9TMC1    H2  141   0.399   3.661  11.212  1.0208  0.5324 -0.1952
    9TMC1    C7  142   0.498   3.868  11.101  0.7773  0.2258  0.2941
    9TMC1    C8  143   0.314   3.623  11.457  0.5133  0.0761  0.1639
    9TMC1    O1  144   0.453   3.792  11.017 -0.1750 -0.2875 -0.3477
    9TMC1    O2  145   0.234   3.618  11.549 -0.3264  0.0447 -0.1453
    9TMC1    O3  146   0.608   3.948  11.080  0.1567 -0.1953  0.3696
    9TMC1    H3  147   0.658   3.989  11.154 -0.3014  0.3927  0.3450
    9TMC1    O5  148   0.377   3.514  11.406 -0.1322  0.3889  0.7369
    9TMC1    H5  149   0.460   3.528  11.356  0.5668  2.5793  2.5179
   10MPD2     C  150   0.555   4.250  11.788  0.3275  0.6590 -0.5277
   10MPD2    C1  151   0.449   4.156  11.783 -0.1606  0.3764 -1.1143
   10MPD2    C2  152   0.362   4.161  11.890  0.0197 -0.2744  0.1248
   10MPD2    C3  153   0.367   4.246  11.994  0.8386  0.0771 -0.0084
   10MPD2    C4  154   0.465   4.343  11.989 -1.1550  0.3377  0.3603
   10MPD2    C5  155   0.552   4.351  11.877 -0.3095 -0.0551 -0.3083
   10MPD2     H  156   0.298   4.073  11.895 -0.9370  0.4566  0.7369
   10MPD2    H1  157   0.469   4.417  12.068  1.2559  0.8598 -0.2456
   10MPD2    H2  158   0.640   4.235  11.722  1.3317 -0.9569  1.1336
   10MPD2    H3  159   0.631   4.425  11.882 -0.6464  0.4917 -2.7887
   10MPD2     N  160   0.267   4.247  12.094 -0.5093 -0.0990 -0.2497
   10MPD2    H5  161   0.269   4.325  12.159  0.2865 -1.8393  1.7673
   10MPD2    N1  162   0.428   4.066  11.675 -0.2150 -0.0415  0.0612
   10MPD2    H7  163   0.344   4.009  11.679 -1.2315  1.4417  0.1247
   11TCq1    O1  164   0.760   4.121  14.539  0.1109  0.2093 -0.3369
   11TCq1    C1  165   0.805   4.190  14.432 -0.4762 -0.4486 -0.1244
   11TCq1    O2  166   0.845   4.128  14.333 -0.1862 -0.5069 -0.3148
   11TCq1    C2  167   0.714   4.300  14.416  0.2477 -0.0550 -0.3092
   11TCq1    C3  168   0.696   4.380  14.520  0.4000 -0.9019  0.2224
   11TCq1    C4  169   0.641   4.505  14.485 -0.2167 -0.3759  0.2553
   11TCq1    C5  170   0.590   4.535  14.364 -0.3142 -0.0658  0.1489
   11TCq1    C6  171   0.605   4.449  14.264 -0.1064 -0.0207 -0.0878
   11TCq1    C7  172   0.670   4.327  14.287 -0.7079  0.2162  0.6918
   11TCq1    C8  173   0.562   4.479  14.125  0.3367 -0.0640  0.1006
   11TCq1    O4  174   0.514   4.589  14.099  0.1922 -0.0525 -0.3752
   11TCq1    C9  175   0.635   4.615  14.582 -0.1601 -0.0112 -0.6180
   11TCq1    O5  176   0.578   4.722  14.552  0.7336 -0.1070 -0.3445
   11TCq1    O6  177   0.701   4.595  14.684 -0.6539 -0.2923  0.1135
   11TCq1    H1  178   0.707   4.169  14.606  0.6577  1.9186 -1.1095
   11TCq1    H2  179   0.735   4.361  14.619  1.0206 -2.1129 -0.2621
   11TCq1    H3  180   0.538   4.627  14.343  2.3105  1.8615  2.0560
   11TCq1    H4  181   0.715   4.268  14.207 -1.2477  2.4503 -1.2571
   12MPD2     C  182   0.554   4.489  13.827  0.0360  0.1413  0.4448
   12MPD2    C1  183   0.572   4.371  13.907 -0.1842 -0.5883  0.4621
   12MPD2    C2  184   0.586   4.256  13.839  0.1231  0.3848 -0.1622
   12MPD2    C3  185   0.586   4.251  13.693 -0.1623 -0.0371  0.2227
   12MPD2    C4  186   0.590   4.370  13.620  0.5718 -0.2628  0.1106
   12MPD2    C5  187   0.571   4.489  13.692  0.1477 -0.5138 -0.5501
   12MPD2     H  188   0.592   4.164  13.896 -2.7068  0.2399 -0.0843
   12MPD2    H1  189   0.594   4.368  13.512  2.1543 -0.9994  0.1777
   12MPD2    H2  190   0.546   4.588  13.870  1.9246  0.5128 -0.0371
   12MPD2    H3  191   0.562   4.585  13.644  0.3163 -0.4364 -0.4256
   12MPD2     N  192   0.589   4.129  13.620 -0.5766 -0.0741 -0.1818
   12MPD2    H5  193   0.560   4.134  13.523  1.4040  1.8032 -0.6915
   12MPD2    N1  194   0.567   4.362  14.048  0.4339  0.4044 -0.6454
   12MPD2    H7  195   0.561   4.272  14.096  1.7067 -0.1774 -1.5670
   13TCq1    O1  196   0.275   4.588  10.248  0.2207 -0.4277  0.4235
   13TCq1    C1  197   0.279   4.531  10.370 -1.0399 -0.0116  0.4066
   13TCq1    O2  198   0.365   4.548  10.457  0.3311  1.0589  0.3777
   13TCq1    C2  199   0.207   4.406  10.357  0.2107 -0.0291 -0.0102
   13TCq1    C3  200   0.203   4.346  10.239 -0.4782 -0.0323 -0.3883
   13TCq1    C4  201   0.137   4.228  10.238  0.1718 -0.6792 -1.2011
   13TCq1    C5  202   0.090   4.165  10.352 -0.5374 -0.5674 -0.1295
   13TCq1    C6  203   0.098   4.231  10.474 -0.1886  0.6476  0.4837
   13TCq1    C7  204   0.155   4.356  10.472 -0.1367 -0.1467  0.0043
   13TCq1    C8  205   0.038   4.169  10.595  0.3346 -0.1204  1.1003
   13TCq1    O4  206   0.056   4.234  10.696  0.5977  0.1779  0.8927
   13TCq1    C9  207   0.136   4.153  10.111  0.1071 -0.1232  0.6452
   13TCq1    O5  208   0.057   4.051  10.102 -0.0740  0.3401  0.6107
   13TCq1    O6  209   0.202   4.201  10.016  0.1545 -0.2710  0.6808
   13TCq1    H1  210   0.188   4.568  10.209  0.1114  3.0739 -1.0964
   13TCq1    H2  211   0.243   4.384  10.146 -0.9354 -0.3432 -0.7108
   13TCq1    H3  212   0.038   4.071  10.337 -0.0754 -1.1577  1.9245
   13TCq1    H4  213   0.145   4.418  10.560 -1.4718  0.2107 -0.4118
   14MPD2     C  214   4.664   3.826  10.653 -0.3385 -0.0739 -0.1314
   14MPD2    C1  215   4.674   3.959  10.674  0.1945 -0.1529  0.1746
   14MPD2    C2  216   4.617   4.008  10.793 -0.6096 -0.7329 -0.0008
   14MPD2    C3  217   4.562   3.918  10.884 -0.6855  0.1424 -0.2426
   14MPD2    C4  218   4.546   3.786  10.854  0.4755  0.8783  0.4280
   14MPD2    C5  219   4.604   3.737  10.739  0.0553 -0.4953 -0.1776
   14MPD2     H  220   4.624   4.115  10.812 -1.4171 -0.2605 -2.3128
   14MPD2    H1  221   4.493   3.710  10.911 -0.4149  1.2707  0.1170
   14MPD2    H2  222   4.717   3.792  10.564 -0.2652 -1.1683  0.3394
   14MPD2    H3  223   4.594   3.630  10.725 -0.5890 -0.3750 -0.6028
   14MPD2     N  224   4.520   3.974  11.007 -0.3048  0.6897  0.9975
   14MPD2    H5  225   4.523   4.074  11.020 -2.2225  0.7626  0.7838
   14MPD2    N1  226   0.010   4.038  10.578 -0.1757  0.6538  0.1719
   14MPD2    H7  227   0.046   3.987  10.498 -4.1505 -0.0203 -1.2225
   15TCq1    O1  228   2.234   4.269   1.960 -0.4732  0.2863  0.1575
   15TCq1    C1  229   2.283   4.142   1.985 -0.2599 -0.3284 -0.3654
   15TCq1    O2  230   2.401   4.121   1.981 -0.1597 -0.5610 -0.0466
   15TCq1    C2  231   2.175   4.045   1.968 -0.3687 -0.1127 -0.1995
   15TCq1    C3  232   2.048   4.072   2.008 -0.5465  0.3989 -0.5398
   15TCq1    C4  233   1.947   3.977   1.999 -0.6438 -0.2982 -0.1480
   15TCq1    C5  234   1.984   3.848   1.955  0.3750 -0.2744 -0.5028
   15TCq1    C6  235   2.110   3.827   1.913  0.8258  0.4445  0.4174
   15TCq1    C7  236   2.214   3.917   1.916 -0.4043  0.0385  0.2571
   15TCq1    C8  237   2.140   3.698   1.847  0.0264  0.3417  0.4555
   15TCq1    O4  238   2.257   3.670   1.852  0.3244  0.0323 -0.9670
   15TCq1    C9  239   1.814   4.005   2.042 -1.0070 -0.8073  0.8313
   15TCq1    O5  240   1.796   4.124   2.082 -0.1745 -0.7332  0.1286
   15TCq1    O6  241   1.727   3.911   2.038 -0.0131  0.3204  0.2637
   15TCq1    H1  242   2.136   4.259   1.960 -0.1916 -2.5298 -1.7513
   15TCq1    H2  243   2.019   4.166   2.054 -1.2006  0.0809 -0.3081
   15TCq1    H3  244   1.904   3.776   1.941  1.0567 -0.9985 -0.6641
   15TCq1    H4  245   2.318   3.903   1.892 -0.3164 -2.0382  1.8743
   16MPD2     C  246   1.911   3.457   1.674  0.3637  0.3753  0.8918
   16MPD2    C1  247   2.027   3.506   1.732 -0.1871  0.2862  0.2101
   16MPD2    C2  248   2.135   3.426   1.727  0.0733  0.7407 -0.2595
   16MPD2    C3  249   2.148   3.302   1.668 -0.1933  0.1544 -0.3316
   16MPD2    C4  250   2.031   3.256   1.609  0.4838 -0.3087 -0.4958
   16MPD2    C5  251   1.916   3.329   1.624  0.1401  0.4286 -0.0207
   16MPD2     H  252   2.222   3.450   1.787  2.1548 -1.0465 -2.5654
   16MPD2    H1  253   2.035   3.159   1.561 -0.9231  0.0902 -1.4113
   16MPD2    H2  254   1.817   3.511   1.671 -0.0417 -0.3059  1.3752
   16MPD2    H3  255   1.825   3.279   1.594  0.1776  1.7946 -2.4269
   16MPD2     N  256   2.274   3.239   1.667 -0.4312 -0.0320  0.1464
   16MPD2    H5  257   2.349   3.277   1.723 -1.2275  0.2509  1.0213
   16MPD2    N1  258   2.033   3.634   1.791 -0.7547 -0.1854  0.8332
   16MPD2    H7  259   1.944   3.683   1.789 -1.0826 -0.9048 -1.8619
   17TMC1    C1  260   4.520   3.776  11.731 -0.3853  1.0122  0.1999
   17TMC1    C2  261   4.436   3.846  11.818 -0.5279 -0.1306 -0.2291
   17TMC1    C3  262   4.345   3.770  11.894  0.0469 -0.2767  0.5611
   17TMC1    C4  263   4.517   3.636  11.714 -0.2156 -0.6416  0.6572
   17TMC1    C5  264   4.432   3.569  11.798 -0.6811 -0.1486  0.6588
   17TMC1    C6  265   4.340   3.627  11.891 -0.4155 -0.0313  0.0434
   17TMC1     C  266   4.592   3.858  11.632 -0.5849  0.1708 -0.8036
   17TMC1     O  267   4.590   3.974  11.660  0.1626 -0.1683  0.4645
   17TMC1     H  268   4.428   3.954  11.811  1.2122 -0.0716 -1.4256
   17TMC1    H1  269   4.579   3.576  11.648 -1.2516  0.7324 -1.5667
   17TMC1    H2  270   4.251   3.574  11.924 -1.4082  1.4892 -0.2044
   17TMC1    C7  271   4.438   3.424  11.778  0.4651  0.6472  0.0022
   17TMC1    C8  272   4.288   3.853  12.000 -0.3831  0.4180 -0.3279
   17TMC1    O1  273   4.478   3.376  11.673  0.6747 -0.5629 -0.3735
   17TMC1    O2  274   4.331   3.962  12.030  1.1704 -0.1075 -0.4158
   17TMC1    O3  275   4.467   3.375  11.899  0.0858  0.6554 -0.2417
   17TMC1    H3  276   4.450   3.445  11.966  2.2777 -0.2246  1.2281
   17TMC1    O5  277   4.229   3.773  12.089 -0.4868 -0.2731  0.1491
   17TMC1    H5  278   4.199   3.685  12.060 -0.3030  0.1351 -1.2695
   18MPD2     C  279   4.734   4.001  11.425  0.1721 -0.1314  0.2396
   18MPD2    C1  280   4.708   3.864  11.421 -0.0138 -0.2166 -0.3491
   18MPD2    C2  281   0.017   3.793  11.309 -0.0590 -0.5773  0.9443
   18MPD2    C3  282   0.075   3.861  11.197 -0.5405  0.2691  0.8262
   18MPD2    C4  283   0.102   3.998  11.203  0.9052 -0.4947 -0.5183
   18MPD2    C5  284   0.058   4.062  11.319  1.1779  0.7976  0.3869
   18MPD2     H  285   0.006   3.686  11.312 -0.0320 -0.6724 -1.9027
   18MPD2    H1  286   0.148   4.054  11.123  0.6558  0.3284 -0.0843
   18MPD2    H2  287   4.710   4.067  11.508  0.0836  0.8398 -0.5538
   18MPD2    H3  288   0.061   4.170  11.324  1.1587  0.8302 -0.2309
   18MPD2     N  289   0.102   3.791  11.075 -0.1891  0.0974 -0.0202
   18MPD2    H5  290   0.138   3.848  10.999  0.6026  0.1710  0.4062
   18MPD2    N1  291   4.646   3.794  11.526  0.2822  0.3256 -0.2330
   18MPD2    H7  292   4.642   3.694  11.512 -0.9307  0.6819 -2.5218
   19TMC2    C1  293   1.853   3.668  13.993  0.2016 -0.6435  0.3743
   19TMC2    C2  294   1.861   3.767  13.903 -0.2838 -0.2313  0.1834
   19TMC2    C3  295   1.769   3.866  13.916  0.0255 -0.2552  0.1213
   19TMC2    C4  296   1.768   3.679  14.102 -0.0563 -0.4783 -0.0229
   19TMC2    C5  297   1.671   3.779  14.112  0.2874 -0.4304  0.3639
   19TMC2    C6  298   1.677   3.878  14.019 -0.3167  0.0699  0.1037
   19TMC2     C  299   1.967   3.571  13.989 -0.7024 -0.4384 -0.1446
   19TMC2     O  300   2.030   3.582  13.882 -0.0392 -0.2150 -0.2649
   19TMC2     H  301   1.927   3.781  13.819  1.5001 -2.2331  1.2616
   19TMC2    H1  302   1.752   3.589  14.161  1.5050  0.3160  1.6221
   19TMC2    H2  303   1.597   3.951  14.007  2.2963  2.3001 -3.8463
   19TMC2    C7  304   1.542   3.735  14.156  0.6136 -0.1988  0.1954
   19TMC2    C8  305   1.754   3.971  13.818  0.0454 -0.3103 -0.0553
   19TMC2    O1  306   1.538   3.637  14.228  0.1132  0.1219  0.0919
   19TMC2    O2  307   1.660   4.043  13.806  0.0961 -0.2037  0.9500
   19TMC2    O5  308   1.873   3.991  13.757  0.3902  0.2022  0.0570
   19TMC2    H5  309   1.946   3.934  13.790  0.0019 -0.1271  0.3390
   20MPD2     C  310   2.201   3.406  14.013 -0.1371 -0.3024 -0.1388
   20MPD2    C1  311   2.133   3.453  14.121  1.0390  0.0773 -0.4748
   20MPD2    C2  312   2.199   3.455  14.245 -0.1516  0.3784 -0.0798
   20MPD2    C3  313   2.320   3.393  14.265  0.5822  0.5451 -0.0809
   20MPD2    C4  314   2.386   3.339  14.158 -0.9019 -0.5217  0.9802
   20MPD2    C5  315   2.325   3.353  14.032 -0.0421 -0.6470 -0.0072
   20MPD2     H  316   2.153   3.510  14.326  0.5254  0.4351  0.2558
   20MPD2    H1  317   2.469   3.271  14.174  0.4937  1.1868  1.1028
   20MPD2    H2  318   2.157   3.399  13.914  1.8616  5.3369 -1.4456
   20MPD2    H3  319   2.368   3.314  13.940 -1.6033  0.8803 -1.3839
   20MPD2     N  320   2.383   3.387  14.391  0.1792  0.7474 -0.2459
   20MPD2    H5  321   2.469   3.333  14.399 -1.2158 -1.2399  1.3457
   20MPD2    N1  322   2.009   3.531  14.107 -0.0890 -1.1869 -0.2422
   20MPD2    H7  323   1.959   3.560  14.190 -1.8763 -1.9901 -1.0346
   21TMC2    C1  324   4.356   4.049  14.553 -0.1221 -0.8713  0.5758
   21TMC2    C2  325   4.426   3.967  14.643  0.1695  0.1579 -0.2644
   21TMC2    C3  326   4.405   3.982  14.778 -0.1780 -0.3819  0.3056
   21TMC2    C4  327   4.272   4.152  14.592 -0.5958 -0.0511 -0.3237
   21TMC2    C5  328   4.271   4.165  14.730  0.0738 -0.4439 -0.4719
   21TMC2    C6  329   4.322   4.076  14.821 -0.4190  1.2539  0.0834
   21TMC2     C  330   4.383   4.029  14.416  0.1747 -1.1262 -0.3523
   21TMC2     O  331   4.487   3.969  14.396  0.3155  0.0138 -0.5353
   21TMC2     H  332   4.505   3.899  14.611 -0.0564 -0.9810  1.5896
   21TMC2    H1  333   4.221   4.217  14.522  0.3279  1.0324  0.0065
   21TMC2    H2  334   4.303   4.095  14.926  1.4271 -0.8812  0.7761
   21TMC2    C7  335   4.209   4.283  14.783  0.0377  0.6461  0.1947
   21TMC2    C8  336   4.515   3.977  14.870 -0.2075 -0.5857 -0.0755
   21TMC2    O1  337   4.239   4.305  14.894  0.3346 -0.0426  0.4986
   21TMC2    O2  338   4.527   4.052  14.967  0.2838 -0.1391 -0.2021
   21TMC2    O5  339   4.581   3.859  14.860  0.1460  0.2224  0.3234
   21TMC2    H5  340   4.532   3.795  14.804  0.1886  0.3748  0.1130
   22MPD2     C  341   4.301   4.024  13.913  0.0042 -0.1344  0.2008
   22MPD2    C1  342   4.416   4.047  13.987 -0.3650  0.0675  0.3443
   22MPD2    C2  343   4.410   4.055  14.123 -0.0138  0.1907  0.5116
   22MPD2    C3  344   4.287   4.049  14.190 -0.1521 -0.3524  0.2133
   22MPD2    C4  345   4.171   4.018  14.117  0.1160 -0.3513  0.1355
   22MPD2    C5  346   4.181   4.007  13.981 -0.0860  0.7177 -0.7077
   22MPD2     H  347   4.509   4.068  14.167  0.6117  2.4944 -1.5874
   22MPD2    H1  348   4.076   4.004  14.169  1.0129 -0.7209  1.6805
   22MPD2    H2  349   4.304   4.024  13.805  6.4858 -0.0860  0.3582
   22MPD2    H3  350   4.088   3.997  13.927 -0.4556  0.0068  0.0559
   22MPD2     N  351   4.273   4.057  14.330 -0.1035  0.2920 -0.5664
   22MPD2    H5  352   4.183   4.076  14.373  0.2671 -0.7624  0.6934
   22MPD2    N1  353   4.542   4.073  13.936 -0.3181 -0.7877 -0.2149
   22MPD2    H7  354   4.620   4.090  13.999  1.7861  0.3422 -3.1468
   23TMC2    C1  355   0.880   1.007  14.198 -1.2125  0.8097  0.0551
   23TMC2    C2  356   0.971   1.083  14.128 -0.6645  0.2663  0.4373
   23TMC2    C3  357   0.941   1.098  13.992  0.9182  0.0985 -0.1235
   23TMC2    C4  358   0.760   0.954  14.144  0.9063  0.0700 -0.0707
   23TMC2    C5  359   0.731   0.995  14.016  0.3057 -0.2264 -0.9509
   23TMC2    C6  360   0.822   1.058  13.938 -0.2692  0.5581 -0.3737
   23TMC2     C  361   0.917   0.952  14.327  0.8052  0.6079  0.4317
   23TMC2     O  362   0.843   0.895  14.398 -0.4342  0.1548  0.1777
   23TMC2     H  363   1.058   1.127  14.175 -0.0595 -1.2288  0.7112
   23TMC2    H1  364   0.691   0.901  14.208  1.9847  0.5909  1.5416
   23TMC2    H2  365   0.815   1.066  13.830 -2.0065 -0.7249 -0.3387
   23TMC2    C7  366   0.625   0.933  13.940 -0.3857 -0.4005 -0.0574
   23TMC2    C8  367   1.022   1.184  13.909 -0.6493  1.2715  0.5216
   23TMC2    O1  368   0.639   0.936  13.819  0.8737 -0.1834  0.7907
   23TMC2    O2  369   0.995   1.264  13.820  0.6922  0.5764 -0.1846
   23TMC2    O5  370   1.142   1.177  13.966  0.3938 -0.1548  0.2143
   23TMC2    H5  371   1.149   1.089  14.008  0.5592 -1.4519 -2.5379
   24MPD2     C  372   1.318   0.852  14.635 -0.5500  0.3762  0.3530
   24MPD2    C1  373   1.182   0.829  14.653 -0.0286  0.4593  0.4853
   24MPD2    C2  374   1.092   0.865  14.552  0.0426  0.0129  0.6782
   24MPD2    C3  375   1.134   0.922  14.435  0.5353 -0.4233  0.3932
   24MPD2    C4  376   1.271   0.954  14.424 -0.8954  0.9799  0.1519
   24MPD2    C5  377   1.360   0.914  14.520  0.9054 -0.0816 -0.1527
   24MPD2     H  378   0.990   0.846  14.583  0.5440 -1.7114  1.2431
   24MPD2    H1  379   1.311   1.000  14.334 -0.3343  1.8064  0.8298
   24MPD2    H2  380   1.389   0.818  14.710  0.7342 -0.5837 -1.3134
   24MPD2    H3  381   1.467   0.928  14.513  0.6528  0.2903 -3.2221
   24MPD2     N  382   1.056   0.955  14.330 -0.0331  0.5301  0.6735
   24MPD2    H5  383   1.095   0.975  14.238  0.9240 -0.4366  0.8752
   24MPD2    N1  384   1.133   0.764  14.760  0.0477  0.0126 -0.5261
   24MPD2    H7  385   1.034   0.775  14.781  0.2075 -1.4525  0.9891
   25TMC2    C1  386   0.016   2.525  11.812 -0.1762  0.4072 -0.7702
   25TMC2    C2  387   0.121   2.508  11.896  0.5677  0.1883  0.2214
   25TMC2    C3  388   0.099   2.465  12.023 -0.5851  0.1742 -0.0573
   25TMC2    C4  389   4.624   2.511  11.850  0.0493 -0.3888 -0.1792
   25TMC2    C5  390   4.600   2.467  11.983  0.6842  0.0396 -0.0833
   25TMC2    C6  391   4.707   2.448  12.062 -0.6036  0.4153 -0.1292
   25TMC2     C  392   0.060   2.531  11.676 -0.0337  0.5999  0.5952
   25TMC2     O  393   0.178   2.554  11.647  0.1067 -0.5431 -0.7195
   25TMC2     H  394   0.223   2.536  11.872  0.3528  0.9091  0.1628
   25TMC2    H1  395   4.549   2.539  11.778 -2.5020 -2.8915  1.5418
   25TMC2    H2  396   4.685   2.401  12.157  3.8478  0.1941  0.7953
   25TMC2    C7  397   4.468   2.454  12.039  0.2503  0.3548 -0.0955
   25TMC2    C8  398   0.208   2.463  12.121  0.1293 -0.3781 -0.1559
   25TMC2    O1  399   4.470   2.454  12.162  0.5533 -0.0622 -0.3585
   25TMC2    O2  400   0.327   2.472  12.093  0.1369  0.1551 -0.4085
   25TMC2    O5  401   0.165   2.514  12.236 -0.3584 -0.1804  0.1015
   25TMC2    H5  402   0.071   2.538  12.250 -1.2029 -1.4859 -3.2975
   26MPD2     C  403   4.687   2.428  11.185 -0.5118 -0.0363 -0.8519
   26MPD2    C1  404   4.605   2.354  11.262 -0.0638 -0.4661 -0.5778
   26MPD2    C2  405   4.617   2.362  11.400  0.2625 -0.1781 -0.5368
   26MPD2    C3  406   4.717   2.443  11.462 -0.2746  0.1901 -0.2856
   26MPD2    C4  407   0.062   2.521  11.382  0.4207 -0.3452 -0.1372
   26MPD2    C5  408   0.043   2.507  11.243  0.5929 -0.0130  0.0384
   26MPD2     H  409   4.552   2.301  11.461 -1.0819  0.8855 -0.9164
   26MPD2    H1  410   0.136   2.593  11.415  0.8861 -0.7375 -0.3292
   26MPD2    H2  411   4.683   2.421  11.077  0.8202 -0.2230 -0.8967
   26MPD2    H3  412   0.106   2.563  11.176 -0.7482  0.0041 -1.2095
   26MPD2     N  413   4.711   2.459  11.599 -0.1206 -0.3471  0.2635
   26MPD2    H5  414   4.629   2.416  11.641  0.6491 -0.2577  1.8151
   26MPD2    N1  415   4.517   2.272  11.187  0.1588 -0.0928 -0.8138
   26MPD2    H7  416   4.504   2.296  11.089  1.5612  3.3643 -0.1585
   27TMC2    C1  417   3.825   0.127  11.952 -0.4980  0.7873 -0.4049
   27TMC2    C2  418   3.940   0.191  11.901  0.4763 -0.0777 -0.0749
   27TMC2    C3  419   4.054   0.190  11.974 -0.5609  0.7896  0.5194
   27TMC2    C4  420   3.823   0.073  12.077 -0.0120 -0.5608 -0.2207
   27TMC2    C5  421   3.940   0.064  12.140 -0.1286 -0.2301 -0.1415
   27TMC2    C6  422   4.055   0.124  12.094 -0.4199  0.3604  0.0919
   27TMC2     C  423   3.703   0.167  11.884  0.0761 -0.1801  0.1844
   27TMC2     O  424   3.706   0.249  11.794 -1.2871 -0.7916  0.4960
   27TMC2     H  425   3.942   0.229  11.800 -0.2664  1.3039  0.4268
   27TMC2    H1  426   3.734   0.026  12.118  0.5225 -0.6982  0.8076
   27TMC2    H2  427   4.145   0.128  12.155  2.3369 -0.1425 -3.8969
   27TMC2    C7  428   3.931   0.040  12.281  0.3965 -0.4359  0.1659
   27TMC2    C8  429   4.175   0.200  11.899  0.0825  0.1631  0.0611
   27TMC2    O1  430   3.830   4.721  12.328 -0.6043 -0.0725  1.0979
   27TMC2    O2  431   4.195   0.117  11.810  0.0636  0.0095  0.6989
   27TMC2    O5  432   4.268   0.249  11.983  0.3580  0.4623  0.5795
   27TMC2    H5  433   4.224   0.319  12.036 -0.0321 -0.9737  2.1457
   28MPD2     C  434   3.190   0.236  11.877  0.2778  0.1008 -0.9808
   28MPD2    C1  435   3.224   0.142  11.976  0.3246  0.4208 -1.1654
   28MPD2    C2  436   3.348   0.095  11.984  0.0287  0.0423 -0.0639
   28MPD2    C3  437   3.453   0.151  11.909 -0.2740 -0.3050  0.2878
   28MPD2    C4  438   3.419   0.247  11.813  0.5069 -0.3537  0.2180
   28MPD2    C5  439   3.289   0.282  11.797  0.5322  0.7906 -0.1906
   28MPD2     H  440   3.371   0.034  12.071 -1.1329 -0.2295  0.0458
   28MPD2    H1  441   3.489   0.297  11.747 -0.4756  1.7962  0.8203
   28MPD2    H2  442   3.092   0.284  11.874 -0.8754 -2.2326 -0.3389
   28MPD2    H3  443   3.259   0.357  11.725 -0.1700  0.4458 -0.2593
   28MPD2     N  444   3.587   0.116  11.942  0.5371 -0.5558  0.0350
   28MPD2    H5  445   3.602   0.045  12.013  0.9037  0.7850  1.2965
   28MPD2    N1  446   3.120   0.098  12.059  0.6004  0.6751  0.4578
   28MPD2    H7  447   3.030   0.139  12.040  0.1836 -1.4633 -2.0805
   29TMC2    C1  448   2.768   2.599  14.615 -0.5823 -0.7168 -0.1781
   29TMC2    C2  449   2.787   2.584  14.750 -0.0070  0.0111 -0.1958
   29TMC2    C3  450   2.831   2.692  14.812  0.5684  0.1420  0.4331
   29TMC2    C4  451   2.768   2.715  14.549 -0.3572 -0.4524  0.0996
   29TMC2    C5  452   2.814   2.827  14.617  0.3155 -0.1681 -0.3002
   29TMC2    C6  453   2.844   2.819  14.752  0.4130 -0.2884 -0.1053
   29TMC2     C  454   2.739   2.479  14.545 -0.7940 -0.5154  0.0133
   29TMC2     O  455   2.745   2.372  14.604 -0.1761 -0.2258 -0.2562
   29TMC2     H  456   2.781   2.489  14.803 -0.6363 -1.4994 -2.9782
   29TMC2    H1  457   2.745   2.720  14.443 -0.7417 -1.5048  0.1335
   29TMC2    H2  458   2.870   2.909  14.806 -1.4464 -0.9086  1.8462
   29TMC2    C7  459   2.847   2.951  14.543 -0.6866  0.3638  0.1180
   29TMC2    C8  460   2.847   2.675  14.954 -0.5965 -0.0220 -0.6121
   29TMC2    O1  461   2.796   2.957  14.434 -0.9317  0.2788  0.7899
   29TMC2    O2  462   2.799   2.585  15.020 -0.2563 -0.1680  0.3261
   29TMC2    O5  463   2.935   2.768  14.998 -0.3020 -0.0547  0.2358
   29TMC2    H5  464   2.981   2.815  14.925 -0.7488 -0.4733 -0.3253
   30MPD2     C  465   2.604   2.220  14.128 -0.6329 -0.1390  0.0799
   30MPD2    C1  466   2.666   2.172  14.242 -0.0456 -0.3134 -0.1597
   30MPD2    C2  467   2.697   2.257  14.348  0.3012  0.4038  0.7762
   30MPD2    C3  468   2.668   2.392  14.335  0.0635  0.0272 -0.2493
   30MPD2    C4  469   2.601   2.434  14.222  0.8613 -0.1116  0.1570
   30MPD2    C5  470   2.580   2.349  14.117  0.2982 -0.9506  0.3686
   30MPD2     H  471   2.760   2.216  14.427  1.0445  0.9011  0.4381
   30MPD2    H1  472   2.576   2.539  14.215 -0.3493 -0.2935  1.6524
   30MPD2    H2  473   2.592   2.158  14.040 -4.2663 -1.7195  1.6980
   30MPD2    H3  474   2.543   2.395  14.026  1.5592 -2.1574 -0.7469
   30MPD2     N  475   2.700   2.491  14.422 -0.1078  0.0559  0.0082
   30MPD2    H5  476   2.678   2.586  14.393  1.6081  0.9688  1.6894
   30MPD2    N1  477   2.712   2.035  14.249  0.3889 -0.8763  0.2011
   30MPD2    H7  478   2.755   2.017  14.339 -0.2829 -1.3919  0.4139
   31TMC2    C1  479   0.364   1.217  15.440  0.5197 -0.1838  0.8857
   31TMC2    C2  480   0.248   1.267  15.496  0.0175  0.3273  0.3342
   31TMC2    C3  481   0.243   1.275  15.633 -0.7194  0.1372 -0.2819
   31TMC2    C4  482   0.471   1.177  15.512  0.1262 -0.6368  0.1156
   31TMC2    C5  483   0.451   1.182  15.647  0.4941 -0.2172 -0.1633
   31TMC2    C6  484   0.340   1.231  15.714  0.5411  0.1691 -0.6528
   31TMC2     C  485   0.376   1.245  15.294 -0.9563  0.3526 -0.5499
   31TMC2     O  486   0.297   1.327  15.248  0.0151  0.3415  0.1903
   31TMC2     H  487   0.164   1.302  15.436 -0.2291 -1.4251 -0.3463
   31TMC2    H1  488   0.564   1.151  15.462  0.0894  0.0274 -0.2992
   31TMC2    H2  489   0.319   1.205  15.817 -0.1924  1.6451 -0.4286
   31TMC2    C7  490   0.552   1.130  15.740 -0.7461 -0.2900 -0.4758
   31TMC2    C8  491   0.119   1.303  15.693 -0.2362  0.5332  0.0150
   31TMC2    O1  492   0.620   1.036  15.702 -0.0296  0.4752 -0.0378
   31TMC2    O2  493   0.071   1.228  15.776 -0.5268  0.6298 -1.0846
   31TMC2    O5  494   0.065   1.410  15.635 -0.2397  0.8928 -0.5484
   31TMC2    H5  495   0.127   1.451  15.571  1.8418  1.0990  1.6198
   32MPD2     C  496   0.675   1.256  14.874  0.2474 -0.3574  1.0971
   32MPD2    C1  497   0.579   1.347  14.916  0.5993  0.5453 -0.3043
   32MPD2    C2  498   0.507   1.333  15.033  0.1159  0.0160  0.4704
   32MPD2    C3  499   0.545   1.219  15.114 -0.5667  0.1383  0.2567
   32MPD2    C4  500   0.635   1.121  15.066  0.2532 -0.0376 -0.1181
   32MPD2    C5  501   0.707   1.143  14.945 -0.1197  0.5206 -0.4204
   32MPD2     H  502   0.428   1.402  15.057 -2.0369 -2.6977  1.2420
   32MPD2    H1  503   0.659   1.028  15.118  1.4797  0.4715  0.2322
   32MPD2    H2  504   0.709   1.274  14.772 -3.4180  0.1337 -0.0670
   32MPD2    H3  505   0.785   1.083  14.901  1.3611  3.0919 -1.3106
   32MPD2     N  506   0.489   1.193  15.243  0.0780  0.4305  0.0902
   32MPD2    H5  507   0.525   1.108  15.285 -0.6720 -0.4314 -1.0256
   32MPD2    N1  508   0.562   1.460  14.832 -0.2199  0.6687 -0.1329
   32MPD2    H7  509   0.620   1.474  14.750 -1.3610  0.7991 -0.9195
   33TMC2    C1  510   0.480   3.973   9.994 -0.1078  0.1052 -0.1268
   33TMC2    C2  511   0.476   3.863   9.919  0.4425  0.0813  0.2893
   33TMC2    C3  512   0.487   3.876   9.783 -0.0778  0.2206 -0.3661
   33TMC2    C4  513   0.470   4.097   9.938  0.1374 -0.2192  0.2936
   33TMC2    C5  514   0.484   4.108   9.805  0.1244  0.5839 -0.2170
   33TMC2    C6  515   0.502   3.999   9.723  0.8882  0.4519 -0.1253
   33TMC2     C  516   0.455   3.957  10.141 -0.7867 -0.1680 -0.3229
   33TMC2     O  517   0.420   3.846  10.182 -0.3510 -0.4023  0.0553
   33TMC2     H  518   0.468   3.766   9.967  0.1127 -0.4493 -0.8336
   33TMC2    H1  519   0.452   4.183  10.002 -4.3403  0.8807 -2.5051
   33TMC2    H2  520   0.502   4.001   9.614  2.1688 -1.2924 -0.1635
   33TMC2    C7  521   0.468   4.239   9.746 -0.1445 -0.4370  0.2814
   33TMC2    C8  522   0.534   3.753   9.715 -0.4941 -0.2221 -0.5792
   33TMC2    O1  523   0.511   4.251   9.632 -0.3596 -0.3606 -0.2008
   33TMC2    O2  524   0.501   3.724   9.601  0.3346  0.5273  0.5631
   33TMC2    O5  525   0.663   3.741   9.757 -0.0239 -0.3110 -0.1689
   33TMC2    H5  526   0.681   3.793   9.839 -0.1348  0.3924 -0.5923
   34MPD2     C  527   0.385   4.118  10.619  0.0032  0.3201 -0.4185
   34MPD2    C1  528   0.366   3.995  10.565  0.2302 -0.0051 -1.0181
   34MPD2    C2  529   0.409   3.978  10.434 -0.4264  0.4650 -0.4626
   34MPD2    C3  530   0.469   4.078  10.364 -0.0280 -0.1225 -0.4679
   34MPD2    C4  531   0.482   4.205  10.416 -0.0129  0.5563  0.5537
   34MPD2    C5  532   0.439   4.221  10.544  0.2678  0.0528  0.6594
   34MPD2     H  533   0.422   3.877  10.399 -1.0896  0.5383 -0.9316
   34MPD2    H1  534   0.533   4.286  10.365  0.4458  0.9409  1.6035
   34MPD2    H2  535   0.350   4.156  10.714  2.0830 -0.5673  0.6910
   34MPD2    H3  536   0.449   4.319  10.588 -0.7686  0.4356  0.0615
   34MPD2     N  537   0.501   4.061  10.223 -0.0871 -0.3336  0.2296
   34MPD2    H5  538   0.546   4.140  10.176 -2.2720  0.0672 -1.1895
   34MPD2    N1  539   0.297   3.894  10.639  0.1857  0.3881 -0.0290
   34MPD2    H7  540   0.263   3.932  10.726  1.8388 -1.3065  1.3634
   35TMC2    C1  541   1.832   0.336  11.453 -0.3959  0.5879  0.0065
   35TMC2    C2  542   1.765   0.453  11.453 -0.3324  0.1068 -0.1011
   35TMC2    C3  543   1.642   0.456  11.502  0.1779  0.4150 -0.8511
   35TMC2    C4  544   1.774   0.223  11.504 -0.4289  0.0526 -0.0180
   35TMC2    C5  545   1.646   0.230  11.544  0.4045  0.0432 -0.2795
   35TMC2    C6  546   1.573   0.346  11.544 -0.0761 -0.3975  0.3067
   35TMC2     C  547   1.956   0.317  11.379 -1.1674  0.4840 -0.0233
   35TMC2     O  548   1.979   0.401  11.292  0.2555 -0.2815  0.2472
   35TMC2     H  549   1.811   0.538  11.405 -1.0115  0.8352  0.5467
   35TMC2    H1  550   1.815   0.125  11.479 -0.6482 -0.1637  0.4692
   35TMC2    H2  551   1.477   0.361  11.593 -0.2459 -3.0664  0.7570
   35TMC2    C7  552   1.587   0.102  11.578  0.3916 -0.2814  0.6398
   35TMC2    C8  553   1.574   0.578  11.499 -0.4915 -0.4015 -0.1928
   35TMC2    O1  554   1.664   0.012  11.607  0.3056  0.2508 -0.1360
   35TMC2    O2  555   1.627   0.686  11.495  0.0240 -0.3014 -0.0520
   35TMC2    O5  556   1.449   0.548  11.452  0.0254 -0.1690 -0.5410
   35TMC2    H5  557   1.439   0.452  11.432 -0.4893  0.1786 -1.9647
   36MPD2     C  558   2.358   0.045  11.216 -0.0501  0.0747 -0.3837
   36MPD2    C1  559   2.314   4.725  11.329 -0.0297 -0.0396  0.1013
   36MPD2    C2  560   2.208   0.040  11.405  0.2086 -0.5489  0.4747
   36MPD2    C3  561   2.138   0.151  11.355 -0.3688 -1.4624  0.4173
   36MPD2    C4  562   2.167   0.193  11.225  0.1828  0.2373 -0.0112
   36MPD2    C5  563   2.276   0.136  11.156  0.2991 -0.1236 -0.1377
   36MPD2     H  564   2.171   4.722  11.492  0.3349  1.4942  1.7904
   36MPD2    H1  565   2.113   0.273  11.176 -0.9305 -0.4447  0.1169
   36MPD2    H2  566   2.443   0.005  11.161  0.1332  0.3383 -0.2902
   36MPD2    H3  567   2.302   0.179  11.061 -1.4580  0.3391 -0.4218
   36MPD2     N  568   2.020   0.203  11.418 -0.7948  0.1071 -0.6984
   36MPD2    H5  569   1.989   0.164  11.507  1.5760  0.0807  0.1372
   36MPD2    N1  570   2.389   4.613  11.369  0.4224  0.2473  0.2587
   36MPD2    H7  571   2.474   4.590  11.319  0.2074  0.8416 -0.3704
   37TMC2    C1  572   4.357   4.578  11.893 -0.2470 -0.1292  0.0268
   37TMC2    C2  573   4.313   4.462  11.849  0.0300  0.4007 -0.3592
   37TMC2    C3  574   4.338   4.415  11.722  0.2091 -0.7150 -0.3630
   37TMC2    C4  575   4.428   4.666  11.807  0.4593  0.6109 -0.5484
   37TMC2    C5  576   4.453   4.615  11.682 -0.0384  0.1526  0.6381
   37TMC2    C6  577   4.412   4.488  11.639  0.4713  0.2445 -0.3538
   37TMC2     C  578   4.350   4.614  12.036 -0.2790  0.1367  0.1417
   37TMC2     O  579   4.252   4.568  12.096 -0.4248  0.6742 -0.3373
   37TMC2     H  580   4.252   4.396  11.911  0.5930 -0.7488 -1.0254
   37TMC2    H1  581   4.471   0.027  11.834 -0.0916  1.3538 -2.3165
   37TMC2    H2  582   4.420   4.454  11.536  1.7436  0.2657 -0.2615
   37TMC2    C7  583   4.561   4.690  11.613 -0.5150  0.9064  0.4779
   37TMC2    C8  584   4.297   4.281  11.699  0.0694  0.5827  0.0821
   37TMC2    O1  585   4.574   0.076  11.634  0.6953 -0.3302  0.1962
   37TMC2    O2  586   4.216   4.216  11.768 -0.5409  0.2285  0.3298
   37TMC2    O5  587   4.397   4.228  11.624  0.0981 -0.1822 -0.2252
   37TMC2    H5  588   4.465   4.288  11.585  0.2012 -0.3247 -0.2646
   38MPD2     C  589   4.474   0.166  12.436 -0.5762 -0.1395  0.2307
   38MPD2    C1  590   4.564   0.196  12.339  0.0040 -0.6744 -0.1876
   38MPD2    C2  591   4.564   0.118  12.223  0.2875  0.5596 -0.6547
   38MPD2    C3  592   4.460   0.023  12.207 -0.3495  0.7472  0.0925
   38MPD2    C4  593   4.368   4.734  12.304  1.1234 -0.4035 -0.7168
   38MPD2    C5  594   4.371   0.078  12.411 -0.4690 -0.3154  0.3540
   38MPD2     H  595   4.644   0.126  12.151  1.5169 -0.0996  0.6269
   38MPD2    H1  596   4.280   4.672  12.290  1.3617 -1.3407  1.9412
   38MPD2    H2  597   4.477   0.232  12.522  1.9120  0.2387 -0.1452
   38MPD2    H3  598   4.289   0.061  12.480  1.3046  0.3014  2.6143
   38MPD2     N  599   4.453   4.691  12.083  0.1759  0.0109 -0.4136
   38MPD2    H5  600   4.523   4.725  12.017  1.1966  1.1942  1.2884
   38MPD2    N1  601   4.668   0.289  12.351 -0.0227  0.5929 -0.6063
   38MPD2    H7  602   0.010   0.288  12.285 -0.7155  0.8552 -1.4205
   39TMC2    C1  603   3.155   2.962   2.047 -0.3442 -0.5381 -0.4002
   39TMC2    C2  604   3.126   3.017   2.168  0.4002 -0.2428  0.0189
   39TMC2    C3  605   3.228   3.043   2.253  0.0520 -0.2087 -0.2851
   39TMC2    C4  606   3.286   2.940   2.008  0.0544  0.3142  0.5592
   39TMC2    C5  607   3.386   2.967   2.102 -0.1821  0.8071  0.3477
   39TMC2    C6  608   3.361   3.022   2.227 -0.3549 -0.1487 -1.0530
   39TMC2     C  609   3.048   2.887   1.979 -0.7502 -0.4206  0.2018
   39TMC2     O  610   2.934   2.895   2.019 -0.5494  0.0022  0.4500
   39TMC2     H  611   3.028   3.057   2.193  2.2425  2.6910  2.6934
   39TMC2    H1  612   3.315   2.906   1.910 -1.9518 -0.4315  0.2150
   39TMC2    H2  613   3.428   3.020   2.313 -0.6189  1.4936 -0.8012
   39TMC2    C7  614   3.523   2.973   2.060  0.2436  0.4849  1.0809
   39TMC2    C8  615   3.178   3.125   2.363 -0.3988  0.8420  0.1931
   39TMC2    O1  616   3.550   2.920   1.951 -0.5175  0.0441  0.0695
   39TMC2    O2  617   3.065   3.130   2.411  0.1586 -0.1401  0.0806
   39TMC2    O5  618   3.275   3.226   2.374 -0.3384  0.4210  0.9653
   39TMC2    H5  619   3.345   3.224   2.306  0.0391 -0.1419  1.3747
   40MPD2     C  620   3.091   2.603   1.744 -0.1815 -0.0129 -1.0486
   40MPD2    C1  621   3.014   2.700   1.808  0.1883 -0.3624 -0.5137
   40MPD2    C2  622   2.877   2.695   1.808  0.3742 -0.2659 -0.4236
   40MPD2    C3  623   2.810   2.596   1.734 -0.0716 -0.2985 -0.2445
   40MPD2    C4  624   2.891   2.494   1.684 -0.0903 -0.2443 -0.5099
   40MPD2    C5  625   3.024   2.504   1.678  0.2532  0.5492 -0.4301
   40MPD2     H  626   2.823   2.780   1.848 -0.0749 -0.9333  0.3975
   40MPD2    H1  627   2.852   2.409   1.630  1.4259 -0.2018 -1.6706
   40MPD2    H2  628   3.199   2.603   1.741 -0.2276  1.1776 -2.7853
   40MPD2    H3  629   3.078   2.423   1.631 -0.2223  1.0572 -1.8479
   40MPD2     N  630   2.668   2.578   1.720 -0.0623  1.1491  0.0254
   40MPD2    H5  631   2.642   2.499   1.662 -1.0864  0.6260  1.1896
   40MPD2    N1  632   3.089   2.795   1.884 -0.3639 -0.3043  0.2816
   40MPD2    H7  633   3.189   2.777   1.878 -0.4563 -0.3655 -1.0360
   41TMC2    C1  634   1.939   0.264  13.476  0.7762  0.7833  0.0847
   41TMC2    C2  635   1.909   0.360  13.569  0.5631 -0.2310 -0.0119
   41TMC2    C3  636   1.868   0.478  13.524  0.3715  0.7220 -0.0267
   41TMC2    C4  637   1.937   0.292  13.339  0.0778 -0.3762  0.5471
   41TMC2    C5  638   1.896   0.418  13.301 -0.0545 -0.6515 -0.2027
   41TMC2    C6  639   1.865   0.516  13.393 -0.1965 -0.1804  0.0550
   41TMC2     C  640   1.964   0.125  13.504 -0.3982 -0.1474  0.1048
   41TMC2     O  641   2.005   0.050  13.420  0.6716  0.0417 -0.0259
   41TMC2     H  642   1.914   0.341  13.675 -0.0396  0.9027  0.2165
   41TMC2    H1  643   1.957   0.215  13.266  3.0805  0.0207  0.9291
   41TMC2    H2  644   1.834   0.613  13.356 -0.2769  0.2589  1.2627
   41TMC2    C7  645   1.967   0.476  13.191 -0.7161  0.0673 -0.6015
   41TMC2    C8  646   1.841   0.572  13.632  0.3355 -0.3955  0.3432
   41TMC2    O1  647   1.970   0.597  13.181  0.2980  0.1088 -1.1408
   41TMC2    O2  648   1.874   0.550  13.746 -0.3681 -0.0041 -0.2832
   41TMC2    O5  649   1.793   0.688  13.583 -0.2409  0.2954  0.6337
   41TMC2    H5  650   1.739   0.665  13.505  0.4233  1.0934 -0.0568
   42MPD2     C  651   1.884   4.592  13.610 -0.3160 -0.2466 -0.0393
   42MPD2    C1  652   1.901   4.705  13.692  0.5199 -0.0463 -0.1027
   42MPD2    C2  653   1.862   4.702  13.825  0.3758 -0.4400  0.1305
   42MPD2    C3  654   1.812   4.584  13.874 -0.0282  0.8612  0.3519
   42MPD2    C4  655   1.779   4.482  13.785  0.2218  0.0545 -0.2159
   42MPD2    C5  656   1.818   4.473  13.654  0.1035 -0.1265 -0.2656
   42MPD2     H  657   1.871   0.051  13.892  0.4821  0.6200 -1.2114
   42MPD2    H1  658   1.721   4.402  13.829  0.2063  1.4675  2.3500
   42MPD2    H2  659   1.912   4.595  13.505 -0.1995 -0.2720 -0.0097
   42MPD2    H3  660   1.788   4.390  13.591 -2.5921  0.2731  0.5001
   42MPD2     N  661   1.763   4.569  14.007 -0.5415  0.1632  0.1865
   42MPD2    H5  662   1.700   4.490  14.013 -0.2884 -0.1812 -1.4741
   42MPD2    N1  663   1.935   0.099  13.636  0.1337  0.6015 -0.1427
   42MPD2    H7  664   1.925   0.184  13.691  0.6544  0.3468  0.3511
   43TMC2    C1  665   2.829   3.421   1.068 -0.6776  0.0098  0.0041
   43TMC2    C2  666   2.710   3.478   1.064 -0.3567 -0.1749  0.2250
   43TMC2    C3  667   2.682   3.582   1.144  0.2211  0.1818 -1.0336
   43TMC2    C4  668   2.927   3.474   1.151 -0.3521 -0.8401  0.7024
   43TMC2    C5  669   2.896   3.576   1.233  0.0401  0.1408  0.0069
   43TMC2    C6  670   2.768   3.636   1.233 -0.3463  0.3997  0.1801
   43TMC2     C  671   2.849   3.300   1.004  0.0857 -0.1621  0.1048
   43TMC2     O  672   2.953   3.241   1.038 -0.8643 -0.1049  0.3531
   43TMC2     H  673   2.625   3.444   1.006 -0.8509 -3.2301  2.7429
   43TMC2    H1  674   3.027   3.431   1.154  0.3024  0.7836  2.0683
   43TMC2    H2  675   2.746   3.708   1.310  1.3939  0.7572  0.3438
   43TMC2    C7  676   3.005   3.641   1.311 -0.2839 -0.5947 -0.0654
   43TMC2    C8  677   2.547   3.634   1.134  0.3163 -0.7456  0.2812
   43TMC2    O1  678   3.111   3.584   1.336  0.3842 -0.3023 -0.4988
   43TMC2    O2  679   2.460   3.568   1.079  0.8135 -0.0360  0.0890
   43TMC2    O5  680   2.529   3.754   1.182  0.2444  0.7274 -0.0102
   43TMC2    H5  681   2.614   3.804   1.175  0.5672  0.3342  0.9851
   44MPD2     C  682   2.878   3.023   0.586  0.9384 -0.5324  0.2030
   44MPD2    C1  683   2.920   2.985   0.710 -0.7208  0.3553 -0.1169
   44MPD2    C2  684   2.884   3.077   0.812 -0.2585 -0.6449 -0.2990
   44MPD2    C3  685   2.809   3.189   0.789  0.4907  0.3586  0.7146
   44MPD2    C4  686   2.748   3.200   0.667  0.9102  0.7119  0.0589
   44MPD2    C5  687   2.785   3.121   0.564  0.2054  0.2244  0.1286
   44MPD2     H  688   2.925   3.055   0.910  1.9474  0.7930 -0.9034
   44MPD2    H1  689   2.686   3.285   0.640  0.3058 -0.2063 -1.4549
   44MPD2    H2  690   2.907   2.976   0.493 -0.5501  1.5780 -1.3308
   44MPD2    H3  691   2.748   3.139   0.464 -1.3873  0.6755  0.7898
   44MPD2     N  692   2.776   3.288   0.882 -0.1816  0.3998  0.6705
   44MPD2    H5  693   2.704   3.358   0.869 -0.0593  0.4245  0.1365
   44MPD2    N1  694   3.023   2.896   0.741  0.6712  0.4427  0.2535
   44MPD2    H7  695   3.055   2.905   0.837 -0.9833  1.4001  0.7184
   45TMC2    C1  696   3.261   1.049   9.376 -0.1677  0.7065 -0.4397
   45TMC2    C2  697   3.145   1.108   9.327  0.6764 -0.1725  0.2314
   45TMC2    C3  698   3.142   1.249   9.318 -0.3475 -0.2235  0.0723
   45TMC2    C4  699   3.370   1.124   9.405  0.9621  0.9770 -0.5555
   45TMC2    C5  700   3.361   1.260   9.399  0.4765 -0.3996  0.6498
   45TMC2    C6  701   3.244   1.328   9.358  0.0013  0.1771  0.1551
   45TMC2     C  702   3.280   0.908   9.360 -0.3183  0.1410  0.3814
   45TMC2     O  703   3.391   0.864   9.388 -0.1204 -0.7573 -0.6000
   45TMC2     H  704   3.052   1.056   9.306  0.6444  0.4907 -1.3058
   45TMC2    H1  705   3.464   1.075   9.428  0.3753 -0.1401 -0.5520
   45TMC2    H2  706   3.239   1.433   9.329  0.0974  0.0838 -0.2045
   45TMC2    C7  707   3.476   1.331   9.450  0.3398 -0.5679 -0.6961
   45TMC2    C8  708   3.028   1.304   9.251 -0.0574  0.5892  0.0851
   45TMC2    O1  709   3.540   1.273   9.535  0.3171  0.1412  0.1965
   45TMC2    O2  710   2.962   1.241   9.164  0.2222 -0.0576  0.3392
   45TMC2    O5  711   2.995   1.415   9.317  0.0374  0.3858  0.4440
   45TMC2    H5  712   3.063   1.453   9.377 -0.3266  1.8434 -0.0637
   46MPD2     C  713   3.256   0.620   9.311 -0.0678  0.2083 -0.2344
   46MPD2    C1  714   3.147   0.702   9.322 -0.1496 -0.2199 -0.7764
   46MPD2    C2  715   3.023   0.640   9.330  0.1777  0.0169 -0.5782
   46MPD2    C3  716   3.002   0.505   9.321 -0.3893 -0.5042  0.3141
   46MPD2    C4  717   3.114   0.424   9.307  0.0222  0.7968  0.3847
   46MPD2    C5  718   3.242   0.486   9.305  0.0899  0.3691  0.7373
   46MPD2     H  719   2.937   0.705   9.341 -1.6418 -2.6867  1.2499
   46MPD2    H1  720   3.111   0.316   9.302  0.6778  0.8659 -1.5957
   46MPD2    H2  721   3.356   0.661   9.304  2.0940 -4.7715  1.7536
   46MPD2    H3  722   3.330   0.422   9.299 -0.9451 -0.8831 -1.4214
   46MPD2     N  723   2.868   0.463   9.329 -0.1950 -0.8832 -0.3782
   46MPD2    H5  724   2.802   0.535   9.358 -0.8051 -1.2048 -0.9858
   46MPD2    N1  725   3.160   0.842   9.328  0.2280 -0.2954 -0.0608
   46MPD2    H7  726   3.071   0.890   9.336  1.2671  1.5329  0.6905
   47TMC2    C1  727   0.923   0.969   9.315 -0.0751  0.4493 -0.1707
   47TMC2    C2  728   1.032   0.990   9.391 -0.2508  0.0175 -0.4569
   47TMC2    C3  729   1.026   1.030   9.518  0.2806  0.1708 -0.0265
   47TMC2    C4  730   0.798   0.992   9.364  0.1645  0.0623  0.1056
   47TMC2    C5  731   0.789   1.036   9.490  0.1599 -0.2608 -0.2568
   47TMC2    C6  732   0.897   1.053   9.571  0.0291 -0.3291  0.5190
   47TMC2     C  733   0.928   0.952   9.173  0.1041  0.3320  0.4580
   47TMC2     O  734   0.842   0.997   9.103  0.1402 -0.1042 -0.5803
   47TMC2     H  735   1.130   0.993   9.344  1.1419 -2.2375  2.2778
   47TMC2    H1  736   0.708   0.979   9.305 -1.2628 -3.0032  2.9962
   47TMC2    H2  737   0.879   1.080   9.675  2.2249  0.1639  0.7654
   47TMC2    C7  738   0.666   1.025   9.543  0.0420  0.1179  0.4213
   47TMC2    C8  739   1.153   1.067   9.581 -0.4359 -0.3338 -0.8147
   47TMC2    O1  740   0.660   0.995   9.661 -0.2261 -0.5351 -0.0866
   47TMC2    O2  741   1.267   1.031   9.555 -0.2980 -0.0150  0.1456
   47TMC2    O5  742   1.126   1.144   9.685 -0.5026 -0.1211  0.0269
   47TMC2    H5  743   1.035   1.181   9.693 -1.4128 -2.1962 -0.7870
   48MPD2     C  744   1.046   0.921   8.900  0.4221 -0.0830 -0.3937
   48MPD2    C1  745   1.082   0.846   9.011  0.2088  0.1069 -0.5063
   48MPD2    C2  746   1.168   0.748   8.996 -0.4292 -0.2560  0.1659
   48MPD2    C3  747   1.209   0.705   8.871  0.3850  0.6171 -0.5485
   48MPD2    C4  748   1.168   0.775   8.760 -0.5837  0.5197  0.3768
   48MPD2    C5  749   1.090   0.886   8.777 -0.0607  0.5434 -0.2829
   48MPD2     H  750   1.206   0.707   9.089  0.4341  1.5808  0.6257
   48MPD2    H1  751   1.209   0.750   8.663  0.3031  2.7588  0.1863
   48MPD2    H2  752   0.996   1.012   8.928  1.3645  0.7510 -1.4118
   48MPD2    H3  753   1.061   0.949   8.693  0.3193  2.6838  1.1964
   48MPD2     N  754   1.293   0.587   8.867 -0.5997 -0.0482  0.1935
   48MPD2    H5  755   1.312   0.542   8.956  0.2776 -0.1793 -0.0570
   48MPD2    N1  756   1.039   0.879   9.141 -0.1729  0.5786  0.4506
   48MPD2    H7  757   1.081   0.829   9.218 -0.8327  0.5505  0.7904
   49TMC2    C1  758   3.688   2.101  10.557 -0.2335  0.1413 -1.4057
   49TMC2    C2  759   3.810   2.110  10.624  0.1191 -0.1712  0.6779
   49TMC2    C3  760   3.839   2.037  10.737 -0.9936  0.1819  0.9427
   49TMC2    C4  761   3.604   2.001  10.583  0.2345  0.3123 -0.4625
   49TMC2    C5  762   3.636   1.924  10.696 -0.0929 -0.2263 -0.1818
   49TMC2    C6  763   3.746   1.948  10.781 -0.0063  0.1387 -0.3582
   49TMC2     C  764   3.667   2.181  10.438 -0.3013 -0.1891 -0.7557
   49TMC2     O  765   3.602   2.133  10.347 -0.9174  0.7308 -0.9920
   49TMC2     H  766   3.874   2.194  10.601  0.4396 -1.1931 -2.1526
   49TMC2    H1  767   3.524   1.989  10.512 -0.1964 -0.4773  0.1582
   49TMC2    H2  768   3.748   1.901  10.878  1.4422 -1.5607 -1.2159
   49TMC2    C7  769   3.540   1.824  10.723  0.3173 -0.6977 -0.6745
   49TMC2    C8  770   3.950   2.080  10.828 -0.8219 -0.1366 -0.4782
   49TMC2    O1  771   3.432   1.830  10.667  0.0010  0.0475 -0.0661
   49TMC2    O2  772   3.948   2.074  10.951  0.5104  0.3364  0.4310
   49TMC2    O5  773   4.059   2.104  10.749 -0.9351 -0.5276  0.2607
   49TMC2    H5  774   4.040   2.089  10.654  0.0411 -0.7172  0.0907
   50MPD2     C  775   3.665   2.387  10.230  0.5730  0.5967 -0.7513
   50MPD2    C1  776   3.705   2.411  10.361 -0.5839 -0.2034  0.1793
   50MPD2    C2  777   3.726   2.541  10.410  1.0569 -0.3673  0.1984
   50MPD2    C3  778   3.721   2.642  10.320  0.6313 -0.0022  0.6603
   50MPD2    C4  779   3.701   2.618  10.182  0.0265  0.3235  0.3785
   50MPD2    C5  780   3.668   2.493  10.139  0.2256 -0.0173  0.4457
   50MPD2     H  781   3.734   2.569  10.514 -0.6845 -0.1069  0.2603
   50MPD2    H1  782   3.708   2.687  10.099 -1.8363  0.4470  0.3236
   50MPD2    H2  783   3.638   2.290  10.190 -2.1904  1.2940 -0.5720
   50MPD2    H3  784   3.647   2.473  10.034  1.5763 -1.5624  0.4719
   50MPD2     N  785   3.728   2.780  10.356 -0.1233 -0.2867  0.4038
   50MPD2    H5  786   3.739   2.846  10.280  2.0133  0.1590  1.0924
   50MPD2    N1  787   3.717   2.308  10.459  0.0764 -0.0580 -0.2739
   50MPD2    H7  788   3.752   2.339  10.549  0.9886  0.5391 -0.8282
   51TMC2    C1  789   4.553   3.377   1.013  0.1084 -0.1963  0.3393
   51TMC2    C2  790   4.628   3.411   0.903 -0.2732  0.4372 -0.5961
   51TMC2    C3  791   0.012   3.466   0.925  0.1823  0.3109  0.7676
   51TMC2    C4  792   4.602   3.395   1.138  0.3143 -0.6137 -0.0092
   51TMC2    C5  793   4.723   3.452   1.152 -0.1450  0.1708 -0.0126
   51TMC2    C6  794   0.064   3.492   1.047  0.5526 -0.6808 -0.0618
   51TMC2     C  795   4.471   3.260   1.001 -0.3796 -0.0523  0.1902
   51TMC2     O  796   4.500   3.181   1.089  0.1137 -0.3060 -0.2277
   51TMC2     H  797   4.592   3.397   0.802 -0.4304  0.5590 -0.5562
   51TMC2    H1  798   4.548   3.366   1.228  1.6977 -3.1536  0.0052
   51TMC2    H2  799   0.164   3.529   1.066  0.4653 -0.7184  0.4969
   51TMC2    C7  800   0.063   3.410   1.262 -0.2054 -1.1022 -0.3815
   51TMC2    C8  801   0.085   3.521   0.809  0.1514  0.0496 -0.0595
   51TMC2    O1  802   0.181   3.374   1.244  0.1237  0.8982  0.6142
   51TMC2    O2  803   0.033   3.533   0.697 -0.0188 -0.6160  0.2269
   51TMC2    O5  804   0.217   3.486   0.832 -0.3509  0.0021  0.3813
   51TMC2    H5  805   0.225   3.430   0.912 -0.8293 -2.2072 -1.1285
   52MPD2     C  806   4.300   2.870   0.721 -0.0058  0.4094 -0.1360
   52MPD2    C1  807   4.362   2.870   0.845 -0.3987 -0.6347 -0.9081
   52MPD2    C2  808   4.380   2.991   0.907 -0.8182  0.0474  0.5799
   52MPD2    C3  809   4.360   3.109   0.834 -0.8859  0.4396  0.4953
   52MPD2    C4  810   4.288   3.104   0.721  1.1546  0.6300  0.6516
   52MPD2    C5  811   4.255   2.988   0.664  0.0446 -0.5926  0.5820
   52MPD2     H  812   4.424   2.990   1.006  1.8712  1.5270 -0.6050
   52MPD2    H1  813   4.248   3.195   0.679 -1.1317 -0.7972 -0.2770
   52MPD2    H2  814   4.263   2.783   0.668  3.2451 -0.9768 -0.1108
   52MPD2    H3  815   4.188   2.980   0.580  1.1090 -2.3780 -0.0854
   52MPD2     N  816   4.410   3.237   0.875 -0.9240  0.3803 -0.5311
   52MPD2    H5  817   4.400   3.314   0.809 -1.4543 -0.1933 -1.1163
   52MPD2    N1  818   4.405   2.755   0.911  0.6817  0.1849 -0.0483
   52MPD2    H7  819   4.430   2.757   1.009  1.2068  0.0628 -0.1809
   53TMC2    C1  820   0.451   0.382  11.486 -0.5954  0.7629 -0.1427
   53TMC2    C2  821   0.579   0.418  11.453 -0.5911  0.6038  0.0727
   53TMC2    C3  822   0.630   0.522  11.512 -0.1093 -0.3699  0.1889
   53TMC2    C4  823   0.378   0.430  11.600  0.4054  0.1003 -0.0626
   53TMC2    C5  824   0.446   0.538  11.659 -0.1664  0.1762 -1.1864
   53TMC2    C6  825   0.565   0.589  11.610 -0.1748  0.0196 -1.0886
   53TMC2     C  826   0.408   0.248  11.433 -0.3308 -0.9039 -0.1668
   53TMC2     O  827   0.481   0.198  11.345  0.1510  0.5443 -0.6956
   53TMC2     H  828   0.635   0.373  11.371 -0.5170  0.5665  0.1447
   53TMC2    H1  829   0.290   0.391  11.649  1.5781 -1.2307  1.0046
   53TMC2    H2  830   0.609   0.676  11.657  1.0680 -0.6391 -1.0438
   53TMC2    C7  831   0.387   0.577  11.785 -0.3103  0.3394  0.3369
   53TMC2    C8  832   0.751   0.580  11.455 -0.7415 -0.5249 -0.6317
   53TMC2    O1  833   0.267   0.563  11.807 -0.6830  0.1456 -0.5525
   53TMC2    O2  834   0.788   0.545  11.344 -0.0211  0.2623 -0.2656
   53TMC2    O5  835   0.834   0.603  11.554 -0.2422 -0.7810 -0.0047
   53TMC2    H5  836   0.788   0.621  11.639  1.7026 -1.3040  1.1417
   54MPD2     C  837   0.273   4.725  11.350 -0.3108 -0.2014 -0.2924
   54MPD2    C1  838   0.221   0.081  11.443 -0.1085 -0.3483  0.1020
   54MPD2    C2  839   0.101   0.050  11.501 -0.5589  0.2565  0.2184
   54MPD2    C3  840   0.024   4.674  11.463 -0.2993  0.4496  0.1154
   54MPD2    C4  841   0.077   4.594  11.362 -0.2667 -0.4556 -0.0771
   54MPD2    C5  842   0.200   4.622  11.313 -0.2282  0.1526  0.3718
   54MPD2     H  843   0.075   0.128  11.572  0.8723  0.9246  0.0079
   54MPD2    H1  844   0.022   4.512  11.317 -2.6165  1.6104 -0.9532
   54MPD2    H2  845   0.372   0.008  11.308 -0.3602 -0.3309 -0.4597
   54MPD2    H3  846   0.240   4.555  11.237  0.5562  1.0209  0.0006
   54MPD2     N  847   4.638   4.620  11.519 -0.5421  0.3864 -0.0410
   54MPD2    H5  848   4.612   4.524  11.497  0.5072  0.1980 -0.4129
   54MPD2    N1  849   0.289   0.198  11.481 -0.0797  0.0474  0.2212
   54MPD2    H7  850   0.236   0.264  11.538 -1.3863 -0.5764 -0.2598
   55TMC2    C1  851   1.391   2.898  17.071  0.0553  0.0360  0.1150
   55TMC2    C2  852   1.470   2.928  16.964  0.0967 -0.0360  0.0272
   55TMC2    C3  853   1.524   2.818  16.903  0.6491  0.9071  0.3526
   55TMC2    C4  854   1.381   2.783  17.127 -0.7647  0.5171 -0.3275
   55TMC2    C5  855   1.438   2.674  17.066  0.2888 -0.0098 -0.2561
   55TMC2    C6  856   1.505   2.688  16.950 -0.5502  0.5422  0.0268
   55TMC2     C  857   1.306   2.997  17.131 -0.3607 -0.7411  0.2702
   55TMC2     O  858   1.240   2.965  17.232 -0.6288 -0.0742  0.3103
   55TMC2     H  859   1.494   3.030  16.935  0.3235  0.4162  1.7665
   55TMC2    H1  860   1.322   2.766  17.217 -0.9347  0.6020 -0.4226
   55TMC2    H2  861   1.537   2.606  16.887 -0.9469  1.0892 -0.8747
   55TMC2    C7  862   1.428   2.546  17.131  0.7110  0.3053  0.3021
   55TMC2    C8  863   1.594   2.816  16.767  0.4768  0.2519  0.4872
   55TMC2    O1  864   1.456   2.449  17.058  0.1159 -0.1952 -0.1955
   55TMC2    O2  865   1.683   2.737  16.744  0.3883 -0.3477  0.5453
   55TMC2    O5  866   1.577   2.935  16.714 -0.2199 -0.2206 -0.0420
   55TMC2    H5  867   1.488   2.969  16.737 -0.0629  0.5064 -0.5242
   56MPD2     C  868   1.271   3.344  17.032 -0.0141  0.1199  0.3713
   56MPD2    C1  869   1.274   3.240  17.117 -0.1114 -0.3721  0.2697
   56MPD2    C2  870   1.258   3.265  17.254 -0.3283  0.8602 -0.6696
   56MPD2    C3  871   1.229   3.390  17.303  1.2095  0.0126 -0.3206
   56MPD2    C4  872   1.210   3.492  17.214 -0.7668 -0.6771  0.0537
   56MPD2    C5  873   1.244   3.471  17.082  0.2355  0.3017  0.5852
   56MPD2     H  874   1.265   3.179  17.319  2.4019  0.5920 -1.3068
   56MPD2    H1  875   1.192   3.596  17.240 -0.4827 -0.4806 -0.5341
   56MPD2    H2  876   1.285   3.342  16.924  2.8672  0.1745  0.7414
   56MPD2    H3  877   1.233   3.547  17.005  0.2970 -2.3372 -2.0193
   56MPD2     N  878   1.211   3.407  17.443 -0.3514 -0.1866  0.6720
   56MPD2    H5  879   1.209   3.324  17.500 -2.1902  1.6845  3.3327
   56MPD2    N1  880   1.309   3.118  17.062 -0.1658 -0.9631 -0.1344
   56MPD2    H7  881   1.358   3.121  16.973 -0.6887 -1.5675 -0.4487
   57TMC2    C1  882   4.691   4.265  13.470 -0.0782 -0.0027  0.0482
   57TMC2    C2  883   4.579   4.250  13.395  0.3087 -0.6082 -0.1932
   57TMC2    C3  884   4.595   4.239  13.257  0.2933 -0.9019  0.2708
   57TMC2    C4  885   0.083   4.268  13.410 -0.5197  0.0379  0.4720
   57TMC2    C5  886   0.098   4.247  13.277 -0.1429  0.0694  0.4659
   57TMC2    C6  887   4.719   4.244  13.201  0.1797 -0.0232  0.1165
   57TMC2     C  888   4.674   4.347  13.588  0.2067  0.2541  0.5419
   57TMC2     O  889   4.563   4.351  13.637 -0.1935  0.1771  0.1502
   57TMC2     H  890   4.482   4.271  13.437 -1.0134  1.4269 -4.1963
   57TMC2    H1  891   0.172   4.265  13.472  0.1577  1.1559 -0.4250
   57TMC2    H2  892   4.727   4.243  13.093 -1.1259 -0.8095  0.0223
   57TMC2    C7  893   0.220   4.297  13.216  0.1618 -0.3857 -0.0881
   57TMC2    C8  894   4.485   4.242  13.162  0.4519 -0.2158  0.3252
   57TMC2    O1  895   0.226   4.405  13.162  0.7983 -0.1141 -0.3296
   57TMC2    O2  896   4.491   4.264  13.045  0.0516  0.1679 -0.4721
   57TMC2    O5  897   4.375   4.199  13.217 -0.4651 -0.1114  0.1097
   57TMC2    H5  898   4.385   4.168  13.310  0.7604 -1.2815 -0.4089
   58MPD2     C  899   0.101   4.602  13.994 -0.3266 -0.3609 -0.0402
   58MPD2    C1  900   4.715   4.586  13.943 -0.0866 -0.0671  0.0136
   58MPD2    C2  901   4.694   4.513  13.830  0.5812  0.2892 -0.5427
   58MPD2    C3  902   0.069   4.463  13.757  0.5792 -0.4620 -0.1598
   58MPD2    C4  903   0.194   4.489  13.809 -0.0329 -0.3767  0.0231
   58MPD2    C5  904   0.207   4.557  13.922  0.0571  0.3583  0.7295
   58MPD2     H  905   4.595   4.515  13.787 -0.7186 -3.6041  2.2467
   58MPD2    H1  906   0.286   4.441  13.778  1.3211  1.9026  0.5749
   58MPD2    H2  907   0.128   4.655  14.085  2.7526 -1.3150 -0.3906
   58MPD2    H3  908   0.305   4.563  13.968  0.7390 -0.9467 -0.5499
   58MPD2     N  909   0.058   4.400  13.640 -0.3893  0.1362  0.4869
   58MPD2    H5  910   0.146   4.390  13.591 -0.6710 -0.4430  0.0902
   58MPD2    N1  911   4.597   4.634  14.002 -0.0518  0.2263 -0.5369
   58MPD2    H7  912   4.510   4.621  13.951 -0.5086 -1.5382  0.6995
   59TMC2    C1  913   2.781   4.026  12.715  0.5989  0.5327  0.0764
   59TMC2    C2  914   2.882   4.115  12.680  0.1895 -0.1663  0.3142
   59TMC2    C3  915   2.863   4.182  12.563 -0.2346  0.1961  0.9174
   59TMC2    C4  916   2.673   3.996  12.633 -0.4415  0.0797  0.5216
   59TMC2    C5  917   2.673   4.049  12.508  0.2449  0.0855 -0.3484
   59TMC2    C6  918   2.752   4.163  12.480  0.3959 -0.3202  0.5624
   59TMC2     C  919   2.775   3.967  12.851  0.8700  0.4455 -0.5561
   59TMC2     O  920   2.681   3.894  12.884  0.0299 -0.1921 -0.0411
   59TMC2     H  921   2.965   4.127  12.749  0.9005 -2.9862 -0.0468
   59TMC2    H1  922   2.607   3.913  12.658 -0.7443  1.0025  2.8508
   59TMC2    H2  923   2.732   4.229  12.397  1.7045 -1.7210 -0.8655
   59TMC2    C7  924   2.570   4.017  12.417 -0.3553 -0.3925 -0.5030
   59TMC2    C8  925   2.969   4.266  12.514  0.0454 -0.0386  0.1747
   59TMC2    O1  926   2.476   3.953  12.464  0.5438 -0.8356 -0.3105
   59TMC2    O2  927   3.002   4.286  12.399 -0.1899 -0.5825  0.2107
   59TMC2    O5  928   2.984   4.360  12.613  0.4310 -0.2262  0.1460
   59TMC2    H5  929   2.944   4.337  12.700 -0.5316  1.4786  0.1482
   60MPD2     C  930   2.809   3.921  13.142 -0.3346 -0.7638  0.6539
   60MPD2    C1  931   2.869   4.023  13.075  0.8502 -0.3551 -0.4010
   60MPD2    C2  932   2.944   4.114  13.144  0.6305  0.5193 -0.1423
   60MPD2    C3  933   2.956   4.108  13.285 -0.4498 -1.1643 -0.0046
   60MPD2    C4  934   2.891   4.007  13.350 -0.7613  0.0234  0.4185
   60MPD2    C5  935   2.815   3.917  13.275  0.6232  0.5189  0.4544
   60MPD2     H  936   2.997   4.197  13.101  2.3964 -0.8621 -0.6259
   60MPD2    H1  937   2.876   4.012  13.458 -1.1899 -0.5433  0.3853
   60MPD2    H2  938   2.754   3.846  13.085 -0.1696  0.1842 -0.7453
   60MPD2    H3  939   2.763   3.837  13.326 -1.4431  1.8638  0.4615
   60MPD2     N  940   3.032   4.189  13.368 -0.2443 -0.0227 -1.0214
   60MPD2    H5  941   3.043   4.152  13.462  1.0137  0.6345 -0.9112
   60MPD2    N1  942   2.861   4.037  12.930  0.4330 -0.0916  0.0675
   60MPD2    H7  943   2.914   4.114  12.889  0.4918  1.0802  2.3541
   61TMC2    C1  944   2.129   0.765  15.345 -0.1054  0.4177 -0.0977
   61TMC2    C2  945   2.042   0.731  15.443 -1.8195  0.0189 -0.4498
   61TMC2    C3  946   1.939   0.818  15.460  0.1062  0.1034  0.4986
   61TMC2    C4  947   2.110   0.875  15.260  1.0465 -0.2330  0.0462
   61TMC2    C5  948   1.997   0.946  15.271  0.8620 -0.3591  0.6768
   61TMC2    C6  949   1.912   0.927  15.376 -0.4450 -0.2845  0.4324
   61TMC2     C  950   2.170   0.647  15.277  0.1247  0.0789 -0.5577
   61TMC2     O  951   2.220   0.548  15.332 -0.1075  1.1385 -0.0501
   61TMC2     H  952   2.060   0.640  15.500 -0.6623 -0.4117 -1.5121
   61TMC2    H1  953   2.189   0.913  15.196 -0.3486  0.1101 -1.4775
   61TMC2    H2  954   1.827   0.992  15.386 -1.3197 -0.9752 -2.4918
   61TMC2    C7  955   1.978   1.055  15.186  0.8247 -0.4671  0.2395
   61TMC2    C8  956   1.864   0.802  15.578 -0.0705  0.0992  0.0398
   61TMC2    O1  957   2.067   1.107  15.122 -0.2769 -0.0219 -0.7891
   61TMC2    O2  958   1.804   0.894  15.631 -0.0257  0.7303 -0.2583
   61TMC2    O5  959   1.815   0.673  15.567  0.4417  0.0743  0.2974
   61TMC2    H5  960   1.864   0.607  15.514  0.3938  0.3725 -0.1199
   62MPD2     C  961   2.273   0.471  15.058 -0.6168  0.3546 -0.3466
   62MPD2    C1  962   2.206   0.590  15.036  0.6218  0.4025  0.6727
   62MPD2    C2  963   2.206   0.649  14.915 -0.2119  0.0345 -0.5981
   62MPD2    C3  964   2.262   0.587  14.806 -0.1542 -0.3841 -0.3941
   62MPD2    C4  965   2.320   0.468  14.822 -0.3119 -0.5093  0.1769
   62MPD2    C5  966   2.334   0.419  14.948  0.5192 -0.5258 -0.3127
   62MPD2     H  967   2.162   0.746  14.898  2.2151  1.1880 -0.3763
   62MPD2    H1  968   2.365   0.411  14.742  0.5247 -1.4637  1.3265
   62MPD2    H2  969   2.278   0.423  15.155  3.3565  0.3437 -0.5532
   62MPD2    H3  970   2.391   0.327  14.954  1.7405  0.3076  0.8629
   62MPD2     N  971   2.257   0.660  14.681 -0.0158  0.8328 -0.3401
   62MPD2    H5  972   2.195   0.739  14.671 -1.8178 -0.2310  2.2465
   62MPD2    N1  973   2.158   0.665  15.141  0.0701 -0.1640 -0.0381
   62MPD2    H7  974   2.127   0.755  15.107 -2.5118 -0.8686  0.4914
   63TMC2    C1  975   1.953   0.876  10.769 -0.2818  0.2366  0.5324
   63TMC2    C2  976   2.052   0.791  10.768 -0.2742  0.1945  0.1016
   63TMC2    C3  977   2.142   0.787  10.666 -0.5853  0.3182 -0.9188
   63TMC2    C4  978   1.914   0.953  10.666 -0.3259  0.0769 -0.1936
   63TMC2    C5  979   1.999   0.939  10.553 -0.0227  0.7414 -0.1969
   63TMC2    C6  980   2.112   0.860  10.555  0.1330 -0.6159 -0.0616
   63TMC2     C  981   1.847   0.830  10.859 -0.1736  0.4343 -0.2646
   63TMC2     O  982   1.868   0.824  10.981  0.3573  0.7226  0.0724
   63TMC2     H  983   2.066   0.714  10.843 -0.0961  0.8674  0.7634
   63TMC2    H1  984   1.836   1.027  10.664  0.9166  1.4029  0.8514
   63TMC2    H2  985   2.161   0.836  10.462 -0.4374 -1.5917 -0.1051
   63TMC2    C7  986   1.953   1.012  10.442  1.0598  0.5853  0.8403
   63TMC2    C8  987   2.222   0.667  10.653 -0.0055 -0.2399 -0.1325
   63TMC2    O1  988   1.836   1.052  10.443  0.5170 -0.3402 -0.4269
   63TMC2    O2  989   2.182   0.572  10.585  0.4620 -0.1642  0.0429
   63TMC2    O5  990   2.287   0.655  10.771 -0.6736 -0.1328 -0.1988
   63TMC2    H5  991   2.288   0.732  10.831  2.3827  0.7755 -1.4101
   64MPD2     C  992   1.367   0.648  10.920 -0.1296  0.7734  0.5452
   64MPD2    C1  993   1.384   0.661  10.783  0.3002  0.0248 -0.3314
   64MPD2    C2  994   1.508   0.710  10.749  0.1475 -0.5960 -0.1395
   64MPD2    C3  995   1.609   0.756  10.837 -0.2924  0.2477 -0.5445
   64MPD2    C4  996   1.585   0.747  10.974 -0.4228  0.5250  0.3096
   64MPD2    C5  997   1.463   0.694  11.007 -0.0851  0.3288  0.0567
   64MPD2     H  998   1.530   0.711  10.643  0.3040  0.5784 -0.0938
   64MPD2    H1  999   1.653   0.776  11.053  0.9969 -0.4595 -0.5554
   64MPD2    H2 1000   1.277   0.607  10.965  0.6905 -1.1893  0.3982
   64MPD2    H3 1001   1.455   0.664  11.111  1.5092 -0.2893  0.0037
   64MPD2     N 1002   1.734   0.807  10.782  0.3806  0.0039  0.0382
   64MPD2    H5 1003   1.743   0.819  10.682  0.1025 -0.3409 -0.0272
   64MPD2    N1 1004   1.311   0.584  10.689  0.2261  0.5907 -0.2561
   64MPD2    H7 1005   1.331   0.601  10.591 -0.6112 -2.5740 -0.9587
   65TMC2    C1 1006   3.206   0.787  15.755  0.2383 -0.3312 -0.2493
   65TMC2    C2 1007   3.296   0.882  15.783 -0.4187  0.3021  0.2579
   65TMC2    C3 1008   3.268   1.020  15.771  0.2541 -0.3947  0.2049
   65TMC2    C4 1009   3.084   0.820  15.703  0.0636  0.2525  0.2634
   65TMC2    C5 1010   3.049   0.953  15.696 -0.0529  1.0841  0.8062
   65TMC2    C6 1011   3.144   1.051  15.733  0.3388  0.3355 -0.0989
   65TMC2     C 1012   3.235   0.655  15.806  0.3477  0.6085 -0.3028
   65TMC2     O 1013   3.305   0.647  15.905  0.2410 -0.0269  0.5874
   65TMC2     H 1014   3.396   0.861  15.820  0.8122  1.1851 -2.5755
   65TMC2    H1 1015   3.014   0.741  15.678  0.4882  0.0416 -0.2501
   65TMC2    H2 1016   3.124   1.158  15.730  1.1967  0.4494 -1.5199
   65TMC2    C7 1017   2.906   0.978  15.682 -0.7390  0.5337 -0.1082
   65TMC2    C8 1018   3.358   1.129  15.799  0.6237 -0.2193  0.2926
   65TMC2    O1 1019   2.848   0.898  15.609 -0.2761 -0.4928 -0.2893
   65TMC2    O2 1020   3.366   1.236  15.735 -0.2144 -0.1792  0.3317
   65TMC2    O5 1021   3.380   1.126  15.929 -0.2838 -0.5177  0.0124
   65TMC2    H5 1022   3.363   1.037  15.966 -1.6199  0.0677  0.7787
   66MPD2     C 1023   3.184   0.373  15.894 -0.4924  0.2333  0.2285
   66MPD2    C1 1024   3.143   0.421  15.777  0.1750 -0.1680 -0.1325
   66MPD2    C2 1025   3.072   0.343  15.687 -0.0509 -0.4672  0.2415
   66MPD2    C3 1026   3.039   0.208  15.718  0.2087  0.2792 -0.2269
   66MPD2    C4 1027   3.096   0.162  15.836 -0.3888 -0.1102  0.1176
   66MPD2    C5 1028   3.168   0.237  15.931 -0.5479  0.4401  0.3095
   66MPD2     H 1029   3.029   0.391  15.599  2.6938 -1.6749 -1.7622
   66MPD2    H1 1030   3.086   0.057  15.861 -2.9159 -0.0077 -0.4166
   66MPD2    H2 1031   3.234   0.436  15.967 -1.8247  1.5623 -0.0146
   66MPD2    H3 1032   3.205   0.194  16.023  1.5151  0.7705 -0.3573
   66MPD2     N 1033   2.957   0.131  15.639 -0.6692  0.1822 -0.3352
   66MPD2    H5 1034   2.930   0.036  15.662 -0.6102  0.5603  1.2991
   66MPD2    N1 1035   3.167   0.554  15.738 -0.2342  0.1901  0.0823
   66MPD2    H7 1036   3.120   0.568  15.649 -1.9579  2.3719  1.3386
   67TMC2    C1 1037   3.011   4.515  14.290 -0.7384  0.2255  0.2753
   67TMC2    C2 1038   2.901   4.571  14.347  0.2296 -0.1216  0.4069
   67TMC2    C3 1039   2.930   4.660  14.452 -0.3306  0.3685  0.6713
   67TMC2    C4 1040   3.137   4.523  14.346 -0.1024  0.3849  0.1217
   67TMC2    C5 1041   3.156   4.604  14.450 -0.0004  0.2358 -0.3685
   67TMC2    C6 1042   3.054   4.682  14.504  0.5144  0.3522  0.4611
   67TMC2     C 1043   2.993   4.420  14.186  0.6959  0.3191  0.2141
   67TMC2     O 1044   3.095   4.367  14.148 -0.1322 -0.3569 -0.5945
   67TMC2     H 1045   2.808   4.590  14.294 -0.7168 -1.1238  1.7056
   67TMC2    H1 1046   3.215   4.461  14.306 -0.5681  0.5609 -1.0625
   67TMC2    H2 1047   3.064   0.013  14.589  0.9706 -0.0018  0.6838
   67TMC2    C7 1048   3.284   4.600  14.518 -0.2344 -0.8472  0.2176
   67TMC2    C8 1049   2.828   0.028  14.473 -0.5879  0.0328  0.1283
   67TMC2    O1 1050   3.364   4.531  14.457 -0.1827  0.0537  0.1966
   67TMC2    O2 1051   2.708   0.002  14.469 -0.1587 -0.5678 -0.0163
   67TMC2    O5 1052   2.882   0.150  14.454 -0.5409  0.5805  0.7492
   67TMC2    H5 1053   2.978   0.151  14.432 -0.6848 -0.7583  0.0424
   68MPD2     C 1054   2.920   4.246  13.964 -0.1268  0.4251  0.8995
   68MPD2    C1 1055   2.831   4.316  14.037 -0.7310  1.1345 -0.1173
   68MPD2    C2 1056   2.699   4.311  14.007  0.2238  0.6609  0.2123
   68MPD2    C3 1057   2.648   4.232  13.904  0.2622 -0.2462  0.7190
   68MPD2    C4 1058   2.737   4.163  13.827  1.1401  0.1401 -0.0611
   68MPD2    C5 1059   2.868   4.167  13.858  0.2292  0.6127 -0.2000
   68MPD2     H 1060   2.626   4.366  14.065 -0.6673 -0.8533  0.5354
   68MPD2    H1 1061   2.709   4.094  13.747  2.3270  0.5966 -0.8771
   68MPD2    H2 1062   3.028   4.254  13.977 -0.3766  1.3277  2.4289
   68MPD2    H3 1063   2.934   4.098  13.807 -1.5004  1.5346 -3.6780
   68MPD2     N 1064   2.515   4.229  13.871 -0.3343  0.6617 -0.5983
   68MPD2    H5 1065   2.492   4.175  13.789 -2.4032  0.5348  0.0623
   68MPD2    N1 1066   2.863   4.401  14.143  0.1177  0.9475 -0.2387
   68MPD2    H7 1067   2.786   4.454  14.181  1.0583  0.3754  2.5003
   69TMC2    C1 1068   0.143   1.266  12.259 -0.2738 -0.5996 -0.2137
   69TMC2    C2 1069   0.071   1.317  12.149  0.5778  0.1479  0.5962
   69TMC2    C3 1070   0.129   1.283  12.029 -0.1159  0.0009 -0.2596
   69TMC2    C4 1071   0.265   1.204  12.252 -0.0688 -0.1348 -0.6303
   69TMC2    C5 1072   0.329   1.207  12.127 -0.0159 -0.4985  0.1610
   69TMC2    C6 1073   0.255   1.236  12.018 -0.3124 -0.2127 -0.1389
   69TMC2     C 1074   0.081   1.255  12.394  0.3563 -0.7233  0.7645
   69TMC2     O 1075   0.152   1.213  12.487 -0.0685  0.0030  0.2299
   69TMC2     H 1076   4.709   1.364  12.157  0.6264  0.0640  1.6839
   69TMC2    H1 1077   0.312   1.170  12.343  0.2090 -0.2276 -0.8102
   69TMC2    H2 1078   0.301   1.216  11.922  0.8074 -0.3591  0.4306
   69TMC2    C7 1079   0.470   1.180  12.102 -0.5861  0.1315 -0.2362
   69TMC2    C8 1080   0.047   1.280  11.906  0.7104 -0.0896 -1.1190
   69TMC2    O1 1081   0.511   1.147  11.991  0.8051  0.0124  1.3392
   69TMC2    O2 1082   0.096   1.297  11.795  0.3525  0.8145  0.5552
   69TMC2    O5 1083   4.657   1.233  11.922  0.4788 -0.0452  0.9775
   69TMC2    H5 1084   4.627   1.194  12.007  0.5281 -1.7122  0.2272
   70MPD2     C 1085   4.466   1.333  12.471  1.0169 -0.2989  0.1487
   70MPD2    C1 1086   4.593   1.283  12.501  0.1103 -0.2215  0.0192
   70MPD2    C2 1087   4.620   1.215  12.615 -0.7339 -0.1725 -0.6550
   70MPD2    C3 1088   4.521   1.200  12.713  0.3994  0.0694  0.4640
   70MPD2    C4 1089   4.395   1.259  12.693  1.0290  0.3146  0.5166
   70MPD2    C5 1090   4.368   1.323  12.567  1.2439 -0.0341 -0.6976
   70MPD2     H 1091   4.721   1.180  12.631 -1.3190 -2.8133 -2.6262
   70MPD2    H1 1092   4.314   1.248  12.763  0.7348  0.6791  0.2350
   70MPD2    H2 1093   4.448   1.386  12.378  0.4552 -2.2263 -0.8552
   70MPD2    H3 1094   4.267   1.357  12.547  1.4910 -0.0101 -1.8964
   70MPD2     N 1095   4.542   1.129  12.833  0.6775  0.1228  0.4914
   70MPD2    H5 1096   4.462   1.122  12.896 -0.0245  1.5645 -0.2323
   70MPD2    N1 1097   4.683   1.302  12.396 -0.0643 -0.0896  0.1879
   70MPD2    H7 1098   4.642   1.339  12.311  0.2120 -1.5522 -0.5885
   71TMC2    C1 1099   1.971   2.612   2.094 -0.3557  0.4624 -0.3068
   71TMC2    C2 1100   2.055   2.651   2.194 -0.2108  0.3956  0.1174
   71TMC2    C3 1101   2.011   2.739   2.291 -0.4956 -0.9429  0.5801
   71TMC2    C4 1102   1.856   2.680   2.083  0.3726 -0.1304  0.0095
   71TMC2    C5 1103   1.817   2.766   2.180  0.3060 -0.1945 -0.7854
   71TMC2    C6 1104   1.896   2.806   2.283 -0.8241  0.2729 -0.3740
   71TMC2     C 1105   2.016   2.512   2.003  0.1862  0.2573 -0.5708
   71TMC2     O 1106   2.129   2.472   2.029  0.1247  0.6505 -0.1240
   71TMC2     H 1107   2.149   2.602   2.215 -0.8847 -1.1404 -0.4069
   71TMC2    H1 1108   1.785   2.635   2.014  1.7416 -0.0781 -1.4476
   71TMC2    H2 1109   1.871   2.880   2.358 -1.0120  0.0578 -0.2238
   71TMC2    C7 1110   1.688   2.839   2.176 -0.0436  0.0498 -0.8163
   71TMC2    C8 1111   2.095   2.734   2.410 -0.4397  0.1712  0.4248
   71TMC2    O1 1112   1.657   2.898   2.279 -0.1827 -0.3509 -0.3670
   71TMC2    O2 1113   2.216   2.726   2.410  0.0209 -0.6973  0.3346
   71TMC2    O5 1114   2.028   2.668   2.510  0.5773  0.1974 -0.1774
   71TMC2    H5 1115   1.932   2.661   2.496  0.7604 -1.3382 -0.6235
   72MPD2     C 1116   1.957   2.234   1.572 -0.1982 -0.2151 -0.6110
   72MPD2    C1 1117   2.073   2.250   1.643  0.1595 -0.7659  0.3180
   72MPD2    C2 1118   2.072   2.340   1.755  0.2400 -0.8653  0.1431
   72MPD2    C3 1119   1.956   2.411   1.782 -0.1716  0.4128 -0.3233
   72MPD2    C4 1120   1.842   2.388   1.709 -0.4753  0.4374 -0.4836
   72MPD2    C5 1121   1.842   2.300   1.604 -0.3098 -0.3815  0.5290
   72MPD2     H 1122   2.163   2.353   1.813 -0.5695  0.1627  1.1727
   72MPD2    H1 1123   1.747   2.435   1.728  0.0493  0.7394  1.3734
   72MPD2    H2 1124   1.966   2.169   1.486 -1.7117 -0.8444 -0.2913
   72MPD2    H3 1125   1.757   2.272   1.544 -0.9654 -0.7568  1.6216
   72MPD2     N 1126   1.931   2.491   1.895  0.5069 -0.4455 -0.0350
   72MPD2    H5 1127   1.835   2.520   1.910 -0.3299 -0.4479 -5.6141
   72MPD2    N1 1128   2.199   2.201   1.590 -0.0834  0.1792 -0.0119
   72MPD2    H7 1129   2.283   2.220   1.643 -0.8089  1.5060  0.6581
   73TMC2    C1 1130   1.881   3.172  14.427 -0.0675  0.4168 -0.1019
   73TMC2    C2 1131   1.875   3.290  14.494  0.2637 -0.4480 -0.1591
   73TMC2    C3 1132   1.979   3.294  14.581 -0.4165 -0.5127 -0.4656
   73TMC2    C4 1133   1.969   3.066  14.448 -0.0231  0.0971  0.7308
   73TMC2    C5 1134   2.070   3.079  14.531  0.2287 -0.1395 -0.1944
   73TMC2    C6 1135   2.076   3.198  14.599 -0.2418  0.1733  0.0108
   73TMC2     C 1136   1.840   3.180  14.289  0.9160  0.3325 -0.2374
   73TMC2     O 1137   1.904   3.097  14.227  0.1764 -0.0178 -0.0922
   73TMC2     H 1138   1.836   3.385  14.459 -2.0203 -2.0155 -1.8391
   73TMC2    H1 1139   1.961   2.973  14.394 -0.8140  1.2306 -1.1183
   73TMC2    H2 1140   2.165   3.226  14.654  1.0256  0.6504 -2.2989
   73TMC2    C7 1141   2.195   3.044  14.464  0.3642 -0.0263  0.5413
   73TMC2    C8 1142   2.005   3.416  14.656  0.9684  0.2189  0.5229
   73TMC2    O1 1143   2.296   3.037  14.529 -0.0449  0.1407  0.0339
   73TMC2    O2 1144   2.110   3.455  14.701  0.6168 -0.0927  0.1678
   73TMC2    O5 1145   1.886   3.471  14.679  0.1757  0.2311  0.3061
   73TMC2    H5 1146   1.821   3.397  14.680  0.5458 -0.1074 -2.9912
   74MPD2     C 1147   1.638   3.385  13.874  0.1204  0.3453 -0.3066
   74MPD2    C1 1148   1.751   3.311  13.887 -0.3816 -0.0554  1.2829
   74MPD2    C2 1149   1.789   3.271  14.017 -0.4643  0.3260  0.5489
   74MPD2    C3 1150   1.700   3.299  14.123 -0.6193  0.3875 -0.7541
   74MPD2    C4 1151   1.580   3.363  14.102  0.0714  0.1913  0.4304
   74MPD2    C5 1152   1.554   3.412  13.979  0.5450  0.8810  0.7445
   74MPD2     H 1153   1.886   3.226  14.038 -0.6351 -0.6303 -0.7155
   74MPD2    H1 1154   1.513   3.389  14.183 -0.1524  0.8250  0.0446
   74MPD2    H2 1155   1.598   3.419  13.780 -0.3650 -0.4934 -0.4027
   74MPD2    H3 1156   1.458   3.460  13.965  0.4354  1.0266  2.0430
   74MPD2     N 1157   1.739   3.272  14.256 -0.1020  0.2278 -0.2665
   74MPD2    H5 1158   1.678   3.296  14.333  1.2481 -1.1652  1.2248
   74MPD2    N1 1159   1.834   3.291  13.768 -0.1658 -0.3087 -0.0629
   74MPD2    H7 1160   1.810   3.330  13.677 -0.3455  0.5300  0.3460
   75TMC2    C1 1161   2.282   4.229  13.908  0.6969 -0.2437 -0.3693
   75TMC2    C2 1162   2.179   4.261  13.995  0.0477  0.0420  0.1468
   75TMC2    C3 1163   2.055   4.266  13.943 -0.7838  0.4998  0.1458
   75TMC2    C4 1164   2.263   4.214  13.774  0.1418  0.1787  0.5172
   75TMC2    C5 1165   2.133   4.224  13.730 -0.5163  0.5969 -0.2484
   75TMC2    C6 1166   2.030   4.245  13.810 -0.1341 -0.4203  0.2200
   75TMC2     C 1167   2.413   4.248  13.965  0.2986 -0.5131 -0.1043
   75TMC2     O 1168   2.422   4.287  14.082 -0.4999  0.8115  0.2833
   75TMC2     H 1169   2.191   4.271  14.102  0.0940 -1.5477  0.2959
   75TMC2    H1 1170   2.336   4.184  13.700  0.1576  2.9774 -0.6198
   75TMC2    H2 1171   1.930   4.251  13.770  0.2102  2.4211 -0.2349
   75TMC2    C7 1172   2.123   4.256  13.593 -0.9894 -0.3376  0.2121
   75TMC2    C8 1173   1.943   4.271  14.036 -0.3675  0.2760 -0.4052
   75TMC2    O1 1174   2.057   4.184  13.522  0.2847 -0.5473  0.3737
   75TMC2    O2 1175   1.830   4.230  14.014 -0.3780  0.4660 -0.1986
   75TMC2    O5 1176   1.971   4.368  14.134 -0.1193 -0.6941 -0.4595
   75TMC2    H5 1177   2.053   4.420  14.122 -1.1536  0.5251 -2.2932
   76TMC2    C1 1178   1.260   4.627  11.917  0.2533  0.2692  0.1415
   76TMC2    C2 1179   1.129   4.576  11.952  0.0436  0.0182  0.6338
   76TMC2    C3 1180   1.126   4.439  11.984 -0.4253 -0.1901 -0.5617
   76TMC2    C4 1181   1.380   4.553  11.944  0.4590 -0.0991  0.6574
   76TMC2    C5 1182   1.363   4.421  11.974 -0.1491  0.3447  0.1192
   76TMC2    C6 1183   1.244   4.361  11.994  0.3661  0.1965 -0.8487
   76TMC2     C 1184   1.269   0.039  11.888 -0.5259  0.2903  1.0818
   76TMC2     O 1185   1.170   0.093  11.838  0.6583  0.5157 -0.1091
   76TMC2     H 1186   1.040   4.637  11.944  0.7084  0.8816 -0.1591
   76TMC2    H1 1187   1.474   4.592  11.908  0.3186 -0.4305 -0.0579
   76TMC2    H2 1188   1.230   4.255  12.011 -0.7183  0.4970  0.1348
   76TMC2    C7 1189   1.480   4.340  11.981 -0.6846  0.4716  0.5835
   76TMC2    C8 1190   0.997   4.378  12.008 -0.3100 -0.3399 -0.3632
   76TMC2    O1 1191   1.472   4.217  11.970  0.6775  0.0545 -0.1620
   76TMC2    O2 1192   0.982   4.275  12.069  0.3738 -0.4550 -0.2577
   76TMC2    O5 1193   0.906   4.444  11.938 -0.2564  0.1449  0.0661
   76TMC2    H5 1194   0.934   4.522  11.886 -1.6431  1.3569  1.1229
   77MPD2     C 1195   1.539   0.482  11.893  0.8341  0.0989  0.5602
   77MPD2    C1 1196   1.413   0.455  11.849  0.4176 -0.1200 -0.0312
   77MPD2    C2 1197   1.363   0.321  11.851  0.1388 -0.4370 -0.2097
   77MPD2    C3 1198   1.438   0.222  11.903 -0.1841  0.0544 -0.0935
   77MPD2    C4 1199   1.558   0.251  11.958 -0.2178  0.4138 -0.5677
   77MPD2    C5 1200   1.601   0.377  11.958 -0.6047 -0.1765  0.4533
   77MPD2     H 1201   1.262   0.304  11.814  0.3452 -0.9101 -0.5488
   77MPD2    H1 1202   1.625   0.171  11.987  0.7925  1.2582 -0.6053
   77MPD2    H2 1203   1.592   0.576  11.884 -0.1957  0.4465 -1.9463
   77MPD2    H3 1204   1.699   0.394  12.000 -0.8465  0.0167  0.9407
   77MPD2     N 1205   1.392   0.095  11.925 -0.3426  0.1040 -0.6752
   77MPD2    H5 1206   1.456   0.040  11.980 -0.0467 -0.6014 -1.7359
   77MPD2    N1 1207   1.352   0.571  11.804  0.1155 -0.1461 -0.4515
   77MPD2    H7 1208   1.389   0.658  11.842  0.9662 -1.3923  1.5824
   78TMC2    C1 1209   1.382   1.960   1.108 -0.0986  0.0272 -0.4261
   78TMC2    C2 1210   1.408   2.058   1.204 -0.2885  0.5683 -0.2413
   78TMC2    C3 1211   1.536   2.096   1.230 -0.3316  0.2178 -0.0664
   78TMC2    C4 1212   1.482   1.894   1.049  0.2926 -0.9992 -0.8161
   78TMC2    C5 1213   1.607   1.931   1.082 -0.0101 -0.5044 -0.2497
   78TMC2    C6 1214   1.641   2.036   1.169  0.1877 -0.1659 -0.3429
   78TMC2     C 1215   1.243   1.939   1.076 -0.3731  0.1731  0.4255
   78TMC2     O 1216   1.164   1.968   1.166 -0.0309  0.0806 -0.2270
   78TMC2     H 1217   1.331   2.118   1.250 -0.2569 -0.3277  0.9783
   78TMC2    H1 1218   1.467   1.793   1.013 -1.3353 -0.5165 -1.4944
   78TMC2    H2 1219   1.744   2.059   1.197 -0.1149  0.3650  0.3373
   78TMC2    C7 1220   1.727   1.887   1.005 -0.4931 -0.0934  0.0497
   78TMC2    C8 1221   1.564   2.182   1.337 -0.1997  0.3113 -0.2874
   78TMC2    O1 1222   1.835   1.921   1.048  0.0836 -0.1084  0.2106
   78TMC2    O2 1223   1.519   2.155   1.449 -0.5260 -0.4908 -0.6135
   78TMC2    O5 1224   1.685   2.245   1.305  0.7060  0.5460  0.5041
   78TMC2    H5 1225   1.684   2.251   1.207  0.4391  0.3999  0.4979
   79MPD1     C 1226   0.855   1.790   0.787 -0.4913  0.2235 -0.3604
   79MPD1    C1 1227   0.856   1.845   0.915 -0.2699 -0.2861 -0.1299
   79MPD1    C2 1228   0.977   1.873   0.967 -0.3706  0.2805  0.1673
   79MPD1    C3 1229   1.098   1.852   0.902  0.1106  0.3246 -0.1643
   79MPD1    C4 1230   1.094   1.798   0.779 -0.3254 -0.2962  0.1525
   79MPD1    C5 1231   0.973   1.761   0.724 -0.6029 -1.1782  0.7790
   79MPD1     H 1232   0.967   1.912   1.068 -2.5226 -1.8693  0.8057
   79MPD1    H1 1233   1.186   1.774   0.726 -2.1244 -1.7582 -2.3376
   79MPD1    H2 1234   0.757   1.764   0.749 -0.2752 -1.1281  0.0022
   79MPD1    H3 1235   0.972   1.711   0.628  1.0804  2.1210 -0.9900
   79MPD1     N 1236   1.223   1.884   0.952 -0.8765 -0.5410  0.0227
   79MPD1    H5 1237   1.306   1.855   0.902 -0.5249  0.0889  0.2380
   79MPD1    N1 1238   0.734   1.845   0.999  0.4187  0.0043  0.7495
   79MPD1    H6 1239   0.654   1.874   0.944  2.3855  1.5153 -1.2776
   79MPD1    H7 1240   0.736   1.904   1.083  0.5107  1.2224 -0.1058
   80TMC2    C1 1241   0.452   4.619  11.612  0.4208 -0.2736 -0.7483
   80TMC2    C2 1242   0.517   4.543  11.522 -0.1093 -0.0822 -0.1663
   80TMC2    C3 1243   0.453   4.433  11.471  0.1153 -0.4194 -0.5106
   80TMC2    C4 1244   0.328   4.582  11.656  0.2455  0.3305  0.3511
   80TMC2    C5 1245   0.274   4.468  11.610  0.2289  0.3311  0.1567
   80TMC2    C6 1246   0.330   4.394  11.510 -0.0987 -0.2005  0.4558
   80TMC2     C 1247   0.534   4.711  11.681  0.3524 -0.2585  1.0142
   80TMC2     O 1248   0.654   4.710  11.660  0.0989 -0.6076  0.2105
   80TMC2     H 1249   0.610   4.578  11.480  0.5599  1.5000  2.6484
   80TMC2    H1 1250   0.266   4.647  11.716  0.4429 -0.5964  1.5543
   80TMC2    H2 1251   0.292   4.295  11.488  2.8953 -0.9347 -1.2809
   80TMC2    C7 1252   0.156   4.404  11.673 -0.2373  0.2041  0.7436
   80TMC2    C8 1253   0.506   4.359  11.367  0.0588 -0.6843 -0.2183
   80TMC2    O1 1254   0.105   4.316  11.602  0.2974 -0.1164 -0.3873
   80TMC2    O2 1255   0.436   4.350  11.269  0.3580  0.2927 -1.2151
   80TMC2    O5 1256   0.641   4.367  11.366 -0.0084  0.5817 -0.9178
   80TMC2    H5 1257   0.683   4.389  11.452 -0.2806  0.2859 -0.7075
   81MPD2     C 1258   0.655   0.218  11.803 -0.4598 -0.2267  0.1287
   81MPD2    C1 1259   0.533   0.162  11.833 -0.1811  0.0542  0.3104
   81MPD2    C2 1260   0.457   0.222  11.934  0.0432  0.1130 -0.5171
   81MPD2    C3 1261   0.512   0.321  12.009 -0.5868  0.6351 -0.2111
   81MPD2    C4 1262   0.640   0.363  11.985 -0.2867  1.2234 -0.5327
   81MPD2    C5 1263   0.707   0.327  11.873 -0.8255  0.9939  0.0948
   81MPD2     H 1264   0.359   0.183  11.957  0.4448 -0.9049 -0.4897
   81MPD2    H1 1265   0.686   0.440  12.046  1.1635  0.6058 -0.8588
   81MPD2    H2 1266   0.717   0.173  11.726  2.2662  0.7272  1.7652
   81MPD2    H3 1267   0.810   0.358  11.857 -0.6674  0.6411  0.4188
   81MPD2     N 1268   0.438   0.373  12.118  0.2700 -0.6778  0.1705
   81MPD2    H5 1269   0.484   0.443  12.176  0.7965  0.0699 -1.1597
   81MPD2    N1 1270   0.471   0.058  11.768 -0.0393  0.2334  0.6274
   81MPD2    H7 1271   0.373   0.040  11.791 -0.6692  2.3579 -0.3963
   82TMC2    C1 1272   3.396   3.818  11.521  0.1905 -0.2728 -0.5583
   82TMC2    C2 1273   3.428   3.877  11.401  0.1134 -0.7184 -0.3999
   82TMC2    C3 1274   3.479   3.797  11.306 -0.6599  0.3512 -0.4067
   82TMC2    C4 1275   3.407   3.685  11.537  0.9086  0.3286  0.1206
   82TMC2    C5 1276   3.441   3.613  11.427 -0.1044  0.1689  0.6794
   82TMC2    C6 1277   3.485   3.664  11.310 -0.3160 -0.0076  0.1299
   82TMC2     C 1278   3.279   3.867  11.598 -0.3929 -0.6174 -0.9939
   82TMC2     O 1279   3.250   3.818  11.706  0.3331 -0.2870 -0.2744
   82TMC2     H 1280   3.418   3.984  11.389  0.6426 -0.5963  0.2954
   82TMC2    H1 1281   3.376   3.620  11.618 -2.0957 -0.5006 -1.6920
   82TMC2    H2 1282   3.490   3.608  11.217 -0.5865  2.1679 -1.2018
   82TMC2    C7 1283   3.340   3.505  11.409 -0.1870  0.3682 -0.8757
   82TMC2    C8 1284   3.524   3.853  11.183 -0.6343 -0.5298  0.2393
   82TMC2    O1 1285   3.231   3.513  11.464 -0.4550 -0.7944  0.1478
   82TMC2    O2 1286   3.604   3.805  11.104 -0.1822  0.9313  0.1623
   82TMC2    O5 1287   3.432   3.943  11.140  0.6747 -0.4258  0.3095
   82TMC2    H5 1288   3.355   3.947  11.200  1.5105 -0.8933  1.4360
   83MPD2     C 1289   2.828   4.110  11.593  0.5165  0.1092  0.0583
   83MPD2    C1 1290   2.881   4.112  11.466 -0.5320 -0.3826  0.1624
   83MPD2    C2 1291   3.016   4.071  11.454  0.3611  0.1617  0.2055
   83MPD2    C3 1292   3.086   4.012  11.555 -0.7673 -0.1508  0.1051
   83MPD2    C4 1293   3.019   3.995  11.674  0.3856  0.1893  0.2971
   83MPD2    C5 1294   2.897   4.051  11.700 -0.1329 -0.4391 -0.1276
   83MPD2     H 1295   3.063   4.081  11.357 -0.0968 -2.9707 -0.3338
   83MPD2    H1 1296   3.067   3.936  11.751 -2.2243  0.1422  1.9090
   83MPD2    H2 1297   2.724   4.132  11.614  1.0397  0.6967  2.0298
   83MPD2    H3 1298   2.856   4.064  11.799  1.3042 -0.1274  0.4262
   83MPD2     N 1299   3.213   3.963  11.523  0.1127 -0.6404  0.1552
   83MPD2    H5 1300   3.247   3.986  11.430 -1.1884 -1.7196 -0.5906
   83MPD2    N1 1301   2.803   4.172  11.363 -0.8344  0.0253  0.6821
   83MPD2    H7 1302   2.707   4.196  11.386 -0.1703  1.6215  1.8510
   84TMC2    C1 1303   3.836   3.159  10.632 -0.0554 -0.2491 -0.1383
   84TMC2    C2 1304   3.849   3.235  10.519  1.2005  0.0313 -0.1496
   84TMC2    C3 1305   3.814   3.173  10.404  0.6790 -0.0013 -0.0282
   84TMC2    C4 1306   3.783   3.025  10.625 -0.1156 -0.4904 -0.1153
   84TMC2    C5 1307   3.752   2.971  10.505  1.3601 -0.3739 -0.0133
   84TMC2    C6 1308   3.774   3.045  10.396 -0.3672  0.2113  0.0523
   84TMC2     C 1309   3.861   3.226  10.758 -0.4945 -0.8352 -0.2163
   84TMC2     O 1310   3.870   3.349  10.765 -0.1933  0.3022  0.0494
   84TMC2     H 1311   3.898   3.330  10.535 -1.4489  0.9395  2.4713
   84TMC2    H1 1312   3.766   2.965  10.713 -0.1862  1.4020  1.1659
   84TMC2    H2 1313   3.755   3.010  10.295 -0.5566 -1.5537  0.6945
   84TMC2    C7 1314   3.740   2.827  10.488  0.1806  0.0675 -0.0019
   84TMC2    C8 1315   3.822   3.248  10.283 -0.0293 -0.8909 -0.0550
   84TMC2    O1 1316   3.729   2.760  10.590 -0.0236  0.3139  0.4510
   84TMC2    O2 1317   3.917   3.314  10.244  0.1697  0.4360  0.4091
   84TMC2    O5 1318   3.705   3.223  10.217 -0.5612  0.0481 -1.1765
   84TMC2    H5 1319   3.637   3.170  10.264 -0.6325  0.8114 -0.4200
   85TMC2    C1 1320   0.192   1.868  15.768  0.1790 -0.0302 -0.4640
   85TMC2    C2 1321   0.116   1.985  15.750 -0.0158  0.5365  0.3061
   85TMC2    C3 1322   0.171   2.089  15.677  0.5504 -0.2516  0.0431
   85TMC2    C4 1323   0.310   1.852  15.704 -0.9492 -0.0753  0.2547
   85TMC2    C5 1324   0.352   1.951  15.624 -0.1264 -0.3311  0.5761
   85TMC2    C6 1325   0.293   2.072  15.622  0.0935  0.0029  0.3271
   85TMC2     C 1326   0.138   1.754  15.847 -0.4388  0.8700 -0.3033
   85TMC2     O 1327   0.207   1.656  15.865 -0.0192 -0.2462  0.2897
   85TMC2     H 1328   0.009   1.991  15.769 -0.2308  2.0288 -1.4809
   85TMC2    H1 1329   0.365   1.759  15.710 -2.1345 -0.7464  0.6448
   85TMC2    H2 1330   0.332   2.154  15.563 -0.0619 -0.7518 -0.8187
   85TMC2    C7 1331   0.455   1.913  15.526 -0.6519  0.4611 -0.0969
   85TMC2    C8 1332   0.105   2.217  15.694 -0.0305 -0.0260  0.6682
   85TMC2    O1 1333   0.512   1.807  15.550  0.1928  0.1704 -0.4980
   85TMC2    O2 1334   4.723   2.217  15.667 -0.2884  0.2182 -0.1027
   85TMC2    O5 1335   0.192   2.325  15.691 -0.4249  0.7546  0.3717
   85TMC2    H5 1336   0.285   2.317  15.719 -0.5795 -4.2839 -0.5583
   86MPD2     C 1337   4.520   1.579  16.189  0.3881 -0.3754 -0.3243
   86MPD2    C1 1338   4.627   1.513  16.134 -0.2761  1.2321  0.3270
   86MPD2    C2 1339   4.707   1.583  16.049  0.2264  0.3221  0.7696
   86MPD2    C3 1340   4.679   1.715  16.010 -0.2360  0.0724  0.3746
   86MPD2    C4 1341   4.573   1.778  16.065 -0.4076  0.2590 -1.1785
   86MPD2    C5 1342   4.490   1.706  16.153 -0.0243 -0.7683  0.4276
   86MPD2     H 1343   0.053   1.532  15.997 -1.8422 -1.0254 -1.0877
   86MPD2    H1 1344   4.544   1.878  16.036  1.3203  1.1340  0.0898
   86MPD2    H2 1345   4.442   1.530  16.245  0.0594  0.1753 -0.3015
   86MPD2    H3 1346   4.395   1.747  16.187  0.7163  1.7731 -0.5690
   86MPD2     N 1347   0.019   1.788  15.911  0.3713 -0.6439  0.4950
   86MPD2    H5 1348   4.724   1.885  15.904  0.9034 -0.4084  1.4198
   86MPD2    N1 1349   4.641   1.372  16.129 -0.6532  0.3216  0.0275
   86MPD2    H7 1350   4.720   1.334  16.078  0.2284  0.5762  1.2127
   87TMC2    C1 1351   2.530   4.534   0.939  0.4566 -0.7057 -0.9040
   87TMC2    C2 1352   2.586   4.648   0.991  0.1099  0.2253 -0.2674
   87TMC2    C3 1353   2.516   0.034   0.984 -0.0545  0.6858  0.2057
   87TMC2    C4 1354   2.412   4.534   0.882 -0.0530  0.5717  0.2413
   87TMC2    C5 1355   2.344   4.656   0.883  0.8284 -0.3320  0.0411
   87TMC2    C6 1356   2.391   0.038   0.935  0.1444  0.4675  0.0097
   87TMC2     C 1357   2.615   4.420   0.911  0.0532  0.8714 -0.0835
   87TMC2     O 1358   2.594   4.364   0.803  0.4028 -0.7497 -0.3604
   87TMC2     H 1359   2.688   4.651   1.028 -0.0060  0.0572  0.0620
   87TMC2    H1 1360   2.374   4.440   0.844  2.8592  0.6981 -2.9987
   87TMC2    H2 1361   2.333   0.130   0.938  0.4930  0.6202  1.6618
   87TMC2    C7 1362   2.200   4.641   0.867  0.3422 -0.3347 -0.8494
   87TMC2    C8 1363   2.559   0.157   1.059  0.0683 -0.4619  0.0186
   87TMC2    O1 1364   2.150   4.532   0.873 -0.0539 -0.3907  0.2020
   87TMC2    O2 1365   2.673   0.194   1.073 -0.2738  0.7971 -0.2633
   87TMC2    O5 1366   2.452   0.202   1.127  0.1668  0.2548 -0.3941
   87TMC2    H5 1367   2.368   0.153   1.113 -0.0374 -0.1690  2.2003
   88MPD2     C 1368   1.905   4.713   0.844 -0.2221 -0.2169 -0.2931
   88MPD2    C1 1369   2.007   0.066   0.825  0.4382 -0.0840  0.8279
   88MPD2    C2 1370   1.969   0.199   0.803 -0.5845  0.3847 -0.5585
   88MPD2    C3 1371   1.836   0.238   0.784 -0.3696  0.1022  0.2487
   88MPD2    C4 1372   1.742   0.140   0.805 -1.1266 -0.4028  0.0128
   88MPD2    C5 1373   1.776   0.012   0.831 -0.1246  0.0147 -0.2647
   88MPD2     H 1374   2.057   0.263   0.800 -0.4260  0.1685 -0.5345
   88MPD2    H1 1375   1.637   0.162   0.786 -0.7835  1.9394  0.7904
   88MPD2    H2 1376   1.927   4.612   0.874  1.0485  0.1749  0.1086
   88MPD2    H3 1377   1.696   4.674   0.842 -0.0784 -0.0016 -0.0491
   88MPD2     N 1378   1.775   0.357   0.746 -0.1489  0.2300 -0.1737
   88MPD2    H5 1379   1.676   0.352   0.724  0.5322  1.2759 -3.4904
   88MPD2    N1 1380   2.146   0.030   0.839 -0.1463  0.3322 -0.2128
   88MPD2    H7 1381   2.215   0.099   0.810 -0.2410  0.4454 -0.1679
   89TMC2    C1 1382   4.193   3.412   2.350  0.3765  0.1009 -0.5609
   89TMC2    C2 1383   4.113   3.446   2.456 -0.6205  0.3871 -0.1899
   89TMC2    C3 1384   4.158   3.544   2.531 -0.1808 -0.5452  0.6788
   89TMC2    C4 1385   4.320   3.456   2.339  1.0891 -0.0527 -0.0617
   89TMC2    C5 1386   4.356   3.570   2.414  0.0778  0.9989  0.6300
   89TMC2    C6 1387   4.272   3.616   2.509 -0.0786 -0.1163 -0.0383
   89TMC2     C 1388   4.161   3.295   2.269  0.1784 -0.1145  0.2123
   89TMC2     O 1389   4.248   3.250   2.198 -0.3923  0.1609  0.2760
   89TMC2     H 1390   4.030   3.382   2.482 -1.3430  1.3463 -0.1412
   89TMC2    H1 1391   4.384   3.434   2.254 -1.9561  0.0225 -2.3745
   89TMC2    H2 1392   4.296   3.707   2.563 -0.3082 -0.3556  0.4666
   89TMC2    C7 1393   4.501   3.608   2.408 -0.0985  0.4583  0.4147
   89TMC2    C8 1394   4.072   3.590   2.639  0.0817  0.3641 -0.5123
   89TMC2    O1 1395   4.548   3.668   2.504  0.4055 -0.3856 -0.1291
   89TMC2    O2 1396   3.953   3.562   2.635  0.1116  0.4311 -0.6005
   89TMC2    O5 1397   4.133   3.647   2.745  0.1569  0.1584  0.3795
   89TMC2    H5 1398   4.231   3.647   2.746  0.1298  1.4484  2.6825
   90MPD2     C 1399   3.819   2.977   2.056  0.1992 -0.0065  0.0511
   90MPD2    C1 1400   3.745   3.072   2.127 -0.1762 -0.4712 -1.3401
   90MPD2    C2 1401   3.817   3.177   2.192  0.1929  0.2833  0.1240
   90MPD2    C3 1402   3.954   3.187   2.177 -0.7686 -0.1494  0.6231
   90MPD2    C4 1403   4.021   3.096   2.093 -0.6545 -0.3734  0.2478
   90MPD2    C5 1404   3.949   2.993   2.046 -0.2771  1.1263  0.0565
   90MPD2     H 1405   3.769   3.256   2.249 -0.3870  0.4855 -0.6533
   90MPD2    H1 1406   4.128   3.099   2.074 -0.9491  0.4917 -1.2334
   90MPD2    H2 1407   3.771   2.893   2.008 -1.6425  2.8900 -3.1513
   90MPD2    H3 1408   3.999   2.926   1.976  0.9748 -0.4532  2.4492
   90MPD2     N 1409   4.023   3.286   2.254  0.0515  0.6938  0.5177
   90MPD2    H5 1410   3.967   3.348   2.312  3.0356  2.4766  1.5194
   90MPD2    N1 1411   3.606   3.052   2.142  0.5152 -0.0652 -0.3973
   90MPD2    H7 1412   3.551   3.108   2.206 -1.4888 -0.8305 -1.4558
   91TMC2    C1 1413   4.616   2.788  16.878  0.1143 -0.2658  0.0286
   91TMC2    C2 1414   4.671   2.847  16.989 -0.1985  0.2727 -0.3861
   91TMC2    C3 1415   4.609   2.946  17.048  0.2579 -0.3270 -0.0865
   91TMC2    C4 1416   4.485   2.814  16.829  0.3054 -0.3023  0.4408
   91TMC2    C5 1417   4.418   2.908  16.904 -0.4474  0.5578  0.0875
   91TMC2    C6 1418   4.472   2.972  17.011  0.1628  0.0540 -0.6489
   91TMC2     C 1419   4.682   2.673  16.814  0.0177 -0.2207 -1.1083
   91TMC2     O 1420   4.621   2.590  16.741 -0.0738  0.1990 -0.2579
   91TMC2     H 1421   0.029   2.806  17.025  0.1918  0.1152 -1.5483
   91TMC2    H1 1422   4.445   2.748  16.753  0.3223  2.5133 -2.0060
   91TMC2    H2 1423   4.400   3.029  17.069  0.8796  1.7962 -1.4801
   91TMC2    C7 1424   4.287   2.953  16.870  0.0937 -0.6264  0.3551
   91TMC2    C8 1425   4.634   2.956  17.194  0.1722  0.3368  0.4004
   91TMC2    O1 1426   4.210   2.966  16.967  0.2230  0.0450  0.3201
   91TMC2    O2 1427   4.717   2.883  17.246 -0.1053 -1.4691 -0.2930
   91TMC2    O5 1428   4.582   3.066  17.247 -0.7715  0.3077  0.4836
   91TMC2    H5 1429   4.555   3.132  17.180 -1.5409 -1.4964 -0.9800
   92MPD2     C 1430   0.129   2.447  16.768  0.0423 -0.1256 -0.0674
   92MPD2    C1 1431   0.174   2.573  16.795  0.5623 -0.7391 -0.5546
   92MPD2    C2 1432   0.311   2.595  16.791 -0.6559 -0.2550 -0.1494
   92MPD2    C3 1433   0.397   2.491  16.762  0.7432 -0.2949 -0.3205
   92MPD2    C4 1434   0.349   2.366  16.737 -0.0539  0.1275 -0.1917
   92MPD2    C5 1435   0.216   2.344  16.734  0.3126 -0.0375 -0.1315
   92MPD2     H 1436   0.351   2.692  16.815  1.8277 -1.1513 -0.6766
   92MPD2    H1 1437   0.423   2.289  16.714 -0.2264  0.2199 -1.0781
   92MPD2    H2 1438   0.025   2.419  16.784  0.4341 -0.3657  2.0773
   92MPD2    H3 1439   0.168   2.249  16.712  2.5803 -0.9614 -1.1093
   92MPD2     N 1440   0.531   2.503  16.731 -0.2804 -0.0997  0.5111
   92MPD2    H5 1441   0.576   2.424  16.685 -1.5796  0.5354 -1.8476
   92MPD2    N1 1442   0.089   2.678  16.830  0.9308  0.0141 -0.7047
   92MPD2    H7 1443   0.129   2.762  16.871 -1.0101  0.2538  0.7312
   93TMC2    C1 1444   2.071   2.616  13.911  0.5966 -0.0669  0.4479
   93TMC2    C2 1445   2.045   2.656  14.038 -0.3673  0.0303 -0.1451
   93TMC2    C3 1446   2.149   2.685  14.128  0.0101  0.1825 -0.0829
   93TMC2    C4 1447   2.203   2.614  13.864  0.8042  0.6608  0.6533
   93TMC2    C5 1448   2.302   2.639  13.958 -0.1438  0.3187 -0.0491
   93TMC2    C6 1449   2.275   2.670  14.089 -0.3570 -0.3568 -0.2928
   93TMC2     C 1450   1.973   2.549  13.830 -0.0388 -0.5015 -0.1088
   93TMC2     O 1451   2.014   2.482  13.735  0.6343  0.0631 -0.4238
   93TMC2     H 1452   1.942   2.650  14.071  0.0604  0.0789  1.2091
   93TMC2    H1 1453   2.228   2.594  13.761  0.1761  0.9792  0.4428
   93TMC2    H2 1454   2.359   2.701  14.152 -0.3391 -1.8663  0.4229
   93TMC2    C7 1455   2.440   2.671  13.912  0.0665  0.0734 -0.2182
   93TMC2    C8 1456   2.115   2.704  14.275  0.5818  0.4744 -0.1415
   93TMC2    O1 1457   2.533   2.656  13.991  0.2267 -0.1886  0.7873
   93TMC2    O2 1458   2.206   2.693  14.360  0.7693  0.2012 -0.1187
   93TMC2    O5 1459   1.989   2.722  14.298 -0.2560  0.1764 -0.5691
   93TMC2    H5 1460   1.936   2.740  14.217 -3.3090  0.7881  1.6036
   94MPD2     C 1461   1.731   2.472  13.674 -0.3223 -0.0930  0.4740
   94MPD2    C1 1462   1.730   2.566  13.773 -0.7213  0.1555  0.5870
   94MPD2    C2 1463   1.612   2.629  13.806 -0.1084 -0.4398  0.0725
   94MPD2    C3 1464   1.491   2.594  13.748 -0.3357  0.0040 -0.1967
   94MPD2    C4 1465   1.493   2.490  13.653 -0.3337  0.0636  1.2455
   94MPD2    C5 1466   1.613   2.430  13.616 -0.2420  0.3321 -0.0334
   94MPD2     H 1467   1.610   2.697  13.891 -0.8529  0.5235 -0.7039
   94MPD2    H1 1468   1.405   2.445  13.609  2.1857 -0.9239 -2.8641
   94MPD2    H2 1469   1.821   2.418  13.649 -0.3011 -0.4992  1.4108
   94MPD2    H3 1470   1.612   2.347  13.547  1.6182  0.2075  0.1000
   94MPD2     N 1471   1.365   2.667  13.767  0.5971  0.1908  0.7901
   94MPD2    H5 1472   1.291   2.633  13.706  1.3966  0.4721 -0.3491
   94MPD2    N1 1473   1.841   2.597  13.848 -0.3740 -1.1589 -0.0601
   94MPD2    H7 1474   1.829   2.670  13.918 -1.4365 -1.1000 -0.2974
   95TMC2    C1 1475   2.081   4.296  15.866 -0.7369 -0.2950  0.2660
   95TMC2    C2 1476   2.128   4.176  15.830 -0.2944 -0.7494 -0.0462
   95TMC2    C3 1477   2.124   4.068  15.925 -0.7417  0.4033 -0.0374
   95TMC2    C4 1478   2.010   4.311  15.980 -0.8450 -0.2786 -0.1078
   95TMC2    C5 1479   2.002   4.206  16.067 -0.1107 -0.3922  0.2986
   95TMC2    C6 1480   2.058   4.081  16.041 -0.1779 -0.0415  0.3069
   95TMC2     C 1481   2.132   4.412  15.788  0.1581  0.4004  0.1901
   95TMC2     O 1482   2.178   4.384  15.675  0.2396 -0.2755  0.4092
   95TMC2     H 1483   2.191   4.164  15.743  0.1751  0.6902  0.1021
   95TMC2    H1 1484   1.960   4.406  15.997 -0.5781 -0.2043  0.2577
   95TMC2    H2 1485   2.059   3.999  16.112  0.2764  0.4526  0.8641
   95TMC2    C7 1486   1.973   4.236  16.205 -0.5042  0.2297  0.2451
   95TMC2    C8 1487   2.211   3.958  15.917 -0.4143 -0.0263  0.1538
   95TMC2    O1 1488   2.006   4.350  16.242 -0.3544 -0.4117  0.7836
   95TMC2    O2 1489   2.259   3.900  16.012  0.3141 -0.8466 -0.5869
   95TMC2    O5 1490   2.245   3.939  15.782 -0.6797 -0.3498  0.1912
   95TMC2    H5 1491   2.187   3.985  15.717  0.5579  0.0679 -0.6110
   96MPD2     C 1492   2.329   0.152  15.799 -0.3797 -0.1184  0.1319
   96MPD2    C1 1493   2.351   0.049  15.710 -0.5483 -0.0079 -0.0066
   96MPD2    C2 1494   2.273   4.667  15.716  0.0974  0.2955  0.8462
   96MPD2    C3 1495   2.175   4.657  15.814  0.2024  0.6558  0.3716
   96MPD2    C4 1496   2.143   0.036  15.887  0.1005 -0.0171 -0.4130
   96MPD2    C5 1497   2.226   0.143  15.884  0.4924 -0.0049 -0.2773
   96MPD2     H 1498   2.298   4.588  15.647  0.9047  1.5238 -0.2800
   96MPD2    H1 1499   2.064   0.026  15.961  0.8762  1.9754  0.6796
   96MPD2    H2 1500   2.390   0.241  15.790  1.2040 -1.0695  1.2630
   96MPD2    H3 1501   2.203   0.225  15.951  1.1392  0.5137 -0.6879
   96MPD2     N 1502   2.108   4.539  15.840 -0.7242  0.3750 -0.6514
   96MPD2    H5 1503   2.036   4.546  15.912  0.9312  0.4685  1.0009
   96MPD2    N1 1504   2.464   0.048  15.619  0.4176  0.4866  0.5394
   96MPD2    H7 1505   2.524   0.130  15.624  0.2389  0.7235 -1.0153
   97TMC2    C1 1506   4.370   2.149   0.596 -0.1374 -0.5613  0.1521
   97TMC2    C2 1507   4.434   2.026   0.610  0.7026  0.5836  0.1430
   97TMC2    C3 1508   4.552   2.020   0.544 -0.1536  0.0511  0.2299
   97TMC2    C4 1509   4.424   2.263   0.543  0.9210 -0.9935  0.1979
   97TMC2    C5 1510   4.547   2.251   0.490 -0.3372  0.1837 -0.0924
   97TMC2    C6 1511   4.608   2.132   0.483  0.4653  0.4117 -0.7128
   97TMC2     C 1512   4.267   2.168   0.693 -0.2268  1.0176 -0.4532
   97TMC2     O 1513   4.238   2.279   0.738  0.3864  0.2605  0.2261
   97TMC2     H 1514   4.399   1.934   0.656  0.4449  1.7683  2.3243
   97TMC2    H1 1515   4.369   2.353   0.568  2.9374  0.9425 -2.2260
   97TMC2    H2 1516   4.710   2.130   0.448  0.2844 -1.8201 -1.0953
   97TMC2    C7 1517   4.600   2.364   0.419  0.4328  0.0629  0.2746
   97TMC2    C8 1518   4.584   1.889   0.500  0.3444  0.1214 -0.3541
   97TMC2    O1 1519   4.700   2.338   0.356  0.4116  0.1982  0.3488
   97TMC2    O2 1520   4.522   1.786   0.533  0.0834 -0.0912  0.1312
   97TMC2    O5 1521   4.647   1.893   0.380 -0.7089  0.0630  0.3325
   97TMC2    H5 1522   4.711   1.965   0.359 -1.7527  1.3285  1.5663
   98MPD2     C 1523   3.896   1.929   0.958 -0.3247 -0.0235  0.1400
   98MPD2    C1 1524   3.962   2.045   0.986 -0.6575 -0.1000  0.0287
   98MPD2    C2 1525   4.059   2.088   0.902 -0.0148 -0.0282 -0.4194
   98MPD2    C3 1526   4.085   2.019   0.787 -0.3541 -0.7699 -0.2577
   98MPD2    C4 1527   4.017   1.901   0.757 -0.0739 -0.0969 -0.1516
   98MPD2    C5 1528   3.927   1.857   0.846 -0.5488  0.3765 -0.3476
   98MPD2     H 1529   4.121   2.164   0.948 -0.3946  0.6064 -0.9667
   98MPD2    H1 1530   4.031   1.836   0.671 -1.9007 -0.8483  0.1259
   98MPD2    H2 1531   3.817   1.882   1.016  1.6936 -2.5099  0.8998
   98MPD2    H3 1532   3.872   1.765   0.832  1.6360 -1.0564  0.5731
   98MPD2     N 1533   4.199   2.051   0.708  0.0981 -0.0672 -0.5090
   98MPD2    H5 1534   4.223   1.974   0.647 -0.7402 -1.1169  0.5001
   98MPD2    N1 1535   3.937   2.110   1.108 -0.0818 -0.4330  0.3652
   98MPD2    H7 1536   3.885   2.054   1.174 -0.5395  0.1630  0.5142
   99TMC2    C1 1537   3.014   4.449   1.585  0.4650  0.2364 -0.2425
   99TMC2    C2 1538   3.079   4.562   1.616  0.1524  0.5529 -0.6165
   99TMC2    C3 1539   3.006   4.657   1.678  0.2324 -0.7283 -0.5817
   99TMC2    C4 1540   2.880   4.448   1.590 -0.4838  0.2295  0.0529
   99TMC2    C5 1541   2.815   4.537   1.665  0.9024 -0.4754  0.4219
   99TMC2    C6 1542   2.880   4.649   1.710  0.7148 -0.3827 -0.3717
   99TMC2     C 1543   3.084   4.336   1.520  0.4089  0.2118 -0.3298
   99TMC2     O 1544   3.196   4.361   1.485  0.4567 -0.7801  0.1699
   99TMC2     H 1545   3.186   4.578   1.617  0.0041  1.4691  1.3176
   99TMC2    H1 1546   2.831   4.373   1.528 -0.4500 -1.2202  1.7602
   99TMC2    H2 1547   2.820   4.725   1.758  1.3323  1.0980 -1.9052
   99TMC2    C7 1548   2.670   4.520   1.689 -0.3383  0.2402 -1.0931
   99TMC2    C8 1549   3.073   0.042   1.711 -0.0177 -0.2187 -0.0405
   99TMC2    O1 1550   2.629   4.587   1.783  0.0899 -0.6253  0.0236
   99TMC2    O2 1551   3.160   0.084   1.636 -0.6021 -0.1207 -0.3596
   99TMC2    O5 1552   3.075   0.057   1.848 -0.1030  0.0632  0.1200
   99TMC2    H5 1553   3.007   0.003   1.893 -0.6827  1.7472  1.2426
  100MPD2     C 1554   3.223   4.069   1.511 -0.3346 -0.2249  0.6609
  100MPD2    C1 1555   3.090   4.092   1.487 -0.0139  0.0924  0.0980
  100MPD2    C2 1556   3.011   3.986   1.442 -0.1799  0.0430 -0.4527
  100MPD2    C3 1557   3.070   3.866   1.408 -0.4170  0.6710  0.4131
  100MPD2    C4 1558   3.207   3.840   1.432 -0.5754 -0.5969  0.1474
  100MPD2    C5 1559   3.282   3.942   1.489  0.6822  0.4299  0.0814
  100MPD2     H 1560   2.906   4.001   1.422 -0.0348 -2.2667 -2.9544
  100MPD2    H1 1561   3.265   3.752   1.409 -0.7828 -0.7900  0.3637
  100MPD2    H2 1562   3.283   4.141   1.565  0.6803 -0.7626  0.2691
  100MPD2    H3 1563   3.386   3.921   1.508  0.1999 -1.2559  0.8261
  100MPD2     N 1564   2.977   3.769   1.349 -0.5639 -0.1896 -0.3825
  100MPD2    H5 1565   2.887   3.815   1.347 -0.4794 -0.0282 -0.4916
  100MPD2    N1 1566   3.020   4.213   1.525  0.2748 -0.0631  0.2667
  100MPD2    H7 1567   2.922   4.199   1.550  0.2589  0.5870  0.5832
  101TMC2    C1 1568   3.916   0.410  13.154 -0.2475 -0.8115 -0.7182
  101TMC2    C2 1569   3.812   0.500  13.157 -0.5056  0.3894 -0.1429
  101TMC2    C3 1570   3.826   0.627  13.108 -0.0896  0.2688 -0.8735
  101TMC2    C4 1571   4.042   0.444  13.099  0.3945  0.0802  0.3968
  101TMC2    C5 1572   4.057   0.570  13.051  0.2381 -0.1436 -0.1185
  101TMC2    C6 1573   3.950   0.661  13.049 -0.4040  0.5198 -0.3756
  101TMC2     C 1574   3.884   0.287  13.226 -0.0332 -0.6240  0.1365
  101TMC2     O 1575   3.792   0.298  13.309  0.1421 -0.1418 -0.6301
  101TMC2     H 1576   3.719   0.484  13.210  0.1693  1.5756  1.3942
  101TMC2    H1 1577   4.118   0.367  13.090 -0.6300 -0.7053 -1.5440
  101TMC2    H2 1578   3.965   0.762  13.011  0.6994  0.9374  1.1940
  101TMC2    C7 1579   4.165   0.615  12.977 -0.1099  0.3093  0.0911
  101TMC2    C8 1580   3.706   0.701  13.065  0.8828 -0.3345 -0.3382
  101TMC2    O1 1581   4.147   0.704  12.892 -0.0011  0.3285  0.6435
  101TMC2    O2 1582   3.707   0.784  12.974 -0.1812  0.0366 -0.2129
  101TMC2    O5 1583   3.611   0.692  13.161 -0.5104 -0.1756 -0.1556
  101TMC2    H5 1584   3.654   0.655  13.241  1.2945  1.7834 -0.2406
  102MPD2     C 1585   3.945   4.678  13.093  0.2870  0.1630  0.5466
  102MPD2    C1 1586   3.875   0.035  13.169 -0.6734  0.1919 -0.3111
  102MPD2    C2 1587   3.762   0.003  13.243  0.3515 -0.3686  0.1108
  102MPD2    C3 1588   3.713   4.610  13.239  0.1478  0.0441 -0.2322
  102MPD2    C4 1589   3.784   4.516  13.158  0.1637 -0.4600 -0.0223
  102MPD2    C5 1590   3.894   4.552  13.085 -1.0762 -0.5289  0.1677
  102MPD2     H 1591   3.717   0.078  13.307  0.9048  0.8307 -0.8908
  102MPD2    H1 1592   3.754   4.415  13.133  2.1202 -1.3746  1.3287
  102MPD2    H2 1593   4.031   4.708  13.034 -0.0415 -0.1946 -0.1145
  102MPD2    H3 1594   3.938   4.476  13.022 -0.5982  2.4799 -3.1854
  102MPD2     N 1595   3.595   4.582  13.312 -0.3109  0.4277 -1.1149
  102MPD2    H5 1596   3.558   4.666  13.356  1.1316  0.6740 -0.3824
  102MPD2    N1 1597   3.929   0.171  13.160 -0.8427  0.1503  0.3300
  102MPD2    H7 1598   3.988   0.189  13.079 -2.7180  0.2916 -1.0248
  103TMC2    C1 1599   2.139   4.678  12.306  0.6414 -0.2095 -0.5251
  103TMC2    C2 1600   2.264   4.695  12.258 -0.1249  0.0688 -0.4644
  103TMC2    C3 1601   2.348   0.034  12.331 -0.1665 -0.4776  0.6900
  103TMC2    C4 1602   2.095   0.007  12.425  1.2842  0.7072 -0.5638
  103TMC2    C5 1603   2.187   0.087  12.495 -0.8581  0.0772 -0.1332
  103TMC2    C6 1604   2.314   0.094  12.455  0.0108 -0.4021  0.0429
  103TMC2     C 1605   2.027   4.626  12.228  0.0590 -0.0296 -0.3855
  103TMC2     O 1606   1.929   4.704  12.223  0.0887 -0.1059 -1.0069
  103TMC2     H 1607   2.287   4.671  12.155 -1.8701 -1.4980 -0.4853
  103TMC2    H1 1608   1.993   4.727  12.459  1.4891  0.3666 -0.0968
  103TMC2    H2 1609   2.385   0.150  12.515  0.0185 -1.7662  1.3044
  103TMC2    C7 1610   2.146   0.148  12.619 -0.4954  0.8483 -0.0868
  103TMC2    C8 1611   2.478   0.062  12.274  0.1897 -0.3486  0.5409
  103TMC2    O1 1612   2.043   0.110  12.672 -0.3096 -0.0162 -0.4397
  103TMC2    O2 1613   2.530   4.726  12.189  0.1153  0.0616  0.2359
  103TMC2    O5 1614   2.511   0.191  12.289  0.6156  0.4020 -0.1927
  103TMC2    H5 1615   2.443   0.242  12.338 -0.6183 -1.6514  0.2632
  104MPD2     C 1616   1.993   4.303  12.065 -0.2794  0.2198 -0.4279
  104MPD2    C1 1617   1.949   4.426  12.103 -0.4900  0.4036 -0.0158
  104MPD2    C2 1618   1.816   4.459  12.091 -0.1475 -0.3416 -0.1113
  104MPD2    C3 1619   1.722   4.370  12.034 -0.2759 -0.4600 -0.3701
  104MPD2    C4 1620   1.771   4.247  12.000 -0.2317  0.3441 -0.0062
  104MPD2    C5 1621   1.904   4.219  12.006  0.4456  0.3761  0.0794
  104MPD2     H 1622   1.769   4.539  12.147  1.1372 -0.5792  1.2944
  104MPD2    H1 1623   1.704   4.185  11.942 -1.3565 -0.9963  2.7095
  104MPD2    H2 1624   2.098   4.276  12.059 -0.3004 -0.1776  1.0197
  104MPD2    H3 1625   1.938   4.122  11.971 -0.4888 -0.7378  2.2739
  104MPD2     N 1626   1.587   4.415  12.025  0.1798 -0.3093  0.2860
  104MPD2    H5 1627   1.558   4.508  12.054  0.3066 -0.2912  0.3526
  104MPD2    N1 1628   2.048   4.499  12.174  0.0993 -0.1931  0.4168
  104MPD2    H7 1629   2.137   4.452  12.185  1.3544  2.4240  1.5041
  105TMC2    C1 1630   3.247   3.912   0.434 -0.1221 -0.1268  0.9343
  105TMC2    C2 1631   3.144   3.921   0.340 -0.6627 -0.2508  1.2420
  105TMC2    C3 1632   3.033   3.989   0.384 -0.0156 -0.4507  0.6885
  105TMC2    C4 1633   3.228   3.938   0.563  0.7686  0.1277  0.6228
  105TMC2    C5 1634   3.115   3.996   0.603 -0.2343 -0.0616  0.3066
  105TMC2    C6 1635   3.020   4.026   0.512 -0.2196  0.5141  0.1863
  105TMC2     C 1636   3.380   3.894   0.382  0.8687 -0.1079  0.1259
  105TMC2     O 1637   3.456   3.839   0.462 -0.1117  0.1866  0.1869
  105TMC2     H 1638   3.146   3.878   0.241  0.0812  0.5798  0.8898
  105TMC2    H1 1639   3.301   3.904   0.636  0.2055  2.9093  2.4830
  105TMC2    H2 1640   2.922   4.066   0.538 -1.5121 -1.6165 -1.4857
  105TMC2    C7 1641   3.128   4.069   0.733 -0.8149 -0.1556 -0.0227
  105TMC2    C8 1642   2.920   3.968   0.306 -0.6763  1.4142  0.0899
  105TMC2    O1 1643   3.232   4.070   0.800 -0.1660 -0.5089  0.7413
  105TMC2    O2 1644   2.878   3.853   0.294  0.5086  0.5378 -0.0824
  105TMC2    O5 1645   2.844   4.079   0.322  0.1898 -0.2121  0.4899
  105TMC2    H5 1646   2.903   4.157   0.330  0.2605 -0.1942 -0.1805
  106MPD2     C 1647   3.756   4.025   0.049 -0.2469 -1.0584  0.4889
  106MPD2    C1 1648   3.652   4.122   0.039 -0.0647  0.5572 -0.0191
  106MPD2    C2 1649   3.536   4.102   0.120 -0.0217 -0.3302  0.2543
  106MPD2    C3 1650   3.527   3.995   0.210 -0.1058 -0.1426  0.2496
  106MPD2    C4 1651   3.636   3.909   0.220 -0.2435  0.0073  0.2808
  106MPD2    C5 1652   3.754   3.925   0.143  0.1772 -0.2783  0.0374
  106MPD2     H 1653   3.451   4.169   0.112  0.2114 -0.1345 -0.6412
  106MPD2    H1 1654   3.625   3.835   0.298  0.7839 -0.4268  0.0117
  106MPD2    H2 1655   3.845   4.028  17.727 -1.5662 -1.0096 -1.4570
  106MPD2    H3 1656   3.822   3.840   0.140  0.7200  0.1046  1.5581
  106MPD2     N 1657   3.407   3.977   0.278  0.2560 -0.2038  0.0038
  106MPD2    H5 1658   3.330   4.035   0.250  1.9588  1.5890 -0.9674
  106MPD2    N1 1659   3.659   4.235  17.690 -0.1281 -0.4271 -0.0093
  106MPD2    H7 1660   3.582   4.300  17.698  1.0160  1.2603 -2.8747
  107TMC2    C1 1661   3.822   3.797  11.492  0.1758 -0.6339  0.6107
  107TMC2    C2 1662   3.881   3.884  11.399  0.8511  0.1997 -0.3577
  107TMC2    C3 1663   3.952   3.826  11.305  0.6762 -0.2128  0.4674
  107TMC2    C4 1664   3.831   3.655  11.483 -0.6186  0.8143 -0.2474
  107TMC2    C5 1665   3.919   3.606  11.386  0.4342  0.4419 -0.4173
  107TMC2    C6 1666   3.982   3.689  11.296 -0.1070 -0.1015 -0.3991
  107TMC2     C 1667   3.744   3.849  11.604  0.5175  0.1121  0.9038
  107TMC2     O 1668   3.691   3.770  11.682  0.2166 -0.2149  0.0803
  107TMC2     H 1669   3.880   3.992  11.409 -2.2011  0.0503  1.0693
  107TMC2    H1 1670   3.778   3.589  11.550 -1.1869  1.4051 -0.1112
  107TMC2    H2 1671   4.046   3.643  11.221 -1.4696  0.3413 -1.8289
  107TMC2    C7 1672   3.935   3.467  11.371  0.3962 -0.2377 -0.1015
  107TMC2    C8 1673   4.011   3.903  11.202  0.2956 -0.2607  0.3695
  107TMC2    O1 1674   3.902   3.395  11.467  0.2329  0.2035  0.0974
  107TMC2    O2 1675   4.103   3.863  11.133 -0.0574 -0.9881  0.0501
  107TMC2    O5 1676   3.912   3.979  11.144 -0.3395  0.8497 -0.1853
  107TMC2    H5 1677   3.830   4.001  11.193 -0.3327 -0.9374  0.6142
  108MPD2     C 1678   3.605   4.181  11.617 -0.2182  0.3072 -0.3005
  108MPD2    C1 1679   3.625   4.057  11.658  0.5774 -0.0440 -0.7451
  108MPD2    C2 1680   3.545   4.015  11.765  0.0261 -0.3564  0.3050
  108MPD2    C3 1681   3.461   4.100  11.833 -0.2549 -0.3909  0.1463
  108MPD2    C4 1682   3.463   4.230  11.803  0.1911 -0.3414 -0.4668
  108MPD2    C5 1683   3.526   4.268  11.686 -0.0392 -0.0869  0.7435
  108MPD2     H 1684   3.559   3.911  11.791 -2.2044 -0.5727  0.6740
  108MPD2    H1 1685   3.413   4.311  11.854  0.2839 -0.6999  0.1862
  108MPD2    H2 1686   3.647   4.222  11.525  2.0800 -1.1417  0.1336
  108MPD2    H3 1687   3.525   4.373  11.660 -0.5875 -0.0629  0.8469
  108MPD2     N 1688   3.370   4.062  11.935  0.3039 -0.3302 -1.2333
  108MPD2    H5 1689   3.291   4.120  11.961  0.5145 -0.8589  0.5784
  108MPD2    N1 1690   3.715   3.984  11.586 -0.0826  0.2502  0.5707
  108MPD2    H7 1691   3.766   4.027  11.509 -0.5267  0.1914  0.2421
  109TMC2    C1 1692   2.834   2.107   1.768  0.6914  0.1073 -0.0041
  109TMC2    C2 1693   2.820   2.202   1.864 -0.0452  0.3515 -0.0757
  109TMC2    C3 1694   2.933   2.253   1.928  0.0892  0.1280  0.9532
  109TMC2    C4 1695   2.956   2.050   1.730 -1.0417 -0.3961  0.6374
  109TMC2    C5 1696   3.068   2.094   1.800 -0.2701 -0.5126 -0.5349
  109TMC2    C6 1697   3.058   2.198   1.893 -0.5889 -0.3631 -0.3265
  109TMC2     C 1698   2.709   2.024   1.755  0.4048 -0.3885  0.3736
  109TMC2     O 1699   2.623   2.041   1.841 -0.3864  0.0762 -0.1946
  109TMC2     H 1700   2.724   2.247   1.888 -0.4221 -1.5254  2.0056
  109TMC2    H1 1701   2.952   1.959   1.672  1.5317 -0.0994  0.0356
  109TMC2    H2 1702   3.136   2.218   1.966 -1.2085  3.0793 -0.6109
  109TMC2    C7 1703   3.203   2.068   1.748  0.6786 -0.4272  0.2900
  109TMC2    C8 1704   2.926   2.362   2.016 -0.1041 -0.1804 -0.2546
  109TMC2    O1 1705   3.275   2.169   1.755 -0.3220  0.4887  0.4930
  109TMC2    O2 1706   3.026   2.441   2.031 -0.2962 -0.1914 -0.0977
  109TMC2    O5 1707   2.803   2.377   2.063  0.2505 -0.4327  0.7437
  109TMC2    H5 1708   2.764   2.288   2.070  1.6965 -0.9316  2.5946
  110MPD2     C 1709   2.400   1.710   1.506  0.5464 -0.4545 -0.0898
  110MPD2    C1 1710   2.508   1.737   1.429 -0.5103  0.0746  0.0227
  110MPD2    C2 1711   2.607   1.820   1.468 -0.6252 -0.5993 -0.3367
  110MPD2    C3 1712   2.606   1.879   1.592 -0.3192  0.2978 -0.4527
  110MPD2    C4 1713   2.496   1.850   1.671 -0.0655  0.4686  0.4600
  110MPD2    C5 1714   2.395   1.769   1.630 -0.1123 -0.2331  0.4980
  110MPD2     H 1715   2.694   1.835   1.405  0.0444  0.1349  0.7598
  110MPD2    H1 1716   2.475   1.901   1.764  0.3791  0.5271  0.5315
  110MPD2    H2 1717   2.309   1.666   1.465 -0.2937  0.3766  0.8782
  110MPD2    H3 1718   2.311   1.749   1.694 -0.4982  1.5531  0.5435
  110MPD2     N 1719   2.713   1.959   1.636  0.0173  0.3173 -0.3744
  110MPD2    H5 1720   2.786   1.986   1.571  1.3708  1.4280  1.6143
  110MPD2    N1 1721   2.500   1.678   1.302  0.4604  0.1673 -0.0361
  110MPD2    H7 1722   2.423   1.611   1.295  1.1954 -0.3927 -2.5685
  111TMC2    C1 1723   4.113   1.318  11.425 -0.3224  0.5716 -0.8134
  111TMC2    C2 1724   4.186   1.403  11.352  0.5243  0.1808 -0.0481
  111TMC2    C3 1725   4.288   1.476  11.414  0.6724 -0.7982  0.0711
  111TMC2    C4 1726   4.157   1.278  11.548 -0.4354 -0.0609 -0.0151
  111TMC2    C5 1727   4.251   1.355  11.613  0.0538  0.1928 -0.1276
  111TMC2    C6 1728   4.323   1.459  11.544  0.5876  1.2500 -0.1176
  111TMC2     C 1729   4.023   1.232  11.356  1.0182 -0.1758 -0.6818
  111TMC2     O 1730   4.037   1.203  11.239  0.4845  0.0106 -0.4392
  111TMC2     H 1731   4.168   1.418  11.246  0.6542 -1.0669 -0.2426
  111TMC2    H1 1732   4.104   1.195  11.595  1.2416 -2.5594 -2.4920
  111TMC2    H2 1733   4.406   1.514  11.585  0.7466  1.5817 -0.8743
  111TMC2    C7 1734   4.281   1.324  11.747  0.9396  0.0771  0.6757
  111TMC2    C8 1735   4.302   1.605  11.349  0.0750 -0.3453  0.1298
  111TMC2    O1 1736   4.395   1.349  11.781 -0.1917 -1.3603  0.1556
  111TMC2    O2 1737   4.362   1.624  11.243  0.3320 -0.2811 -0.5221
  111TMC2    O5 1738   4.229   1.700  11.418 -0.1175 -0.0749  0.1760
  111TMC2    H5 1739   4.173   1.665  11.491 -0.8418 -0.2182 -0.4590
  112MPD2     C 1740   3.549   1.016  11.319 -0.6259 -0.4956  0.1645
  112MPD2    C1 1741   3.649   1.036  11.220  0.1498 -0.7961  0.8133
  112MPD2    C2 1742   3.778   1.082  11.258  0.4579  0.7563 -0.4204
  112MPD2    C3 1743   3.799   1.129  11.386 -0.6964  0.9632  0.0563
  112MPD2    C4 1744   3.693   1.122  11.477  0.5439 -0.3104  0.4810
  112MPD2    C5 1745   3.572   1.062  11.443 -0.2087  0.0725 -0.4908
  112MPD2     H 1746   3.852   1.086  11.179 -0.2115  1.0662 -1.0335
  112MPD2    H1 1747   3.711   1.166  11.574 -3.0569 -0.2445  1.1194
  112MPD2    H2 1748   3.450   0.975  11.301 -1.1149  0.8261 -0.1084
  112MPD2    H3 1749   3.497   1.044  11.520  1.7830 -0.3277  1.3529
  112MPD2     N 1750   3.918   1.197  11.429 -0.5462 -0.0890  0.4013
  112MPD2    H5 1751   3.901   1.233  11.522  2.2431 -0.7794  1.1902
  112MPD2    N1 1752   3.629   1.012  11.082 -0.5504 -0.2374  0.3824
  112MPD2    H7 1753   3.713   1.011  11.024  0.2626  3.0019  1.4805
  113TMC2    C1 1754   1.661   3.552   0.826 -0.4502  0.2117 -0.2550
  113TMC2    C2 1755   1.637   3.545   0.690  0.6476  0.4693  0.0015
  113TMC2    C3 1756   1.609   3.420   0.644 -0.0863 -0.1602  0.4041
  113TMC2    C4 1757   1.648   3.448   0.912 -0.0952  0.4192  0.6178
  113TMC2    C5 1758   1.597   3.331   0.858  0.1530 -0.1689  0.3235
  113TMC2    C6 1759   1.586   3.310   0.725 -0.0811  0.3577 -0.7933
  113TMC2     C 1760   1.740   3.659   0.869 -0.2130  0.2547 -0.1543
  113TMC2     O 1761   1.711   3.769   0.822  0.8040 -0.2025 -0.1570
  113TMC2     H 1762   1.655   3.627   0.621 -0.4600  0.7892  0.0876
  113TMC2    H1 1763   1.660   3.464   1.019  1.5672  0.4405  0.4357
  113TMC2    H2 1764   1.563   3.214   0.679  0.4865 -1.0630  1.8851
  113TMC2    C7 1765   1.559   3.224   0.953 -0.5948 -0.5849 -0.4756
  113TMC2    C8 1766   1.597   3.424   0.500  0.2083  0.3392 -0.4414
  113TMC2    O1 1767   1.554   3.111   0.903 -0.1241 -0.1896  0.0305
  113TMC2    O2 1768   1.559   3.521   0.438 -0.1626 -0.1544 -0.2240
  113TMC2    O5 1769   1.615   3.296   0.456 -0.0674  0.0264 -0.0315
  113TMC2    H5 1770   1.640   3.224   0.518 -1.5313 -0.3313  0.1289
  114MPD2     C 1771   2.146   3.859   1.135  0.9681  0.6083 -0.1201
  114MPD2    C1 1772   2.036   3.927   1.073  0.4147 -0.0365  0.4386
  114MPD2    C2 1773   1.943   3.851   1.003 -0.0633  0.2596  0.0766
  114MPD2    C3 1774   1.950   3.712   1.000 -0.3034  0.3063  0.0614
  114MPD2    C4 1775   2.068   3.650   1.048 -0.7294 -0.1765 -0.0087
  114MPD2    C5 1776   2.167   3.725   1.105  0.0056  0.3896  0.8597
  114MPD2     H 1777   1.859   3.898   0.954  0.5785  0.5882 -0.7056
  114MPD2    H1 1778   2.085   3.544   1.036  0.2495  0.0947 -0.9453
  114MPD2    H2 1779   2.225   3.914   1.185  0.3795 -0.4177  1.9166
  114MPD2    H3 1780   2.255   3.670   1.136  0.1646  0.0679 -0.1526
  114MPD2     N 1781   1.853   3.621   0.947  0.1242  0.0254 -0.9286
  114MPD2    H5 1782   1.882   3.526   0.964 -0.3295 -0.1686 -1.2573
  114MPD2    N1 1783   2.013   4.068   1.088 -0.1595  0.4637 -0.9670
  114MPD2    H7 1784   1.931   4.098   1.036 -1.3877  0.3700  0.9350
  115TMC2    C1 1785   2.632   1.864   0.005 -0.0351  0.8877 -0.4553
  115TMC2    C2 1786   2.760   1.857  17.692 -0.6658 -0.1578 -0.3799
  115TMC2    C3 1787   2.824   1.966  17.636  0.5077  0.3519  0.0422
  115TMC2    C4 1788   2.569   1.989   0.013  0.0701  0.7398  0.0650
  115TMC2    C5 1789   2.633   2.098  17.697  0.8500  0.1312 -0.7422
  115TMC2    C6 1790   2.751   2.083  17.631  0.0197 -0.7574 -0.9980
  115TMC2     C 1791   2.554   1.737   0.015  0.8833 -0.0955  1.1704
  115TMC2     O 1792   2.602   1.635  17.709  0.8570 -0.4577  0.2981
  115TMC2     H 1793   2.811   1.762  17.685  0.8323  0.6500 -0.3837
  115TMC2    H1 1794   2.471   2.000   0.058  0.7586 -5.5724  3.0822
  115TMC2    H2 1795   2.791   2.170  17.581  0.3408 -1.0690 -1.2834
  115TMC2    C7 1796   2.588   2.228   0.003  0.3733  0.2718  0.4404
  115TMC2    C8 1797   2.961   1.945  17.580  0.4426  0.1879  0.2323
  115TMC2    O1 1798   2.519   2.236   0.104  0.1985  0.4172  0.0313
  115TMC2    O2 1799   3.012   1.835  17.553  0.3731  0.3097  0.1537
  115TMC2    O5 1800   3.030   2.047  17.632 -0.0825  0.2603  0.3886
  115TMC2    H5 1801   2.979   2.106  17.691 -0.0456  3.2986 -2.6207
  116MPD2     C 1802   2.101   1.510   0.153  0.5349 -0.0577  0.2825
  116MPD2    C1 1803   2.206   1.462   0.087  0.8616  0.2681 -0.7735
  116MPD2    C2 1804   2.324   1.529   0.059  1.0128  0.4117  0.8183
  116MPD2    C3 1805   2.330   1.652   0.117  0.0318  0.5222 -0.4845
  116MPD2    C4 1806   2.230   1.693   0.201  0.4145  1.0910 -0.1391
  116MPD2    C5 1807   2.115   1.623   0.222 -0.3399  0.2983  0.5587
  116MPD2     H 1808   2.389   1.492  17.719 -0.9263 -0.9057 -0.1497
  116MPD2    H1 1809   2.236   1.783   0.262  0.5191  0.4002  0.8746
  116MPD2    H2 1810   2.014   1.445   0.156 -1.2517  2.3423 -0.5513
  116MPD2    H3 1811   2.038   1.668   0.284 -1.0033  1.8546 -1.4083
  116MPD2     N 1812   2.434   1.750   0.088  0.3393 -0.4943  0.1292
  116MPD2    H5 1813   2.426   1.834   0.144 -0.3378  0.6229 -1.6561
  116MPD2    N1 1814   2.176   1.335   0.029  0.1510 -0.8822 -0.2958
  116MPD2    H7 1815   2.085   1.292   0.041 -0.3887  0.1616 -0.6581
  117TMC2    C1 1816   0.922   3.057  14.009 -0.1705  0.3758  0.7308
  117TMC2    C2 1817   0.986   2.951  14.065 -0.9670  0.1384 -0.0970
  117TMC2    C3 1818   1.082   2.980  14.157 -0.2511  0.6078  0.3503
  117TMC2    C4 1819   0.972   3.183  14.020  0.2053  0.2353  0.4774
  117TMC2    C5 1820   1.071   3.203  14.115  0.9525 -0.0039 -0.1183
  117TMC2    C6 1821   1.129   3.106  14.190  0.7524 -0.0438  0.2000
  117TMC2     C 1822   0.823   3.026  13.912 -0.1965  0.3168 -0.8053
  117TMC2     O 1823   0.831   2.916  13.859  0.4329  0.2421 -0.1765
  117TMC2     H 1824   0.928   2.860  14.070 -2.8953  1.2040 -2.5505
  117TMC2    H1 1825   0.945   3.261  13.950  0.5773 -0.1993 -0.1481
  117TMC2    H2 1826   1.222   3.122  14.243  1.8915 -1.7443 -1.2789
  117TMC2    C7 1827   1.137   3.335  14.129  0.3855 -0.5109  0.1162
  117TMC2    C8 1828   1.159   2.865  14.204 -0.8250 -0.2372 -0.9101
  117TMC2    O1 1829   1.233   3.340  14.204  0.2285  0.2533 -0.7167
  117TMC2    O2 1830   1.215   2.862  14.312 -0.8831  0.0235  0.6830
  117TMC2    O5 1831   1.175   2.778  14.100 -0.2978  0.2501 -0.0405
  117TMC2    H5 1832   1.234   2.704  14.124 -3.1747 -1.5220  1.6043
  118MPD2     C 1833   1.051   3.665  13.983 -0.4892  0.1925  0.0085
  118MPD2    C1 1834   1.135   3.571  14.035 -0.4343 -0.0008 -0.4500
  118MPD2    C2 1835   1.258   3.613  14.074  0.7040  0.8600  0.5968
  118MPD2    C3 1836   1.300   3.746  14.069  0.3234 -0.5419  0.0324
  118MPD2    C4 1837   1.212   3.836  14.009 -0.4562  0.3137 -0.3137
  118MPD2    C5 1838   1.092   3.794  13.973 -0.8991 -0.4569  0.4922
  118MPD2     H 1839   1.316   3.539  14.128 -0.2704 -0.6054 -0.3744
  118MPD2    H1 1840   1.234   3.940  13.989 -3.4774  1.0229 -0.0406
  118MPD2    H2 1841   0.950   3.642  13.952 -0.7836 -0.0901  1.1940
  118MPD2    H3 1842   1.021   3.868  13.939  1.1255  1.1280 -0.2550
  118MPD2     N 1843   1.437   3.796  14.094  0.0735  0.8164  0.0512
  118MPD2    H5 1844   1.453   3.893  14.068  1.7984  0.1189 -1.5024
  118MPD2    N1 1845   1.083   3.441  14.050  0.3508  0.8098 -0.0574
  118MPD2    H7 1846   0.985   3.428  14.027  0.2813  1.0876  0.0799
  119TMC2    C1 1847   4.571   4.714  13.582 -0.4740 -0.1232  0.4736
  119TMC2    C2 1848   4.655   0.001  13.483 -1.0773 -0.0690 -0.0158
  119TMC2    C3 1849   4.619   4.687  13.359 -0.0428 -0.1629  0.0095
  119TMC2    C4 1850   4.465   4.632  13.571  0.2308  0.0611 -0.0971
  119TMC2    C5 1851   4.433   4.583  13.450 -0.3283 -0.2939  0.1627
  119TMC2    C6 1852   4.511   4.607  13.342  0.7531  0.0520 -0.3841
  119TMC2     C 1853   4.572   0.074  13.686 -0.0816 -0.8528  0.2597
  119TMC2     O 1854   4.468   0.073  13.748  0.6621 -0.3227 -0.0680
  119TMC2     H 1855   0.009   0.062  13.482 -1.7182  0.8608 -0.4190
  119TMC2    H1 1856   4.412   4.605  13.662  1.9637 -0.6479  0.6957
  119TMC2    H2 1857   4.490   4.568  13.243  0.4029 -1.3265  0.2293
  119TMC2    C7 1858   4.297   4.530  13.424 -0.1225 -0.2397  0.7646
  119TMC2    C8 1859   0.004   4.641  13.293  0.8712  0.1376 -0.6700
  119TMC2    O1 1860   4.263   4.547  13.307 -0.8231  0.2550  0.6048
  119TMC2    O2 1861   0.090   4.580  13.354  0.4419  0.3592 -0.7351
  119TMC2    O5 1862   4.708   4.645  13.162 -0.4503 -0.5801  0.3177
  119TMC2    H5 1863   4.640   4.714  13.148  0.9853  0.3740 -2.0097
  120MPD2     C 1864   4.694   0.503  13.933  0.1222  1.1093  0.0282
  120MPD2    C1 1865   4.576   0.433  13.929 -0.4419  0.9285  0.4072
  120MPD2    C2 1866   4.576   0.317  13.851 -0.4352 -0.0243 -0.5357
  120MPD2    C3 1867   4.682   0.281  13.770 -1.0353  0.4260 -0.7069
  120MPD2    C4 1868   0.061   0.358  13.771  0.2430  0.6487  0.3773
  120MPD2    C5 1869   0.068   0.462  13.861  0.9503 -0.5582  0.3836
  120MPD2     H 1870   4.480   0.274  13.823 -0.8453  0.7419 -0.3161
  120MPD2    H1 1871   0.142   0.338  13.701 -0.4228 -2.5737  0.4969
  120MPD2    H2 1872   4.698   0.596  13.989  1.7384  1.1087 -0.0786
  120MPD2    H3 1873   0.158   0.522  13.864  0.2137  0.5013  1.5538
  120MPD2     N 1874   4.678   0.164  13.693 -0.0026  0.0534 -0.0357
  120MPD2    H5 1875   0.025   0.145  13.636 -1.0687 -1.3134 -1.1193
  120MPD2    N1 1876   4.460   0.486  13.985 -0.1166 -0.2994  0.4202
  120MPD2    H7 1877   4.460   0.587  13.992 -1.4270 -0.3694  1.3894
  121TMC2    C1 1878   0.902   1.706  14.060  0.3834  0.7752  0.1910
  121TMC2    C2 1879   1.026   1.653  14.087 -0.0403  0.0529  0.3307
  121TMC2    C3 1880   1.027   1.519  14.124  0.2334  0.1778  0.5139
  121TMC2    C4 1881   0.783   1.628  14.056  0.1118 -0.2853 -0.8935
  121TMC2    C5 1882   0.799   1.496  14.085 -0.0386 -0.8234 -0.3292
  121TMC2    C6 1883   0.918   1.437  14.118  0.1489  0.0068 -0.1571
  121TMC2     C 1884   0.893   1.844  14.002 -0.5609  0.0083  0.7172
  121TMC2     O 1885   0.786   1.904  13.998 -0.2234 -0.2404 -0.3856
  121TMC2     H 1886   1.108   1.719  14.116 -0.7020  1.4910 -1.0929
  121TMC2    H1 1887   0.691   1.676  14.025 -0.6702  0.0554  2.0025
  121TMC2    H2 1888   0.926   1.333  14.149 -0.0455  0.5875  1.8098
  121TMC2    C7 1889   0.685   1.407  14.107  0.4801  0.6755  0.5278
  121TMC2    C8 1890   1.144   1.473  14.201 -0.2927  0.3533  0.1972
  121TMC2    O1 1891   0.706   1.291  14.155 -0.2092  0.0070 -0.1939
  121TMC2    O2 1892   1.141   1.363  14.253  0.0873  0.3681  0.2206
  121TMC2    O5 1893   1.250   1.529  14.142 -0.3976  0.2944 -0.1603
  121TMC2    H5 1894   1.246   1.594  14.068  1.8102 -0.2819 -0.8084
  122MPD2     C 1895   0.954   2.087  13.851 -0.4104 -0.2143  0.1275
  122MPD2    C1 1896   1.015   1.965  13.823 -0.4324 -0.0789  0.8124
  122MPD2    C2 1897   1.072   1.943  13.699  0.1513  0.1762  0.7099
  122MPD2    C3 1898   1.083   2.040  13.596 -0.5991 -0.1184  0.3264
  122MPD2    C4 1899   1.020   2.160  13.625 -0.1880  0.1498 -0.3317
  122MPD2    C5 1900   0.956   2.181  13.748 -0.9596 -0.0744  0.0134
  122MPD2     H 1901   1.115   1.844  13.683 -0.8587  0.3772 -3.3890
  122MPD2    H1 1902   0.999   2.227  13.542  0.3603  1.1269  0.3216
  122MPD2    H2 1903   0.903   2.111  13.944 -2.1931  0.5381 -1.0432
  122MPD2    H3 1904   0.897   2.271  13.760  1.2898  1.1954  1.7477
  122MPD2     N 1905   1.133   2.021  13.474 -0.0331 -0.1261 -0.2468
  122MPD2    H5 1906   1.102   2.092  13.407  0.3936 -0.3712 -0.7034
  122MPD2    N1 1907   1.001   1.855  13.913 -0.2163 -0.4692  0.0802
  122MPD2    H7 1908   1.069   1.780  13.912  1.3368  0.9112  1.2683
  123TMC2    C1 1909   4.124   4.371  10.190  0.5802  0.1748  0.5666
  123TMC2    C2 1910   4.058   4.459  10.274 -0.1633  0.0513  0.1018
  123TMC2    C3 1911   3.982   4.546  10.198  0.3379 -0.2320 -0.1175
  123TMC2    C4 1912   4.120   4.379  10.052 -0.0867  0.9314 -0.8153
  123TMC2    C5 1913   4.054   4.477   9.994  0.4018  0.7401  0.5866
  123TMC2    C6 1914   3.984   4.567  10.068 -0.5782  0.1141  0.4629
  123TMC2     C 1915   4.124   4.241  10.235 -0.6213 -0.3398 -0.0016
  123TMC2     O 1916   4.165   4.207  10.345 -0.0580  0.1808  0.1604
  123TMC2     H 1917   4.034   4.424  10.373 -3.6153  3.1162  0.3684
  123TMC2    H1 1918   4.181   4.308   9.998 -1.1956 -1.0718  0.5840
  123TMC2    H2 1919   3.923   4.642  10.019 -0.9159 -0.4604  0.0044
  123TMC2    C7 1920   3.999   4.419   9.872  0.4149  0.4505  0.9042
  123TMC2    C8 1921   3.922   4.646  10.276 -0.4852  0.6517  0.1920
  123TMC2    O1 1922   3.983   4.300   9.871  0.0969  0.0724 -0.6755
  123TMC2    O2 1923   3.859   0.010  10.236  0.0679  0.1343 -0.1742
  123TMC2    O5 1924   3.998   4.645  10.386 -0.6600  0.2125  0.4169
  123TMC2    H5 1925   4.082   4.595  10.385 -0.2290  0.9277  0.8042
  124MPD2     C 1926   3.977   3.754  10.178  0.0665 -0.6686 -0.8705
  124MPD2    C1 1927   3.909   3.833  10.086 -0.3633 -0.5097 -1.7666
  124MPD2    C2 1928   3.942   3.963  10.070  0.2771  0.4208 -1.0987
  124MPD2    C3 1929   4.032   4.024  10.156 -0.0170 -0.1691 -0.1564
  124MPD2    C4 1930   4.094   3.947  10.253 -0.0293  0.4929  0.2317
  124MPD2    C5 1931   4.073   3.806  10.264  0.9686  0.1168  0.3742
  124MPD2     H 1932   3.889   4.035  10.009 -0.7867 -0.0347 -0.7016
  124MPD2    H1 1933   4.162   3.985  10.329  1.8119 -0.8839 -0.7349
  124MPD2    H2 1934   3.943   3.651  10.187  0.6452 -0.8181 -0.4547
  124MPD2    H3 1935   4.123   3.745  10.338 -0.1881 -2.0067 -0.6140
  124MPD2     N 1936   4.061   4.161  10.140 -0.2679  0.5841 -1.0606
  124MPD2    H5 1937   4.012   4.218  10.072 -1.5858 -0.6056 -1.1136
  124MPD2    N1 1938   3.793   3.778  10.022 -0.3878 -0.0309  0.2202
  124MPD2    H7 1939   3.773   3.680  10.040  0.7556 -0.4493 -0.7190
  125TMC2    C1 1940   4.568   0.891  10.023  0.7177  0.3445  0.4133
  125TMC2    C2 1941   4.631   0.766  10.037 -0.5811 -0.1353 -0.1790
  125TMC2    C3 1942   0.006   0.743   9.961 -0.2098 -0.5584 -0.7718
  125TMC2    C4 1943   4.604   0.980   9.924 -1.0086 -0.4636 -0.2612
  125TMC2    C5 1944   4.717   0.949   9.853 -0.4950 -0.0417  0.1462
  125TMC2    C6 1945   0.054   0.835   9.864  0.2541 -0.3967  0.3582
  125TMC2     C 1946   4.427   0.912  10.061 -0.5552  0.2339 -0.0320
  125TMC2     O 1947   4.353   0.987  10.001  0.3821 -0.7888 -0.2604
  125TMC2     H 1948   4.586   0.698  10.109  0.2343 -1.0941 -0.5617
  125TMC2    H1 1949   4.548   1.070   9.900  2.9016  2.0618  0.0655
  125TMC2    H2 1950   0.144   0.813   9.809 -1.1946 -1.2597 -1.6509
  125TMC2    C7 1951   0.029   1.037   9.751  0.4117  0.5482 -0.5773
  125TMC2    C8 1952   0.090   0.631   9.980 -0.3729  0.5759  0.0623
  125TMC2    O1 1953   4.679   1.110   9.702  0.1957  1.3091  0.0565
  125TMC2    O2 1954   0.208   0.630   9.943  0.4771 -0.1320 -0.2153
  125TMC2    O5 1955   0.003   0.530   9.963  0.4038  0.3867  0.3025
  125TMC2    H5 1956   4.641   0.537   9.971  0.4170  2.0401 -1.0006
  126MPD1     C 1957   4.013   0.683  10.269  0.0113 -0.3528 -0.1227
  126MPD1    C1 1958   4.121   0.656  10.353  0.4311  0.5367  0.1871
  126MPD1    C2 1959   4.242   0.704  10.312  0.2916  0.5220 -0.2069
  126MPD1    C3 1960   4.256   0.791  10.198  0.0396  0.5087 -0.0599
  126MPD1    C4 1961   4.144   0.818  10.120  0.2128 -0.5717  0.3208
  126MPD1    C5 1962   4.027   0.765  10.160 -0.3621  0.2272 -0.2502
  126MPD1     H 1963   4.332   0.668  10.359 -1.0871 -0.9875  1.2823
  126MPD1    H1 1964   4.144   0.887  10.037  1.1141 -1.6281 -0.5634
  126MPD1    H2 1965   3.915   0.666  10.313 -0.3819  0.1679 -0.7934
  126MPD1    H3 1966   3.942   0.794  10.099  0.2776  2.8423  0.1265
  126MPD1     N 1967   4.388   0.822  10.161 -0.1065 -0.0908 -0.2747
  126MPD1    H5 1968   4.456   0.783  10.225 -2.2957 -1.1999  1.4066
  126MPD1    N1 1969   4.101   0.565  10.457  0.1752 -0.0367  0.0955
  126MPD1    H6 1970   4.008   0.567  10.499 -1.2879  0.6346 -3.2063
  126MPD1    H7 1971   4.169   0.573  10.533  0.5186 -2.8152  0.0907
  127TMC2    C1 1972   0.546   0.190   9.207 -0.3899 -0.1454  0.5971
  127TMC2    C2 1973   0.471   0.285   9.138  0.1129 -0.3881 -0.3973
  127TMC2    C3 1974   0.339   0.295   9.172 -0.3510  0.2901  0.0518
  127TMC2    C4 1975   0.480   0.100   9.292 -0.3320 -1.1083 -0.6471
  127TMC2    C5 1976   0.351   0.123   9.316  0.1215 -0.5944 -0.4273
  127TMC2    C6 1977   0.276   0.222   9.262 -0.2513 -0.3901 -0.7677
  127TMC2     C 1978   0.689   0.192   9.185 -0.3189 -0.2383  0.2416
  127TMC2     O 1979   0.714   0.245   9.079  0.1522 -0.1997  0.6881
  127TMC2     H 1980   0.516   0.345   9.060  0.5365  2.2317  1.8785
  127TMC2    H1 1981   0.541   0.025   9.341 -0.0856 -1.1120 -0.9557
  127TMC2    H2 1982   0.168   0.216   9.265 -0.1728 -0.7644  1.1231
  127TMC2    C7 1983   0.285   0.056   9.421 -0.7355 -0.0237  0.3421
  127TMC2    C8 1984   0.262   0.396   9.107  0.1181  0.0473  0.1211
  127TMC2    O1 1985   0.168   0.084   9.430  0.2055  0.6579 -0.3856
  127TMC2    O2 1986   0.290   0.418   8.988 -0.2206 -0.4489  0.7233
  127TMC2    O5 1987   0.205   0.474   9.204 -0.0533  0.3424 -0.7132
  127TMC2    H5 1988   0.221   0.438   9.293 -1.2381  1.8649  0.1198
  128MPD2     C 1989   0.953   0.096   9.420 -0.4411  0.9916 -0.0703
  128MPD2    C1 1990   0.891   0.132   9.301  0.5906 -0.3299 -0.2488
  128MPD2    C2 1991   0.970   0.143   9.185 -0.1435 -0.5640  0.8908
  128MPD2    C3 1992   1.112   0.134   9.197  0.2230 -0.2391  0.0822
  128MPD2    C4 1993   1.171   0.099   9.321  0.3055  0.3377  0.1004
  128MPD2    C5 1994   1.087   0.078   9.431  0.8774 -0.7564  0.1572
  128MPD2     H 1995   0.921   0.161   9.090  1.2227 -1.7059 -0.0430
  128MPD2    H1 1996   1.276   0.100   9.348  0.5677  1.6475 -0.9489
  128MPD2    H2 1997   0.892   0.087   9.509  1.3481  0.0969  1.0451
  128MPD2    H3 1998   1.134   0.065   9.527 -1.0345  0.1867  1.2191
  128MPD2     N 1999   1.192   0.168   9.083  0.2630  0.5341 -0.6599
  128MPD2    H5 2000   1.144   0.187   8.995 -2.3826  0.0913  0.6876
  128MPD2    N1 2001   0.757   0.148   9.294  0.3245 -0.1145  0.5391
  128MPD2    H7 2002   0.704   0.126   9.377  0.1925 -0.7210  0.2904
  129TMC2    C1 2003   3.990   1.722   1.583  0.1192  0.7485 -0.1689
  129TMC2    C2 2004   4.100   1.662   1.536  0.0269 -0.6871  0.3404
  129TMC2    C3 2005   4.092   1.535   1.479 -0.9031 -0.1497 -0.2675
  129TMC2    C4 2006   3.868   1.664   1.579 -0.4532  0.6798  0.0173
  129TMC2    C5 2007   3.860   1.532   1.536  0.0020 -0.2521 -0.1042
  129TMC2    C6 2008   3.967   1.466   1.476  0.0788 -0.2688 -0.7128
  129TMC2     C 2009   3.999   1.868   1.609  0.1380 -0.0851  0.1642
  129TMC2     O 2010   3.927   1.916   1.700  0.5868 -0.1889  0.0537
  129TMC2     H 2011   4.197   1.710   1.533 -0.0264 -0.5916  0.0778
  129TMC2    H1 2012   3.777   1.720   1.600 -0.1353  2.1393 -2.5429
  129TMC2    H2 2013   3.958   1.372   1.421  0.0648  0.0413 -1.2465
  129TMC2    C7 2014   3.735   1.459   1.523  0.3517  0.1679 -0.2440
  129TMC2    C8 2015   4.207   1.494   1.403  0.8550  0.5023  0.6044
  129TMC2    O1 2016   3.730   1.373   1.435 -0.1503  0.2628 -0.2043
  129TMC2    O2 2017   4.316   1.555   1.412  0.7219 -0.5878 -0.1838
  129TMC2    O5 2018   4.196   1.376   1.340 -0.4633  0.0680  0.5680
  129TMC2    H5 2019   4.109   1.334   1.322 -0.1960 -0.7975  1.3540
  130MPD2     C 2020   4.090   2.148   1.614  0.2305 -0.1277 -0.9439
  130MPD2    C1 2021   4.107   2.063   1.502 -0.3218  0.2117 -0.2464
  130MPD2    C2 2022   4.177   2.111   1.387  0.1403 -0.6684  0.0876
  130MPD2    C3 2023   4.251   2.233   1.398  0.0050  0.6602  0.5909
  130MPD2    C4 2024   4.240   2.305   1.511  0.6308 -0.0306 -0.3796
  130MPD2    C5 2025   4.156   2.274   1.610  0.2338 -0.1413  0.7102
  130MPD2     H 2026   4.204   2.047   1.304 -2.0297 -0.6318 -0.6376
  130MPD2    H1 2027   4.287   2.402   1.523  0.3448  0.2206 -1.2414
  130MPD2    H2 2028   4.029   2.119   1.699  0.3674  0.2467 -0.7166
  130MPD2    H3 2029   4.162   2.344   1.692  0.9156  0.9903 -0.2996
  130MPD2     N 2030   4.324   2.278   1.289  0.0966 -0.0241 -0.5657
  130MPD2    H5 2031   4.334   2.221   1.206  0.1208  0.1444 -0.6778
  130MPD2    N1 2032   4.067   1.927   1.504  0.2558 -0.8503 -0.0335
  130MPD2    H7 2033   4.088   1.873   1.421  0.0079  1.5490 -1.6553
  131TMC2    C1 2034   3.420   4.584   9.492 -0.6082  0.2278 -0.3173
  131TMC2    C2 2035   3.416   4.638   9.366  0.0325  0.5063  0.1802
  131TMC2    C3 2036   3.452   0.035   9.358 -0.4527  0.6457 -0.3787
  131TMC2    C4 2037   3.492   4.642   9.589  0.8651  0.1493  0.2762
  131TMC2    C5 2038   3.529   0.037   9.577 -0.1016 -0.2028  0.1300
  131TMC2    C6 2039   3.508   0.111   9.462 -0.0718 -0.4717  0.5061
  131TMC2     C 2040   3.418   4.435   9.497 -0.6390  0.2574 -0.3716
  131TMC2     O 2041   3.492   4.383   9.574  0.3414 -0.2126  0.3765
  131TMC2     H 2042   3.392   4.576   9.280  2.2398 -0.1978  0.0526
  131TMC2    H1 2043   3.522   4.585   9.675 -0.0881  0.5131  0.8453
  131TMC2    H2 2044   3.535   0.215   9.451 -1.9629 -0.0387  0.0329
  131TMC2    C7 2045   3.550   0.105   9.703 -0.1405  0.2848 -0.4814
  131TMC2    C8 2046   3.419   0.111   9.242 -0.1558 -0.4432 -0.6954
  131TMC2    O1 2047   3.519   0.049   9.805 -0.1031 -0.6311 -0.0773
  131TMC2    O2 2048   3.457   0.220   9.219 -0.0212  0.3468 -0.4222
  131TMC2    O5 2049   3.306   0.065   9.189  0.6496 -0.7726 -0.3134
  131TMC2    H5 2050   3.276   4.722   9.239 -0.9889 -1.6787 -2.6824
  132MPD2     C 2051   3.222   4.193   9.298  0.2904  0.0629 -0.0103
  132MPD2    C1 2052   3.304   4.246   9.390  0.1025 -0.2827 -0.2598
  132MPD2    C2 2053   3.350   4.153   9.478 -0.8099  0.8788 -0.2449
  132MPD2    C3 2054   3.328   4.015   9.481  0.0346  0.4075  0.5120
  132MPD2    C4 2055   3.232   3.973   9.393 -0.3494 -0.3664 -0.1651
  132MPD2    C5 2056   3.186   4.061   9.298  0.1639 -1.4400 -0.1244
  132MPD2     H 2057   3.412   4.184   9.562 -0.0178 -1.5049  0.0449
  132MPD2    H1 2058   3.200   3.870   9.380  0.2718 -0.4358 -1.1733
  132MPD2    H2 2059   3.166   4.263   9.236  0.4675 -0.5333 -0.8450
  132MPD2    H3 2060   3.114   4.036   9.220 -0.2714  0.6915 -0.4164
  132MPD2     N 2061   3.379   3.936   9.581 -0.5716  0.2094 -0.4184
  132MPD2    H5 2062   3.443   3.974   9.649  0.1263 -0.3243 -0.7814
  132MPD2    N1 2063   3.338   4.384   9.395 -0.0394 -0.1949  0.6439
  132MPD2    H7 2064   3.271   4.445   9.348  0.5385  1.6362  2.2075
  133TMC2    C1 2065   2.101   4.224   9.535 -0.1170 -0.2972 -0.5400
  133TMC2    C2 2066   2.059   4.199   9.663  0.3181  0.9503 -0.1208
  133TMC2    C3 2067   1.932   4.169   9.691 -0.1469  0.1089  0.0051
  133TMC2    C4 2068   2.002   4.229   9.435 -0.0903  0.6817 -0.2035
  133TMC2    C5 2069   1.879   4.196   9.471  0.2145  0.0866  0.0396
  133TMC2    C6 2070   1.840   4.156   9.593  1.0530 -0.4439  0.4332
  133TMC2     C 2071   2.226   4.287   9.508  0.5399  0.0617  0.4375
  133TMC2     O 2072   2.259   4.365   9.594 -0.1206  0.2165 -0.6703
  133TMC2     H 2073   2.133   4.211   9.741 -0.5485 -1.3465  1.0569
  133TMC2    H1 2074   2.022   4.281   9.342 -0.1044 -0.7737 -1.0133
  133TMC2    H2 2075   1.739   4.145   9.631  0.8020  1.0355  0.2049
  133TMC2    C7 2076   1.776   4.206   9.367 -0.0711 -0.1950 -0.1410
  133TMC2    C8 2077   1.897   4.149   9.831  0.2498  0.4568 -0.8563
  133TMC2    O1 2078   1.807   4.270   9.266  0.0051 -0.1663 -0.2758
  133TMC2    O2 2079   1.967   4.179   9.930  0.0431 -0.2455 -0.1799
  133TMC2    O5 2080   1.820   4.035   9.828 -0.1569 -0.3720  0.0756
  133TMC2    H5 2081   1.801   3.998   9.739  2.4192 -0.6839 -0.3508
  134MPD2     C 2082   2.363   4.342   9.175 -0.3760 -0.4127  0.2757
  134MPD2    C1 2083   2.342   4.365   9.308  1.0001 -0.0393  0.0644
  134MPD2    C2 2084   2.408   4.476   9.365  0.5987  0.6399 -0.2060
  134MPD2    C3 2085   2.469   4.569   9.282  0.5060 -0.0388  0.6029
  134MPD2    C4 2086   2.490   4.537   9.149 -0.0646  0.4174  0.3219
  134MPD2    C5 2087   2.430   4.426   9.098 -0.0417  0.2573 -0.4635
  134MPD2     H 2088   2.405   4.487   9.473 -1.0619  0.5993 -0.2476
  134MPD2    H1 2089   2.545   4.605   9.085  2.5829 -0.7663  1.3605
  134MPD2    H2 2090   2.310   4.257   9.135 -1.1801  0.5091 -0.6186
  134MPD2    H3 2091   2.432   4.413   8.991  0.2777  2.0987 -0.6654
  134MPD2     N 2092   2.511   4.693   9.321  0.0568  0.7087 -0.5630
  134MPD2    H5 2093   2.552   0.022   9.254 -1.3394  1.6793 -0.4893
  134MPD2    N1 2094   2.256   4.275   9.375 -0.2229 -0.2715 -0.4316
  134MPD2    H7 2095   2.217   4.200   9.319 -0.4169 -0.7174  0.2897
  135TMC2    C1 2096   0.947   1.685   9.613  0.5531 -0.3113  0.3840
  135TMC2    C2 2097   0.955   1.556   9.672  0.2743  0.0930 -0.2522
  135TMC2    C3 2098   0.911   1.545   9.800 -0.8578 -0.3239  1.2068
  135TMC2    C4 2099   0.877   1.779   9.671 -0.8749 -0.7103 -0.0418
  135TMC2    C5 2100   0.821   1.755   9.796 -0.3198  0.0726  0.2679
  135TMC2    C6 2101   0.829   1.635   9.862  0.4223  0.2717 -0.5466
  135TMC2     C 2102   0.964   1.696   9.471 -0.2252  0.8269 -0.0703
  135TMC2     O 2103   0.917   1.794   9.416  0.1801 -0.4249 -0.3765
  135TMC2     H 2104   1.008   1.470   9.634 -2.5789 -2.2469  1.0750
  135TMC2    H1 2105   0.860   1.871   9.616  2.2560 -0.6421 -0.9426
  135TMC2    H2 2106   0.780   1.618   9.957  1.1485  1.2049 -0.0057
  135TMC2    C7 2107   0.718   1.851   9.829  0.2442  0.8387 -0.0783
  135TMC2    C8 2108   0.940   1.413   9.851  0.5604 -0.2123 -1.1043
  135TMC2    O1 2109   0.731   1.962   9.777 -0.3513 -0.9532  0.1090
  135TMC2    O2 2110   0.960   1.310   9.790  0.3085  0.0777  0.6305
  135TMC2    O5 2111   0.904   1.406   9.982  0.2565  0.0295 -0.0931
  135TMC2    H5 2112   0.927   1.489  10.029  1.0860  0.9922 -2.1969
  136MPD2     C 2113   0.942   1.584   9.207  0.4379  0.0554  0.1437
  136MPD2    C1 2114   1.046   1.553   9.288 -0.0826 -0.2615  0.0837
  136MPD2    C2 2115   1.132   1.451   9.253 -0.1217  0.8467  0.2915
  136MPD2    C3 2116   1.118   1.382   9.140 -0.3679 -0.4411  0.1559
  136MPD2    C4 2117   1.027   1.421   9.049  0.7406  0.3722  0.0384
  136MPD2    C5 2118   0.942   1.520   9.090  0.6431 -0.1546  0.2640
  136MPD2     H 2119   1.220   1.438   9.316  0.9040  2.2620 -0.8335
  136MPD2    H1 2120   1.016   1.386   8.947  0.4850 -0.5299  0.3806
  136MPD2    H2 2121   0.866   1.658   9.226  0.0372 -0.0380 -1.0790
  136MPD2    H3 2122   0.860   1.543   9.023 -0.0239  0.9999  1.4771
  136MPD2     N 2123   1.182   1.264   9.109  0.3478 -0.7054 -0.3065
  136MPD2    H5 2124   1.166   1.220   9.019  1.3650 -0.0545 -0.7981
  136MPD2    N1 2125   1.047   1.601   9.419 -0.4062  0.1607  0.3380
  136MPD2    H7 2126   1.106   1.546   9.481  0.2850 -0.7473 -1.1347
  137TMC2    C1 2127   0.335   0.224   9.889  0.1448 -0.0388 -0.8609
  137TMC2    C2 2128   0.449   0.166   9.848 -0.3519  0.1748  0.4274
  137TMC2    C3 2129   0.495   0.199   9.730  0.0618  0.1542 -0.2248
  137TMC2    C4 2130   0.260   0.306   9.811  0.1238  0.1577  0.1585
  137TMC2    C5 2131   0.312   0.346   9.691 -0.2400  0.5993  0.7505
  137TMC2    C6 2132   0.432   0.283   9.652 -0.6261  1.0187  0.2930
  137TMC2     C 2133   0.339   0.257  10.029  0.9280 -1.1052 -0.0713
  137TMC2     O 2134   0.456   0.271  10.076 -0.0943 -0.2046  0.2590
  137TMC2     H 2135   0.510   0.102   9.910  1.5228  0.8723 -0.7015
  137TMC2    H1 2136   0.165   0.345   9.847  0.1171  0.0870  0.2180
  137TMC2    H2 2137   0.483   0.304   9.559 -1.7213  0.4751 -0.4406
  137TMC2    C7 2138   0.245   0.427   9.594  0.2189 -0.1148 -0.2529
  137TMC2    C8 2139   0.595   0.116   9.665 -0.6479 -0.4758  0.6282
  137TMC2    O1 2140   0.301   0.440   9.487  0.1835  0.2129 -0.5243
  137TMC2    O2 2141   0.642   0.149   9.554 -0.7941  0.5343 -0.3214
  137TMC2    O5 2142   0.616   4.726   9.716 -0.5442 -0.2079  0.1775
  137TMC2    H5 2143   0.573   4.709   9.803 -2.0050  0.0203 -0.5015
  138MPD2     C 2144   0.085   0.236  10.292 -0.3779 -0.0136 -0.5033
  138MPD2    C1 2145   0.205   0.275  10.232  0.1685  0.1787 -0.0200
  138MPD2    C2 2146   0.304   0.334  10.307  0.2921  0.2286  0.1212
  138MPD2    C3 2147   0.276   0.354  10.443  0.4286  0.1852  0.0435
  138MPD2    C4 2148   0.160   0.308  10.508 -0.0583  0.8037 -0.2179
  138MPD2    C5 2149   0.067   0.250  10.426 -0.4064  0.3907 -0.2422
  138MPD2     H 2150   0.396   0.366  10.259 -0.9154  1.4031 -1.4118
  138MPD2    H1 2151   0.133   0.311  10.613 -1.0604  0.1459 -0.4514
  138MPD2    H2 2152   0.005   0.183  10.241  0.1862 -1.3378 -0.0132
  138MPD2    H3 2153   4.702   0.235  10.465 -0.8197  0.2079 -1.3806
  138MPD2     N 2154   0.368   0.435  10.512  0.1545  0.1137  0.3745
  138MPD2    H5 2155   0.436   0.476  10.448  1.6671 -2.0083  0.6007
  138MPD2    N1 2156   0.222   0.256  10.093  0.1905 -1.2809 -0.4407
  138MPD2    H7 2157   0.141   0.223  10.041 -0.2726  1.1262 -1.2519
  139TMC2    C1 2158   1.198   4.176  13.502  0.8277 -0.2962 -0.0794
  139TMC2    C2 2159   1.207   4.184  13.365  0.3832 -0.2848  0.2202
  139TMC2    C3 2160   1.135   4.274  13.290 -0.4631 -1.0654  0.8301
  139TMC2    C4 2161   1.113   4.259  13.569  0.4782 -0.5142 -0.3007
  139TMC2    C5 2162   1.042   4.353  13.495 -0.2084  0.1546  0.2985
  139TMC2    C6 2163   1.049   4.358  13.356 -1.4978 -0.1228  0.3862
  139TMC2     C 2164   1.257   4.064  13.580  0.1756  0.0566  0.3226
  139TMC2     O 2165   1.209   4.034  13.687 -0.0498 -0.3639  0.2055
  139TMC2     H 2166   1.272   4.113  13.315 -3.0342 -1.0246 -3.1026
  139TMC2    H1 2167   1.124   4.274  13.676 -1.4467 -1.6669  0.0749
  139TMC2    H2 2168   0.997   4.435  13.301 -0.6785  0.3806  0.3339
  139TMC2    C7 2169   0.959   4.450  13.559  0.0701  0.0996 -0.1306
  139TMC2    C8 2170   1.097   4.235  13.161  0.1469 -0.0362  0.0088
  139TMC2    O1 2171   0.892   4.533  13.497  0.3744 -0.1621  0.2378
  139TMC2    O2 2172   1.014   4.149  13.139  0.1126 -0.2897 -0.2140
  139TMC2    O5 2173   1.187   4.273  13.072  0.4307  0.5718  0.0871
  139TMC2    H5 2174   1.257   4.330  13.109  0.5436 -0.0523  0.8202
  140MPD2     C 2175   1.454   3.868  13.698  0.6347  0.1247  0.2148
  140MPD2    C1 2176   1.456   3.918  13.568 -0.5704 -0.4075  0.1541
  140MPD2    C2 2177   1.559   3.868  13.488  0.5617 -0.0912  0.2504
  140MPD2    C3 2178   1.634   3.758  13.522  0.7747  0.4163  0.4835
  140MPD2    C4 2179   1.603   3.697  13.642 -0.0436 -0.3993 -0.7474
  140MPD2    C5 2180   1.513   3.749  13.725 -0.3206  0.1352 -0.1581
  140MPD2     H 2181   1.572   3.912  13.390 -0.0355 -0.2733  0.0889
  140MPD2    H1 2182   1.639   3.601  13.676 -0.0629  0.6641  2.2466
  140MPD2    H2 2183   1.385   3.900  13.776  0.6763 -2.8697  1.4799
  140MPD2    H3 2184   1.492   3.700  13.819 -3.0864  0.3878 -0.6620
  140MPD2     N 2185   1.733   3.702  13.432  0.0155  0.0365  0.5432
  140MPD2    H5 2186   1.757   3.762  13.353 -1.5085 -3.2525 -2.4076
  140MPD2    N1 2187   1.372   4.018  13.517 -0.2841 -0.5251  0.2838
  140MPD2    H7 2188   1.405   4.062  13.432  1.8868 -2.2111  0.2697
  141TMC2    C1 2189   1.719   4.618  14.239 -0.2627 -0.5708  0.1157
  141TMC2    C2 2190   1.614   4.521  14.244  0.2041 -0.0866  0.5408
  141TMC2    C3 2191   1.518   4.542  14.337  0.4357 -0.4063 -0.7340
  141TMC2    C4 2192   1.728   4.715  14.337  0.0252  0.0872  0.4339
  141TMC2    C5 2193   1.622   0.002  14.427 -0.1731 -0.6508 -0.7877
  141TMC2    C6 2194   1.525   4.639  14.434  0.2331 -0.5611  0.1234
  141TMC2     C 2195   1.794   4.644  14.119 -0.5362  0.1244 -0.2020
  141TMC2     O 2196   1.871   0.004  14.111  0.4027 -0.5277  0.2377
  141TMC2     H 2197   1.597   4.448  14.166  1.8919  0.3327 -0.2286
  141TMC2    H1 2198   1.814   0.046  14.329  1.3640 -1.6465  0.5178
  141TMC2    H2 2199   1.445   4.654  14.505 -0.4204  1.6068 -1.0693
  141TMC2    C7 2200   1.597   0.131  14.486 -0.0361  0.0676  0.2598
  141TMC2    C8 2201   1.413   4.440  14.366 -0.1293  0.3403  0.7418
  141TMC2    O1 2202   1.500   0.136  14.560  0.1438 -0.0373  1.0854
  141TMC2    O2 2203   1.369   4.412  14.479 -0.6052 -0.2202  0.0963
  141TMC2    O5 2204   1.354   4.405  14.252  0.2653  0.1060 -0.2222
  141TMC2    H5 2205   1.385   4.447  14.169  0.3339 -2.5452 -1.5369
  142TMC2    C1 2206   3.646   3.868   9.290 -0.4299 -0.4245  0.5460
  142TMC2    C2 2207   3.548   3.909   9.202 -0.8242  0.8548  0.7767
  142TMC2    C3 2208   3.545   4.044   9.172 -0.3391  0.1993  0.6099
  142TMC2    C4 2209   3.730   3.957   9.359 -0.4008 -0.4897  0.0255
  142TMC2    C5 2210   3.710   4.088   9.336  0.4063  0.0412 -0.6955
  142TMC2    C6 2211   3.618   4.135   9.241 -0.0156  0.0788 -0.1857
  142TMC2     C 2212   3.625   3.730   9.342  0.0778  0.3868 -0.6834
  142TMC2     O 2213   3.512   3.681   9.336 -0.6491 -0.5153  0.6175
  142TMC2     H 2214   3.473   3.842   9.162  0.3126  0.5206 -0.7656
  142TMC2    H1 2215   3.806   3.918   9.426 -0.1513  0.6580  0.4206
  142TMC2    H2 2216   3.590   4.239   9.238  1.6350  0.5343  0.1565
  142TMC2    C7 2217   3.763   4.176   9.439  0.0992 -0.2939 -0.4765
  142TMC2    C8 2218   3.448   4.093   9.078 -0.1703  0.3989 -0.3247
  142TMC2    O1 2219   3.805   4.126   9.540 -0.4721  0.5320  0.0072
  142TMC2    O2 2220   3.369   4.018   9.030  0.5208 -0.2562  0.4074
  142TMC2    O5 2221   3.504   4.205   9.014  0.0511 -0.3108 -0.0853
  142TMC2    H5 2222   3.582   4.252   9.051  0.7435 -0.9600 -0.7193
  143MPD2     C 2223   3.721   3.453   9.765  0.5455  0.5108  0.3387
  143MPD2    C1 2224   3.610   3.440   9.682 -0.1369  0.1391 -0.4627
  143MPD2    C2 2225   3.601   3.525   9.571  0.7935 -0.2158 -0.0622
  143MPD2    C3 2226   3.723   3.599   9.537  0.0261  0.0358 -0.1834
  143MPD2    C4 2227   3.833   3.580   9.618 -0.4270  0.0555 -0.4267
  143MPD2    C5 2228   3.831   3.525   9.737  0.0188  0.0358 -0.7560
  143MPD2     H 2229   3.505   3.528   9.521  0.5555 -0.8876  0.3478
  143MPD2    H1 2230   3.925   3.631   9.588  0.7985 -1.5423  0.6506
  143MPD2    H2 2231   3.713   3.409   9.864 -0.8335 -1.4258 -0.6406
  143MPD2    H3 2232   3.908   3.532   9.813  1.4952  1.5080 -2.3861
  143MPD2     N 2233   3.728   3.694   9.431  0.3295 -0.2569  0.6954
  143MPD2    H5 2234   3.814   3.747   9.429  0.2158 -0.0982 -0.4707
  143MPD2    N1 2235   3.509   3.356   9.729 -0.2745  0.6885 -0.1059
  143MPD2    H7 2236   3.521   3.311   9.820 -0.4802  0.6440 -0.1004
  144TMC2    C1 2237   2.519   2.913   0.839  0.2624  0.1866 -0.1479
  144TMC2    C2 2238   2.592   2.803   0.807  0.3681  0.2776  0.1744
  144TMC2    C3 2239   2.687   2.767   0.899  0.1167 -0.1864  0.7399
  144TMC2    C4 2240   2.539   2.989   0.953 -0.3452 -0.8583  0.2818
  144TMC2    C5 2241   2.638   2.947   1.038  0.2698  0.2603  0.2029
  144TMC2    C6 2242   2.703   2.834   1.021 -0.0389 -0.0624  0.2759
  144TMC2     C 2243   2.385   2.915   0.784  1.2192  0.6617 -0.8306
  144TMC2     O 2244   2.360   2.836   0.693 -0.3114  0.3507 -0.2494
  144TMC2     H 2245   2.574   2.731   0.728  0.1914 -0.3993  0.8351
  144TMC2    H1 2246   2.481   3.078   0.973 -0.1657 -0.5246 -0.6463
  144TMC2    H2 2247   2.782   2.819   1.094 -0.5007 -0.1300  0.7606
  144TMC2    C7 2248   2.693   3.031   1.149  0.2043 -0.0647 -0.0969
  144TMC2    C8 2249   2.745   2.635   0.871 -0.5562  0.6243  0.2550
  144TMC2    O1 2250   2.808   3.013   1.184  0.0176 -0.1409 -0.0877
  144TMC2    O2 2251   2.688   2.550   0.803  0.5647  0.2625  0.4108
  144TMC2    O5 2252   2.865   2.624   0.927 -0.4700  0.1045 -0.4411
  144TMC2    H5 2253   2.899   2.703   0.974 -1.4867  0.7646 -0.8036
  145MPD2     C 2254   1.886   3.032   0.777  0.9146  0.2277  0.2439
  145MPD2    C1 2255   1.959   2.966   0.682  0.6869  0.1178  0.0323
  145MPD2    C2 2256   2.096   2.946   0.710  0.0733  0.6184  0.1193
  145MPD2    C3 2257   2.152   2.994   0.823 -0.3026  0.4468 -0.2705
  145MPD2    C4 2258   2.074   3.070   0.911  0.4959 -0.2975 -0.2109
  145MPD2    C5 2259   1.939   3.087   0.888 -0.2992 -0.0339  0.4644
  145MPD2     H 2260   2.159   2.905   0.633 -1.8919 -1.7596 -0.2044
  145MPD2    H1 2261   2.112   3.114   1.002  1.0128 -1.2982  0.0482
  145MPD2    H2 2262   1.778   3.041   0.765  0.7590 -2.0088  0.0213
  145MPD2    H3 2263   1.880   3.141   0.961  0.1176 -0.2143  0.9357
  145MPD2     N 2264   2.288   2.986   0.856  0.1778 -0.1097 -0.1801
  145MPD2    H5 2265   2.319   3.033   0.940 -0.5083 -1.4691  0.8291
  145MPD2    N1 2266   1.899   2.932   0.561 -0.4361 -0.0518  0.2515
  145MPD2    H7 2267   1.949   2.866   0.503 -0.3071  0.5329 -0.3103
  146TMC2    C1 2268   3.024   1.372  12.572  0.5613 -0.0657  0.4072
  146TMC2    C2 2269   3.024   1.391  12.434  0.6299  0.0561 -0.8401
  146TMC2    C3 2270   2.989   1.293  12.354 -0.0959 -0.4731  0.2730
  146TMC2    C4 2271   3.014   1.251  12.625  0.1032  0.0757  0.5282
  146TMC2    C5 2272   3.000   1.152  12.537 -0.0521  0.2105  0.1369
  146TMC2    C6 2273   2.983   1.170  12.403  0.6897 -0.1483 -0.4349
  146TMC2     C 2274   3.062   1.484  12.663  0.1872 -0.3489  0.0112
  146TMC2     O 2275   3.058   1.595  12.621 -0.0304  0.0822 -0.5856
  146TMC2     H 2276   3.032   1.489  12.387  1.8407 -0.0585 -0.8805
  146TMC2    H1 2277   3.005   1.233  12.732  0.9716  0.3427  0.6435
  146TMC2    H2 2278   2.968   1.087  12.336 -1.0784 -0.1494 -0.0364
  146TMC2    C7 2279   3.004   1.015  12.583  0.5722  0.2326 -1.2697
  146TMC2    C8 2280   2.946   1.316  12.222  0.0159 -0.4570  0.3543
  146TMC2    O1 2281   2.960   0.942  12.493  0.0291 -0.4364  0.3005
  146TMC2    O2 2282   2.976   1.413  12.156 -0.4495  0.2204  0.4960
  146TMC2    O5 2283   2.841   1.231  12.193 -0.8615  0.7856  1.1138
  146TMC2    H5 2284   2.799   1.177  12.264  0.3661 -1.4805  0.1034
  147MPD2     C 2285   3.066   0.621  12.910  0.0650 -0.1548 -0.9588
  147MPD2    C1 2286   3.142   0.733  12.950  0.0868 -0.6491 -1.1501
  147MPD2    C2 2287   3.147   0.850  12.874  0.1888 -0.5703 -0.5538
  147MPD2    C3 2288   3.060   0.865  12.770 -0.9854  0.5150  0.3262
  147MPD2    C4 2289   2.990   0.756  12.731  0.4430  0.0393  0.2601
  147MPD2    C5 2290   2.991   0.641  12.795  0.6846 -0.5384  0.1161
  147MPD2     H 2291   3.220   0.923  12.908 -0.6139  0.8435 -1.8580
  147MPD2    H1 2292   2.945   0.756  12.632  1.4461  0.6977 -0.1950
  147MPD2    H2 2293   3.064   0.529  12.967 -1.9169  0.9074  0.6937
  147MPD2    H3 2294   2.932   0.565  12.745 -0.1135  0.1721 -0.0128
  147MPD2     N 2295   3.059   0.994  12.704 -0.3480  0.0657  0.0640
  147MPD2    H5 2296   3.106   1.071  12.751 -0.5605 -1.2203  2.3843
  147MPD2    N1 2297   3.207   0.721  13.073  0.6225 -0.7861  0.1079
  147MPD2    H7 2298   3.189   0.633  13.121  2.6416 -0.8709  0.6788
  148TMC2    C1 2299   3.355   0.283  10.410  0.0134  0.2511 -0.4986
  148TMC2    C2 2300   3.365   0.345  10.530 -0.1016 -0.1769 -0.5356
  148TMC2    C3 2301   3.464   0.301  10.615 -0.0863 -0.2784  0.9642
  148TMC2    C4 2302   3.455   0.192  10.366 -0.6784  0.2897 -0.5474
  148TMC2    C5 2303   3.533   0.142  10.464 -0.4791 -0.2796  0.3635
  148TMC2    C6 2304   3.529   0.186  10.595  0.5321 -0.1723  0.4404
  148TMC2     C 2305   3.227   0.279  10.337  0.4025 -0.1212  0.3931
  148TMC2     O 2306   3.156   0.381  10.323 -0.0928  0.1997  0.6580
  148TMC2     H 2307   3.299   0.426  10.558 -1.1656 -0.5250 -2.0570
  148TMC2    H1 2308   3.445   0.139  10.272 -1.5833  0.5310 -0.5857
  148TMC2    H2 2309   3.590   0.144  10.674 -1.9855 -1.1824  1.8350
  148TMC2    C7 2310   3.597   0.011  10.435  0.4217 -0.1381  0.3712
  148TMC2    C8 2311   3.449   0.339  10.753 -0.1472  0.2717  0.4711
  148TMC2    O1 2312   3.557   4.690  10.334 -0.0753  0.2221  0.1896
  148TMC2    O2 2313   3.536   0.360  10.841  0.5033 -0.2422  0.3729
  148TMC2    O5 2314   3.318   0.358  10.781  0.2304 -0.0165 -0.1400
  148TMC2    H5 2315   3.249   0.322  10.721  1.1722 -0.1951 -1.1234
  149MPD2     C 2316   2.982   0.190  10.162 -1.0194 -0.3354  0.0399
  149MPD2    C1 2317   3.089   0.111  10.205 -0.4065  0.1768  0.6283
  149MPD2    C2 2318   3.095   4.712  10.188 -0.7054 -0.3554  0.2957
  149MPD2    C3 2319   2.996   4.643  10.119  0.0373 -0.2886  0.5958
  149MPD2    C4 2320   2.884   4.714  10.071 -0.0408  0.0421 -0.0966
  149MPD2    C5 2321   2.884   0.119  10.099  0.2779  0.2909 -0.2788
  149MPD2     H 2322   3.183   4.666  10.233  0.1250  3.5326  2.6682
  149MPD2    H1 2323   2.806   4.662  10.016  0.0581  1.2493 -1.3610
  149MPD2    H2 2324   2.974   0.298  10.163 -0.0531 -0.2517 -0.9512
  149MPD2    H3 2325   2.798   0.172  10.059 -0.7744 -3.1809 -2.6399
  149MPD2     N 2326   2.986   4.498  10.116 -0.4581  0.4929  0.2790
  149MPD2    H5 2327   2.899   4.462  10.078 -1.1885  1.3429  1.1371
  149MPD2    N1 2328   3.197   0.152  10.294 -0.3607 -0.0181  0.7254
  149MPD2    H7 2329   3.270   0.085  10.312 -0.0333 -0.3174 -1.7291
  150TMC2    C1 2330   0.959   4.329  12.387  0.4303 -0.2776  0.3389
  150TMC2    C2 2331   0.890   4.442  12.385  0.4481 -0.2264  0.1436
  150TMC2    C3 2332   0.964   4.549  12.343 -0.3358 -0.3114  0.3054
  150TMC2    C4 2333   1.088   4.320  12.352 -0.4357 -0.3934 -0.0517
  150TMC2    C5 2334   1.161   4.433  12.312  0.1317 -0.5283  0.4958
  150TMC2    C6 2335   1.095   4.553  12.309 -0.1353  0.0246  0.9784
  150TMC2     C 2336   0.899   4.212  12.436  0.2285  0.4894 -0.9175
  150TMC2     O 2337   0.978   4.136  12.484  0.2777  0.6306  0.5513
  150TMC2     H 2338   0.790   4.451  12.426 -0.6505 -0.5361 -2.4800
  150TMC2    H1 2339   1.120   4.219  12.331  1.2039 -0.0735  0.8483
  150TMC2    H2 2340   1.148   4.639  12.270  0.5924 -0.3287  1.2074
  150TMC2    C7 2341   1.304   4.430  12.326 -0.2080  0.1344  0.1956
  150TMC2    C8 2342   0.887   4.658  12.286  0.0295 -0.3304  0.5939
  150TMC2    O1 2343   1.370   4.529  12.306 -0.0061  0.0210 -0.1378
  150TMC2    O2 2344   0.907   4.685  12.168  0.0556  0.2228  0.0437
  150TMC2    O5 2345   0.771   4.656  12.345  0.7441 -0.5083 -0.5248
  150TMC2    H5 2346   0.770   4.668  12.443  1.3541  1.3258 -0.7347
  151MPD2     C 2347   0.534   3.917  12.626 -0.6472  1.1651  0.3391
  151MPD2    C1 2348   0.471   4.024  12.562 -0.2575 -0.4239 -0.6145
  151MPD2    C2 2349   0.545   4.121  12.507 -0.5227 -0.2041 -0.1874
  151MPD2    C3 2350   0.680   4.115  12.506 -0.8169 -0.0825 -0.9760
  151MPD2    C4 2351   0.741   4.009  12.578  0.3207 -0.0379 -0.3673
  151MPD2    C5 2352   0.667   3.911  12.633  0.1129 -0.2014  0.2409
  151MPD2     H 2353   0.501   4.199  12.445 -0.0965  0.1275 -0.0754
  151MPD2    H1 2354   0.848   4.012  12.589  0.1846  2.6135  0.4172
  151MPD2    H2 2355   0.469   3.843  12.671  1.2780 -2.2195 -2.4017
  151MPD2    H3 2356   0.715   3.829  12.685  1.2367  0.2142 -0.1489
  151MPD2     N 2357   0.759   4.215  12.438 -0.7991  0.2593 -0.2510
  151MPD2    H5 2358   0.707   4.288  12.390 -0.5646  1.0028  0.6413
  151MPD2    N1 2359   0.330   4.023  12.547  0.4897  0.6057 -0.0074
  151MPD2    H7 2360   0.281   3.936  12.566  1.4815  0.0196 -0.1213
  152TMC2    C1 2361   0.697   4.230  12.836  0.4278 -0.2006  0.7501
  152TMC2    C2 2362   0.749   4.107  12.873 -0.1834 -0.0365  0.4370
  152TMC2    C3 2363   0.879   4.087  12.867  0.8411 -0.1254 -0.0847
  152TMC2    C4 2364   0.770   4.332  12.792  0.1421 -0.1312  0.8518
  152TMC2    C5 2365   0.909   4.311  12.796  0.0888 -0.0810 -0.8029
  152TMC2    C6 2366   0.961   4.187  12.827 -0.0245 -0.4778  0.1772
  152TMC2     C 2367   0.555   4.251  12.832  0.2093 -0.1019 -0.1907
  152TMC2     O 2368   0.511   4.332  12.750  0.8578 -0.3079 -0.1150
  152TMC2     H 2369   0.688   4.030  12.919  2.2487 -2.5834 -0.5615
  152TMC2    H1 2370   0.733   4.431  12.770  0.1381 -0.0413  1.2563
  152TMC2    H2 2371   1.066   4.183  12.857  1.2542  2.1476 -4.0658
  152TMC2    C7 2372   1.004   4.410  12.735  0.4225 -0.5065  0.1889
  152TMC2    C8 2373   0.927   3.958  12.901 -0.6848 -0.0150 -0.1341
  152TMC2    O1 2374   0.943   4.502  12.682 -0.0483  0.0778 -0.2045
  152TMC2    O2 2375   0.858   3.869  12.950 -0.4629 -0.5466 -0.3550
  152TMC2    O5 2376   1.062   3.952  12.911 -0.1646  0.3553 -0.4751
  152TMC2    H5 2377   1.096   4.006  12.837 -0.3794 -1.2598 -1.7556
  153MPD2     C 2378   0.289   4.014  12.942  0.3353  0.1113 -0.1474
  153MPD2    C1 2379   0.350   4.134  12.905  0.3258 -0.1779 -0.1633
  153MPD2    C2 2380   0.260   4.228  12.856 -0.3089  0.2098 -0.3377
  153MPD2    C3 2381   0.124   4.206  12.839  0.2725  0.3631  0.0026
  153MPD2    C4 2382   0.066   4.088  12.883  0.0786  0.9497 -0.6439
  153MPD2    C5 2383   0.150   3.992  12.940  0.2774 -0.1942 -0.6207
  153MPD2     H 2384   0.290   4.328  12.827 -0.1474  0.5088  0.8361
  153MPD2    H1 2385   4.693   4.075  12.888  0.1982  0.2833  0.3879
  153MPD2    H2 2386   0.354   3.934  12.974 -0.1446  0.3966  1.6058
  153MPD2    H3 2387   0.112   3.897  12.977 -0.3176  0.8539  1.4218
  153MPD2     N 2388   0.047   4.306  12.784  0.3557  0.2241  0.6054
  153MPD2    H5 2389   0.088   4.399  12.782  0.7730  0.0271  0.0218
  153MPD2    N1 2390   0.494   4.152  12.901 -0.0215 -0.0121 -0.2517
  153MPD2    H7 2391   0.557   4.095  12.957 -1.1709 -1.7802 -0.7557
  154TMC2    C1 2392   2.356   4.087   0.886  0.1214 -0.0373  0.0265
  154TMC2    C2 2393   2.329   4.157   1.004 -0.2124 -0.2583 -0.1724
  154TMC2    C3 2394   2.427   4.157   1.101 -0.2900  0.3494  0.1445
  154TMC2    C4 2395   2.474   4.015   0.876  0.0635  0.2404 -0.2417
  154TMC2    C5 2396   2.565   4.017   0.973 -0.2208  0.2578  0.4330
  154TMC2    C6 2397   2.540   4.078   1.086  0.3344 -0.0317  0.3610
  154TMC2     C 2398   2.296   4.149   0.769  0.0297 -0.2080 -0.3697
  154TMC2     O 2399   2.177   4.168   0.781 -0.2695  0.0737 -0.7436
  154TMC2     H 2400   2.246   4.225   1.016  1.0247  0.9400  1.6134
  154TMC2    H1 2401   2.488   3.959   0.784 -0.1748 -0.3782  0.0912
  154TMC2    H2 2402   2.621   4.082   1.159  0.3850 -1.1402  0.3664
  154TMC2    C7 2403   2.683   3.932   0.971  0.0749 -0.1075 -0.8668
  154TMC2    C8 2404   2.420   4.261   1.199  0.8608  0.3010 -0.5466
  154TMC2    O1 2405   2.725   3.900   1.081 -0.0707  0.3943 -0.0353
  154TMC2    O2 2406   2.373   4.368   1.174  0.3608 -0.4242 -0.7262
  154TMC2    O5 2407   2.524   4.236   1.282 -0.3141 -0.4504 -0.6186
  154TMC2    H5 2408   2.529   4.140   1.302  1.8317 -0.2075  0.0313
  155MPD2     C 2409   2.428   4.329   0.489 -0.5532 -0.2839  0.4526
  155MPD2    C1 2410   2.328   4.264   0.556 -0.0753 -0.9496  0.7501
  155MPD2    C2 2411   2.200   4.257   0.512  0.4647  0.7832 -0.3980
  155MPD2    C3 2412   2.168   4.313   0.387 -0.4656 -0.4821  0.6023
  155MPD2    C4 2413   2.258   4.387   0.320 -0.0607  0.3007  0.2431
  155MPD2    C5 2414   2.387   4.396   0.371 -0.3158  0.6754 -0.1176
  155MPD2     H 2415   2.129   4.189   0.556 -0.0407  1.3193 -0.3746
  155MPD2    H1 2416   2.239   4.433   0.223  0.0676 -0.2100 -0.0238
  155MPD2    H2 2417   2.530   4.342   0.523 -0.3745 -1.2273  0.2769
  155MPD2    H3 2418   2.453   4.460   0.314  1.1403  0.7548  1.6662
  155MPD2     N 2419   2.029   4.300   0.343 -0.2834 -0.1973  0.1837
  155MPD2    H5 2420   1.956   4.268   0.406 -0.8655 -0.6574 -0.7248
  155MPD2    N1 2421   2.379   4.197   0.667  0.6442 -0.0486  0.1723
  155MPD2    H7 2422   2.476   4.192   0.697  0.1268 -1.1299  1.6568
  156TMC2    C1 2423   0.657   1.684  11.751  0.6629  0.0189  0.2371
  156TMC2    C2 2424   0.693   1.560  11.697  0.7460  0.5257 -0.8658
  156TMC2    C3 2425   0.655   1.546  11.562  1.2186  0.7934  0.0323
  156TMC2    C4 2426   0.592   1.786  11.681 -0.4152  0.0433 -0.2788
  156TMC2    C5 2427   0.551   1.755  11.553 -0.4255 -0.4243  0.2882
  156TMC2    C6 2428   0.579   1.639  11.491 -0.4785 -0.0540  0.1138
  156TMC2     C 2429   0.651   1.720  11.892 -0.2131 -0.7163 -0.1942
  156TMC2     O 2430   0.585   1.820  11.925 -0.2778  0.6029  0.7824
  156TMC2     H 2431   0.754   1.486  11.747 -0.9714 -0.5927 -0.4324
  156TMC2    H1 2432   0.564   1.879  11.728 -2.2962 -0.7904  0.2422
  156TMC2    H2 2433   0.569   1.617  11.385  1.9223  1.4219 -0.4187
  156TMC2    C7 2434   0.490   1.864  11.474 -0.0962 -0.4221  0.1333
  156TMC2    C8 2435   0.717   1.432  11.494 -0.4919 -0.0910 -0.1413
  156TMC2    O1 2436   0.492   1.977  11.524 -0.4865  0.3061 -0.5102
  156TMC2    O2 2437   0.747   1.428  11.377  0.1728 -0.1474 -0.1991
  156TMC2    O5 2438   0.648   1.331  11.560  0.0075 -0.2173 -0.1867
  156TMC2    H5 2439   0.606   1.379  11.634 -0.2184 -0.7923  0.0574
  157MPD2     C 2440   0.771   1.517  12.170 -0.6405 -0.5065 -0.8485
  157MPD2    C1 2441   0.705   1.620  12.110  0.7278  0.5887 -0.3368
  157MPD2    C2 2442   0.669   1.728  12.187 -1.0120  0.4545  0.0378
  157MPD2    C3 2443   0.682   1.721  12.324  0.6332 -0.2302 -0.4249
  157MPD2    C4 2444   0.741   1.608  12.381 -0.5230 -0.4663  0.8356
  157MPD2    C5 2445   0.788   1.511  12.301  0.2793 -0.4044  0.7591
  157MPD2     H 2446   0.624   1.814  12.138 -1.4486  0.6109  0.7061
  157MPD2    H1 2447   0.743   1.600  12.489 -0.9012 -0.4977  0.8394
  157MPD2    H2 2448   0.818   1.440  12.109  0.2898 -1.9685  1.7475
  157MPD2    H3 2449   0.833   1.419  12.338  0.1721 -0.1780  1.4641
  157MPD2     N 2450   0.623   1.826  12.390  0.5291  0.0318 -0.3574
  157MPD2    H5 2451   0.574   1.889  12.327 -1.1099  0.8226  1.7248
  157MPD2    N1 2452   0.707   1.628  11.971  0.7681 -0.7101  0.1196
  157MPD2    H7 2453   0.743   1.546  11.924 -1.1911 -1.1633 -0.6227
  158TMC2    C1 2454   1.485   0.516  13.079  0.4353 -0.2232  0.2533
  158TMC2    C2 2455   1.539   0.532  12.952  0.0452  0.2553  0.3425
  158TMC2    C3 2456   1.451   0.562  12.859 -0.8042  0.1254 -0.1478
  158TMC2    C4 2457   1.354   0.549  13.114 -0.2242 -0.6609  0.3522
  158TMC2    C5 2458   1.273   0.596  13.013  0.0151  0.2183  0.0426
  158TMC2    C6 2459   1.323   0.593  12.883  1.2246  0.7814 -0.3567
  158TMC2     C 2460   1.566   0.434  13.171  1.4761 -0.7828  0.6046
  158TMC2     O 2461   1.649   0.362  13.120 -0.2291 -0.1889  0.7139
  158TMC2     H 2462   1.635   0.488  12.926  0.0203  1.0689 -1.0958
  158TMC2    H1 2463   1.314   0.550  13.215  1.2893  0.8384  0.9388
  158TMC2    H2 2464   1.263   0.624  12.798  1.3714  0.9710 -0.3902
  158TMC2    C7 2465   1.134   0.628  13.024  0.1036  0.4095  0.1763
  158TMC2    C8 2466   1.498   0.568  12.721 -0.3583  0.7990  0.0489
  158TMC2    O1 2467   1.071   0.632  12.918  0.2907  0.4452 -0.2896
  158TMC2    O2 2468   1.426   0.572  12.621  0.0047 -0.5885 -0.0773
  158TMC2    O5 2469   1.623   0.606  12.722  0.2122 -0.1130 -0.9403
  158TMC2    H5 2470   1.668   0.617  12.809  2.3542 -0.4151 -2.0171
  159MPD2     C 2471   1.600   0.179  13.611 -0.2810 -0.0460  0.2163
  159MPD2    C1 2472   1.548   0.305  13.646 -0.1160 -0.1666 -0.3387
  159MPD2    C2 2473   1.521   0.389  13.537 -0.4639  0.2194 -0.7788
  159MPD2    C3 2474   1.550   0.350  13.409  0.0288 -0.2272  0.3619
  159MPD2    C4 2475   1.600   0.228  13.380  0.6212  0.3272  0.3928
  159MPD2    C5 2476   1.625   0.140  13.481  0.2371 -0.0639 -0.4877
  159MPD2     H 2477   1.471   0.484  13.548  2.7745  1.8298  0.1749
  159MPD2    H1 2478   1.633   0.192  13.283  1.2283 -2.1172  1.5175
  159MPD2    H2 2479   1.624   0.108  13.688 -0.7526 -0.0277  0.3779
  159MPD2    H3 2480   1.667   0.042  13.464 -1.8372 -0.9493 -0.5946
  159MPD2     N 2481   1.525   0.442  13.305 -0.2176 -0.8448 -0.0263
  159MPD2    H5 2482   1.460   0.516  13.330  1.0301 -0.2501  1.4057
  159MPD2    N1 2483   1.506   0.327  13.785 -0.7656 -0.3402 -0.0686
  159MPD2    H7 2484   1.524   0.247  13.844 -3.8303 -2.1615 -1.5669
  160TMC2    C1 2485   0.715   3.654   1.747 -0.0451  0.7406  0.3688
  160TMC2    C2 2486   0.736   3.643   1.881 -0.2025  0.9220  0.0365
  160TMC2    C3 2487   0.824   3.551   1.920  0.4264  0.7136  0.3547
  160TMC2    C4 2488   0.767   3.562   1.654  1.1313  0.3422 -0.2518
  160TMC2    C5 2489   0.859   3.471   1.700  0.3244 -1.1680  0.6700
  160TMC2    C6 2490   0.892   3.468   1.832  0.6891 -0.3022 -0.0792
  160TMC2     C 2491   0.621   3.764   1.704  0.0762 -0.4779 -0.6770
  160TMC2     O 2492   0.633   3.790   1.584  0.2988  0.0878 -0.3927
  160TMC2     H 2493   0.683   3.713   1.944  1.4926 -0.7211  3.3123
  160TMC2    H1 2494   0.723   3.532   1.560  2.1375  1.4511 -1.0837
  160TMC2    H2 2495   0.963   3.396   1.873 -0.4033  0.1824  2.7159
  160TMC2    C7 2496   0.938   3.395   1.607  0.3978  0.5368 -0.4172
  160TMC2    C8 2497   0.858   3.531   2.059  0.4264  0.9379 -0.0450
  160TMC2    O1 2498   1.011   3.303   1.646  0.0906  0.3226  0.2678
  160TMC2    O2 2499   0.773   3.549   2.146  0.0964 -0.7427  0.1063
  160TMC2    O5 2500   0.988   3.510   2.087  0.4459  0.0856 -0.0540
  160TMC2    H5 2501   1.044   3.544   2.014  0.4292 -0.8507 -0.4969
  161MPD2     C 2502   0.349   3.924   1.905  0.9331 -0.2466  0.1210
  161MPD2    C1 2503   0.429   3.904   1.793 -0.4372  0.9092  1.0111
  161MPD2    C2 2504   0.382   3.956   1.667  0.1323 -1.0265 -0.4198
  161MPD2    C3 2505   0.264   4.030   1.661 -0.0587  0.3785  0.2673
  161MPD2    C4 2506   0.192   4.058   1.780  0.8948 -0.8199  0.0636
  161MPD2    C5 2507   0.233   4.007   1.894 -0.4579  0.2615 -0.7899
  161MPD2     H 2508   0.441   3.934   1.578  2.1438 -0.4744  0.7931
  161MPD2    H1 2509   0.109   4.128   1.779  2.7856  1.4390  0.6475
  161MPD2    H2 2510   0.372   3.890   2.005  1.0848  0.1998  0.2413
  161MPD2    H3 2511   0.178   4.034   1.984  2.8512  0.6327  1.1503
  161MPD2     N 2512   0.214   4.080   1.543  0.4761  0.1551 -0.4052
  161MPD2    H5 2513   0.122   4.120   1.557  1.1129  1.4242  0.1443
  161MPD2    N1 2514   0.538   3.811   1.804 -0.1066  0.1526 -0.5298
  161MPD2    H7 2515   0.557   3.771   1.895  0.2753 -1.1742 -1.1941
  162TMC2    C1 2516   2.658   0.639   0.429  0.5602 -0.0736 -0.4127
  162TMC2    C2 2517   2.558   0.575   0.359  0.1067 -0.4148  0.1801
  162TMC2    C3 2518   2.430   0.632   0.357 -0.7446  0.5778 -0.3142
  162TMC2    C4 2519   2.638   0.759   0.498  0.0005  0.5593 -0.1221
  162TMC2    C5 2520   2.511   0.809   0.489  0.5641 -0.9632  0.2588
  162TMC2    C6 2521   2.411   0.755   0.412  0.2986  0.0611  0.5111
  162TMC2     C 2522   2.791   0.573   0.451 -0.0440  0.3941  0.3118
  162TMC2     O 2523   2.889   0.639   0.487 -0.2474  0.6379 -0.3670
  162TMC2     H 2524   2.588   0.494   0.293 -1.5079  0.6589 -1.8996
  162TMC2    H1 2525   2.717   0.783   0.568  0.5936 -0.0110 -0.5950
  162TMC2    H2 2526   2.312   0.799   0.409 -0.0287 -0.6842  0.1293
  162TMC2    C7 2527   2.470   0.910   0.586 -0.0738  0.0116  0.3222
  162TMC2    C8 2528   2.354   0.596   0.240  0.0792  0.4261 -0.4997
  162TMC2    O1 2529   2.348   0.935   0.595 -0.0234 -0.3623 -0.0699
  162TMC2    O2 2530   2.406   0.538   0.144  0.6371  0.1489  0.0866
  162TMC2    O5 2531   2.221   0.609   0.264 -0.7391  0.4702 -0.1937
  162TMC2    H5 2532   2.212   0.644   0.355  1.1436  0.6130 -0.0497
  163MPD2     C 2533   3.104   0.157   0.486  0.4312 -0.5988 -0.0027
  163MPD2    C1 2534   3.132   0.288   0.501  0.5628 -0.3553  0.0367
  163MPD2    C2 2535   3.036   0.383   0.479 -0.0519  0.0086  0.3311
  163MPD2    C3 2536   2.901   0.346   0.450 -0.1345  0.2625 -0.0891
  163MPD2    C4 2537   2.873   0.214   0.451 -0.5610 -0.1163 -0.0549
  163MPD2    C5 2538   2.976   0.121   0.457 -0.0058  0.3177 -0.2007
  163MPD2     H 2539   3.063   0.488   0.477 -0.5306  0.1362  0.4582
  163MPD2    H1 2540   2.769   0.191   0.430 -0.3180  1.0182 -2.5291
  163MPD2    H2 2541   3.179   0.078   0.481  0.2653 -0.7434 -0.1868
  163MPD2    H3 2542   2.949   0.018   0.437  1.1948  0.4035 -2.2235
  163MPD2     N 2543   2.792   0.433   0.437  0.7400  0.3041 -0.5277
  163MPD2    H5 2544   2.700   0.395   0.418  0.6349 -0.5311  1.6800
  163MPD2    N1 2545   3.268   0.323   0.517 -0.1001 -0.0973  0.8569
  163MPD2    H7 2546   3.340   0.251   0.521 -0.9428 -1.0112 -0.3450
  164TMC2    C1 2547   4.101   4.715  11.025  0.0764 -0.4881  0.7104
  164TMC2    C2 2548   4.221   0.051  11.005 -0.0914 -0.0189  0.7951
  164TMC2    C3 2549   4.230   0.184  11.030  1.0876  0.0601  0.0099
  164TMC2    C4 2550   3.988   0.032  11.068  0.1722 -0.6576  0.3206
  164TMC2    C5 2551   4.000   0.164  11.097 -0.2026  0.8368  0.3138
  164TMC2    C6 2552   4.118   0.240  11.082  0.0192 -0.0114 -0.1195
  164TMC2     C 2553   4.091   4.572  11.006  0.2568  0.7397 -0.4761
  164TMC2     O 2554   4.013   4.517  11.087 -0.2754  0.4391  0.3260
  164TMC2     H 2555   4.304   0.000  10.957 -0.9302 -2.1731  1.6418
  164TMC2    H1 2556   3.894   4.714  11.081  0.7367 -1.4262  1.3122
  164TMC2    H2 2557   4.111   0.347  11.093  1.2867 -0.0007  0.6499
  164TMC2    C7 2558   3.874   0.246  11.125  0.7635 -0.4876 -0.1271
  164TMC2    C8 2559   4.353   0.254  10.989  0.1204  0.8980 -0.3103
  164TMC2    O1 2560   3.767   0.198  11.083 -0.3261 -0.1289  0.0896
  164TMC2    O2 2561   4.452   0.195  10.947 -0.3032  0.2503  0.0098
  164TMC2    O5 2562   4.368   0.353  11.077 -1.2731  0.6448 -0.5867
  164TMC2    H5 2563   4.309   0.357  11.155  0.5831  2.8063  0.6894
  165TMC2    C1 2564   0.395   2.925   1.504 -0.5463  0.0329 -0.3587
  165TMC2    C2 2565   0.412   2.829   1.399 -0.4041 -0.3888 -1.0411
  165TMC2    C3 2566   0.541   2.783   1.387  1.0201  0.4223  0.7247
  165TMC2    C4 2567   0.502   2.961   1.585 -0.2837 -0.4489 -0.6077
  165TMC2    C5 2568   0.626   2.898   1.566 -0.7784 -0.0895 -0.4236
  165TMC2    C6 2569   0.647   2.821   1.461 -0.7352 -0.5931 -0.4613
  165TMC2     C 2570   0.279   3.006   1.506 -0.3436 -0.5345  0.0581
  165TMC2     O 2571   0.211   2.997   1.403  0.7527 -0.1054  0.0048
  165TMC2     H 2572   0.335   2.805   1.326 -0.4840 -0.9451 -0.7733
  165TMC2    H1 2573   0.488   3.042   1.655  4.4606 -0.7902  0.7428
  165TMC2    H2 2574   0.747   2.782   1.443 -0.4561 -0.6565  1.2378
  165TMC2    C7 2575   0.740   2.927   1.656 -0.0612 -0.2883  0.2210
  165TMC2    C8 2576   0.580   2.701   1.274 -0.5945  0.1508 -0.1833
  165TMC2    O1 2577   0.849   2.902   1.614  0.6821  0.1669 -0.4219
  165TMC2    O2 2578   0.687   2.698   1.215 -0.1297  0.7739 -0.5425
  165TMC2    O5 2579   0.469   2.635   1.224  0.7568  0.4142 -0.1605
  165TMC2    H5 2580   0.389   2.623   1.280  0.8239  0.6996 -0.0052
  166MPD2     C 2581   4.702   3.385   1.619 -0.5129  0.0408  0.3793
  166MPD2    C1 2582   0.036   3.358   1.499 -0.1789  0.6110 -0.2397
  166MPD2    C2 2583   0.129   3.253   1.492  0.0618  0.1216 -0.1227
  166MPD2    C3 2584   0.171   3.198   1.611 -0.2063 -0.7438  0.3094
  166MPD2    C4 2585   0.121   3.242   1.733  0.3081  0.0854  0.6589
  166MPD2    C5 2586   0.023   3.337   1.732  0.1518  0.2236  0.2511
  166MPD2     H 2587   0.189   3.231   1.404 -0.6061  0.3178 -0.6270
  166MPD2    H1 2588   0.157   3.202   1.827 -0.6167  0.2493  1.0822
  166MPD2    H2 2589   4.621   3.456   1.627 -0.0230  0.4896  1.3108
  166MPD2    H3 2590   4.723   3.368   1.830 -0.3700 -0.5671  0.3130
  166MPD2     N 2591   0.259   3.088   1.619  0.6611  0.4793  0.4524
  166MPD2    H5 2592   0.293   3.062   1.711  1.3011  0.9743  0.3560
  166MPD2    N1 2593   4.723   3.408   1.378  0.1327  0.4439 -0.2522
  166MPD2    H7 2594   4.630   3.450   1.377 -0.5487 -1.0514 -0.4926
  167TMC2    C1 2595   3.633   0.173  12.945  0.2108  0.0573  0.0996
  167TMC2    C2 2596   3.556   0.279  13.003  0.4138  0.2685 -1.0704
  167TMC2    C3 2597   3.445   0.243  13.075 -0.4417  0.1610 -0.0710
  167TMC2    C4 2598   3.592   0.049  12.941  0.3160 -0.0196 -0.2018
  167TMC2    C5 2599   3.477   0.024  13.011  0.1849  0.1461  0.3859
  167TMC2    C6 2600   3.403   0.117  13.076 -0.7924  0.7051 -0.2571
  167TMC2     C 2601   3.751   0.222  12.882 -0.2544  0.0058 -0.2527
  167TMC2     O 2602   3.789   0.336  12.910  0.1576 -0.2946  0.4934
  167TMC2     H 2603   3.565   0.386  12.988 -5.2146  0.4277 -3.4056
  167TMC2    H1 2604   3.660   4.706  12.909  0.8411  0.2473  0.2623
  167TMC2    H2 2605   3.316   0.092  13.136  1.4586  0.1610  2.7553
  167TMC2    C7 2606   3.399   4.654  12.958  0.7669  0.1738 -0.0172
  167TMC2    C8 2607   3.336   0.335  13.081 -0.5363  0.6529  0.0426
  167TMC2    O1 2608   3.302   4.611  13.021  0.5695  0.3092  0.2195
  167TMC2    O2 2609   3.270   0.359  12.978 -0.2364 -0.2327 -0.7136
  167TMC2    O5 2610   3.386   0.438  13.155 -0.2287  0.9736 -0.1321
  167TMC2    H5 2611   3.443   0.412  13.230 -1.0018 -0.2450  0.0318
  168MPD2     C 2612   3.999   0.278  12.729  0.3128 -0.0098 -0.0583
  168MPD2    C1 2613   3.912   0.175  12.702 -0.2629  0.3915  0.2393
  168MPD2    C2 2614   3.922   0.112  12.576  0.7719 -0.3898  0.3564
  168MPD2    C3 2615   4.012   0.161  12.476  0.4764  0.3284 -0.1970
  168MPD2    C4 2616   4.102   0.263  12.504  1.1663 -0.1391  0.5022
  168MPD2    C5 2617   4.095   0.314  12.635  0.4613  0.9609 -0.9149
  168MPD2     H 2618   3.854   0.032  12.551  2.1566 -0.7254 -2.2757
  168MPD2    H1 2619   4.178   0.297  12.435 -0.3028  1.8273 -0.1383
  168MPD2    H2 2620   3.991   0.338  12.819 -1.7295  1.7086 -1.3746
  168MPD2    H3 2621   4.164   0.393  12.661 -0.5076  0.5172  2.9346
  168MPD2     N 2622   4.018   0.122  12.347  0.0742  0.0539  0.0469
  168MPD2    H5 2623   4.079   0.173  12.284  0.5506  1.1939  1.4138
  168MPD2    N1 2624   3.805   0.140  12.789  0.3628 -0.5152 -0.8821
  168MPD2    H7 2625   3.752   0.056  12.771  2.6151 -2.4633  1.4973
  169MPD1     C 2626   1.497   4.645   8.609 -0.0956 -0.5273  0.9036
  169MPD1    C1 2627   1.609   4.616   8.680 -0.4929 -0.0894 -0.4721
  169MPD1    C2 2628   1.595   4.581   8.814 -0.4606 -0.4581  0.1134
  169MPD1    C3 2629   1.473   4.585   8.881  0.5477  0.0934 -0.4366
  169MPD1    C4 2630   1.368   4.629   8.804 -0.3596  0.4643 -0.5226
  169MPD1    C5 2631   1.380   4.654   8.672  0.1176  0.0774 -0.4844
  169MPD1     H 2632   1.681   4.553   8.873 -0.9603 -0.6792  0.7411
  169MPD1    H1 2633   1.268   4.643   8.842  1.4560  0.0102  4.3640
  169MPD1    H2 2634   1.492   4.662   8.502  2.1094 -0.9894  0.7152
  169MPD1    H3 2635   1.285   4.663   8.621  0.3619  2.7712 -0.4688
  169MPD1     N 2636   1.470   4.554   9.020 -0.0427  0.0365  0.3740
  169MPD1    H5 2637   1.550   4.500   9.051  0.1444  1.5572  2.5586
  169MPD1    N1 2638   1.726   4.574   8.618 -0.7555  0.3334 -0.1486
  169MPD1    H6 2639   1.738   4.629   8.533  1.8863  1.0412  0.6727
  169MPD1    H7 2640   1.802   4.599   8.681  0.3500 -0.1590 -1.2837
  170MPD1     C 2641   4.353   2.359  12.869  0.4288  0.6695  0.3685
  170MPD1    C1 2642   4.230   2.421  12.872 -0.2165  0.6025  0.5280
  170MPD1    C2 2643   4.194   2.497  12.982 -0.2909 -0.1161  0.7048
  170MPD1    C3 2644   4.285   2.506  13.086  0.3499  0.0997  0.5660
  170MPD1    C4 2645   4.410   2.447  13.082 -0.8389 -0.2835  0.1894
  170MPD1    C5 2646   4.445   2.385  12.964 -0.1297 -0.3793 -0.8146
  170MPD1     H 2647   4.100   2.551  12.985 -1.8661 -2.7991 -0.4456
  170MPD1    H1 2648   4.480   2.449  13.165 -1.3440  0.7383  0.5838
  170MPD1    H2 2649   4.382   2.301  12.783 -0.9726  1.4441 -0.6321
  170MPD1    H3 2650   4.542   2.340  12.946  0.1693  0.5167 -1.4686
  170MPD1     N 2651   4.246   2.585  13.196 -0.3989  0.1458 -0.6546
  170MPD1    H5 2652   4.152   2.622  13.181 -0.6608  0.0043  0.6637
  170MPD1    N1 2653   4.160   2.431  12.749  0.0658 -0.2416  0.0368
  170MPD1    H6 2654   4.061   2.450  12.765  0.2129  0.5341  0.0272
  170MPD1    H7 2655   4.168   2.336  12.713 -1.4261 -0.1856 -0.4825
  171MPD1     C 2656   3.170   3.697  15.589 -0.2090 -0.2237 -0.8692
  171MPD1    C1 2657   3.266   3.616  15.539  0.7546  0.1413  0.0280
  171MPD1    C2 2658   3.278   3.489  15.589  0.0971 -0.9308 -0.1972
  171MPD1    C3 2659   3.221   3.458  15.716  0.6072 -0.9899  0.2477
  171MPD1    C4 2660   3.143   3.554  15.781  0.4554  0.1866  1.0770
  171MPD1    C5 2661   3.112   3.660  15.709 -0.1681 -0.2052  0.2385
  171MPD1     H 2662   3.346   3.418  15.544  0.1699 -0.8137 -0.2724
  171MPD1    H1 2663   3.098   3.542  15.880 -2.0853 -0.0653 -0.0995
  171MPD1    H2 2664   3.148   3.787  15.533 -0.4847  0.5143  0.4276
  171MPD1    H3 2665   3.033   3.729  15.737 -0.4941  0.2387 -1.7426
  171MPD1     N 2666   3.230   3.329  15.775  0.1007  0.1770 -0.2746
  171MPD1    H5 2667   3.182   3.317  15.863  1.7203  0.9849  0.7346
  171MPD1    N1 2668   3.330   3.641  15.413  0.2693  0.0157 -0.2283
  171MPD1    H6 2669   3.352   3.740  15.402  0.6229  0.2217  2.3549
  171MPD1    H7 2670   3.415   3.587  15.398  0.3810 -0.3257  1.7219
  172MPD1     C 2671   1.980   3.202   0.035  0.7841 -0.4102  0.7478
  172MPD1    C1 2672   1.927   3.319   0.082  0.1333 -0.5147  0.8108
  172MPD1    C2 2673   1.938   3.344   0.220 -0.5795 -0.2891  0.2066
  172MPD1    C3 2674   1.987   3.241   0.300 -0.8441 -0.1221 -0.1162
  172MPD1    C4 2675   2.047   3.128   0.245 -0.7735  0.1246 -0.3315
  172MPD1    C5 2676   2.046   3.110   0.114  0.0566  0.2543  0.6156
  172MPD1     H 2677   1.905   3.438   0.263 -0.1825 -0.2068  0.3303
  172MPD1    H1 2678   2.076   3.041   0.302  0.7802  0.3035 -0.8517
  172MPD1    H2 2679   1.972   3.174  17.670 -0.6124 -2.4089  1.3717
  172MPD1    H3 2680   2.076   3.013   0.077 -1.7668  0.4326 -1.3586
  172MPD1     N 2681   1.979   3.249   0.443  0.4193 -0.1026  0.4915
  172MPD1    H5 2682   2.030   3.173   0.488  1.6050  1.8483  2.4672
  172MPD1    N1 2683   1.893   3.416  17.727 -0.5581 -0.3692  0.1854
  172MPD1    H6 2684   1.808   3.460   0.023  0.9838  0.9565  2.2334
  172MPD1    H7 2685   1.868   3.377  17.636 -2.5439  2.7549 -0.6060
  173MPD1     C 2686   3.414   3.036  14.243  0.0040 -0.1794 -0.3314
  173MPD1    C1 2687   3.466   2.915  14.197 -0.4252  0.0887  0.7505
  173MPD1    C2 2688   3.420   2.798  14.262  0.0485  0.2765 -0.0382
  173MPD1    C3 2689   3.327   2.796  14.364 -0.6826  0.1174  0.2024
  173MPD1    C4 2690   3.271   2.923  14.397 -0.1582  0.2240 -0.3749
  173MPD1    C5 2691   3.324   3.037  14.348 -0.6334  0.2103  0.6233
  173MPD1     H 2692   3.456   2.699  14.235 -0.8769  0.9063 -3.4957
  173MPD1    H1 2693   3.195   2.923  14.474 -1.2856  0.4526 -1.4955
  173MPD1    H2 2694   3.431   3.130  14.192  0.5895 -0.0915  0.0262
  173MPD1    H3 2695   3.277   3.123  14.393  0.1946  0.0483  1.7815
  173MPD1     N 2696   3.272   2.671  14.407  0.1561 -0.1732 -0.2216
  173MPD1    H5 2697   3.295   2.589  14.352  3.1840 -0.4642  1.5227
  173MPD1    N1 2698   3.550   2.903  14.084 -0.0933  0.3992  0.0631
  173MPD1    H6 2699   3.613   2.825  14.100 -0.3333  0.5188  1.6286
  173MPD1    H7 2700   3.613   2.982  14.075 -1.5140  1.3330 -1.6415
  174MPD1     C 2701   2.982   2.035  13.923  0.3543 -1.4165 -0.1152
  174MPD1    C1 2702   3.031   1.965  14.032 -0.8078 -0.5595 -0.0568
  174MPD1    C2 2703   3.041   2.038  14.146 -0.8380  0.2237 -0.0467
  174MPD1    C3 2704   2.995   2.173  14.157  0.7077  0.0097  0.1066
  174MPD1    C4 2705   2.933   2.231  14.049  0.2294 -0.4450 -0.5514
  174MPD1    C5 2706   2.930   2.167  13.929  0.1139  0.3529  0.4629
  174MPD1     H 2707   3.078   1.991  14.236 -1.2015 -3.5203 -1.8841
  174MPD1    H1 2708   2.896   2.333  14.054 -0.9736 -1.0111  1.9907
  174MPD1    H2 2709   2.983   1.992  13.823 -2.3343 -3.0097  0.5401
  174MPD1    H3 2710   2.899   2.221  13.840  0.1196  0.6729  0.6573
  174MPD1     N 2711   3.019   2.253  14.272 -0.1662  0.0502  0.0921
  174MPD1    H5 2712   3.004   2.353  14.269 -2.6644 -0.3009  0.5792
  174MPD1    N1 2713   3.086   1.836  14.025 -0.1931  0.4837 -0.7459
  174MPD1    H6 2714   3.023   1.777  13.971 -0.9396  0.1042  0.5272
  174MPD1    H7 2715   3.095   1.790  14.115 -0.3678  0.9889 -0.4695
  175MPD1     C 2716   1.628   3.336  15.302 -0.3168 -0.4275 -0.1723
  175MPD1    C1 2717   1.699   3.250  15.386  0.0686 -0.1427 -0.0556
  175MPD1    C2 2718   1.762   3.312  15.490 -0.3722  0.1639  0.7788
  175MPD1    C3 2719   1.748   3.450  15.528  0.1600  0.0988 -0.0523
  175MPD1    C4 2720   1.657   3.523  15.456 -0.4850  0.1547  0.7715
  175MPD1    C5 2721   1.608   3.464  15.345 -0.3806 -1.1957 -0.0102
  175MPD1     H 2722   1.815   3.248  15.559  1.1117  1.7062  1.0839
  175MPD1    H1 2723   1.626   3.625  15.473 -0.0892  0.6890 -1.6993
  175MPD1    H2 2724   1.582   3.313  15.207 -0.8332 -2.5771  0.6094
  175MPD1    H3 2725   1.531   3.519  15.292  0.0483 -0.4354  0.1547
  175MPD1     N 2726   1.808   3.506  15.645 -0.7937  0.3671  0.6203
  175MPD1    H5 2727   1.780   3.601  15.666 -1.4420  0.4910 -0.8307
  175MPD1    N1 2728   1.731   3.121  15.345 -0.4017 -0.3560  0.1827
  175MPD1    H6 2729   1.750   3.068  15.430  0.4402 -2.7440 -1.5011
  175MPD1    H7 2730   1.670   3.065  15.287 -0.4271 -0.0912 -0.0426
  176MPD1     C 2731   3.518   0.569  16.695 -0.3311  0.4972 -0.1258
  176MPD1    C1 2732   3.423   0.672  16.710  0.1565 -0.1386 -0.1972
  176MPD1    C2 2733   3.455   0.768  16.806  1.0721  0.0537 -0.1449
  176MPD1    C3 2734   3.571   0.751  16.887  0.5531  0.3031  0.1503
  176MPD1    C4 2735   3.655   0.651  16.869  0.2702 -0.1574 -0.1485
  176MPD1    C5 2736   3.629   0.560  16.767  0.5483  0.4763  0.1194
  176MPD1     H 2737   3.386   0.850  16.819 -0.9474 -1.6547 -0.0880
  176MPD1    H1 2738   3.749   0.645  16.922 -0.2651  1.5623  1.0007
  176MPD1    H2 2739   3.489   0.502  16.615  0.6628 -0.7025  0.5215
  176MPD1    H3 2740   3.696   0.480  16.739  1.6722  2.0345 -1.6721
  176MPD1     N 2741   3.601   0.862  16.974 -0.5968 -0.9912 -0.3798
  176MPD1    H5 2742   3.535   0.940  16.974  1.1165  0.4766 -0.4045
  176MPD1    N1 2743   3.308   0.677  16.627 -0.2952 -0.8171  0.1712
  176MPD1    H6 2744   3.267   0.587  16.600 -0.7297 -0.7954  0.7675
  176MPD1    H7 2745   3.233   0.737  16.662  1.2074  2.0788 -1.5883
  177MPD1     C 2746   2.175   4.729   8.837  0.5194  0.5890 -0.6147
  177MPD1    C1 2747   2.104   4.710   8.950 -0.1848  0.4448 -0.1853
  177MPD1    C2 2748   1.981   0.031   8.960  0.2854 -0.3657  0.1171
  177MPD1    C3 2749   1.918   0.099   8.856 -0.7960  0.3695  0.8808
  177MPD1    C4 2750   1.987   0.106   8.738  0.1958 -0.2775  0.1312
  177MPD1    C5 2751   2.113   0.054   8.725  0.0418 -0.2720  0.6390
  177MPD1     H 2752   1.929   0.021   9.054  0.1769  1.3481  0.2401
  177MPD1    H1 2753   1.947   0.156   8.650  0.5993 -0.8524 -0.3793
  177MPD1    H2 2754   2.275   4.690   8.824  0.4579 -0.0387  0.8357
  177MPD1    H3 2755   2.167   0.051   8.631 -0.7118 -1.0340  0.2300
  177MPD1     N 2756   1.787   0.148   8.876 -0.3364 -0.0481 -0.2485
  177MPD1    H5 2757   1.749   0.135   8.970  1.5430  1.9007  0.7684
  177MPD1    N1 2758   2.172   4.660   9.065  0.3938 -0.1282  0.4568
  177MPD1    H6 2759   2.245   4.590   9.053 -0.4012 -0.5701 -1.7558
  177MPD1    H7 2760   2.112   4.628   9.141  0.3294  1.5803  1.1361
  178MPD1     C 2761   4.375   2.074   0.216  0.3407  0.4772 -0.3940
  178MPD1    C1 2762   4.262   2.060   0.145  0.5987 -0.1978 -0.3322
  178MPD1    C2 2763   4.269   1.990   0.025  0.2498  0.1118 -0.0832
  178MPD1    C3 2764   4.390   1.975  17.692 -0.6342 -0.4679 -0.1800
  178MPD1    C4 2765   4.510   2.011   0.020 -0.6290  0.3605 -0.0816
  178MPD1    C5 2766   4.494   2.056   0.148 -0.6115 -0.8074 -0.4619
  178MPD1     H 2767   4.172   1.966  17.721  0.3702 -1.1513  0.3625
  178MPD1    H1 2768   4.608   2.012  17.713 -0.7477  0.4154 -0.3326
  178MPD1    H2 2769   4.377   2.112   0.318 -2.7409  0.1998 -0.2178
  178MPD1    H3 2770   4.582   2.085   0.204 -0.1227 -1.0047 -1.1216
  178MPD1     N 2771   4.396   1.930  17.558  0.2287 -0.1992 -0.6879
  178MPD1    H5 2772   4.491   1.928  17.522  0.7884  0.4969  0.7474
  178MPD1    N1 2773   4.143   2.081   0.218 -0.0685 -0.1319  0.1343
  178MPD1    H6 2774   4.150   2.167   0.272  1.4563 -1.5616  2.2273
  178MPD1    H7 2775   4.063   2.082   0.156 -0.2745  0.2600  0.4029
  179MPD1     C 2776   4.280   0.397  15.231  0.4191 -0.1924 -0.1265
  179MPD1    C1 2777   4.242   0.298  15.142  0.0717  0.0976  0.1497
  179MPD1    C2 2778   4.179   0.185  15.198  0.5200  0.3760  0.0290
  179MPD1    C3 2779   4.166   0.163  15.333  0.0583 -0.5246  0.7348
  179MPD1    C4 2780   4.216   0.254  15.425  0.0253  0.0275 -0.3367
  179MPD1    C5 2781   4.269   0.367  15.368 -0.7138  1.0367 -0.0952
  179MPD1     H 2782   4.139   0.109  15.130 -0.5484  2.6065 -1.8247
  179MPD1    H1 2783   4.199   0.246  15.532 -0.0592 -0.2830 -0.3765
  179MPD1    H2 2784   4.312   0.493  15.193  1.5935 -1.1311 -1.5371
  179MPD1    H3 2785   4.293   0.450  15.434 -2.1065  0.6760  0.8570
  179MPD1     N 2786   4.110   0.045  15.381  0.3380  0.0187  0.0211
  179MPD1    H5 2787   4.127   0.025  15.479  3.2115 -2.3826 -0.9777
  179MPD1    N1 2788   4.227   0.322  15.011 -0.0498 -0.1747  0.4110
  179MPD1    H6 2789   4.246   0.241  14.953  0.4901  1.5025 -1.7394
  179MPD1    H7 2790   4.310   0.378  14.994 -1.5804  0.8966 -3.5643
  180MPD1     C 2791   3.783   1.493  15.850 -0.1128  0.0224 -0.2269
  180MPD1    C1 2792   3.678   1.424  15.789  0.2308  0.0951 -0.2685
  180MPD1    C2 2793   3.678   1.413  15.658  0.2957  0.3512 -0.1721
  180MPD1    C3 2794   3.779   1.464  15.584  0.1058  0.3039  0.0527
  180MPD1    C4 2795   3.882   1.526  15.639  0.0535  0.4326 -0.5033
  180MPD1    C5 2796   3.882   1.548  15.773 -0.4440 -0.4889 -0.0955
  180MPD1     H 2797   3.592   1.365  15.612  0.8105 -2.2561  1.6117
  180MPD1    H1 2798   3.966   1.564  15.583 -0.0894  1.1526 -0.2340
  180MPD1    H2 2799   3.783   1.510  15.957 -3.3524  0.8079 -0.3445
  180MPD1    H3 2800   3.969   1.594  15.820 -0.2262 -1.9596  0.9229
  180MPD1     N 2801   3.762   1.443  15.445 -0.6691  0.0823 -0.0030
  180MPD1    H5 2802   3.680   1.388  15.422 -0.0774 -0.7761 -0.0416
  180MPD1    N1 2803   3.565   1.389  15.864 -0.5642 -0.7544  0.5496
  180MPD1    H6 2804   3.508   1.320  15.816  1.2384 -1.0504 -1.1432
  180MPD1    H7 2805   3.577   1.370  15.964  0.5882  1.1133  0.7640
  181MPD1     C 2806   0.669   2.422   9.919  0.3920  0.1398 -0.2804
  181MPD1    C1 2807   0.711   2.524  10.002  0.1308  0.3662  0.1644
  181MPD1    C2 2808   0.838   2.574   9.992  0.1547  0.8765  0.5508
  181MPD1    C3 2809   0.920   2.504   9.910  0.7401 -0.6674  0.2607
  181MPD1    C4 2810   0.878   2.406   9.825  0.2212  0.3126  0.1693
  181MPD1    C5 2811   0.752   2.360   9.827 -0.6313 -0.5402 -0.3325
  181MPD1     H 2812   0.862   2.655  10.060 -0.0934  0.7018  0.8445
  181MPD1    H1 2813   0.943   2.355   9.755  0.3114 -1.0153  1.2143
  181MPD1    H2 2814   0.569   2.380   9.925  0.7594 -0.5321  1.1521
  181MPD1    H3 2815   0.715   2.271   9.778 -0.5314 -0.9619  0.3572
  181MPD1     N 2816   1.060   2.536   9.897  0.1188 -0.0766  0.4605
  181MPD1    H5 2817   1.118   2.477   9.839  1.7608  2.7602 -0.7820
  181MPD1    N1 2818   0.616   2.586  10.085 -0.2143  0.4464  0.5733
  181MPD1    H6 2819   0.560   2.518  10.136 -0.4946 -0.5361 -1.0375
  181MPD1    H7 2820   0.654   2.656  10.148  0.7968  1.2646 -0.9423
  182MPD1     C 2821   1.188   2.894   0.981 -0.3437  0.1382  0.8688
  182MPD1    C1 2822   1.060   2.902   0.942 -0.2074  0.7436  0.1075
  182MPD1    C2 2823   1.011   2.790   0.875 -0.3183  0.3372  0.7497
  182MPD1    C3 2824   1.092   2.690   0.835 -0.8162  0.5019 -1.0537
  182MPD1    C4 2825   1.230   2.681   0.888  0.4078  0.2488  0.1886
  182MPD1    C5 2826   1.272   2.789   0.957  0.7133 -0.3591  0.0936
  182MPD1     H 2827   0.910   2.801   0.838  0.4004 -1.6616 -1.7914
  182MPD1    H1 2828   1.289   2.595   0.861 -0.1375  0.5284 -1.9182
  182MPD1    H2 2829   1.220   2.979   1.041  1.7814 -0.6026  0.7670
  182MPD1    H3 2830   1.374   2.793   0.993  1.7512  2.9665 -3.2811
  182MPD1     N 2831   1.045   2.577   0.770 -0.4551  0.3201  0.2207
  182MPD1    H5 2832   1.107   2.498   0.765  2.3529  2.5356 -0.1611
  182MPD1    N1 2833   0.970   2.989   1.005  0.0031  0.3052 -0.4419
  182MPD1    H6 2834   1.013   3.076   1.035  0.4312 -0.0492 -0.0218
  182MPD1    H7 2835   0.893   3.011   0.943 -1.0977  1.4755  1.3551
  183MPD1     C 2836   1.615   1.894   8.984 -0.0401 -0.2418  0.0083
  183MPD1    C1 2837   1.538   2.005   8.967 -0.1053  0.8573 -0.0349
  183MPD1    C2 2838   1.596   2.124   9.012 -0.4472  0.0061  0.1180
  183MPD1    C3 2839   1.724   2.125   9.077 -0.6812  0.3797 -0.1117
  183MPD1    C4 2840   1.789   2.003   9.110 -0.4307  0.1985 -0.2137
  183MPD1    C5 2841   1.732   1.891   9.054 -0.4843  0.1797  0.7948
  183MPD1     H 2842   1.555   2.223   8.997 -0.6682  0.1106  1.4009
  183MPD1    H1 2843   1.886   1.992   9.157 -0.4360 -1.6356 -0.6168
  183MPD1    H2 2844   1.589   1.794   8.951  0.8479 -0.3135 -0.4819
  183MPD1    H3 2845   1.787   1.799   9.066  1.1410  0.9487 -0.7085
  183MPD1     N 2846   1.763   2.252   9.128 -0.0178  0.4655  0.4690
  183MPD1    H5 2847   1.704   2.332   9.110  0.1850  0.0531 -2.0680
  183MPD1    N1 2848   1.429   2.006   8.876 -0.3380 -0.4537  0.2558
  183MPD1    H6 2849   1.390   1.914   8.856 -1.5481 -0.3330  2.0626
  183MPD1    H7 2850   1.351   2.058   8.916 -0.2507  1.5785 -2.2391
  184MPD1     C 2851   0.927   0.306  10.259  0.5874 -0.2690 -0.3165
  184MPD1    C1 2852   0.817   0.312  10.178 -1.1876 -0.0062 -0.1812
  184MPD1    C2 2853   0.837   0.305  10.044 -0.2908 -0.7817 -0.2701
  184MPD1    C3 2854   0.963   0.294   9.990  0.0446  0.1894  0.0883
  184MPD1    C4 2855   1.071   0.278  10.078  0.6616 -0.8125  0.3333
  184MPD1    C5 2856   1.043   0.278  10.205 -0.3282 -0.4185 -0.6710
  184MPD1     H 2857   0.748   0.299   9.983 -1.5115 -0.1068  1.4485
  184MPD1    H1 2858   1.173   0.260  10.046  1.3206  0.7054  1.5814
  184MPD1    H2 2859   0.900   0.316  10.364 -1.1851  1.6235 -0.9406
  184MPD1    H3 2860   1.133   0.262  10.263  0.4798  1.2255 -1.4679
  184MPD1     N 2861   0.988   0.311   9.859  0.0720 -0.1050 -0.3221
  184MPD1    H5 2862   1.079   0.288   9.821  1.2478  0.5908  2.0965
  184MPD1    N1 2863   0.686   0.321  10.231 -0.3269 -0.1645 -0.1405
  184MPD1    H6 2864   0.615   0.344  10.161 -3.4379 -2.8273  2.1646
  184MPD1    H7 2865   0.690   0.407  10.285 -0.7276  0.4190 -1.0442
  185MPD1     C 2866   0.421   0.822   9.201  0.6165  0.1500 -0.6472
  185MPD1    C1 2867   0.532   0.773   9.127 -0.2344  0.5505  0.3332
  185MPD1    C2 2868   0.633   0.699   9.192  0.5915 -1.0021  0.4804
  185MPD1    C3 2869   0.632   0.668   9.322 -0.1278 -0.3854 -0.0175
  185MPD1    C4 2870   0.528   0.726   9.398 -0.0301 -0.2880 -0.2239
  185MPD1    C5 2871   0.423   0.792   9.335  0.1361 -0.3320 -0.4518
  185MPD1     H 2872   0.717   0.660   9.135  0.0238  1.4854 -2.0348
  185MPD1    H1 2873   0.524   0.734   9.506  0.7509  0.0013 -0.2144
  185MPD1    H2 2874   0.341   0.864   9.142 -0.0910 -1.9449 -1.2065
  185MPD1    H3 2875   0.337   0.823   9.393  1.7566  1.2251  1.1278
  185MPD1     N 2876   0.733   0.604   9.394  0.2663 -0.6536 -0.5503
  185MPD1    H5 2877   0.716   0.591   9.493  0.4251 -0.8638 -0.5499
  185MPD1    N1 2878   0.538   0.787   8.987 -0.5135 -0.3989 -0.3448
  185MPD1    H6 2879   0.534   0.888   8.973  0.5150 -0.3177 -0.0808
  185MPD1    H7 2880   0.636   0.770   8.968 -0.6446 -0.9281 -0.5275
  186MPD1     C 2881   4.629   4.370  15.897 -0.0997 -0.2627  0.1790
  186MPD1    C1 2882   4.610   4.356  16.036  0.2556  0.0176  0.0602
  186MPD1    C2 2883   4.562   4.461  16.106 -0.6982  0.1063 -0.1958
  186MPD1    C3 2884   4.536   4.585  16.043  0.1346  0.4310 -0.2493
  186MPD1    C4 2885   4.555   4.597  15.909 -0.0112  0.3173  0.2986
  186MPD1    C5 2886   4.592   4.488  15.833 -0.5206 -0.0517 -0.0964
  186MPD1     H 2887   4.541   4.446  16.212 -0.1779 -1.0284 -0.2568
  186MPD1    H1 2888   4.525   4.692  15.866  0.4864  1.3790  2.2925
  186MPD1    H2 2889   4.660   4.288  15.833  2.5041  2.5269 -2.1400
  186MPD1    H3 2890   4.609   4.491  15.726 -0.5091 -0.8945 -0.1248
  186MPD1     N 2891   4.475   4.688  16.115  0.2405  0.2592 -0.4089
  186MPD1    H5 2892   4.463   0.043  16.068  0.0146  0.6954  0.4932
  186MPD1    N1 2893   4.640   4.234  16.099  0.1478  0.2472 -0.0056
  186MPD1    H6 2894   4.557   4.179  16.079 -1.2232  2.0622  0.6658
  186MPD1    H7 2895   4.651   4.253  16.199 -0.6024  1.9306 -0.2348
  187MPD1     C 2896   3.125   3.229  17.585 -0.5780  0.6178  0.1729
  187MPD1    C1 2897   3.047   3.117  17.629  0.8609  0.5493 -1.0303
  187MPD1    C2 2898   3.077   2.993  17.568  0.4273  0.0578 -0.5748
  187MPD1    C3 2899   3.176   2.981  17.471 -1.3167  0.2464 -0.1984
  187MPD1    C4 2900   3.254   3.092  17.445 -0.4716  0.2566  0.0653
  187MPD1    C5 2901   3.223   3.213  17.493  0.0981 -0.1146  0.6786
  187MPD1     H 2902   3.006   2.913  17.583  0.8143 -0.1605  0.0874
  187MPD1    H1 2903   3.323   3.084  17.362 -0.2403 -1.2205  0.4026
  187MPD1    H2 2904   3.105   3.327  17.626 -0.0732  1.3058 -1.2210
  187MPD1    H3 2905   3.285   3.296  17.459  0.0634 -0.0200  0.8429
  187MPD1     N 2906   3.195   2.871  17.380 -0.3577 -0.8376 -0.9172
  187MPD1    H5 2907   3.269   2.874  17.310  2.5733 -1.4268  2.1484
  187MPD1    N1 2908   2.951   3.142  17.725  0.6230  0.0338  0.2090
  187MPD1    H6 2909   2.924   3.057   0.036  2.2043 -1.1124 -0.8749
  187MPD1    H7 2910   2.984   3.213   0.051  2.7142  0.4076 -1.2723
  188MPD1     C 2911   3.677   1.818  10.304  0.3791 -0.2071 -0.1366
  188MPD1    C1 2912   3.636   1.840  10.172  0.1710 -0.6984  0.3464
  188MPD1    C2 2913   3.605   1.729  10.102  0.2862 -0.0015 -0.6424
  188MPD1    C3 2914   3.607   1.599  10.158 -0.0510 -0.4760 -0.1844
  188MPD1    C4 2915   3.634   1.586  10.294  0.3024 -0.3088 -0.0639
  188MPD1    C5 2916   3.669   1.693  10.366  0.5872  0.1783 -0.3261
  188MPD1     H 2917   3.585   1.743   9.996  3.2671  2.0420 -0.9341
  188MPD1    H1 2918   3.631   1.487  10.339 -1.3290  0.5158  1.6430
  188MPD1    H2 2919   3.700   1.903  10.366  0.9719 -2.1298  2.2793
  188MPD1    H3 2920   3.690   1.690  10.473 -0.0345  0.9687 -0.1761
  188MPD1     N 2921   3.574   1.481  10.086  0.1922 -0.4253 -0.0402
  188MPD1    H5 2922   3.599   1.394  10.131 -1.3779  1.0261  3.6272
  188MPD1    N1 2923   3.660   1.970  10.111  0.5886  0.3198  0.2324
  188MPD1    H6 2924   3.602   1.992  10.030 -0.4141  0.1302  0.9072
  188MPD1    H7 2925   3.647   2.040  10.184 -1.1513 -1.0143  1.1796
  189MPD1     C 2926   0.982   2.445  17.607  0.0651  0.4068  0.6549
  189MPD1    C1 2927   0.987   2.579  17.617  0.3412  0.2417 -0.3800
  189MPD1    C2 2928   0.881   2.634  17.687 -0.1393 -0.7141 -0.4228
  189MPD1    C3 2929   0.770   2.564  17.730 -0.0653 -0.4798 -0.0072
  189MPD1    C4 2930   0.763   2.435  17.701  0.3453 -0.3026  0.0354
  189MPD1    C5 2931   0.870   2.379  17.639 -0.4209  0.2509  0.4151
  189MPD1     H 2932   0.902   2.737  17.713 -0.3790 -0.2081 -2.2614
  189MPD1    H1 2933   0.677   2.376  17.732  0.3085  0.9586  2.3254
  189MPD1    H2 2934   1.053   2.383  17.553 -0.9886  0.1960 -0.5109
  189MPD1    H3 2935   0.852   2.274  17.622 -0.2681  0.7272 -2.6235
  189MPD1     N 2936   0.669   2.620   0.073 -0.2562  0.6009 -0.6232
  189MPD1    H5 2937   0.590   2.562   0.100 -0.7196  1.7612  0.5281
  189MPD1    N1 2938   1.103   2.651  17.583 -0.2338 -0.5172  0.1513
  189MPD1    H6 2939   1.080   2.741  17.543 -0.0468  0.4593  2.2632
  189MPD1    H7 2940   1.158   2.600  17.514  2.1188 -0.0711  1.7151
  190MPD1     C 2941   3.753   1.005  15.162  0.1262  0.0612  0.2641
  190MPD1    C1 2942   3.871   1.009  15.092  0.5666  0.1336 -0.0408
  190MPD1    C2 2943   3.983   1.070  15.154 -0.4660  0.1234 -0.0989
  190MPD1    C3 2944   3.977   1.103  15.286  0.0117  0.0230 -0.5713
  190MPD1    C4 2945   3.865   1.083  15.363  0.4644  0.5359  0.1448
  190MPD1    C5 2946   3.746   1.038  15.298  0.3777 -0.2826  0.0955
  190MPD1     H 2947   4.078   1.076  15.102  0.4704 -1.3255  1.4468
  190MPD1    H1 2948   3.848   1.126  15.461 -0.2730  0.5607  0.0023
  190MPD1    H2 2949   3.659   0.964  15.128 -0.2772  0.2509  1.1474
  190MPD1    H3 2950   3.650   1.009  15.339  0.0214 -1.1743 -1.3706
  190MPD1     N 2951   4.077   1.185  15.341 -0.3821 -0.2771  0.2400
  190MPD1    H5 2952   4.145   1.224  15.278 -0.8923 -0.6225 -0.5281
  190MPD1    N1 2953   3.888   0.955  14.962 -0.2331 -0.4785  0.2183
  190MPD1    H6 2954   3.821   0.968  14.886  0.5487  1.5600 -0.1270
  190MPD1    H7 2955   3.981   0.967  14.922  0.0872  0.5636  1.2865
  191MPD1     C 2956   3.417   3.000  13.024 -0.0391  0.2792 -0.2384
  191MPD1    C1 2957   3.412   3.097  12.928  0.0556 -0.2945  0.9301
  191MPD1    C2 2958   3.289   3.139  12.874  0.3973  0.4495  0.2365
  191MPD1    C3 2959   3.174   3.075  12.908  0.0846 -0.1257  0.5692
  191MPD1    C4 2960   3.180   2.974  13.004  0.3694 -0.0540 -0.2879
  191MPD1    C5 2961   3.302   2.939  13.052 -0.2726 -0.2495 -0.1585
  191MPD1     H 2962   3.301   3.216  12.799 -0.7923  1.1822  0.8045
  191MPD1    H1 2963   3.101   2.912  13.044  0.9427 -0.3063  0.4534
  191MPD1    H2 2964   3.505   2.974  13.081 -1.3533 -1.0775  1.1671
  191MPD1    H3 2965   3.305   2.861  13.127  0.7301 -0.6532 -0.6314
  191MPD1     N 2966   3.051   3.112  12.842 -0.2021 -0.1828 -0.2457
  191MPD1    H5 2967   3.062   3.187  12.775 -1.7479  0.0670 -0.2326
  191MPD1    N1 2968   3.528   3.158  12.883 -0.2255  0.0263 -0.0503
  191MPD1    H6 2969   3.518   3.177  12.784  3.8060 -0.8168 -0.6127
  191MPD1    H7 2970   3.608   3.096  12.895 -0.4251 -0.5422 -1.7567
  192MPD1     C 2971   2.094   3.326  12.826 -0.1712 -0.1041 -0.5437
  192MPD1    C1 2972   2.113   3.251  12.714  0.3078  0.3644 -0.1704
  192MPD1    C2 2973   2.238   3.197  12.692 -0.2306  0.2786  0.0442
  192MPD1    C3 2974   2.347   3.247  12.773  0.6702 -0.1288 -0.1796
  192MPD1    C4 2975   2.327   3.327  12.880 -0.2906 -0.2309 -0.5845
  192MPD1    C5 2976   2.196   3.359  12.903 -0.3452 -0.1246  0.0601
  192MPD1     H 2977   2.243   3.140  12.600 -0.2755  1.8610 -0.9391
  192MPD1    H1 2978   2.406   3.375  12.937 -2.1896  0.4580  1.4634
  192MPD1    H2 2979   1.996   3.367  12.847 -0.4544  0.1758 -2.4165
  192MPD1    H3 2980   2.180   3.422  12.990  1.1281 -0.3659  0.5211
  192MPD1     N 2981   2.481   3.214  12.744  0.7448 -0.0118  0.1821
  192MPD1    H5 2982   2.553   3.256  12.802 -1.7780  1.0244  2.5568
  192MPD1    N1 2983   2.006   3.226  12.627  0.6366 -0.6874  0.3440
  192MPD1    H6 2984   2.040   3.182  12.542  0.1255 -3.9277  1.8091
  192MPD1    H7 2985   1.966   3.314  12.596  1.5451 -1.1268 -2.0316
  193MPD1     C 2986   2.848   3.238  17.092 -0.7598 -0.6572 -0.4855
  193MPD1    C1 2987   2.899   3.275  16.970 -0.3172  0.6013  0.3853
  193MPD1    C2 2988   3.028   3.332  16.958 -0.3560  0.2042 -0.2729
  193MPD1    C3 2989   3.093   3.366  17.074  0.4684  0.3599 -0.6286
  193MPD1    C4 2990   3.041   3.334  17.195 -0.2959 -0.3456  0.1339
  193MPD1    C5 2991   2.919   3.273  17.202  0.7277  0.5829 -0.1569
  193MPD1     H 2992   3.073   3.354  16.862 -0.4228 -2.7019 -0.9685
  193MPD1    H1 2993   3.098   3.353  17.285  0.3178  0.4816 -0.4333
  193MPD1    H2 2994   2.759   3.176  17.083  0.6511 -2.5348 -1.5025
  193MPD1    H3 2995   2.901   3.243  17.305 -1.0964  1.3916 -0.2429
  193MPD1     N 2996   3.211   3.455  17.087 -0.1026  0.6116 -0.3215
  193MPD1    H5 2997   3.238   3.479  17.182 -0.1655 -2.0381  0.3548
  193MPD1    N1 2998   2.832   3.224  16.857 -0.0217  0.7865 -0.0135
  193MPD1    H6 2999   2.734   3.199  16.864  0.4308 -1.2012 -0.7508
  193MPD1    H7 3000   2.860   3.255  16.764  1.1330 -0.2625 -0.0249
  194MPD1     C 3001   1.113   0.925  16.493 -0.0833 -0.2821 -0.0288
  194MPD1    C1 3002   1.003   0.841  16.495 -0.5764  0.3062  0.0931
  194MPD1    C2 3003   1.026   0.699  16.515  0.2105 -0.8257 -0.1643
  194MPD1    C3 3004   1.151   0.655  16.557 -0.1796 -0.5247 -0.3452
  194MPD1    C4 3005   1.253   0.748  16.561  0.6676  0.3549 -0.2665
  194MPD1    C5 3006   1.237   0.882  16.535 -0.4983  0.9276 -0.0968
  194MPD1     H 3007   0.939   0.635  16.508 -1.9712  2.0021  1.2955
  194MPD1    H1 3008   1.353   0.716  16.588  0.2223 -0.3563  0.5424
  194MPD1    H2 3009   1.112   1.032  16.477 -0.4050 -0.0446  1.5451
  194MPD1    H3 3010   1.320   0.951  16.544 -0.1719  0.5209 -0.0326
  194MPD1     N 3011   1.175   0.532  16.608  0.4798 -0.6828 -0.2593
  194MPD1    H5 3012   1.265   0.508  16.647 -0.2186 -1.8533  0.6630
  194MPD1    N1 3013   0.870   0.887  16.469  0.4676 -0.5489  0.0016
  194MPD1    H6 3014   0.796   0.836  16.519 -1.1894 -0.2321 -2.1360
  194MPD1    H7 3015   0.844   0.985  16.481 -1.4099 -0.9549 -0.7189
  195MPD1     C 3016   3.541   2.219   0.967  0.6907  0.1914 -0.5163
  195MPD1    C1 3017   3.585   2.093   0.991 -0.6103 -0.0008 -0.2482
  195MPD1    C2 3018   3.595   2.009   0.872  0.3342  0.0291 -0.0618
  195MPD1    C3 3019   3.568   2.062   0.742 -0.0197 -0.0319  0.4420
  195MPD1    C4 3020   3.511   2.182   0.735  0.1685  0.2225  0.3960
  195MPD1    C5 3021   3.491   2.260   0.847  0.0015  0.2258 -0.0981
  195MPD1     H 3022   3.634   1.909   0.884 -1.7597 -0.5465  2.0183
  195MPD1    H1 3023   3.481   2.221   0.639 -0.1576  1.3872  0.9709
  195MPD1    H2 3024   3.521   2.282   1.053 -1.1467 -2.8734  1.2975
  195MPD1    H3 3025   3.456   2.359   0.823  0.2096 -0.0838 -1.7367
  195MPD1     N 3026   3.565   1.982   0.626  0.1709  0.5855 -0.5962
  195MPD1    H5 3027   3.549   2.029   0.538 -0.8144  1.8469  0.2656
  195MPD1    N1 3028   3.623   2.059   1.124  0.1301  0.7631  0.5642
  195MPD1    H6 3029   3.586   2.121   1.196 -2.5760 -0.2852  0.0791
  195MPD1    H7 3030   3.596   1.966   1.156  1.8518 -0.2539 -0.9737
  196MPD1     C 3031   2.392   1.878   0.637 -0.4137  0.5976 -0.4826
  196MPD1    C1 3032   2.512   1.903   0.699 -0.3043  0.2458  0.6112
  196MPD1    C2 3033   2.518   1.958   0.825  0.0048 -0.0298 -0.1651
  196MPD1    C3 3034   2.402   1.964   0.901 -0.6786 -0.2087  0.3708
  196MPD1    C4 3035   2.273   1.959   0.837  0.4543  0.7201 -0.0540
  196MPD1    C5 3036   2.273   1.918   0.705  0.3880  0.2244  1.1871
  196MPD1     H 3037   2.617   1.984   0.860 -0.3612 -1.0410  1.5680
  196MPD1    H1 3038   2.184   1.980   0.895  0.9287  1.7577  0.3085
  196MPD1    H2 3039   2.379   1.840   0.536  2.4886  0.0555 -0.6357
  196MPD1    H3 3040   2.179   1.897   0.656  1.6503  0.0254 -1.2026
  196MPD1     N 3041   2.398   1.969   1.045  0.3156 -0.4045 -0.4501
  196MPD1    H5 3042   2.312   1.982   1.096  0.6136  0.8232 -0.2777
  196MPD1    N1 3043   2.626   1.916   0.621 -0.0956 -0.0894  1.0031
  196MPD1    H6 3044   2.708   1.901   0.680 -1.4124 -0.0564  2.8332
  196MPD1    H7 3045   2.623   1.846   0.547 -0.8990  0.7899  0.2177
  197MPD1     C 3046   1.867   3.625  17.472  0.2604  0.2654 -0.3346
  197MPD1    C1 3047   1.949   3.719  17.525 -0.4465  1.0146  0.7896
  197MPD1    C2 3048   1.986   3.820  17.441 -0.4461 -0.5280 -0.1489
  197MPD1    C3 3049   1.968   3.814  17.304 -0.1379  0.6478 -0.6414
  197MPD1    C4 3050   1.884   3.709  17.256 -0.3794 -0.3615 -0.2338
  197MPD1    C5 3051   1.836   3.617  17.340  0.5836 -0.1193  0.0145
  197MPD1     H 3052   2.039   3.904  17.486  0.3204 -0.9262 -0.3209
  197MPD1    H1 3053   1.862   3.701  17.150 -0.9397  0.9974 -0.2198
  197MPD1    H2 3054   1.829   3.541  17.529  1.7536  0.6279  1.1917
  197MPD1    H3 3055   1.781   3.533  17.301  0.0855  1.1445 -2.0338
  197MPD1     N 3056   2.011   3.914  17.215 -0.0683 -0.5200 -1.5528
  197MPD1    H5 3057   2.002   3.901  17.115  1.0162  0.7492 -1.8213
  197MPD1    N1 3058   1.973   3.728  17.662  0.4412 -0.0220 -0.2340
  197MPD1    H6 3059   1.975   3.632  17.696 -1.6648 -0.0124 -0.0760
  197MPD1    H7 3060   2.056   3.779  17.692  0.7349  0.2215 -1.4542
  198MPD1     C 3061   3.326   2.597  15.879 -0.2733  0.9014  0.4477
  198MPD1    C1 3062   3.351   2.652  15.998  0.4513 -0.2115  0.1209
  198MPD1    C2 3063   3.464   2.730  16.014 -0.1430 -0.4097  0.1026
  198MPD1    C3 3064   3.548   2.756  15.901 -0.0765  0.4469  0.5797
  198MPD1    C4 3065   3.519   2.695  15.786  0.5219 -0.2046  0.0928
  198MPD1    C5 3066   3.403   2.626  15.773 -0.0682  0.1612  0.3483
  198MPD1     H 3067   3.484   2.777  16.110 -1.1276 -0.2489  0.2304
  198MPD1    H1 3068   3.584   2.696  15.698  0.2411 -1.5452 -0.1340
  198MPD1    H2 3069   3.245   2.527  15.860  2.1906 -1.4809 -1.3495
  198MPD1    H3 3070   3.381   2.579  15.678 -0.2397  0.1428  0.3966
  198MPD1     N 3071   3.661   2.833  15.929  0.4868 -0.0167 -0.7075
  198MPD1    H5 3072   3.676   2.863  16.025  0.9340  0.6790 -0.9900
  198MPD1    N1 3073   3.268   2.622  16.110  0.9571  0.1784 -0.0192
  198MPD1    H6 3074   3.264   2.688  16.187  0.1537 -0.4859  0.5147
  198MPD1    H7 3075   3.173   2.599  16.081  1.0882  0.3122 -0.5548
  199MPD1     C 3076   1.706   3.930  10.830 -0.3328  0.2067 -0.4287
  199MPD1    C1 3077   1.582   3.878  10.861  0.1513  0.7345  0.5217
  199MPD1    C2 3078   1.484   3.877  10.761 -0.0830 -0.4425 -0.3614
  199MPD1    C3 3079   1.515   3.890  10.627 -0.5963 -0.6651  0.2236
  199MPD1    C4 3080   1.647   3.936  10.598  0.3396 -0.6690 -0.0582
  199MPD1    C5 3081   1.741   3.951  10.696 -0.3309  0.0344  0.2839
  199MPD1     H 3082   1.381   3.850  10.783  0.7484 -1.3855  2.3881
  199MPD1    H1 3083   1.670   3.958  10.494 -0.4640 -0.5100 -0.2060
  199MPD1    H2 3084   1.783   3.940  10.906  1.5544  0.1717 -2.3309
  199MPD1    H3 3085   1.838   3.990  10.667 -0.6832 -0.4126 -1.5272
  199MPD1     N 3086   1.424   3.881  10.515 -0.6316  0.0257 -0.5658
  199MPD1    H5 3087   1.462   3.887  10.421  0.7995  1.4038  0.0968
  199MPD1    N1 3088   1.555   3.863  10.998 -0.1166 -0.0944  0.0965
  199MPD1    H6 3089   1.484   3.792  11.016 -0.9190  0.8905  0.7959
  199MPD1    H7 3090   1.641   3.845  11.048 -0.5766  1.8993  1.5818
  200MPD1     C 3091   4.630   3.474  14.964 -0.3972  0.5702  0.4154
  200MPD1    C1 3092   4.632   3.444  14.829 -0.2764  0.0610 -0.0268
  200MPD1    C2 3093   0.004   3.488  14.750  0.3179  0.5994  0.1068
  200MPD1    C3 3094   0.097   3.571  14.809 -0.7497 -0.3305 -0.4549
  200MPD1    C4 3095   0.102   3.582  14.946 -0.4912 -0.3210  0.2247
  200MPD1    C5 3096   0.002   3.538  15.021  0.0070  0.1501 -0.2167
  200MPD1     H 3097   0.005   3.488  14.642 -0.1257  2.4482  0.0909
  200MPD1    H1 3098   0.182   3.631  15.000 -0.7783  0.1257  0.2392
  200MPD1    H2 3099   4.541   3.452  15.021 -0.8876  2.9243  0.5379
  200MPD1    H3 3100   0.004   3.570  15.125 -0.6543  1.1396 -0.5022
  200MPD1     N 3101   0.210   3.622  14.737  0.3580 -0.0036  0.4365
  200MPD1    H5 3102   0.222   3.575  14.648  0.5873  1.0378 -0.0769
  200MPD1    N1 3103   4.505   3.392  14.772  0.1302  0.2483  0.5970
  200MPD1    H6 3104   4.513   3.344  14.682  0.2082 -0.2229  0.8521
  200MPD1    H7 3105   4.441   3.333  14.825 -0.2624 -0.9703 -1.2209
  201MPD1     C 3106   2.167   2.455  12.890 -0.2475 -0.0382  0.5046
  201MPD1    C1 3107   2.149   2.322  12.840 -0.7547  0.6074  0.2985
  201MPD1    C2 3108   2.251   2.230  12.858  0.0272 -0.2930  0.4241
  201MPD1    C3 3109   2.363   2.250  12.927  0.3958 -0.0610  0.4055
  201MPD1    C4 3110   2.389   2.385  12.959  0.7263 -0.0369  0.3597
  201MPD1    C5 3111   2.291   2.480  12.937  0.0903  0.3519 -0.5502
  201MPD1     H 3112   2.236   2.127  12.826  0.3430  0.2376 -1.4729
  201MPD1    H1 3113   2.481   2.413  13.008 -0.2655  2.7625  0.6393
  201MPD1    H2 3114   2.096   2.536  12.876 -0.6901 -0.9919 -2.7643
  201MPD1    H3 3115   2.322   2.582  12.955  0.7188  0.2076 -0.7968
  201MPD1     N 3116   2.460   2.146  12.943  0.3358  0.7022  0.5691
  201MPD1    H5 3117   2.433   2.056  12.905 -0.6863  1.0088  0.5737
  201MPD1    N1 3118   2.025   2.290  12.799 -0.3553 -0.4985  0.2046
  201MPD1    H6 3119   1.967   2.370  12.773  0.3363  0.2203  0.8530
  201MPD1    H7 3120   2.015   2.210  12.738 -2.4142  0.0325 -0.1495
  202MPD1     C 3121   2.894   1.758   8.748  0.3789 -0.5046  0.5292
  202MPD1    C1 3122   2.823   1.871   8.778  0.1074  0.1857 -0.9448
  202MPD1    C2 3123   2.811   1.910   8.910 -0.8149 -0.0366  0.7715
  202MPD1    C3 3124   2.868   1.834   9.009 -0.5770 -0.2879 -0.5944
  202MPD1    C4 3125   2.935   1.723   8.972 -0.9660  0.6632  0.1474
  202MPD1    C5 3126   2.943   1.681   8.844 -0.2553 -0.8171  1.2318
  202MPD1     H 3127   2.776   2.011   8.931 -0.6642  0.5372 -1.7018
  202MPD1    H1 3128   2.965   1.649   9.045 -0.5198 -1.9302 -2.6517
  202MPD1    H2 3129   2.907   1.728   8.645  0.1605  0.8513  0.1049
  202MPD1    H3 3130   2.997   1.591   8.818 -1.8062 -2.0557  2.2853
  202MPD1     N 3131   2.856   1.863   9.151  0.1714 -0.3973 -0.2272
  202MPD1    H5 3132   2.903   1.803   9.218  1.2899 -0.1969 -0.8251
  202MPD1    N1 3133   2.827   1.963   8.669  0.3698  0.0014  0.8793
  202MPD1    H6 3134   2.770   2.045   8.690  0.1646  0.2572 -0.6781
  202MPD1    H7 3135   2.796   1.921   8.582 -0.5118  2.0147  0.2136
  203MPD1     C 3136   0.793   2.682  11.610  0.1750  0.5261  0.3441
  203MPD1    C1 3137   0.863   2.589  11.545 -0.2282  0.3559 -0.3084
  203MPD1    C2 3138   0.932   2.493  11.627  0.2057  0.5210  0.3362
  203MPD1    C3 3139   0.941   2.502  11.762  0.3890  0.0718  0.2120
  203MPD1    C4 3140   0.880   2.607  11.818 -0.1825  0.2905  0.0005
  203MPD1    C5 3141   0.813   2.702  11.746 -0.0614 -0.6193 -0.3438
  203MPD1     H 3142   0.981   2.402  11.592  0.7576 -0.1259  2.7736
  203MPD1    H1 3143   0.888   2.622  11.925  1.3567  5.8666 -0.8997
  203MPD1    H2 3144   0.749   2.767  11.559 -0.5266  1.0042  1.7616
  203MPD1    H3 3145   0.766   2.785  11.799 -0.3172 -1.4134  0.6789
  203MPD1     N 3146   1.001   2.401  11.840  0.0143 -0.2990 -0.3333
  203MPD1    H5 3147   1.033   2.323  11.784 -0.8768 -0.9172  0.0109
  203MPD1    N1 3148   0.850   2.563  11.404  0.0184  0.0203 -0.0498
  203MPD1    H6 3149   0.940   2.538  11.364 -0.1476 -1.1978  0.3420
  203MPD1    H7 3150   0.806   2.640  11.353  1.6638  1.0805  0.1270
  204MPD1     C 3151   0.663   3.502  17.638  0.4152  0.2401  0.2551
  204MPD1    C1 3152   0.713   3.580  17.538  0.1952  0.0928 -0.1188
  204MPD1    C2 3153   0.792   3.523  17.436 -0.4004 -0.3302 -0.2065
  204MPD1    C3 3154   0.813   3.396  17.438 -0.3398  0.7534 -0.0560
  204MPD1    C4 3155   0.759   3.313  17.538 -0.4493  0.0619 -0.1113
  204MPD1    C5 3156   0.682   3.369  17.636  0.4099  0.0170  0.5798
  204MPD1     H 3157   0.832   3.583  17.355  0.3921  0.0769  0.4963
  204MPD1    H1 3158   0.775   3.206  17.536 -0.9956 -0.0183 -0.1413
  204MPD1    H2 3159   0.613   3.541  17.727  0.0737  4.5135 -1.7936
  204MPD1    H3 3160   0.640   3.308  17.715 -0.7700  1.2683  0.9108
  204MPD1     N 3161   0.868   3.342  17.322 -0.0819 -0.2392 -0.1034
  204MPD1    H5 3162   0.869   3.410  17.247  2.8037 -0.9547 -0.7193
  204MPD1    N1 3163   0.717   3.720  17.551 -0.0406 -0.0074  0.4296
  204MPD1    H6 3164   0.638   3.756  17.603  0.2401  0.2108  0.7099
  204MPD1    H7 3165   0.701   3.768  17.463 -1.1388  0.2184  0.7643
  205MPD1     C 3166   1.304   1.873  16.006 -0.0690  0.1319  0.0423
  205MPD1    C1 3167   1.307   2.006  16.021  0.3515  0.2389 -0.2312
  205MPD1    C2 3168   1.338   2.053  16.148 -0.3092 -0.1098  0.3781
  205MPD1    C3 3169   1.376   1.973  16.252  0.8346  0.5657  0.8709
  205MPD1    C4 3170   1.375   1.837  16.226  0.7017  0.6222 -0.8100
  205MPD1    C5 3171   1.338   1.787  16.106  0.6335 -0.3954 -0.3671
  205MPD1     H 3172   1.338   2.160  16.158 -1.1251  0.0042 -0.8254
  205MPD1    H1 3173   1.408   1.761  16.296 -0.0223 -0.2012 -1.3667
  205MPD1    H2 3174   1.275   1.832  15.910  0.0953  1.0788 -0.4115
  205MPD1    H3 3175   1.334   1.680  16.087 -0.0438 -0.4298 -0.0413
  205MPD1     N 3176   1.415   2.021  16.380  0.1929  0.0289  0.5589
  205MPD1    H5 3177   1.421   1.952  16.455 -0.5848  0.3001  0.8678
  205MPD1    N1 3178   1.263   2.089  15.915 -0.1029  0.4787  0.1695
  205MPD1    H6 3179   1.273   2.040  15.826  1.0873 -0.8566  1.0455
  205MPD1    H7 3180   1.313   2.177  15.907 -0.2109  0.5945  0.8029
  206MPD1     C 3181   1.849   1.055  16.435  0.8507  0.6035  0.2789
  206MPD1    C1 3182   1.778   0.949  16.481 -0.5288  0.3479  0.2676
  206MPD1    C2 3183   1.673   0.900  16.410 -0.2549 -0.6131 -0.0200
  206MPD1    C3 3184   1.647   0.946  16.283 -0.3846 -0.1720  0.5724
  206MPD1    C4 3185   1.725   1.038  16.223  0.8768  0.2504 -0.0317
  206MPD1    C5 3186   1.820   1.099  16.303 -0.2436  0.3064 -0.1109
  206MPD1     H 3187   1.612   0.826  16.462 -0.6036  0.0841  0.5576
  206MPD1    H1 3188   1.712   1.080  16.124 -0.9813 -0.9636 -0.2951
  206MPD1    H2 3189   1.931   1.102  16.489 -0.0196  0.5297  1.6825
  206MPD1    H3 3190   1.869   1.185  16.257  1.5115 -0.9145 -0.5106
  206MPD1     N 3191   1.531   0.909  16.207  0.2821  0.1045  0.6075
  206MPD1    H5 3192   1.502   0.970  16.131  1.1573  0.1667  0.3313
  206MPD1    N1 3193   1.798   0.913  16.612  0.2242 -0.2314  0.2268
  206MPD1    H6 3194   1.792   0.812  16.609  2.1744 -0.3538  0.7363
  206MPD1    H7 3195   1.896   0.932  16.630 -0.1969  0.3332  1.9360
  207MPD1     C 3196   2.539   2.884   9.499 -0.7310 -0.0568  0.3976
  207MPD1    C1 3197   2.557   3.020   9.507 -1.2039 -0.4689  0.4252
  207MPD1    C2 3198   2.677   3.071   9.561  0.3176  0.3551  0.5200
  207MPD1    C3 3199   2.770   2.986   9.611 -0.0026  0.3744  0.2152
  207MPD1    C4 3200   2.745   2.857   9.605 -0.4444 -0.3281  0.0005
  207MPD1    C5 3201   2.634   2.804   9.550  0.0100 -0.0269  0.4664
  207MPD1     H 3202   2.696   3.178   9.554 -0.0470  0.4047  0.3037
  207MPD1    H1 3203   2.811   2.780   9.644 -2.3060 -1.3902  1.0512
  207MPD1    H2 3204   2.450   2.850   9.447  1.9944 -1.4743 -3.3660
  207MPD1    H3 3205   2.622   2.696   9.547  0.5825 -0.1059  0.9999
  207MPD1     N 3206   2.890   3.033   9.669 -0.1481 -0.0440 -0.2133
  207MPD1    H5 3207   2.954   2.956   9.682 -0.0991 -0.1157 -0.9071
  207MPD1    N1 3208   2.467   3.107   9.441  0.2307 -0.2422 -0.3980
  207MPD1    H6 3209   2.373   3.069   9.431  0.1143  0.2319 -1.1023
  207MPD1    H7 3210   2.462   3.201   9.480  3.9958 -0.1345 -0.2358
  208MPD1     C 3211   1.820   2.603   0.690 -0.0957 -1.0089  0.5873
  208MPD1    C1 3212   1.687   2.576   0.657  0.0182  0.4114 -0.0310
  208MPD1    C2 3213   1.667   2.479   0.563  0.0766  0.2923 -0.0651
  208MPD1    C3 3214   1.759   2.433   0.475  0.6376  0.9677 -0.3548
  208MPD1    C4 3215   1.890   2.468   0.500 -0.8111 -0.0389  0.1301
  208MPD1    C5 3216   1.917   2.545   0.609  0.0650  0.1841 -0.1210
  208MPD1     H 3217   1.565   2.441   0.556  0.0157  0.6151 -0.9799
  208MPD1    H1 3218   1.976   2.423   0.453 -2.0465 -0.3905 -1.8092
  208MPD1    H2 3219   1.841   2.668   0.774 -1.6762  1.7004 -1.1068
  208MPD1    H3 3220   2.022   2.555   0.633 -0.4062  0.1113  1.9753
  208MPD1     N 3221   1.711   2.350   0.372  0.5282  0.0823 -0.6575
  208MPD1    H5 3222   1.614   2.323   0.384  0.9381 -1.0411  0.1304
  208MPD1    N1 3223   1.578   2.626   0.727 -0.1946 -0.0611 -0.0264
  208MPD1    H6 3224   1.493   2.623   0.671 -0.5558 -0.4144  0.5433
  208MPD1    H7 3225   1.595   2.722   0.758  1.4660 -0.0479 -0.9763
  209MPD1     C 3226   3.701   2.131  11.156  0.1611 -0.3542  0.0125
  209MPD1    C1 3227   3.733   2.255  11.191  0.0767  1.0714  0.0073
  209MPD1    C2 3228   3.693   2.360  11.111 -0.4262  0.1833 -0.5268
  209MPD1    C3 3229   3.609   2.345  11.003  0.0932 -0.7440  0.0355
  209MPD1    C4 3230   3.562   2.220  10.983 -0.3916 -0.0994 -0.1436
  209MPD1    C5 3231   3.613   2.117  11.056  0.1949  0.0182 -0.8266
  209MPD1     H 3232   3.742   2.455  11.129  2.2818 -1.0283 -1.4905
  209MPD1    H1 3233   3.493   2.187  10.906  1.4129  0.2583 -1.8996
  209MPD1    H2 3234   3.725   2.044  11.215 -2.5702  0.2361  2.0387
  209MPD1    H3 3235   3.584   2.013  11.040  0.7636  0.0071 -1.7955
  209MPD1     N 3236   3.567   2.454  10.932  0.2486  0.1013 -0.1541
  209MPD1    H5 3237   3.578   2.544  10.977  3.0006 -1.1984  1.7272
  209MPD1    N1 3238   3.827   2.275  11.294 -0.4940 -0.6716 -0.2001
  209MPD1    H6 3239   3.845   2.368  11.332 -0.9357 -0.2969 -0.9170
  209MPD1    H7 3240   3.831   2.214  11.375  2.1170 -1.9249 -1.2637
  210MPD1     C 3241   3.425   3.440  10.951 -0.0555  0.2919  0.5407
  210MPD1    C1 3242   3.535   3.364  10.913  0.3479  0.2288  0.1910
  210MPD1    C2 3243   3.512   3.230  10.884  0.3962 -0.1504  0.4881
  210MPD1    C3 3244   3.387   3.173  10.891 -0.2293  0.1360  0.6975
  210MPD1    C4 3245   3.281   3.255  10.905 -0.6092  0.5828  0.4043
  210MPD1    C5 3246   3.304   3.382  10.952  0.0250 -0.1066 -0.3627
  210MPD1     H 3247   3.594   3.161  10.868  0.9473  0.3995  0.9116
  210MPD1    H1 3248   3.179   3.219  10.905 -0.1840 -0.6079  0.5688
  210MPD1    H2 3249   3.430   3.545  10.974 -0.0997  0.7390 -1.4308
  210MPD1    H3 3250   3.215   3.441  10.971  1.4067  0.9351  2.8386
  210MPD1     N 3251   3.367   3.041  10.851 -0.1903 -0.2757 -0.2269
  210MPD1    H5 3252   3.268   3.022  10.833 -0.5231  0.6517  0.6394
  210MPD1    N1 3253   3.663   3.411  10.926  0.0894 -0.6238 -0.0150
  210MPD1    H6 3254   3.732   3.365  10.867 -0.7220  0.8844 -2.1581
  210MPD1    H7 3255   3.672   3.512  10.920  1.0363 -0.7253 -0.2844
  211MPD1     C 3256   1.125   1.926  16.833  1.5722 -0.1110 -0.8128
  211MPD1    C1 3257   1.039   1.997  16.917 -0.2033 -0.1277 -0.2533
  211MPD1    C2 3258   0.987   2.113  16.864  0.2516  0.0341  0.2565
  211MPD1    C3 3259   1.004   2.156  16.735 -1.0439 -1.1373  0.0698
  211MPD1    C4 3260   1.079   2.086  16.649 -0.0262  0.1229  0.1182
  211MPD1    C5 3261   1.141   1.976  16.703  1.0816  0.3830  0.2781
  211MPD1     H 3262   0.921   2.170  16.928 -0.5480 -2.9686  2.0968
  211MPD1    H1 3263   1.083   2.103  16.542  1.0163  2.2988  0.4985
  211MPD1    H2 3264   1.186   1.843  16.866 -3.2317 -2.7623  1.4032
  211MPD1    H3 3265   1.209   1.920  16.639  1.1832 -0.2710  0.9588
  211MPD1     N 3266   0.954   2.285  16.702 -0.5081  0.2252 -0.2411
  211MPD1    H5 3267   0.913   2.345  16.773 -0.9274  0.5044 -0.7206
  211MPD1    N1 3268   1.020   1.968  17.049 -0.6061 -0.0752 -0.0971
  211MPD1    H6 3269   0.946   2.022  17.092 -0.4748  1.1323 -1.3929
  211MPD1    H7 3270   1.018   1.869  17.074  3.0846 -0.1499 -0.1099
  212MPD1     C 3271   0.428   1.199  16.388  0.2304 -0.1310  0.0126
  212MPD1    C1 3272   0.298   1.214  16.427 -0.7931  0.3292 -1.3734
  212MPD1    C2 3273   0.253   1.141  16.536  0.2841  0.5287 -0.1850
  212MPD1    C3 3274   0.342   1.045  16.598  0.9156 -0.5279  0.2285
  212MPD1    C4 3275   0.470   1.032  16.554  0.1342 -0.2508  0.1344
  212MPD1    C5 3276   0.512   1.108  16.447 -0.0382  0.4178 -0.1944
  212MPD1     H 3277   0.151   1.154  16.572  1.3567  0.3131  2.9208
  212MPD1    H1 3278   0.539   0.963  16.600  3.3929  2.3761 -0.7932
  212MPD1    H2 3279   0.457   1.245  16.294 -0.6716  0.7933  0.1738
  212MPD1    H3 3280   0.614   1.101  16.411  0.5076 -0.7021  1.5641
  212MPD1     N 3281   0.302   0.965  16.712  0.5254  0.5695  0.0990
  212MPD1    H5 3282   0.374   0.899  16.739  0.2907 -0.4467 -1.7347
  212MPD1    N1 3283   0.208   1.296  16.352 -0.2429 -0.2982 -0.8766
  212MPD1    H6 3284   0.122   1.318  16.402  1.2093 -1.4205  2.0616
  212MPD1    H7 3285   0.254   1.384  16.328 -0.9377  0.3118  0.0353
  213MPD1     C 3286   3.195   1.839  15.717 -0.6067 -0.1049 -0.1365
  213MPD1    C1 3287   3.262   1.759  15.628  0.5235 -0.3382 -0.1304
  213MPD1    C2 3288   3.185   1.695  15.533  0.0155 -0.3261  0.0334
  213MPD1    C3 3289   3.046   1.676  15.536  0.2898  0.5314  0.3598
  213MPD1    C4 3290   2.989   1.722  15.651  0.0274 -0.2949 -0.4803
  213MPD1    C5 3291   3.059   1.805  15.737  0.2109 -0.0353 -0.5386
  213MPD1     H 3292   3.237   1.657  15.445 -0.0436  0.2590 -0.2552
  213MPD1    H1 3293   2.882   1.713  15.665  0.0486 -1.1803 -0.9185
  213MPD1    H2 3294   3.255   1.884  15.794 -0.7324 -1.0707  0.5286
  213MPD1    H3 3295   3.001   1.843  15.821  1.9259  0.0387  0.6235
  213MPD1     N 3296   2.983   1.623  15.419 -0.1627  0.3074  0.1537
  213MPD1    H5 3297   3.040   1.608  15.336 -2.0211 -0.8181 -0.9201
  213MPD1    N1 3298   3.396   1.791  15.605  0.0485  0.8206 -0.0465
  213MPD1    H6 3299   3.455   1.726  15.553  0.0181  0.0344  0.9083
  213MPD1    H7 3300   3.446   1.830  15.684 -2.4056  0.3407  1.7246
  214MPD1     C 3301   2.517   0.837  15.093  0.2457 -1.0505  0.3854
  214MPD1    C1 3302   2.512   0.926  14.987 -0.2626 -0.0400  0.3959
  214MPD1    C2 3303   2.543   1.058  15.013 -0.9061 -0.4981  0.0379
  214MPD1    C3 3304   2.589   1.107  15.136  0.0723  0.5991 -0.0793
  214MPD1    C4 3305   2.589   1.012  15.240 -1.0746 -0.5125  0.1789
  214MPD1    C5 3306   2.550   0.883  15.217 -0.0461 -0.2079 -0.0242
  214MPD1     H 3307   2.534   1.114  14.921  1.5349 -0.9099 -0.4610
  214MPD1    H1 3308   2.626   1.045  15.336 -1.5205  1.0099 -0.1644
  214MPD1    H2 3309   2.514   0.730  15.079 -1.6410 -0.7122 -1.9558
  214MPD1    H3 3310   2.559   0.810  15.297 -0.2197  0.7447  0.8639
  214MPD1     N 3311   2.633   1.237  15.165 -0.3240 -0.5160 -0.4246
  214MPD1    H5 3312   2.676   1.253  15.255 -0.0518  2.1599 -1.0159
  214MPD1    N1 3313   2.492   0.873  14.859  0.2854  0.2093  0.5394
  214MPD1    H6 3314   2.475   0.939  14.784 -3.2361 -4.1181 -2.4187
  214MPD1    H7 3315   2.434   0.790  14.850 -0.8858  1.1901 -0.9614
  215MPD1     C 3316   2.269   2.224  11.130  0.3481 -0.8689 -0.0398
  215MPD1    C1 3317   2.371   2.271  11.209 -0.5070 -0.4723  0.7235
  215MPD1    C2 3318   2.496   2.282  11.147 -0.0959 -0.0844  0.3396
  215MPD1    C3 3319   2.518   2.281  11.009  0.1567  0.4235 -0.6350
  215MPD1    C4 3320   2.404   2.247  10.937  0.8898 -0.1812 -0.0827
  215MPD1    C5 3321   2.289   2.209  10.992 -1.2320  0.3322  0.4968
  215MPD1     H 3322   2.582   2.301  11.209  0.5881  1.8321 -1.1829
  215MPD1    H1 3323   2.399   2.252  10.829 -1.0221 -0.3985 -0.0169
  215MPD1    H2 3324   2.169   2.199  11.164 -0.3146  0.9036 -0.6951
  215MPD1    H3 3325   2.216   2.170  10.922 -1.1217 -0.4562  0.8171
  215MPD1     N 3326   2.643   2.320  10.956 -0.0135  0.5259  0.1801
  215MPD1    H5 3327   2.707   2.349  11.029  1.3748  0.8795 -1.1819
  215MPD1    N1 3328   2.359   2.262  11.345  0.2115 -0.5219 -0.2804
  215MPD1    H6 3329   2.268   2.286  11.382  1.5479  0.5997  2.3131
  215MPD1    H7 3330   2.429   2.314  11.398  0.4518 -0.3484 -0.7608
  216MPD1     C 3331   1.190   0.686  17.023 -0.2017 -0.3088  0.9702
  216MPD1    C1 3332   1.214   0.618  17.145 -0.3479  0.3494 -0.0243
  216MPD1    C2 3333   1.115   0.523  17.174 -0.0226  0.2695  0.3816
  216MPD1    C3 3334   1.001   0.501  17.101 -0.6995  0.1935  0.0588
  216MPD1    C4 3335   0.986   0.567  16.982 -1.0148  0.8236  0.7680
  216MPD1    C5 3336   1.078   0.661  16.949 -0.8341  0.3741  0.5640
  216MPD1     H 3337   1.124   0.473  17.270  0.8802 -1.3927 -0.5671
  216MPD1    H1 3338   0.907   0.545  16.911  0.1448 -0.5652 -0.0928
  216MPD1    H2 3339   1.267   0.747  16.978  0.4773 -0.8983  1.3272
  216MPD1    H3 3340   1.065   0.724  16.862  0.1180 -2.1586 -1.4267
  216MPD1     N 3341   0.911   0.406  17.155  0.0533 -0.3565  0.1722
  216MPD1    H5 3342   0.932   0.375  17.250 -1.3484 -1.5208  0.0905
  216MPD1    N1 3343   1.340   0.626  17.213 -0.3027 -0.1841 -0.1502
  216MPD1    H6 3344   1.315   0.594  17.307 -0.1678  1.1600  0.3528
  216MPD1    H7 3345   1.375   0.722  17.215 -0.5370 -0.1491  2.7779
  217MPD1     C 3346   1.447   1.123   8.323 -0.6414 -0.6135  0.0361
  217MPD1    C1 3347   1.546   1.042   8.376  0.2958  0.1471 -0.2424
  217MPD1    C2 3348   1.538   1.021   8.518  0.1950 -0.5633 -0.3147
  217MPD1    C3 3349   1.424   1.065   8.589  0.0492  0.2664 -0.6639
  217MPD1    C4 3350   1.324   1.132   8.527  0.2276  0.2002 -1.0370
  217MPD1    C5 3351   1.335   1.156   8.394 -0.7103 -0.5708 -0.3268
  217MPD1     H 3352   1.626   0.976   8.563  0.2662  0.8159  0.9219
  217MPD1    H1 3353   1.238   1.164   8.585  0.4240 -2.6326  0.8170
  217MPD1    H2 3354   1.450   1.155   8.219 -5.4450  0.6281  0.2971
  217MPD1    H3 3355   1.258   1.206   8.335  0.2171  1.4707  0.1666
  217MPD1     N 3356   1.407   1.046   8.734 -0.3101 -0.2234 -0.3109
  217MPD1    H5 3357   1.331   1.095   8.780  1.0634  1.5623  0.0364
  217MPD1    N1 3358   1.672   1.037   8.313  0.4185 -0.6262  0.0756
  217MPD1    H6 3359   1.663   1.031   8.212  1.4664  0.0346 -0.0612
  217MPD1    H7 3360   1.745   0.973   8.344  0.2973 -1.3144 -1.0637
  218MPD1     C 3361   2.491   2.739  12.461 -0.2783  0.0999  0.2892
  218MPD1    C1 3362   2.518   2.654  12.569  0.1401 -0.0107 -0.2758
  218MPD1    C2 3363   2.646   2.648  12.618  1.0304 -0.4340 -0.5865
  218MPD1    C3 3364   2.758   2.719  12.569  0.6910  0.0833 -0.3048
  218MPD1    C4 3365   2.725   2.800  12.462 -0.1326 -0.1282 -0.0326
  218MPD1    C5 3366   2.593   2.814  12.408 -0.1592 -0.2195  0.8749
  218MPD1     H 3367   2.662   2.585  12.705  0.2458  1.6755  1.0937
  218MPD1    H1 3368   2.802   2.861  12.416 -0.4410  0.4754  0.2468
  218MPD1    H2 3369   2.394   2.761  12.418 -1.2737  1.4515  3.2161
  218MPD1    H3 3370   2.571   2.901  12.347  0.8161 -0.0964  0.6847
  218MPD1     N 3371   2.886   2.699  12.618  0.6461 -0.1970  0.1675
  218MPD1    H5 3372   2.898   2.644  12.703 -0.1583  0.0387  0.4293
  218MPD1    N1 3373   2.406   2.598  12.630 -0.3849 -0.1258  0.4984
  218MPD1    H6 3374   2.432   2.516  12.684  0.2184 -1.0232 -1.1751
  218MPD1    H7 3375   2.331   2.580  12.563  1.5810 -1.3405 -1.3699
  219MPD1     C 3376   3.755   2.788  12.149  0.1662  0.0770 -0.5736
  219MPD1    C1 3377   3.794   2.828  12.280  0.3388  0.7637 -0.0564
  219MPD1    C2 3378   3.701   2.807  12.382  0.0152 -0.4994 -0.1031
  219MPD1    C3 3379   3.575   2.755  12.360  0.0963  0.2284 -0.3250
  219MPD1    C4 3380   3.536   2.725  12.230  0.1059  0.1349  0.4623
  219MPD1    C5 3381   3.629   2.738  12.127 -0.2271  0.9383  0.1806
  219MPD1     H 3382   3.737   2.828  12.482 -2.4359  0.2744  0.6189
  219MPD1    H1 3383   3.437   2.689  12.205 -0.6347  0.9068  2.2871
  219MPD1    H2 3384   3.820   2.822  12.069  1.5405  1.8004  1.2572
  219MPD1    H3 3385   3.600   2.729  12.023 -0.3097  1.2005  0.1802
  219MPD1     N 3386   3.478   2.745  12.459 -0.0833 -0.3729  0.0628
  219MPD1    H5 3387   3.390   2.696  12.445 -0.2019 -0.6765  1.8211
  219MPD1    N1 3388   3.920   2.882  12.301  0.4585 -0.3508  0.4945
  219MPD1    H6 3389   3.913   2.971  12.350 -0.1994  0.2596 -0.7182
  219MPD1    H7 3390   3.969   2.898  12.213  0.9465 -0.7984  0.6828
  220MPD1     C 3391   2.352   3.564   9.605 -0.3433 -0.1393 -0.4767
  220MPD1    C1 3392   2.454   3.533   9.689 -0.3433 -0.3201  0.1474
  220MPD1    C2 3393   2.462   3.405   9.739 -0.1029 -0.4815  0.4442
  220MPD1    C3 3394   2.363   3.308   9.712 -0.4463 -0.0039  0.1839
  220MPD1    C4 3395   2.263   3.336   9.624 -0.7945  0.3102  0.0543
  220MPD1    C5 3396   2.261   3.462   9.570 -0.0927 -0.0464 -0.3779
  220MPD1     H 3397   2.544   3.377   9.804  0.5498  0.3035 -0.0370
  220MPD1    H1 3398   2.188   3.266   9.591  1.0942 -1.5312 -0.3078
  220MPD1    H2 3399   2.332   3.666   9.574  0.6761  0.7577  1.8431
  220MPD1    H3 3400   2.188   3.487   9.494 -0.3139  2.4949  0.6550
  220MPD1     N 3401   2.385   3.179   9.766 -0.9697 -0.7005  0.4009
  220MPD1    H5 3402   2.464   3.165   9.828  1.6490 -0.2231 -2.8266
  220MPD1    N1 3403   2.528   3.638   9.740  0.2674  0.4410 -0.0965
  220MPD1    H6 3404   2.623   3.607   9.760  0.2498  0.5880  0.2306
  220MPD1    H7 3405   2.530   3.718   9.677  0.6900  0.9410  0.5515
  221MPD1     C 3406   0.324   2.166  16.204  0.0062  0.5609  0.5959
  221MPD1    C1 3407   0.337   2.141  16.335 -0.1541 -0.0730  0.3422
  221MPD1    C2 3408   0.440   2.055  16.376  0.0488 -0.4332  0.0176
  221MPD1    C3 3409   0.509   1.972  16.283 -0.0655  0.0456  0.0787
  221MPD1    C4 3410   0.484   1.989  16.150  0.3191  0.0522  0.1723
  221MPD1    C5 3411   0.395   2.088  16.112 -0.1749  0.4499  0.2528
  221MPD1     H 3412   0.461   2.046  16.482 -0.9911 -0.3291  0.2388
  221MPD1    H1 3413   0.533   1.920  16.083 -2.2528 -0.1995 -1.4468
  221MPD1    H2 3414   0.253   2.240  16.171 -3.4797 -3.2945 -0.5516
  221MPD1    H3 3415   0.378   2.105  16.006 -0.5671 -2.2291 -0.1041
  221MPD1     N 3416   0.608   1.881  16.319  0.4004  0.8520 -0.0180
  221MPD1    H5 3417   0.645   1.831  16.238 -0.4522 -0.0077  0.1165
  221MPD1    N1 3418   0.270   2.225  16.425  0.3494  0.2910 -0.1544
  221MPD1    H6 3419   0.258   2.181  16.516  2.7442  0.0375  0.0423
  221MPD1    H7 3420   0.180   2.263  16.396  0.7773  1.0755 -0.4255
  222MPD1     C 3421   3.466   1.836  17.210 -0.6545  0.1576  0.1126
  222MPD1    C1 3422   3.512   1.704  17.217 -0.3160 -0.2750  0.3304
  222MPD1    C2 3423   3.620   1.671  17.297 -0.4560  0.1880  0.2085
  222MPD1    C3 3424   3.681   1.769  17.373  0.2517 -0.1561 -0.6083
  222MPD1    C4 3425   3.645   1.905  17.361  0.2165 -0.4244 -0.3061
  222MPD1    C5 3426   3.533   1.927  17.285  1.0000  0.4268  0.3605
  222MPD1     H 3427   3.642   1.565  17.294  0.7493  0.4751 -0.9726
  222MPD1    H1 3428   3.688   1.979  17.428  0.9661 -2.7822  1.8515
  222MPD1    H2 3429   3.383   1.860  17.144 -1.7804 -1.1294  1.0460
  222MPD1    H3 3430   3.505   2.031  17.298 -2.1448 -0.2241 -1.1917
  222MPD1     N 3431   3.783   1.735  17.469  0.4727 -0.3465  0.0919
  222MPD1    H5 3432   3.819   1.806  17.532 -0.2106  1.0726 -1.1313
  222MPD1    N1 3433   3.431   1.607  17.157 -0.2592  0.3357 -0.7523
  222MPD1    H6 3434   3.360   1.632  17.089  0.0599  2.5608 -0.2720
  222MPD1    H7 3435   3.476   1.518  17.136 -1.2045 -0.3154 -0.0116
  223MPD1     C 3436   3.741   2.135   0.421  0.3982 -0.2406  0.5642
  223MPD1    C1 3437   3.693   2.138   0.293 -0.1082  0.0946  0.3757
  223MPD1    C2 3438   3.737   2.039   0.206 -0.2337  0.7309  0.6524
  223MPD1    C3 3439   3.825   1.936   0.247  0.2491 -0.0749 -0.5179
  223MPD1    C4 3440   3.865   1.936   0.382 -0.8434  0.5480  0.5122
  223MPD1    C5 3441   3.826   2.039   0.464  0.5891 -0.0909 -0.3310
  223MPD1     H 3442   3.697   2.039   0.105  2.0986 -2.8026 -0.2638
  223MPD1    H1 3443   3.930   1.861   0.426  0.6085  0.6566 -1.4352
  223MPD1    H2 3444   3.706   2.209   0.493 -0.6877 -1.2848  1.1216
  223MPD1    H3 3445   3.853   2.041   0.569 -1.0044 -2.5828  0.1217
  223MPD1     N 3446   3.868   1.846   0.149  0.4682  0.0701  0.2656
  223MPD1    H5 3447   3.838   1.863   0.054  3.4041  4.4724  0.1444
  223MPD1    N1 3448   3.589   2.229   0.251  0.2249  0.0968  0.3509
  223MPD1    H6 3449   3.591   2.318   0.302 -0.6666  0.5481 -0.4120
  223MPD1    H7 3450   3.589   2.238   0.150  0.7779 -1.9191  0.1833
  224MPD1     C 3451   1.184   1.628   8.843 -0.3447  0.2798  0.5743
  224MPD1    C1 3452   1.305   1.567   8.860  0.8165  0.1725  0.1850
  224MPD1    C2 3453   1.376   1.587   8.971  0.3786 -0.4996  0.0017
  224MPD1    C3 3454   1.335   1.682   9.070  0.3277  0.6280 -0.2430
  224MPD1    C4 3455   1.216   1.746   9.041 -0.1396 -0.1269  0.2229
  224MPD1    C5 3456   1.138   1.716   8.931 -0.0996 -0.8936  0.4340
  224MPD1     H 3457   1.461   1.522   8.989  0.8892 -0.0946 -0.9429
  224MPD1    H1 3458   1.169   1.820   9.104  1.9594  0.4477  1.1187
  224MPD1    H2 3459   1.131   1.604   8.751  1.9996 -1.2284 -0.4238
  224MPD1    H3 3460   1.044   1.769   8.918 -0.4450 -1.7160 -0.4849
  224MPD1     N 3461   1.406   1.710   9.185  0.0411 -0.0455  0.2652
  224MPD1    H5 3462   1.363   1.788   9.234 -0.7552  0.0793 -0.6372
  224MPD1    N1 3463   1.333   1.455   8.780 -0.0907 -0.3961  0.4010
  224MPD1    H6 3464   1.433   1.444   8.764  0.0688  1.5253  0.0563
  224MPD1    H7 3465   1.294   1.463   8.686  0.6633  2.6862  0.3319
  225MPD1     C 3466   3.056   3.207  11.678 -0.0004  0.6401  0.5720
  225MPD1    C1 3467   3.074   3.320  11.758 -0.4626 -0.5156  0.3507
  225MPD1    C2 3468   3.001   3.327  11.870 -0.4368 -0.5542 -0.1742
  225MPD1    C3 3469   2.900   3.239  11.895  0.1364  0.3470  0.1571
  225MPD1    C4 3470   2.890   3.122  11.817  0.5507 -0.5160  0.2907
  225MPD1    C5 3471   2.969   3.107  11.711  0.0716 -0.7145 -0.6955
  225MPD1     H 3472   3.019   3.405  11.943 -0.0431 -0.3039 -0.5407
  225MPD1    H1 3473   2.817   3.048  11.847  1.4778 -1.9388 -0.9732
  225MPD1    H2 3474   3.121   3.193  11.593  1.6733 -0.0968  1.9786
  225MPD1    H3 3475   2.958   3.019  11.647  0.5246  0.7472 -2.7859
  225MPD1     N 3476   2.806   3.253  12.002  0.4033  0.3162  0.1588
  225MPD1    H5 3477   2.752   3.172  12.031 -2.7131  1.3528 -2.7657
  225MPD1    N1 3478   3.181   3.405  11.736  0.0779 -0.3042  0.3668
  225MPD1    H6 3479   3.208   3.420  11.639 -0.4542 -0.5602  0.1773
  225MPD1    H7 3480   3.155   3.495  11.776  0.3927 -0.5383  1.1069
  226MPD1     C 3481   0.418   3.280  10.097  0.1116 -0.0288  0.0308
  226MPD1    C1 3482   0.461   3.152  10.082 -0.1225 -0.0835  0.2825
  226MPD1    C2 3483   0.588   3.136  10.033  0.5262  0.1594 -0.2280
  226MPD1    C3 3484   0.661   3.238   9.985 -0.0709  0.6115 -0.1245
  226MPD1    C4 3485   0.618   3.367  10.003 -0.1442  0.5541 -0.5791
  226MPD1    C5 3486   0.499   3.388  10.062  0.2956  0.6709 -0.4110
  226MPD1     H 3487   0.629   3.036  10.025 -0.1326 -0.1462  0.1773
  226MPD1    H1 3488   0.690   3.446   9.990  0.1974  0.1234 -1.2600
  226MPD1    H2 3489   0.322   3.298  10.143 -0.4597 -1.1074 -0.7340
  226MPD1    H3 3490   0.469   3.492  10.076  1.3105  0.7470  1.1583
  226MPD1     N 3491   0.787   3.200   9.939 -0.3538  0.1037  0.2207
  226MPD1    H5 3492   0.820   3.104   9.941 -0.3304  0.0982 -0.4944
  226MPD1    N1 3493   0.385   3.045  10.144  0.7469 -0.0039 -0.2622
  226MPD1    H6 3494   0.289   3.073  10.163 -0.2516 -2.7719 -1.2066
  226MPD1    H7 3495   0.387   2.951  10.106  1.3974  0.3700 -1.1415
  227MPD1     C 3496   1.680   3.694   9.833  0.5779  0.1452  0.4512
  227MPD1    C1 3497   1.603   3.690   9.942  0.5870  0.8721 -0.9102
  227MPD1    C2 3498   1.509   3.596   9.952  0.5154  0.2401  0.7593
  227MPD1    C3 3499   1.496   3.490   9.861  0.5216 -0.3361 -0.2085
  227MPD1    C4 3500   1.586   3.487   9.761 -0.5079  0.7321  0.1225
  227MPD1    C5 3501   1.673   3.593   9.743  0.3844  1.3279 -0.3202
  227MPD1     H 3502   1.449   3.605  10.042 -1.6222  0.0947 -0.6458
  227MPD1    H1 3503   1.575   3.420   9.676  0.7274 -0.1239  0.6467
  227MPD1    H2 3504   1.756   3.770   9.818 -0.8173  1.1651 -1.5266
  227MPD1    H3 3505   1.745   3.586   9.662 -0.1705  0.1362 -0.7148
  227MPD1     N 3506   1.390   3.399   9.875  0.1238  0.0030  0.2345
  227MPD1    H5 3507   1.329   3.416   9.954 -0.6869 -0.9036 -0.1997
  227MPD1    N1 3508   1.597   3.803  10.026 -0.0810  0.2339 -0.1363
  227MPD1    H6 3509   1.687   3.849  10.039  0.6437 -1.0995 -0.3835
  227MPD1    H7 3510   1.570   3.780  10.122  1.0654 -0.1232  0.0971
  228MPD1     C 3511   3.933   1.061  13.845  0.5966 -0.0618 -0.3404
  228MPD1    C1 3512   3.835   0.992  13.904 -0.0213  0.5882 -0.0646
  228MPD1    C2 3513   3.725   0.945  13.831 -0.3726  0.4206  0.0182
  228MPD1    C3 3514   3.716   0.966  13.697 -0.0493 -0.1554 -0.0952
  228MPD1    C4 3515   3.820   1.032  13.633  0.1238  0.3165  0.5885
  228MPD1    C5 3516   3.929   1.075  13.712  0.0318  0.0468 -0.3985
  228MPD1     H 3517   3.646   0.895  13.885  0.5169  1.2181  2.0811
  228MPD1    H1 3518   3.816   1.075  13.534  1.9595 -1.7896 -0.4020
  228MPD1    H2 3519   4.024   1.091  13.897  1.1181  2.0631 -2.4886
  228MPD1    H3 3520   4.006   1.131  13.660  0.7608 -2.3901 -1.9609
  228MPD1     N 3521   3.605   0.912  13.632  0.6947  0.3974  0.3536
  228MPD1    H5 3522   3.545   0.854  13.690 -0.9582  2.2419  0.4573
  228MPD1    N1 3523   3.843   0.975  14.043 -0.0483 -0.1158 -0.5316
  228MPD1    H6 3524   3.938   0.960  14.078 -0.9307  0.1467  1.9355
  228MPD1    H7 3525   3.795   0.889  14.071  0.4186  0.3756  1.7544
  229MPD1     C 3526   3.872   0.328  14.197 -0.4962  0.6488 -0.8365
  229MPD1    C1 3527   3.903   0.207  14.151  0.7728 -0.4088 -0.0632
  229MPD1    C2 3528   3.999   0.131  14.220 -0.0120 -0.1856  0.2257
  229MPD1    C3 3529   4.050   0.179  14.343 -0.3048 -1.0195 -0.6014
  229MPD1    C4 3530   3.995   0.293  14.399  0.1104  0.0925  0.3968
  229MPD1    C5 3531   3.915   0.370  14.322  0.2883 -0.2941  0.3439
  229MPD1     H 3532   4.038   0.044  14.168 -0.7255 -2.0797  2.8653
  229MPD1    H1 3533   4.020   0.334  14.496 -0.9834  0.3392  0.5669
  229MPD1    H2 3534   3.809   0.392  14.137 -0.2056  1.9331  0.2006
  229MPD1    H3 3535   3.878   0.463  14.364  2.3785  0.5736  0.2214
  229MPD1     N 3536   4.155   0.108  14.413 -0.3337  0.1271 -0.2236
  229MPD1    H5 3537   4.188   0.162  14.492 -0.7271 -1.2231  0.8719
  229MPD1    N1 3538   3.872   0.178  14.018 -0.5762  0.2672 -0.5068
  229MPD1    H6 3539   3.888   0.080  13.996 -3.5751 -0.1868 -0.5510
  229MPD1    H7 3540   3.783   0.211  13.983 -0.7805  0.9298  0.6405
  230MPD1     C 3541   4.602   0.084  15.279 -0.0312  0.0029  0.3075
  230MPD1    C1 3542   4.643   4.694  15.241 -1.1693  0.2009 -0.0727
  230MPD1    C2 3543   4.601   4.647  15.118  0.6785  0.3851 -0.0126
  230MPD1    C3 3544   4.545   0.002  15.026  0.5065 -0.1031 -0.1147
  230MPD1    C4 3545   4.521   0.131  15.058  0.3509 -0.1021 -0.2290
  230MPD1    C5 3546   4.550   0.171  15.185 -0.3475 -0.5829  0.1432
  230MPD1     H 3547   4.615   4.546  15.082  0.0658 -1.1333  3.9860
  230MPD1    H1 3548   4.491   0.213  14.994 -2.2881  0.9127  2.3445
  230MPD1    H2 3549   4.618   0.128  15.377  1.0564  0.1089  0.0796
  230MPD1    H3 3550   4.528   0.272  15.217 -0.7444 -0.0692 -1.8003
  230MPD1     N 3551   4.524   4.694  14.895 -0.4628  0.2258  0.1123
  230MPD1    H5 3552   4.556   4.601  14.872 -0.6744  0.1069  0.2977
  230MPD1    N1 3553   4.695   4.597  15.329  0.4954 -0.7727 -0.1346
  230MPD1    H6 3554   0.019   4.524  15.289  0.5408 -1.9019  2.0241
  230MPD1    H7 3555   0.001   4.622  15.419  1.8838  1.3991 -1.3604
  231MPD1     C 3556   1.990   1.202  15.575 -0.4020  0.1303  0.4390
  231MPD1    C1 3557   1.928   1.275  15.473 -0.3240 -0.4579  0.5788
  231MPD1    C2 3558   2.005   1.359  15.393 -0.6674 -0.9591 -0.4158
  231MPD1    C3 3559   2.142   1.364  15.400  0.5474 -0.4314 -0.6117
  231MPD1    C4 3560   2.202   1.287  15.490 -0.0251 -0.5178  0.3481
  231MPD1    C5 3561   2.131   1.204  15.581  0.3549  0.5382  0.1389
  231MPD1     H 3562   1.957   1.415  15.314  0.2008 -0.2441 -0.4366
  231MPD1    H1 3563   2.310   1.279  15.504  0.1585  0.1744 -0.6818
  231MPD1    H2 3564   1.940   1.130  15.639 -0.3728 -1.6990 -1.5880
  231MPD1    H3 3565   2.190   1.130  15.633  1.4290  0.6792 -0.8774
  231MPD1     N 3566   2.220   1.443  15.302 -0.0920 -0.3300  0.7152
  231MPD1    H5 3567   2.164   1.495  15.235  0.7978  0.0867  0.2781
  231MPD1    N1 3568   1.791   1.300  15.483 -0.0068  0.2942 -0.7680
  231MPD1    H6 3569   1.742   1.220  15.522  0.3029  0.4054 -0.1491
  231MPD1    H7 3570   1.753   1.322  15.391 -0.0181  1.0038 -0.5929
  232MPD1     C 3571   0.632   3.923   0.375  0.3537 -0.4811  0.3545
  232MPD1    C1 3572   0.631   3.852   0.488  0.0709  0.0870  0.7788
  232MPD1    C2 3573   0.512   3.846   0.558 -0.3738  0.1291  0.2821
  232MPD1    C3 3574   0.390   3.874   0.493 -0.2546 -0.2828 -0.3209
  232MPD1    C4 3575   0.391   3.944   0.367 -0.2574  0.7006 -0.2029
  232MPD1    C5 3576   0.517   3.972   0.318 -0.2623 -0.1793  0.2581
  232MPD1     H 3577   0.514   3.794   0.653  0.8504  1.3289  0.9208
  232MPD1    H1 3578   0.301   3.980   0.320 -0.6871 -1.2073 -0.8514
  232MPD1    H2 3579   0.727   3.940   0.327  0.0678 -1.8974 -0.7319
  232MPD1    H3 3580   0.519   4.031   0.228 -0.2025  0.4831  0.6925
  232MPD1     N 3581   0.276   3.840   0.563  0.2872  0.0213 -0.3014
  232MPD1    H5 3582   0.288   3.798   0.654  0.1973 -1.6637 -1.0697
  232MPD1    N1 3583   0.748   3.819   0.553  0.1986 -0.1631 -0.2803
  232MPD1    H6 3584   0.737   3.743   0.619  0.7036  1.0350  1.1778
  232MPD1    H7 3585   0.822   3.785   0.490  0.4346 -3.5250  1.8137
  233MPD1     C 3586   4.332   1.778   1.784  0.0374 -0.0329  0.2067
  233MPD1    C1 3587   4.417   1.707   1.699  0.2378  0.3083  0.2092
  233MPD1    C2 3588   4.515   1.783   1.633 -0.6216 -0.4495  0.1587
  233MPD1    C3 3589   4.515   1.926   1.628 -0.7338 -0.2005  0.4889
  233MPD1    C4 3590   4.435   1.991   1.716  0.0524 -0.4110  0.0454
  233MPD1    C5 3591   4.334   1.916   1.778 -0.5778 -0.0697  0.1739
  233MPD1     H 3592   4.589   1.731   1.574 -4.1281 -1.0928 -3.6478
  233MPD1    H1 3593   4.438   2.099   1.725 -0.4180 -0.2592 -1.5551
  233MPD1    H2 3594   4.263   1.733   1.854 -0.4797 -0.4373 -0.5587
  233MPD1    H3 3595   4.277   1.967   1.855  0.8978  1.1204  0.4746
  233MPD1     N 3596   4.607   2.003   1.551 -0.4101  0.2355 -0.0346
  233MPD1    H5 3597   4.600   2.104   1.548 -4.7527 -0.0156  0.8551
  233MPD1    N1 3598   4.419   1.570   1.706  0.0450  0.1328 -0.2155
  233MPD1    H6 3599   4.330   1.526   1.729 -0.0376 -0.5756 -1.9052
  233MPD1    H7 3600   4.446   1.530   1.617  0.0489 -2.6486  1.0268
  234MPD1     C 3601   2.645   0.509   9.050  0.3562 -0.0679  0.6896
  234MPD1    C1 3602   2.538   0.435   9.105 -0.4924  0.0769  0.7067
  234MPD1    C2 3603   2.453   0.493   9.202  0.0895  0.3457 -0.5559
  234MPD1    C3 3604   2.494   0.617   9.263  0.2577  0.0419  0.0435
  234MPD1    C4 3605   2.609   0.675   9.209  0.2253 -0.5157 -0.3413
  234MPD1    C5 3606   2.676   0.621   9.103  0.0637 -0.4542 -0.6322
  234MPD1     H 3607   2.356   0.447   9.222 -0.2821  1.6359  0.5682
  234MPD1    H1 3608   2.659   0.766   9.241 -2.4970  1.2020 -0.9234
  234MPD1    H2 3609   2.710   0.473   8.970  0.9865  1.0074  0.7148
  234MPD1    H3 3610   2.757   0.685   9.071 -0.1733  0.6493  0.9350
  234MPD1     N 3611   2.433   0.677   9.375  0.3977 -0.2690 -0.1033
  234MPD1    H5 3612   2.348   0.633   9.409  0.1456  0.0120 -0.3739
  234MPD1    N1 3613   2.498   0.322   9.027 -0.3195  0.0085 -0.1178
  234MPD1    H6 3614   2.437   0.261   9.082  0.9832 -2.2111 -1.1754
  234MPD1    H7 3615   2.570   0.256   9.000  2.5046  3.0641 -0.0393
  235MPD1     C 3616   2.985   3.232  10.145  0.2295 -0.6983  0.8143
  235MPD1    C1 3617   2.945   3.301  10.036 -1.3730 -0.2435 -0.5123
  235MPD1    C2 3618   3.034   3.389   9.983 -0.5393 -0.4648 -0.1874
  235MPD1    C3 3619   3.173   3.402  10.026 -0.3118 -0.2374 -0.2078
  235MPD1    C4 3620   3.218   3.320  10.129 -0.4695 -0.3585  0.0320
  235MPD1    C5 3621   3.120   3.230  10.178  0.3423  0.3626  0.2191
  235MPD1     H 3622   2.993   3.459   9.911 -1.7282 -0.5041  0.4657
  235MPD1    H1 3623   3.312   3.335  10.180  0.7804  0.5506 -2.5311
  235MPD1    H2 3624   2.920   3.170  10.206  0.3291  1.0660  2.7056
  235MPD1    H3 3625   3.157   3.179  10.267 -1.2646  2.4416  2.0790
  235MPD1     N 3626   3.240   3.513   9.977  0.4923 -0.3840 -0.7178
  235MPD1    H5 3627   3.200   3.577   9.909 -2.7049 -0.2519  1.2983
  235MPD1    N1 3628   2.810   3.303   9.996  0.1154  0.3073  0.1478
  235MPD1    H6 3629   2.769   3.211  10.007  0.6343 -0.1259 -1.5627
  235MPD1    H7 3630   2.787   3.312   9.897 -0.6624  0.4600  0.3372
  236MPD1     C 3631   2.551   4.108   9.540  0.0756  1.0389 -0.5045
  236MPD1    C1 3632   2.602   3.989   9.587  0.7456 -0.2260 -0.3739
  236MPD1    C2 3633   2.680   3.999   9.700 -0.0129 -0.7367  0.4233
  236MPD1    C3 3634   2.700   4.119   9.761 -0.2318 -0.2260 -0.0715
  236MPD1    C4 3635   2.642   4.239   9.717 -0.1201 -0.5992  0.5788
  236MPD1    C5 3636   2.562   4.229   9.604 -0.5513 -0.1169  0.4475
  236MPD1     H 3637   2.717   3.907   9.744  0.1320 -0.6796  0.4230
  236MPD1    H1 3638   2.660   4.343   9.743 -2.6736 -0.1023  0.3238
  236MPD1    H2 3639   2.497   4.112   9.446  1.9097  0.0246 -1.5884
  236MPD1    H3 3640   2.518   4.316   9.557  1.9528  0.8898 -0.0265
  236MPD1     N 3641   2.786   4.133   9.871 -0.2503  0.1380  0.1721
  236MPD1    H5 3642   2.774   4.229   9.903 -1.7781  0.0787 -0.2428
  236MPD1    N1 3643   2.557   3.874   9.523  0.5045  0.2843  0.1454
  236MPD1    H6 3644   2.527   3.885   9.426  0.1912  1.8656  0.4103
  236MPD1    H7 3645   2.634   3.808   9.527  1.9122  1.9123  0.0217
  237MPD1     C 3646   3.383   3.046  15.199  1.0294  0.2012 -0.2270
  237MPD1    C1 3647   3.327   3.104  15.309  0.2236  0.6895  0.2609
  237MPD1    C2 3648   3.197   3.070  15.347 -0.7083 -0.4349 -0.2383
  237MPD1    C3 3649   3.123   2.977  15.277 -0.0255  0.2199 -0.2671
  237MPD1    C4 3650   3.185   2.911  15.173 -0.0618 -0.1998  0.2209
  237MPD1    C5 3651   3.314   2.940  15.139  0.1227 -0.0349 -0.5209
  237MPD1     H 3652   3.159   3.135  15.425 -0.6242 -0.9917  0.2642
  237MPD1    H1 3653   3.147   2.821  15.127 -1.1872  0.2019  0.3706
  237MPD1    H2 3654   3.484   3.066  15.167  1.7296 -0.8100  1.3625
  237MPD1    H3 3655   3.354   2.865  15.072 -0.2936 -0.6583 -0.0782
  237MPD1     N 3656   2.992   2.937  15.319  0.1246 -0.1647  0.6003
  237MPD1    H5 3657   2.952   2.870  15.253 -0.3151  1.3024 -0.6261
  237MPD1    N1 3658   3.382   3.218  15.360 -0.1116  0.1673 -0.5173
  237MPD1    H6 3659   3.483   3.212  15.350 -0.0774 -1.5766  0.8685
  237MPD1    H7 3660   3.360   3.224  15.459  1.5873  0.1604 -0.1380
  238MPD1     C 3661   4.362   1.678  15.777 -0.0078  0.3362  0.7959
  238MPD1    C1 3662   4.247   1.735  15.826  0.6848  0.8323  0.1484
  238MPD1    C2 3663   4.158   1.799  15.738  0.7261 -0.1376  0.2414
  238MPD1    C3 3664   4.163   1.778  15.605  0.7643 -0.7841 -0.1398
  238MPD1    C4 3665   4.268   1.705  15.556  0.0401 -0.2807  0.0360
  238MPD1    C5 3666   4.365   1.655  15.635  0.1866 -0.4089  0.8140
  238MPD1     H 3667   4.068   1.846  15.774 -1.4185 -4.3654  0.4482
  238MPD1    H1 3668   4.290   1.697  15.451  0.9031  2.5667 -0.0013
  238MPD1    H2 3669   4.444   1.645  15.840  2.8855 -0.5421 -3.4116
  238MPD1    H3 3670   4.447   1.605  15.586  0.5683  0.8076  0.2067
  238MPD1     N 3671   4.074   1.826  15.512  0.5574  0.6031  0.3383
  238MPD1    H5 3672   4.077   1.797  15.415 -0.4114  0.5624  0.3186
  238MPD1    N1 3673   4.239   1.744  15.965 -0.8426 -0.1570  0.2489
  238MPD1    H6 3674   4.145   1.738  16.003 -0.6591 -1.3846  0.4936
  238MPD1    H7 3675   4.294   1.676  16.017 -0.1943 -0.7720 -1.2327
  239MPD1     C 3676   4.725   3.000  14.931  0.2064 -0.6118 -0.2742
  239MPD1    C1 3677   4.675   2.874  14.914  0.1433  0.4718 -0.0514
  239MPD1    C2 3678   4.603   2.848  14.795 -0.5745 -0.3141  0.5495
  239MPD1    C3 3679   4.595   2.936  14.692 -0.0174  0.3764 -0.4431
  239MPD1    C4 3680   4.649   3.058  14.710  0.1480 -0.5553  0.4048
  239MPD1    C5 3681   4.707   3.089  14.826  0.1702  0.3774  0.3689
  239MPD1     H 3682   4.551   2.753  14.794 -0.1210 -0.5499 -0.6268
  239MPD1    H1 3683   4.642   3.135  14.633  1.1815 -0.5243  0.3479
  239MPD1    H2 3684   0.035   3.031  15.024  1.1738 -0.7436 -0.6916
  239MPD1    H3 3685   0.012   3.190  14.828  0.8019  0.0615  3.3518
  239MPD1     N 3686   4.529   2.899  14.572  0.0199 -0.0731 -0.0911
  239MPD1    H5 3687   4.533   2.964  14.493 -0.4334  0.2256  0.1328
  239MPD1    N1 3688   4.679   2.783  15.023 -0.0694 -0.3893 -0.0578
  239MPD1    H6 3689   0.024   2.799  15.084  1.0666  0.5161 -1.8031
  239MPD1    H7 3690   4.673   2.685  14.995  1.0070 -0.7916  1.1204
  240MPD1     C 3691   4.372   2.308  14.463 -0.4906 -0.9126 -0.5357
  240MPD1    C1 3692   4.321   2.356  14.582  0.1702 -0.2937  0.5420
  240MPD1    C2 3693   4.193   2.316  14.611 -0.1666  0.3979  0.7197
  240MPD1    C3 3694   4.115   2.240  14.524 -0.2740  0.4830 -0.3127
  240MPD1    C4 3695   4.167   2.196  14.404 -0.1287  0.1552 -0.1091
  240MPD1    C5 3696   4.291   2.240  14.373  0.6193  0.4017 -0.7297
  240MPD1     H 3697   4.144   2.345  14.703  1.7307 -0.3901  1.9622
  240MPD1    H1 3698   4.104   2.152  14.327 -1.2234 -1.2244  1.5699
  240MPD1    H2 3699   4.477   2.326  14.439 -0.9931  1.6972 -0.7947
  240MPD1    H3 3700   4.339   2.208  14.281 -4.1774  0.2878 -3.2369
  240MPD1     N 3701   3.992   2.195  14.569  0.1665 -0.8186  0.3116
  240MPD1    H5 3702   3.961   2.228  14.660 -0.5966  1.6574 -0.8290
  240MPD1    N1 3703   4.409   2.412  14.671 -0.5866  0.5873  0.2215
  240MPD1    H6 3704   4.371   2.474  14.743  1.0591  1.7264  0.1195
  240MPD1    H7 3705   4.483   2.460  14.620 -0.4113 -1.8077 -1.7586
  241MPD1     C 3706   3.696   2.333  15.339 -1.4142 -0.0371  0.7220
  241MPD1    C1 3707   3.647   2.201  15.340 -1.0415  0.2557  0.2009
  241MPD1    C2 3708   3.665   2.126  15.223  0.1817 -0.4274 -0.0152
  241MPD1    C3 3709   3.731   2.180  15.115 -0.4373 -0.3717 -0.3875
  241MPD1    C4 3710   3.807   2.295  15.130 -0.4229  0.4626  0.0283
  241MPD1    C5 3711   3.785   2.370  15.240 -0.0659 -0.6933 -0.5282
  241MPD1     H 3712   3.620   2.027  15.224  0.8187 -0.7162  0.2523
  241MPD1    H1 3713   3.879   2.340  15.063  0.3383  0.9905  1.1905
  241MPD1    H2 3714   3.679   2.401  15.422 -1.5498  0.2234  0.4798
  241MPD1    H3 3715   3.834   2.467  15.245  1.1655 -1.4855  2.6256
  241MPD1     N 3716   3.749   2.116  14.994  0.0164  0.2782  0.3834
  241MPD1    H5 3717   3.808   2.166  14.928  0.1674  1.5409  1.4939
  241MPD1    N1 3718   3.563   2.155  15.442 -0.7689 -0.4990 -0.3905
  241MPD1    H6 3719   3.584   2.057  15.457  0.5274 -0.4538 -1.8031
  241MPD1    H7 3720   3.574   2.207  15.529 -3.1003  1.5478 -1.3086
  242MPD1     C 3721   3.766   0.047  15.777 -0.5004  0.1582 -0.5724
  242MPD1    C1 3722   3.789   0.173  15.821  0.3170  0.4509 -1.1467
  242MPD1    C2 3723   3.821   0.273  15.730  0.1219 -0.7266  0.0727
  242MPD1    C3 3724   3.835   0.244  15.593  1.0621 -0.4637 -0.1115
  242MPD1    C4 3725   3.821   0.113  15.549  1.0479 -0.0136  0.1327
  242MPD1    C5 3726   3.783   0.024  15.642 -0.0308 -0.1302  0.3013
  242MPD1     H 3727   3.831   0.376  15.762 -2.1351 -0.5711  0.2942
  242MPD1    H1 3728   3.833   0.086  15.445 -0.7576  2.0325 -0.5974
  242MPD1    H2 3729   3.744   4.700  15.845 -0.0126 -0.0303 -0.6458
  242MPD1    H3 3730   3.757   4.659  15.610  0.5778  0.0434 -0.7288
  242MPD1     N 3731   3.876   0.335  15.493 -0.2028 -0.0216  0.5688
  242MPD1    H5 3732   3.870   0.305  15.396  1.7028 -0.0030  0.4483
  242MPD1    N1 3733   3.763   0.207  15.955  0.4151  0.1565  0.4874
  242MPD1    H6 3734   3.784   0.128  16.015  2.4185  0.6104  0.3792
  242MPD1    H7 3735   3.803   0.286  16.004  2.4432 -2.3671  2.8578
  243MPD1     C 3736   0.216   3.636   0.087  0.2864 -0.3485  1.0388
  243MPD1    C1 3737   0.228   3.505   0.079  0.9914 -0.2293  0.6306
  243MPD1    C2 3738   0.267   3.447  17.695 -0.2119 -0.3036  0.5323
  243MPD1    C3 3739   0.320   3.523  17.591  0.3096  0.5227 -0.3774
  243MPD1    C4 3740   0.305   3.657  17.603  0.8115 -0.5234 -0.0263
  243MPD1    C5 3741   0.256   3.713  17.719  0.0258  0.3236  0.0320
  243MPD1     H 3742   0.264   3.338  17.691 -0.2013 -0.3455  1.6874
  243MPD1    H1 3743   0.353   3.721  17.530 -2.6898  3.0090  0.7813
  243MPD1    H2 3744   0.181   3.678   0.180 -0.3628 -0.8937  1.0457
  243MPD1    H3 3745   0.232   3.819  17.721 -1.7228 -0.0915  1.7493
  243MPD1     N 3746   0.370   3.449  17.485  0.0959 -0.0239 -0.0860
  243MPD1    H5 3747   0.360   3.348  17.492 -3.4511  0.2150 -2.0024
  243MPD1    N1 3748   0.165   3.424   0.179  0.3171 -0.1207 -0.0527
  243MPD1    H6 3749   0.171   3.466   0.271 -0.8554  1.7462 -0.8208
  243MPD1    H7 3750   0.220   3.340   0.189  1.2443  0.3562 -1.0933
  244MPD1     C 3751   0.664   2.548  17.266  0.3188 -0.0455  0.0033
  244MPD1    C1 3752   0.594   2.586  17.151 -0.2826  0.1216  0.0707
  244MPD1    C2 3753   0.597   2.719  17.115  0.9435 -0.4121 -0.6398
  244MPD1    C3 3754   0.623   2.811  17.213  0.3740 -0.1436 -0.3452
  244MPD1    C4 3755   0.676   2.771  17.339  0.0264 -0.5114 -0.3765
  244MPD1    C5 3756   0.703   2.643  17.357 -0.9657 -0.0320  0.6357
  244MPD1     H 3757   0.559   2.761  17.023 -2.8919  3.0197  2.5384
  244MPD1    H1 3758   0.710   2.836  17.418  2.3655 -1.6763 -0.4275
  244MPD1    H2 3759   0.681   2.443  17.287  1.0212 -0.0298 -0.4871
  244MPD1    H3 3760   0.743   2.612  17.453 -0.1262  0.3991  0.4283
  244MPD1     N 3761   0.588   2.944  17.183 -0.2454  0.4914  0.2998
  244MPD1    H5 3762   0.556   2.962  17.089 -0.9006 -1.7736  0.0863
  244MPD1    N1 3763   0.542   2.488  17.068  0.6139 -0.2347 -0.5527
  244MPD1    H6 3764   0.470   2.515  17.000  0.9288 -2.3412 -1.7213
  244MPD1    H7 3765   0.517   2.402  17.116 -2.1123  1.9889  1.9880
  245MPD1     C 3766   2.535   4.240  12.916  0.0908 -1.0644  0.2616
  245MPD1    C1 3767   2.573   4.215  13.049  0.3341 -0.3069 -0.0611
  245MPD1    C2 3768   2.608   4.317  13.140 -0.0399 -0.2864 -0.3009
  245MPD1    C3 3769   2.612   4.445  13.090 -0.3131 -0.0198  0.9750
  245MPD1    C4 3770   2.578   4.472  12.959 -0.3802 -0.2478  0.5664
  245MPD1    C5 3771   2.538   4.371  12.875  0.4765 -0.1847 -0.7973
  245MPD1     H 3772   2.641   4.294  13.240 -1.5646 -0.3577  0.1778
  245MPD1    H1 3773   2.590   4.573  12.921  0.1689 -0.4662  0.1624
  245MPD1    H2 3774   2.503   4.166  12.845  2.7558 -3.3015  1.3920
  245MPD1    H3 3775   2.497   4.390  12.776  0.7480 -0.0756 -0.8871
  245MPD1     N 3776   2.644   4.543  13.188 -0.7669  0.6587 -0.4946
  245MPD1    H5 3777   2.681   4.514  13.277 -0.8957 -1.2910 -1.0508
  245MPD1    N1 3778   2.540   4.090  13.099  0.8207  0.2963 -0.1204
  245MPD1    H6 3779   2.595   4.072  13.183  0.9564  0.9378 -0.0718
  245MPD1    H7 3780   2.566   4.008  13.044  0.0016  0.6205 -0.9915
  246MPD1     C 3781   1.309   4.099   9.172  0.0532  0.2016 -0.5492
  246MPD1    C1 3782   1.320   4.068   9.303 -0.8139  0.4404 -0.3093
  246MPD1    C2 3783   1.444   4.063   9.362  0.2668  0.3074 -0.0874
  246MPD1    C3 3784   1.550   4.131   9.309 -0.7563  0.0341  0.3187
  246MPD1    C4 3785   1.540   4.180   9.180  0.5256 -0.5141 -0.1976
  246MPD1    C5 3786   1.419   4.164   9.117  0.9515  0.0045  0.3633
  246MPD1     H 3787   1.458   4.008   9.455  0.6024 -2.1699 -1.5804
  246MPD1    H1 3788   1.620   4.238   9.136  1.7191 -1.8903  0.1392
  246MPD1    H2 3789   1.216   4.091   9.118 -2.0809  2.1519  2.8372
  246MPD1    H3 3790   1.402   4.200   9.017 -1.0189  1.2989  1.1626
  246MPD1     N 3791   1.667   4.131   9.394 -0.8458 -0.1518  0.0316
  246MPD1    H5 3792   1.648   4.090   9.484  0.3884  0.4614  0.5614
  246MPD1    N1 3793   1.209   4.011   9.372 -0.1355 -0.3073  0.1938
  246MPD1    H6 3794   1.120   4.057   9.351 -0.5111 -1.4039 -0.6402
  246MPD1    H7 3795   1.237   4.013   9.470  0.1572 -1.1954  0.1306
  247MPD1     C 3796   1.850   4.151  16.693  0.7785 -0.3365  0.0474
  247MPD1    C1 3797   1.913   4.257  16.642  0.8689 -0.2998  0.3838
  247MPD1    C2 3798   1.943   4.255  16.505  0.0400  0.8089  0.1142
  247MPD1    C3 3799   1.916   4.139  16.429 -0.2356 -0.2876  0.1533
  247MPD1    C4 3800   1.875   4.027  16.494  0.2237 -1.0237 -0.6957
  247MPD1    C5 3801   1.847   4.034  16.633  0.6690 -0.1117 -0.0123
  247MPD1     H 3802   1.979   4.346  16.458  0.3215 -0.0205 -1.2870
  247MPD1    H1 3803   1.857   3.929  16.452  2.1352 -2.3973  1.7285
  247MPD1    H2 3804   1.823   4.153  16.798  1.4195 -0.3269  0.2096
  247MPD1    H3 3805   1.818   3.943  16.683 -0.5668  1.2261  1.6835
  247MPD1     N 3806   1.938   4.130  16.285 -0.1919 -0.2130 -0.0107
  247MPD1    H5 3807   1.927   4.041  16.237 -2.3525 -0.3694  0.7553
  247MPD1    N1 3808   1.915   4.379  16.721 -0.0679  0.3829 -0.2627
  247MPD1    H6 3809   1.979   4.450  16.686  1.8754 -0.8622  0.7976
  247MPD1    H7 3810   1.907   4.367  16.822  0.2129 -0.8040 -0.3771
  248MPD1     C 3811   3.027   3.650   0.727  0.5500  0.4875 -0.4083
  248MPD1    C1 3812   2.947   3.700   0.631  0.0824 -0.4862  0.5759
  248MPD1    C2 3813   2.840   3.782   0.666  0.2289  0.5861  0.8226
  248MPD1    C3 3814   2.826   3.824   0.801 -0.4897 -0.7265 -0.0382
  248MPD1    C4 3815   2.913   3.774   0.892 -0.5923  0.7855 -0.1007
  248MPD1    C5 3816   3.010   3.684   0.860 -0.1078  0.3211  0.4014
  248MPD1     H 3817   2.763   3.812   0.597  0.7895  1.4799  0.5786
  248MPD1    H1 3818   2.917   3.802   0.997 -2.5629 -1.5653  0.6153
  248MPD1    H2 3819   3.100   3.574   0.699  1.5728  1.1340  0.5011
  248MPD1    H3 3820   3.057   3.633   0.943 -0.5516 -2.0226 -0.7867
  248MPD1     N 3821   2.721   3.911   0.839 -0.0561 -0.0784  0.4129
  248MPD1    H5 3822   2.675   3.962   0.764  1.9093 -0.8168 -1.3055
  248MPD1    N1 3823   2.960   3.662   0.498  0.4071 -0.0490  0.3626
  248MPD1    H6 3824   2.932   3.725   0.423 -0.4065 -0.2993  0.4618
  248MPD1    H7 3825   3.048   3.616   0.476  0.0058 -0.4762 -0.3386
  249MPD1     C 3826   3.442   1.375  10.927  0.1556 -0.0861  0.0180
  249MPD1    C1 3827   3.560   1.422  10.979  0.8237  0.0501 -0.5977
  249MPD1    C2 3828   3.608   1.544  10.940 -0.4634  0.3952  0.7158
  249MPD1    C3 3829   3.526   1.618  10.859  0.5914 -0.2752 -0.5414
  249MPD1    C4 3830   3.410   1.569  10.800  0.5291  0.2432 -0.7521
  249MPD1    C5 3831   3.373   1.441  10.831 -0.7100  0.1287 -0.1426
  249MPD1     H 3832   3.705   1.577  10.974  0.0598  1.3821 -1.7710
  249MPD1    H1 3833   3.347   1.624  10.731 -2.7222 -0.9095  1.3190
  249MPD1    H2 3834   3.402   1.279  10.958  0.4778  0.3083  1.6582
  249MPD1    H3 3835   3.280   1.408  10.786  0.1970 -1.1116 -1.1050
  249MPD1     N 3836   3.592   1.728  10.807 -0.2187  0.5492  0.8980
  249MPD1    H5 3837   3.691   1.735  10.829  0.1299 -3.1450  0.5299
  249MPD1    N1 3838   3.636   1.347  11.075 -0.1314  0.0032  0.1035
  249MPD1    H6 3839   3.735   1.359  11.059  0.0345 -1.8765 -0.2310
  249MPD1    H7 3840   3.605   1.263  11.123  2.9635 -1.6198 -0.7549
  250MPD2     C 3841   1.024   3.120  13.215 -0.1338 -0.1990  0.4923
  250MPD2    C1 3842   0.915   3.202  13.231  0.2037 -0.6808  0.2666
  250MPD2    C2 3843   0.788   3.147  13.204  0.7754 -0.7841 -0.2920
  250MPD2    C3 3844   0.778   3.008  13.168 -0.2384 -0.4751  0.4508
  250MPD2    C4 3845   0.890   2.927  13.162 -0.2677 -0.6066  0.7672
  250MPD2    C5 3846   1.014   2.987  13.178  0.3398 -0.4546  0.2603
  250MPD2     H 3847   0.698   3.207  13.218  1.0816 -1.5111  4.8653
  250MPD2    H1 3848   0.886   2.823  13.132 -0.9891 -0.3216 -0.1300
  250MPD2    H2 3849   1.120   3.170  13.226 -0.0360 -0.3820  0.4540
  250MPD2    H3 3850   1.101   2.923  13.165  1.3748  0.9939  0.0264
  250MPD2     N 3851   0.652   2.946  13.152  0.4373 -0.0430  0.8489
  250MPD2    H5 3852   0.651   2.846  13.134  0.8887 -0.4175  2.8755
  250MPD2    N1 3853   0.927   3.334  13.289  0.1534  0.0718  0.5742
  250MPD2    H7 3854   1.024   3.354  13.309  0.5388 -1.0777 -0.1466
  251TMC3    C1 3855   0.887   3.569  13.319 -0.2761 -0.1628 -0.3958
  251TMC3    C2 3856   0.793   3.669  13.321 -0.1041 -0.3883  0.5933
  251TMC3    C3 3857   0.823   3.795  13.275  1.3736 -0.7718 -0.9518
  251TMC3    C4 3858   1.018   3.600  13.276  0.0037 -0.1058 -0.4785
  251TMC3    C5 3859   1.049   3.728  13.247 -0.4962 -0.0104  0.3653
  251TMC3    C6 3860   0.953   3.831  13.245 -0.1158 -0.8637 -0.1975
  251TMC3     C 3861   0.833   3.436  13.305 -0.4564  0.7708  0.1497
  251TMC3     O 3862   0.716   3.432  13.289 -0.6046  0.1018  0.5599
  251TMC3     H 3863   0.690   3.647  13.345 -0.3492 -0.0751 -0.1688
  251TMC3    H1 3864   1.091   3.520  13.270 -0.3256 -0.5042  0.8722
  251TMC3    H2 3865   0.991   3.928  13.217 -1.9657  0.1089  0.6638
  251TMC3    C7 3866   1.193   3.753  13.228  0.6383  0.1351  0.5534
  251TMC3    C8 3867   0.717   3.893  13.278 -0.0824  0.0192  0.5810
  251TMC3    O1 3868   1.264   3.685  13.301 -0.4449 -0.2213  0.7242
  251TMC3    O2 3869   0.606   3.841  13.266 -1.0713 -0.7586 -1.0825
  252TMC3    C1 3870   1.393   4.498   9.232 -0.1517 -0.6607 -0.2867
  252TMC3    C2 3871   1.518   4.516   9.285 -0.0036 -0.0482  0.3167
  252TMC3    C3 3872   1.535   4.469   9.410  0.3262  0.7371 -0.6730
  252TMC3    C4 3873   1.286   4.445   9.300  0.5337  0.2512  0.0315
  252TMC3    C5 3874   1.313   4.388   9.424  0.1844  0.4832  0.3277
  252TMC3    C6 3875   1.437   4.403   9.481  0.2388  0.0720  0.0783
  252TMC3     C 3876   1.361   4.548   9.099  1.0851  0.1894 -0.0799
  252TMC3     O 3877   1.243   4.575   9.075  0.9544  0.4773  1.1038
  252TMC3     H 3878   1.602   4.554   9.229 -0.3717  1.6170  0.8783
  252TMC3    H1 3879   1.187   4.447   9.258  0.3481 -2.7648  0.3183
  252TMC3    H2 3880   1.455   4.370   9.583  0.1896 -0.5751 -0.1209
  252TMC3    C7 3881   1.208   4.326   9.489  0.1523  0.1993 -1.5778
  252TMC3    C8 3882   1.666   4.497   9.476 -0.5071  0.5088 -0.3308
  252TMC3    O1 3883   1.094   4.342   9.446 -0.2232 -0.6392 -0.5804
  252TMC3    O2 3884   1.747   4.540   9.396 -0.1327  0.0048  0.4026
  253MPD2     C 3885   2.190   2.875  15.368 -0.3472 -0.2475  0.1049
  253MPD2    C1 3886   2.057   2.842  15.353  0.0153 -0.0059 -1.2394
  253MPD2    C2 3887   1.968   2.880  15.455  0.2576 -0.5190  0.7390
  253MPD2    C3 3888   2.012   2.936  15.574  0.2317 -0.1404  0.0103
  253MPD2    C4 3889   2.147   2.958  15.583 -0.3702  0.0991 -0.8435
  253MPD2    C5 3890   2.233   2.924  15.484  0.7593  0.9440  0.6455
  253MPD2     H 3891   1.869   2.841  15.432  1.0026 -1.6759 -0.5318
  253MPD2    H1 3892   2.185   2.999  15.675 -1.3645  2.4267 -1.4796
  253MPD2    H2 3893   2.266   2.865  15.291 -2.4652  0.3783 -2.0890
  253MPD2    H3 3894   2.340   2.941  15.495  0.6576  0.7041  2.0271
  253MPD2     N 3895   1.940   2.976  15.683  0.8243  0.5657 -0.3374
  253MPD2    H5 3896   1.983   2.999  15.772 -0.0196  1.1900 -0.0939
  253MPD2    N1 3897   1.998   2.801  15.226  0.1886  0.7563 -0.4740
  253MPD2    H7 3898   1.896   2.802  15.229  0.1355 -0.8515 -1.7303
  254TMC3    C1 3899   1.735   3.031  15.804  0.6216 -0.5285 -0.3586
  254TMC3    C2 3900   1.610   3.077  15.775 -0.5465 -0.0938  0.5067
  254TMC3    C3 3901   1.517   3.063  15.874 -0.3226 -0.3144  0.6621
  254TMC3    C4 3902   1.776   2.970  15.920  0.3700 -0.0179  0.6487
  254TMC3    C5 3903   1.679   2.965  16.013  0.3016  0.0051  0.6708
  254TMC3    C6 3904   1.550   3.000  15.989  0.4946 -0.2486  0.4991
  254TMC3     C 3905   1.800   2.994  15.676  0.2323  0.0828 -0.8720
  254TMC3     O 3906   1.735   2.977  15.574  0.4443  0.2337  0.2016
  254TMC3     H 3907   1.600   3.146  15.693  2.8078 -0.3035 -0.0709
  254TMC3    H1 3908   1.879   2.944  15.939  0.2946 -1.7283 -1.2246
  254TMC3    H2 3909   1.481   2.968  16.065  2.7210 -1.3701  2.0630
  254TMC3    C7 3910   1.729   3.005  16.149  0.0287  0.1621  0.2467
  254TMC3    C8 3911   1.446   3.187  15.903  0.6483 -0.3160 -0.4937
  254TMC3    O1 3912   1.837   2.972  16.197 -0.1591  0.2205  0.2334
  254TMC3    O2 3913   1.425   3.202  16.027 -0.2202 -0.0991  0.2065
  255MPD2     C 3914   4.717   1.259  10.750 -0.1307 -0.3591 -0.4387
  255MPD2    C1 3915   0.043   1.264  10.632 -0.6586  0.0068 -0.4738
  255MPD2    C2 3916   0.142   1.172  10.608  0.8558 -1.0256 -0.0133
  255MPD2    C3 3917   0.170   1.070  10.702 -0.2996 -0.3666 -0.1836
  255MPD2    C4 3918   0.108   1.072  10.824  0.1950 -0.7533 -0.1669
  255MPD2    C5 3919   0.020   1.172  10.855  0.3098  0.3213  0.0489
  255MPD2     H 3920   0.192   1.183  10.513 -0.0690  2.0971 -0.1535
  255MPD2    H1 3921   0.125   0.998  10.901 -0.6969 -1.1263 -0.3296
  255MPD2    H2 3922   4.633   1.324  10.771 -0.6815 -1.6940  1.4404
  255MPD2    H3 3923   4.709   1.166  10.953  1.2761  0.1959  0.4963
  255MPD2     N 3924   0.267   0.968  10.684 -0.4276 -0.8630  0.1373
  255MPD2    H5 3925   0.289   0.907  10.762  0.1094 -0.2575  0.4548
  255MPD2    N1 3926   4.734   1.360  10.537  0.4509  0.5228 -0.3029
  255MPD2    H7 3927   4.652   1.415  10.559 -2.1008 -2.5334 -2.0972
  256TMC3    C1 3928   4.723   1.486  10.340 -0.2919 -1.0821  0.2757
  256TMC3    C2 3929   0.072   1.574  10.277  0.7981  0.2211  0.1348
  256TMC3    C3 3930   0.005   1.662  10.191 -0.0513 -0.0960 -0.2141
  256TMC3    C4 3931   4.589   1.471  10.317 -0.4373 -0.1858  0.2338
  256TMC3    C5 3932   4.538   1.544  10.209  0.2676 -0.0636 -0.1291
  256TMC3    C6 3933   4.610   1.651  10.155  0.0461 -0.0391 -0.5802
  256TMC3     C 3934   0.060   1.389  10.420 -0.1440  0.2045 -0.0513
  256TMC3     O 3935   0.179   1.375  10.396  0.3590 -0.0015  0.0734
  256TMC3     H 3936   0.171   1.595  10.315  0.8663 -0.8610  0.5616
  256TMC3    H1 3937   4.534   1.389  10.364 -2.5198  2.2602  2.0558
  256TMC3    H2 3938   4.581   1.717  10.074  0.4281 -0.0749 -0.7494
  256TMC3    C7 3939   4.436   1.480  10.139 -0.1098  0.1987 -0.2127
  256TMC3    C8 3940   0.077   1.783  10.168 -0.1154  0.6087  0.1994
  256TMC3    O1 3941   4.370   1.397  10.204  0.0757  0.6436 -0.2197
  256TMC3    O2 3942   0.020   1.885  10.190  0.4518 -0.0003  0.4662
  257MPD2     C 3943   3.951   3.339  13.099  0.5159 -0.1668 -0.1762
  257MPD2    C1 3944   3.920   3.222  13.032 -0.0448  0.2385 -0.0054
  257MPD2    C2 3945   3.927   3.102  13.098 -0.5641 -0.3127 -0.3097
  257MPD2    C3 3946   3.970   3.097  13.230  0.7590 -0.2170  0.7698
  257MPD2    C4 3947   4.001   3.211  13.297 -0.0915  0.1764 -0.4812
  257MPD2    C5 3948   3.985   3.332  13.235 -0.0623 -0.2368  0.6260
  257MPD2     H 3949   3.922   3.004  13.051 -0.5640 -0.2922 -0.3529
  257MPD2    H1 3950   4.057   3.221  13.389  0.8648  0.8727 -1.1357
  257MPD2    H2 3951   3.941   3.435  13.050 -2.5939 -0.7111 -0.6511
  257MPD2    H3 3952   4.018   3.424  13.282  2.6035 -0.7858 -0.1890
  257MPD2     N 3953   3.998   2.979  13.293 -0.4265 -0.8188 -0.0023
  257MPD2    H5 3954   4.014   2.896  13.236  0.5110  0.4924 -1.6415
  257MPD2    N1 3955   3.888   3.240  12.900 -0.8833 -0.1761  0.7839
  257MPD2    H7 3956   3.907   3.333  12.865  1.0925 -0.8813  0.0378
  258TMC3    C1 3957   4.058   2.821  13.451  0.3435  0.0864  0.1200
  258TMC3    C2 3958   4.134   2.759  13.360 -0.1549  0.4744 -0.7002
  258TMC3    C3 3959   4.229   2.671  13.411  1.0023  0.1489 -0.7218
  258TMC3    C4 3960   4.061   2.785  13.584 -0.9916 -0.0277 -0.5173
  258TMC3    C5 3961   4.157   2.702  13.632 -0.4269  0.2430  0.2428
  258TMC3    C6 3962   4.235   2.634  13.541 -0.2568  0.3671  0.1426
  258TMC3     C 3963   4.014   2.956  13.425  0.2631 -0.2723  0.2122
  258TMC3     O 3964   4.000   3.029  13.520 -0.5124 -0.3925 -0.3010
  258TMC3     H 3965   4.139   2.784  13.254  1.3814  0.9684 -0.5245
  258TMC3    H1 3966   4.007   2.839  13.660  2.1879  2.1020  0.2490
  258TMC3    H2 3967   4.325   2.579  13.566 -1.7680 -1.9932  0.3571
  258TMC3    C7 3968   4.171   2.667  13.771 -0.6927 -0.3849 -0.1109
  258TMC3    C8 3969   4.304   2.584  13.325  0.7045 -0.3884 -0.0451
  258TMC3    O1 3970   4.077   2.695  13.840 -0.0632  0.1162 -0.1502
  258TMC3    O2 3971   4.394   2.505  13.367  0.2852  0.3474 -0.1258
  259MPD2     C 3972   3.019   4.561   0.755 -0.6333  0.4325  0.0893
  259MPD2    C1 3973   3.107   4.525   0.861  0.7474  0.3139 -0.3969
  259MPD2    C2 3974   3.219   4.455   0.833  0.5120  0.0558  0.2080
  259MPD2    C3 3975   3.246   4.417   0.703 -0.0815 -1.0222 -0.2161
  259MPD2    C4 3976   3.166   4.449   0.598  0.3957  0.2141 -0.3187
  259MPD2    C5 3977   3.055   4.521   0.627  0.4646  0.2894  0.3986
  259MPD2     H 3978   3.291   4.422   0.907 -1.4935  0.6006  2.3719
  259MPD2    H1 3979   3.186   4.406   0.501  0.8674  2.3162 -1.1538
  259MPD2    H2 3980   2.929   4.618   0.776 -0.5108  0.3347  0.8756
  259MPD2    H3 3981   2.990   4.539   0.542  1.2032 -1.7514 -0.5949
  259MPD2     N 3982   3.359   4.339   0.686 -0.0321  0.7612  0.2195
  259MPD2    H5 3983   3.397   4.300   0.772 -1.6436  3.2884  2.0669
  259MPD2    N1 3984   3.074   4.555   0.992  0.3433 -0.3051  0.5148
  259MPD2    H7 3985   2.993   4.616   0.994 -0.0645 -0.8484  0.6955
  260TMC3    C1 3986   3.526   4.217   0.588  0.5204 -0.1767  0.6867
  260TMC3    C2 3987   3.618   4.216   0.492 -0.8437  0.4373 -0.6014
  260TMC3    C3 3988   3.714   4.120   0.498  0.4928  0.7953  0.3901
  260TMC3    C4 3989   3.523   4.130   0.693  0.7664  0.5317 -0.3268
  260TMC3    C5 3990   3.620   4.034   0.688 -0.1820  0.4214 -0.5982
  260TMC3    C6 3991   3.720   4.028   0.594 -0.2140  0.3052  0.1942
  260TMC3     C 3992   3.423   4.309   0.564  0.1898 -0.6117 -0.1034
  260TMC3     O 3993   3.397   4.339   0.450 -0.0739 -0.3427 -0.0381
  260TMC3     H 3994   3.616   4.280   0.405 -1.3962  2.0427  0.5780
  260TMC3    H1 3995   3.434   4.121   0.755  0.2911 -0.0304 -1.0873
  260TMC3    H2 3996   3.794   3.948   0.589 -0.1622  0.5144 -2.5578
  260TMC3    C7 3997   3.590   3.907   0.761 -0.0231  0.5191  0.2276
  260TMC3    C8 3998   3.826   4.144   0.408  0.2455 -1.3157 -0.7569
  260TMC3    O1 3999   3.677   3.822   0.755 -0.2144  0.8125 -0.4384
  260TMC3    O2 4000   3.824   4.227   0.318  0.3254 -0.2457 -0.2768
  261MPD2     C 4001   4.504   2.777  12.909 -0.2064 -0.6299  0.0007
  261MPD2    C1 4002   4.623   2.838  12.892  0.3267 -0.7859 -0.1878
  261MPD2    C2 4003   4.643   2.897  12.767 -0.5050  0.1875 -0.1827
  261MPD2    C3 4004   4.556   2.886  12.660 -0.0542  0.6490  1.1154
  261MPD2    C4 4005   4.438   2.814  12.684  0.5047  0.3716  0.6276
  261MPD2    C5 4006   4.415   2.763  12.810  0.5844 -0.2965 -0.3176
  261MPD2     H 4007   4.734   2.952  12.745  1.0659 -2.0094  0.7979
  261MPD2    H1 4008   4.360   2.808  12.609  0.4387  2.2331  0.5411
  261MPD2    H2 4009   4.480   2.731  13.005 -1.1503  1.9261  1.0106
  261MPD2    H3 4010   4.325   2.704  12.826  1.4639 -1.2131  1.1757
  261MPD2     N 4011   4.607   2.939  12.534 -0.2102 -0.0182  0.3794
  261MPD2    H5 4012   4.696   2.987  12.521  0.0150 -0.4448  0.3456
  261MPD2    N1 4013   4.710   2.856  13.000  0.5260 -0.3938  0.7971
  261MPD2    H7 4014   4.695   2.815  13.092  0.3344 -0.5290  0.7066
  262TMC3    C1 4015   4.620   2.961  12.308  0.4360  0.6343  0.8802
  262TMC3    C2 4016   4.663   3.091  12.313  0.0632  0.0103 -0.7363
  262TMC3    C3 4017   4.730   3.136  12.197 -0.4414  0.0240 -0.5203
  262TMC3    C4 4018   4.634   2.879  12.204 -0.2944  0.1338  0.1244
  262TMC3    C5 4019   4.692   2.933  12.092  0.4090  0.0295 -0.6649
  262TMC3    C6 4020   4.733   3.065  12.083  0.5957  0.1123 -0.1864
  262TMC3     C 4021   4.541   2.913  12.414  0.8013  0.1114  0.6351
  262TMC3     O 4022   4.443   2.848  12.379  0.5247  0.3063 -0.5417
  262TMC3     H 4023   4.649   3.155  12.400 -0.6197 -2.8182  1.2287
  262TMC3    H1 4024   4.610   2.773  12.210  3.5722 -0.6352  1.9220
  262TMC3    H2 4025   0.058   3.104  12.002 -2.1373  2.7570 -0.9296
  262TMC3    C7 4026   4.680   2.858  11.972 -0.2910 -0.8172  0.2688
  262TMC3    C8 4027   0.009   3.282  12.190  0.4255  0.6812  0.0682
  262TMC3    O1 4028   4.608   2.757  11.977 -0.2111  0.0136  0.1958
  262TMC3    O2 4029   4.721   3.346  12.292 -0.0294  0.7204  0.4658
  263MPD2     C 4030   0.694   2.063  11.194  0.8397  0.1433  0.1627
  263MPD2    C1 4031   0.825   2.028  11.163  0.2116  0.1494  0.5027
  263MPD2    C2 4032   0.905   2.128  11.120  0.6360 -1.0008 -0.1685
  263MPD2    C3 4033   0.856   2.253  11.107 -0.6740  0.3460 -0.4753
  263MPD2    C4 4034   0.717   2.281  11.114 -0.1866 -0.2021 -0.3525
  263MPD2    C5 4035   0.641   2.184  11.180  0.0529  0.3443 -0.5281
  263MPD2     H 4036   1.010   2.107  11.098  0.8061 -0.3728  0.0380
  263MPD2    H1 4037   0.674   2.375  11.081 -1.8742  0.5039  3.8522
  263MPD2    H2 4038   0.628   1.993  11.243  0.0387  0.3964 -0.5537
  263MPD2    H3 4039   0.535   2.194  11.200  0.0791 -0.7717  0.2291
  263MPD2     N 4040   0.945   2.342  11.043  0.2968  0.6106 -0.6004
  263MPD2    H5 4041   1.037   2.309  11.014 -0.4648  0.7019 -3.1137
  263MPD2    N1 4042   0.864   1.891  11.165 -0.6328 -0.6979  0.1910
  263MPD2    H7 4043   0.793   1.823  11.190  0.7130 -1.5970  1.5719
  264TMC3    C1 4044   1.002   2.515  10.910 -0.2611 -0.1047  0.0746
  264TMC3    C2 4045   1.028   2.651  10.898 -0.3280  0.2977 -0.6311
  264TMC3    C3 4046   1.105   2.701  10.794 -0.0155 -0.2462  0.0110
  264TMC3    C4 4047   1.056   2.424  10.815  0.7117 -0.3760 -0.1200
  264TMC3    C5 4048   1.120   2.485  10.706 -0.2208 -0.7765  0.4506
  264TMC3    C6 4049   1.148   2.623  10.690 -0.1704  0.0353  0.6213
  264TMC3     C 4050   0.911   2.469  11.009  0.1554 -0.6530 -0.2174
  264TMC3     O 4051   0.827   2.551  11.044  0.4972 -0.3401  0.1348
  264TMC3     H 4052   0.992   2.713  10.980 -0.0042 -0.7595  0.3167
  264TMC3    H1 4053   1.055   2.319  10.840  0.3666  0.1294  2.0547
  264TMC3    H2 4054   1.206   2.663  10.608  0.5437 -1.3179  0.4603
  264TMC3    C7 4055   1.168   2.405  10.598  0.6380 -0.1346  0.0217
  264TMC3    C8 4056   1.168   2.831  10.805 -0.0004 -0.4738 -0.5729
  264TMC3    O1 4057   1.247   2.468  10.526  0.0819  0.2198 -0.1037
  264TMC3    O2 4058   1.265   2.850  10.736  0.2598  0.6362 -0.4642
  265MPD2     C 4059   2.982   2.576  15.563  0.4680 -0.8398  0.0639
  265MPD2    C1 4060   3.097   2.644  15.550  0.0473  0.1445 -0.3567
  265MPD2    C2 4061   3.185   2.617  15.444 -0.5232  0.4652  0.1217
  265MPD2    C3 4062   3.138   2.539  15.341 -0.3264 -0.2892 -0.8527
  265MPD2    C4 4063   3.010   2.473  15.346 -0.8341 -0.2638 -0.4178
  265MPD2    C5 4064   2.937   2.497  15.463  0.0763 -0.2343  0.2531
  265MPD2     H 4065   3.286   2.657  15.452 -0.4311  0.0509  1.0713
  265MPD2    H1 4066   2.975   2.399  15.274 -1.0348 -0.3776 -0.2046
  265MPD2    H2 4067   2.911   2.594  15.643  0.6126 -3.8958  0.9182
  265MPD2    H3 4068   2.838   2.455  15.474  0.1414 -0.9745 -2.0675
  265MPD2     N 4069   3.210   2.512  15.222  0.0376 -0.4849  0.1463
  265MPD2    H5 4070   3.166   2.457  15.149 -1.0725  1.7079 -0.8372
  265MPD2    N1 4071   3.138   2.742  15.637  0.2638 -0.7059 -0.4782
  265MPD2    H7 4072   3.211   2.807  15.611 -0.5047 -0.6782 -2.5682
  266TMC3    C1 4073   3.145   2.899  15.807 -0.0357  0.1985 -0.2672
  266TMC3    C2 4074   3.145   2.907  15.944 -0.5158  0.1234 -1.1236
  266TMC3    C3 4075   3.203   3.017  16.003 -0.1871 -0.0512  0.3050
  266TMC3    C4 4076   3.223   2.985  15.735 -0.2164  0.1002  0.1103
  266TMC3    C5 4077   3.277   3.095  15.799 -0.3549  0.8089 -0.4267
  266TMC3    C6 4078   3.264   3.113  15.934 -0.1287 -0.1723 -0.4900
  266TMC3     C 4079   3.082   2.779  15.756 -0.4365  0.6704 -0.4163
  266TMC3     O 4080   2.997   2.728  15.826 -0.0818  0.2999  0.8986
  266TMC3     H 4081   3.087   2.842  16.008  1.7484 -0.5949  0.2094
  266TMC3    H1 4082   3.226   2.973  15.627  0.4918 -3.0520  0.4741
  266TMC3    H2 4083   3.299   3.202  15.985 -1.5462  0.3369 -0.4178
  266TMC3    C7 4084   3.291   3.219  15.720 -0.1358 -0.8534 -0.4912
  266TMC3    C8 4085   3.195   3.010  16.147 -0.0637  0.4262 -0.5451
  266TMC3    O1 4086   3.352   3.204  15.620 -0.1974 -0.8643  0.1602
  266TMC3    O2 4087   3.162   2.904  16.199 -0.4921  0.1072  0.3328
  267MPD2     C 4088   0.747   4.640   0.251  0.4720 -0.3126 -0.5337
  267MPD2    C1 4089   0.849   4.700   0.181 -0.3914  0.3610  0.0039
  267MPD2    C2 4090   0.818   0.033   0.065  0.3927 -1.1264 -0.6472
  267MPD2    C3 4091   0.687   0.040   0.019 -0.3496 -0.3331 -0.1813
  267MPD2    C4 4092   0.586   4.715   0.086  0.3884 -0.2043  0.1467
  267MPD2    C5 4093   0.615   4.652   0.210 -0.4588  0.5517 -0.5491
  267MPD2     H 4094   0.897   0.077   0.005 -0.2612 -0.8400 -1.3023
  267MPD2    H1 4095   0.482   4.727   0.060  0.5767 -1.7679 -1.3422
  267MPD2    H2 4096   0.765   4.585   0.343 -0.4964 -1.2608 -0.9077
  267MPD2    H3 4097   0.540   4.608   0.274  1.8058  0.8216  2.2664
  267MPD2     N 4098   0.648   0.087  17.631 -0.0591  0.2380 -0.2970
  267MPD2    H5 4099   0.550   0.078  17.605  0.3606  1.4171 -2.3439
  267MPD2    N1 4100   0.982   4.664   0.220 -0.8170  0.1802  0.0339
  267MPD2    H7 4101   1.004   4.574   0.262 -0.0757 -0.3784 -1.5714
  268TMC3    C1 4102   1.215   4.679   0.178  0.9076  0.1069 -0.4245
  268TMC3    C2 4103   1.281   4.700   0.058  0.9627 -0.6201 -0.5645
  268TMC3    C3 4104   1.347   4.592  17.734 -0.5637  0.3089  0.2840
  268TMC3    C4 4105   1.222   4.558   0.236  0.0553 -0.8036 -0.0842
  268TMC3    C5 4106   1.280   4.457   0.168  0.0084 -0.1162 -0.4866
  268TMC3    C6 4107   1.348   4.471   0.049  0.5671  0.4101 -0.8323
  268TMC3     C 4108   1.087   0.014   0.190  0.4527 -0.2478  0.1548
  268TMC3     O 4109   1.088   0.125   0.133 -0.6275 -0.3928  0.5627
  268TMC3     H 4110   1.292   0.058   0.005 -2.6886 -0.2631 -0.6998
  268TMC3    H1 4111   1.173   4.541   0.331  3.5132 -2.4440  1.4256
  268TMC3    H2 4112   1.403   4.393  17.735 -2.2217 -2.0304 -0.1106
  268TMC3    C7 4113   1.290   4.329   0.240 -0.6450  0.4215  0.1074
  268TMC3    C8 4114   1.419   4.611  17.615 -0.1874 -0.3781  0.2400
  268TMC3    O1 4115   1.316   4.335   0.362 -0.3803  0.5276 -0.0231
  268TMC3    O2 4116   1.522   4.544  17.599  0.5621  0.1060 -0.4138
  269MPD2     C 4117   1.256   3.548  15.356  0.7300  0.3010  0.5315
  269MPD2    C1 4118   1.189   3.589  15.473  0.2548 -0.2021  1.0736
  269MPD2    C2 4119   1.165   3.729  15.488 -0.0024 -0.0851  0.3833
  269MPD2    C3 4120   1.199   3.813  15.382 -0.0362 -0.4683 -0.2165
  269MPD2    C4 4121   1.251   3.758  15.267 -0.0020 -0.3408 -1.3822
  269MPD2    C5 4122   1.272   3.626  15.250  0.1591 -0.8132 -0.1997
  269MPD2     H 4123   1.128   3.768  15.582 -0.2999  2.0898 -0.6501
  269MPD2    H1 4124   1.273   3.816  15.178 -2.7665 -0.3650 -2.0584
  269MPD2    H2 4125   1.288   3.445  15.352 -4.0744 -1.1109 -1.3952
  269MPD2    H3 4126   1.323   3.596  15.159  0.6857  0.1351 -0.2188
  269MPD2     N 4127   1.195   3.949  15.411 -0.4931 -0.4020 -0.2219
  269MPD2    H5 4128   1.148   3.975  15.497 -1.1005 -1.6691 -0.1705
  269MPD2    N1 4129   1.147   3.488  15.561  0.9380  0.1774 -0.0252
  269MPD2    H7 4130   1.159   3.391  15.535  0.8695  0.2773 -0.4341
  270TMC3    C1 4131   1.013   3.383  15.705  0.0191 -0.1021 -0.2242
  270TMC3    C2 4132   0.879   3.370  15.680  0.0524  0.1280  0.1180
  270TMC3    C3 4133   0.819   3.249  15.669  0.4073 -1.0090  0.9810
  270TMC3    C4 4134   1.092   3.272  15.727 -0.7952 -0.2697  0.4943
  270TMC3    C5 4135   1.020   3.153  15.724 -0.6623  1.0665 -0.1391
  270TMC3    C6 4136   0.897   3.141  15.671  0.1993  0.4200  0.2725
  270TMC3     C 4137   1.065   3.509  15.670 -0.1152 -0.0411  0.0055
  270TMC3     O 4138   0.997   3.609  15.690 -0.6589 -0.0644 -0.0848
  270TMC3     H 4139   0.814   3.455  15.665  1.8931  1.4778 -0.2611
  270TMC3    H1 4140   1.198   3.267  15.750 -0.2142  1.5596 -1.7585
  270TMC3    H2 4141   0.856   3.043  15.649  0.7790  0.1555  0.3712
  270TMC3    C7 4142   1.100   3.030  15.733  0.1425 -0.7227 -0.4478
  270TMC3    C8 4143   0.720   3.259  15.563  0.0119  0.4814 -0.4330
  270TMC3    O1 4144   1.211   3.029  15.688  0.4331 -0.7003 -0.1023
  270TMC3    O2 4145   0.632   3.343  15.559  0.1968 -0.3387  0.4029
  271MPD2     C 4146   0.149   3.241  13.795  0.1471  0.0741 -0.4916
  271MPD2    C1 4147   0.125   3.207  13.931  0.9072 -0.4093  0.4891
  271MPD2    C2 4148   4.732   3.230  13.982 -0.9824  0.1302 -0.1363
  271MPD2    C3 4149   4.627   3.273  13.906  0.1510  0.4907  0.5359
  271MPD2    C4 4150   4.649   3.299  13.773 -0.0198  0.5514  0.2396
  271MPD2    C5 4151   0.038   3.284  13.722 -0.2669 -0.8235 -0.3606
  271MPD2     H 4152   4.710   3.204  14.085  1.7480  2.8608  1.1550
  271MPD2    H1 4153   4.571   3.331  13.706  0.2524 -1.0202 -0.8285
  271MPD2    H2 4154   0.245   3.227  13.746  0.0946  1.8902 -1.1361
  271MPD2    H3 4155   0.045   3.300  13.615 -0.1357  0.3514 -0.1824
  271MPD2     N 4156   4.496   3.279  13.953  0.2013  0.3974  0.2492
  271MPD2    H5 4157   4.419   3.289  13.888  1.0142  0.5468 -0.6845
  271MPD2    N1 4158   0.227   3.160  14.016  0.0937  0.0991 -0.2072
  271MPD2    H7 4159   0.199   3.137  14.111 -1.8464 -2.8584 -1.4739
  272TMC3    C1 4160   0.411   3.075  14.109 -0.0924 -0.6039  0.0868
  272TMC3    C2 4161   0.519   2.988  14.101  0.1851 -0.0527  1.0876
  272TMC3    C3 4162   0.577   2.951  14.215 -0.2880  0.2364  0.3129
  272TMC3    C4 4163   0.367   3.125  14.235 -0.3375 -0.0750 -0.2225
  272TMC3    C5 4164   0.436   3.086  14.341 -0.4463  0.3921  0.1027
  272TMC3    C6 4165   0.533   2.990  14.338  0.1999 -0.3420  1.0215
  272TMC3     C 4166   0.351   3.120  13.984 -0.0124 -0.8331  0.6827
  272TMC3     O 4167   0.401   3.088  13.879  0.6069 -0.3594 -0.6954
  272TMC3     H 4168   0.554   2.960  14.002 -0.9114 -0.5939  0.8491
  272TMC3    H1 4169   0.296   3.206  14.244 -0.1219  0.2532 -1.4701
  272TMC3    H2 4170   0.583   2.975  14.433  3.5437 -0.7837 -0.8021
  272TMC3    C7 4171   0.376   3.131  14.465  0.0769  0.5221 -0.2495
  272TMC3    C8 4172   0.670   2.839  14.207 -0.2257 -0.8480 -1.0456
  272TMC3    O1 4173   0.256   3.138  14.460 -0.7292 -0.4515  0.0692
  272TMC3    O2 4174   0.649   2.769  14.110  0.0766  0.3019 -0.1689
  273MPD2     C 4175   2.064   0.834  11.503 -0.6352 -0.7459 -0.3868
  273MPD2    C1 4176   1.963   0.917  11.554  0.4428 -0.2212  0.0246
  273MPD2    C2 4177   1.850   0.945  11.468 -0.1764 -0.2555  0.2034
  273MPD2    C3 4178   1.858   0.896  11.335  0.3396 -0.4803 -0.2863
  273MPD2    C4 4179   1.952   0.801  11.298  0.0754  0.0771 -0.5780
  273MPD2    C5 4180   2.052   0.773  11.383 -0.0844 -0.1802 -0.2154
  273MPD2     H 4181   1.781   1.020  11.506 -0.4529 -0.5382  0.2645
  273MPD2    H1 4182   1.965   0.758  11.199  0.7119 -1.9991  0.4011
  273MPD2    H2 4183   2.159   0.820  11.553 -1.9233 -3.9929  1.1643
  273MPD2    H3 4184   2.129   0.710  11.340  1.4360  0.5116  1.4900
  273MPD2     N 4185   1.779   0.941  11.230 -0.7542 -0.1142  0.3667
  273MPD2    H5 4186   1.810   0.906  11.140 -0.0906  4.0964 -1.0326
  273MPD2    N1 4187   1.985   0.988  11.671  0.4555  0.0522 -0.1928
  273MPD2    H7 4188   2.068   0.963  11.724  0.2339  0.3514  0.2990
  274TMC3    C1 4189   1.630   1.071  11.121  0.4762 -0.1758 -0.3741
  274TMC3    C2 4190   1.504   1.043  11.076  0.0083 -0.7049  0.1517
  274TMC3    C3 4191   1.465   1.100  10.960  0.2548 -0.4094  0.3241
  274TMC3    C4 4192   1.708   1.157  11.052  0.2926  0.3592 -0.7560
  274TMC3    C5 4193   1.667   1.204  10.930 -0.3941 -0.6098 -0.4376
  274TMC3    C6 4194   1.552   1.160  10.869  0.4644  1.0701  0.2560
  274TMC3     C 4195   1.676   1.025  11.243  0.3611  0.2271 -0.6009
  274TMC3     O 4196   1.614   1.057  11.345  0.0264  0.3190  0.4916
  274TMC3     H 4197   1.439   0.971  11.125  1.0476  0.0752  2.6851
  274TMC3    H1 4198   1.803   1.187  11.094  0.5111 -1.3274 -0.0307
  274TMC3    H2 4199   1.525   1.206  10.774 -1.2243 -1.0257 -0.2725
  274TMC3    C7 4200   1.731   1.320  10.877  0.1576 -0.4702  0.4952
  274TMC3    C8 4201   1.332   1.078  10.904  0.6723  0.0812 -0.6840
  274TMC3    O1 4202   1.745   1.305  10.755  0.0307  0.0901  0.1481
  274TMC3    O2 4203   1.238   1.089  10.979 -0.4073 -0.0118 -0.1507
  275MPD2     C 4204   1.935   3.984  14.406 -0.1766 -0.7544 -0.7664
  275MPD2    C1 4205   1.881   3.943  14.529  0.1676 -0.5691  0.3624
  275MPD2    C2 4206   1.740   3.944  14.537 -0.2039  0.0873 -0.1533
  275MPD2    C3 4207   1.656   4.005  14.447 -0.4217 -0.4245  0.6775
  275MPD2    C4 4208   1.720   4.059  14.335 -0.8691  0.6918 -0.1797
  275MPD2    C5 4209   1.857   4.046  14.318  0.6455 -0.1059 -0.1357
  275MPD2     H 4210   1.694   3.892  14.620  0.4790  1.1767  0.9110
  275MPD2    H1 4211   1.669   4.108  14.253 -0.3190  1.3565 -0.1279
  275MPD2    H2 4212   2.039   3.975  14.377 -0.0534  1.1891 -0.9757
  275MPD2    H3 4213   1.910   4.077  14.229 -0.4652  1.1805 -0.3361
  275MPD2     N 4214   1.515   4.016  14.458 -0.3396  0.3055 -0.5173
  275MPD2    H5 4215   1.461   4.035  14.374  1.1492  0.4507 -1.4383
  275MPD2    N1 4216   1.956   3.880  14.630  0.3628  0.0179  0.4544
  275MPD2    H7 4217   1.914   3.863  14.721  1.5230  0.7795  1.1314
  276TMC3    C1 4218   2.143   3.896  14.762 -0.3091 -0.4081  0.5176
  276TMC3    C2 4219   2.151   3.784  14.840  0.2305 -0.5777 -0.6323
  276TMC3    C3 4220   2.241   3.785  14.939  0.2033 -0.3457 -0.9284
  276TMC3    C4 4221   2.227   4.003  14.787  0.0901  0.5794 -0.2445
  276TMC3    C5 4222   2.305   4.005  14.895 -0.1501  0.0212  0.1799
  276TMC3    C6 4223   2.312   3.897  14.979  0.2121  0.3601 -0.0920
  276TMC3     C 4224   2.097   3.884  14.627 -0.4176 -0.1972  0.4332
  276TMC3     O 4225   2.177   3.905  14.535  0.4510 -0.4862 -0.5979
  276TMC3     H 4226   2.116   3.692  14.796 -0.8159 -0.8325  0.7083
  276TMC3    H1 4227   2.212   4.098  14.737  0.0652 -0.2316 -1.7527
  276TMC3    H2 4228   2.386   3.903  15.058 -0.7625 -0.5330  0.8988
  276TMC3    C7 4229   2.359   4.134  14.935  0.6012 -0.2823 -0.2300
  276TMC3    C8 4230   2.276   3.661  15.005 -0.2751 -0.2401  0.2787
  276TMC3    O1 4231   2.343   4.169  15.053 -0.1030  0.1499  0.2765
  276TMC3    O2 4232   2.340   3.668  15.111  0.5794  0.1136 -0.6206
  277MPD2     C 4233   3.535   3.130  13.345  0.5913 -0.2795  0.4106
  277MPD2    C1 4234   3.397   3.114  13.331 -0.1144  0.3065  0.2179
  277MPD2    C2 4235   3.338   2.999  13.392 -0.5947 -0.5802  0.1691
  277MPD2    C3 4236   3.418   2.901  13.446  0.2125 -0.1006  0.1940
  277MPD2    C4 4237   3.552   2.915  13.447 -0.4082 -0.2714  0.0025
  277MPD2    C5 4238   3.610   3.028  13.396  0.3380 -0.5636 -0.7566
  277MPD2     H 4239   3.230   2.989  13.391 -0.8849  1.9556  4.5266
  277MPD2    H1 4240   3.619   2.839  13.484  2.6412  2.7097  0.5385
  277MPD2    H2 4241   3.589   3.214  13.304  0.1183 -1.5874 -2.9335
  277MPD2    H3 4242   3.714   3.040  13.425  0.4488  1.3998 -1.8934
  277MPD2     N 4243   3.345   2.801  13.519 -0.5904 -0.1008  0.2307
  277MPD2    H5 4244   3.246   2.818  13.531 -0.8079 -0.7890 -0.6397
  277MPD2    N1 4245   3.325   3.227  13.285 -0.4918  0.4244  0.2430
  277MPD2    H7 4246   3.377   3.299  13.235  1.1846 -0.7960  0.2472
  278TMC3    C1 4247   3.300   2.630  13.676 -0.4601 -0.6723 -0.3484
  278TMC3    C2 4248   3.330   2.496  13.711 -1.0400  0.6581 -0.1562
  278TMC3    C3 4249   3.224   2.421  13.757 -0.2382  0.2915  0.1467
  278TMC3    C4 4250   3.178   2.685  13.699  0.4207  0.1204  0.4303
  278TMC3    C5 4251   3.089   2.600  13.744  0.6169  0.0515 -0.0889
  278TMC3    C6 4252   3.105   2.468  13.771  0.5303 -0.4272  0.4646
  278TMC3     C 4253   3.397   2.695  13.589  0.0178  0.7514  0.4978
  278TMC3     O 4254   3.505   2.638  13.575 -0.2890 -0.2653  0.5855
  278TMC3     H 4255   3.426   2.451  13.687 -0.5928  0.5885  1.8145
  278TMC3    H1 4256   3.152   2.787  13.673  0.3420 -0.3816 -1.4765
  278TMC3    H2 4257   3.023   2.399  13.791 -0.6539  0.5200 -1.1702
  278TMC3    C7 4258   2.954   2.646  13.776  0.0859 -0.4950  0.4914
  278TMC3    C8 4259   3.229   2.273  13.747 -0.2325 -0.2901 -0.6522
  278TMC3    O1 4260   2.894   2.588  13.865  0.3856 -0.1292 -0.2006
  278TMC3    O2 4261   3.323   2.201  13.780  0.2599  0.3064 -0.3881
  279MPD2     C 4262   2.394   3.042   0.394 -0.9749  0.3293  0.3857
  279MPD2    C1 4263   2.419   3.172   0.433 -0.0079 -0.5378 -0.3273
  279MPD2    C2 4264   2.485   3.256   0.341  0.5599  0.2637  0.6525
  279MPD2    C3 4265   2.514   3.213   0.213  0.4793  0.4153 -0.8461
  279MPD2    C4 4266   2.498   3.080   0.179  0.5929 -0.0311 -0.5054
  279MPD2    C5 4267   2.429   2.993   0.265  0.2898  0.6216 -0.7368
  279MPD2     H 4268   2.503   3.358   0.373 -4.3219  1.1993  0.3807
  279MPD2    H1 4269   2.514   3.034   0.083 -0.8361 -2.2150  0.3150
  279MPD2    H2 4270   2.358   2.964   0.461  0.0942 -0.1269  0.4448
  279MPD2    H3 4271   2.432   2.889   0.234 -0.8576 -0.4100  2.6841
  279MPD2     N 4272   2.565   3.294   0.112 -0.2313 -0.0042 -0.2936
  279MPD2    H5 4273   2.577   3.253   0.020 -0.9702 -0.6341 -0.1058
  279MPD2    N1 4274   2.364   3.202   0.563 -0.1591  0.1575 -0.0272
  279MPD2    H7 4275   2.320   3.125   0.612  1.3867 -0.3787  0.5114
  280TMC3    C1 4276   2.244   3.348   0.698 -0.1885 -0.3165 -0.1550
  280TMC3    C2 4277   2.131   3.288   0.647  0.4019  0.1883  0.1630
  280TMC3    C3 4278   2.017   3.364   0.647 -0.6370  0.1883 -0.7341
  280TMC3    C4 4279   2.243   3.480   0.746  0.7057  0.0841 -0.2489
  280TMC3    C5 4280   2.130   3.551   0.741  0.1845  0.8624 -0.0959
  280TMC3    C6 4281   2.016   3.486   0.697  0.2124 -0.3588  0.3802
  280TMC3     C 4282   2.361   3.331   0.615 -0.0905  0.1372  0.5409
  280TMC3     O 4283   2.415   3.436   0.577 -0.0423  0.0454 -0.4909
  280TMC3     H 4284   2.136   3.186   0.610 -0.0656 -0.4527  1.8421
  280TMC3    H1 4285   2.336   3.531   0.773  0.8617  0.4055 -1.3867
  280TMC3    H2 4286   1.922   3.539   0.686 -0.2838 -1.0792  1.1602
  280TMC3    C7 4287   2.155   3.690   0.689  0.2515  0.5626  0.3942
  280TMC3    C8 4288   1.954   3.361   0.515 -0.3756  0.0602 -0.3320
  280TMC3    O1 4289   2.264   3.747   0.714  0.2932  0.1053 -0.1060
  280TMC3    O2 4290   1.905   3.469   0.481  0.2423  0.2530  0.1503
  281TMC3    C1 4291   1.852   3.533  13.321 -0.5219  0.2437 -0.0890
  281TMC3    C2 4292   1.878   3.630  13.234 -0.5528  0.6365 -0.2292
  281TMC3    C3 4293   1.868   3.610  13.099  0.7325  0.4048 -0.4777
  281TMC3    C4 4294   1.816   3.407  13.285  0.0587 -0.0608 -0.0086
  281TMC3    C5 4295   1.814   3.384  13.151  0.6718  0.0407  0.1665
  281TMC3    C6 4296   1.832   3.486  13.056  0.0174 -0.6265  0.6132
  281TMC3     C 4297   1.789   3.575  13.444 -0.1672 -0.7671 -0.1589
  281TMC3     O 4298   1.774   3.492  13.534 -0.1423 -0.4495  0.8692
  281TMC3     H 4299   1.906   3.730  13.268 -0.0846  0.9421 -1.5283
  281TMC3    H1 4300   1.792   3.331  13.357  0.3759  0.5946  0.7939
  281TMC3    H2 4301   1.815   3.468  12.951 -2.4638 -3.8243  1.5629
  281TMC3    C7 4302   1.755   3.262  13.105 -0.7705 -0.4290  0.2767
  281TMC3    C8 4303   1.797   3.722  13.040 -0.2400  0.2746  0.4858
  281TMC3    O1 4304   1.805   3.207  13.006  0.4098 -0.2371  0.0375
  281TMC3    O2 4305   1.843   3.765  12.933 -0.2772 -0.1351 -0.2853
  282MPD2     C 4306   3.589   4.609  14.939  0.4252 -0.6823  0.7005
  282MPD2    C1 4307   3.460   4.642  14.982  0.7165  0.5303  0.1580
  282MPD2    C2 4308   3.360   4.632  14.880  0.1007 -0.4572  0.0260
  282MPD2    C3 4309   3.384   4.607  14.744  0.4203 -0.4538  0.2719
  282MPD2    C4 4310   3.521   4.577  14.705  0.4380 -0.5047 -0.4121
  282MPD2    C5 4311   3.617   4.584  14.804 -0.1303 -0.0195 -0.5761
  282MPD2     H 4312   3.255   4.653  14.897  0.5673  0.2104  2.1155
  282MPD2    H1 4313   3.541   4.568  14.599 -0.0512 -0.9548 -0.4620
  282MPD2    H2 4314   3.665   4.593  15.015 -1.5284 -0.4197  2.6948
  282MPD2    H3 4315   3.719   4.590  14.770  0.6178  1.2110  1.8516
  282MPD2     N 4316   3.278   4.622  14.651  0.4203  0.2328 -0.2171
  282MPD2    H5 4317   3.193   4.663  14.689 -0.2437 -1.7663  0.5019
  282MPD2    N1 4318   3.420   4.668  15.115 -0.4534  0.6186 -0.2681
  282MPD2    H7 4319   3.321   4.671  15.134 -0.4786  2.8641 -0.7210
  283TMC3    C1 4320   3.449   4.732  15.344  0.2138 -0.1012 -0.6063
  283TMC3    C2 4321   3.504   0.088  15.427 -0.1062  0.0351  0.9474
  283TMC3    C3 4322   3.447   0.104  15.551 -0.3464  0.5150  0.0003
  283TMC3    C4 4323   3.342   4.654  15.381 -0.8285  0.1106  0.1343
  283TMC3    C5 4324   3.286   4.679  15.504  0.1332  0.6390 -0.1884
  283TMC3    C6 4325   3.337   0.038  15.592  0.1107 -0.0953 -0.1162
  283TMC3     C 4326   3.499   4.732  15.204 -0.8775  0.3293  0.6265
  283TMC3     O 4327   3.606   0.048  15.178  0.3502  0.2655  0.6687
  283TMC3     H 4328   3.570   0.164  15.389 -0.6308 -0.4177 -0.8648
  283TMC3    H1 4329   3.299   4.574  15.321  0.5590  0.2716 -1.1059
  283TMC3    H2 4330   3.290   0.074  15.683  0.7975 -1.2320  0.6912
  283TMC3    C7 4331   3.171   4.603  15.553 -0.3506  0.0741  0.1854
  283TMC3    C8 4332   3.467   0.236  15.605 -0.4349 -0.7022  0.3044
  283TMC3    O1 4333   3.158   4.588  15.674  0.2440  0.1576  0.6405
  283TMC3    O2 4334   3.519   0.256  15.713 -0.0543  0.3318 -0.0578
  284MPD2     C 4335   1.032   3.706  11.752  0.0617  0.1488 -0.4034
  284MPD2    C1 4336   1.161   3.663  11.748 -0.3667  0.3165  0.5801
  284MPD2    C2 4337   1.180   3.524  11.741  0.4558  0.1651 -0.7376
  284MPD2    C3 4338   1.072   3.437  11.744  0.1651 -0.0199  0.5994
  284MPD2    C4 4339   0.945   3.484  11.754  0.0362 -0.1642  0.2556
  284MPD2    C5 4340   0.930   3.619  11.748  0.0695 -0.6913 -0.3158
  284MPD2     H 4341   1.281   3.485  11.753 -0.0485 -0.4375  1.5648
  284MPD2    H1 4342   0.858   3.419  11.761  1.1611 -1.9275 -2.0755
  284MPD2    H2 4343   1.001   3.810  11.748 -0.8789 -0.2453 -2.9961
  284MPD2    H3 4344   0.830   3.658  11.764  0.6523  0.2895  0.9831
  284MPD2     N 4345   1.086   3.293  11.746  0.0541 -0.8016  0.0095
  284MPD2    H5 4346   1.001   3.243  11.771 -0.2826 -0.4985 -0.5417
  284MPD2    N1 4347   1.279   3.745  11.751  0.4536  0.4341  0.1197
  284MPD2    H7 4348   1.367   3.696  11.742  0.1647 -0.4587  1.9584
  285TMC3    C1 4349   1.378   3.952  11.694 -1.1812 -0.4382 -0.4175
  285TMC3    C2 4350   1.465   3.879  11.620  0.2322  0.4094  0.1594
  285TMC3    C3 4351   1.568   3.947  11.566  0.3179 -0.0359  0.0388
  285TMC3    C4 4352   1.383   4.091  11.710  0.5230  0.0989  0.1417
  285TMC3    C5 4353   1.491   4.155  11.653 -0.8513  0.8722 -0.5290
  285TMC3    C6 4354   1.594   4.083  11.591 -0.4380 -0.3968  1.0106
  285TMC3     C 4355   1.265   3.882  11.751  0.8897  0.4210 -0.5026
  285TMC3     O 4356   1.173   3.951  11.796  0.1657 -0.0428 -0.4975
  285TMC3     H 4357   1.441   3.780  11.584 -0.3329 -0.0471  1.7929
  285TMC3    H1 4358   1.315   4.142  11.778  2.1965  1.2705  0.9264
  285TMC3    H2 4359   1.653   4.151  11.531 -1.9378 -0.0496 -0.0953
  285TMC3    C7 4360   1.492   4.305  11.634  0.0574  0.4994 -0.5536
  285TMC3    C8 4361   1.657   3.874  11.471  0.0194 -0.1983 -0.4656
  285TMC3    O1 4362   1.603   4.356  11.640 -0.6105 -0.1433 -0.7764
  285TMC3    O2 4363   1.641   3.760  11.444  0.3324  0.0697 -0.1234
  286MPD2     C 4364   1.944   3.135   2.144 -0.2445  0.1726 -0.0627
  286MPD2    C1 4365   1.896   3.113   2.019 -0.2150  1.3029  0.6259
  286MPD2    C2 4366   1.975   3.027   1.942 -0.0925  0.2137 -0.2572
  286MPD2    C3 4367   2.078   2.959   1.991 -0.3577 -0.3580 -0.7749
  286MPD2    C4 4368   2.129   2.999   2.113  0.3096 -0.0636  0.4380
  286MPD2    C5 4369   2.056   3.079   2.191  0.1993  0.2827 -0.4371
  286MPD2     H 4370   1.955   3.010   1.836 -2.2911  1.8541 -0.1197
  286MPD2    H1 4371   2.217   2.947   2.151  0.5356  0.4966  0.6803
  286MPD2    H2 4372   1.887   3.196   2.212 -0.6470 -0.3147  0.0394
  286MPD2    H3 4373   2.092   3.097   2.292  0.1441  0.1391 -0.3914
  286MPD2     N 4374   2.150   2.857   1.932 -0.4944 -0.4183  0.2518
  286MPD2    H5 4375   2.234   2.820   1.975 -1.0119 -0.7865  0.9279
  286MPD2    N1 4376   1.778   3.166   1.971  0.2284  0.1178  1.1795
  286MPD2    H7 4377   1.751   3.138   1.877 -2.0978  0.2505  1.8192
  287TMC3    C1 4378   2.204   2.698   1.760  0.2218  0.0464  0.8735
  287TMC3    C2 4379   2.177   2.646   1.638  0.8626  0.6291  0.0205
  287TMC3    C3 4380   2.285   2.592   1.571 -0.4418  0.1648  1.1502
  287TMC3    C4 4381   2.337   2.722   1.799 -0.3554  0.9203 -0.2088
  287TMC3    C5 4382   2.436   2.658   1.731 -0.3975 -0.4954  0.1957
  287TMC3    C6 4383   2.415   2.589   1.615 -0.3279 -0.1066  0.3622
  287TMC3     C 4384   2.108   2.789   1.818  0.5486  0.0221  0.5012
  287TMC3     O 4385   1.994   2.791   1.772 -0.2001  0.6198 -0.4144
  287TMC3     H 4386   2.078   2.643   1.593 -0.3723  0.4858  2.7909
  287TMC3    H1 4387   2.367   2.795   1.872  2.2259 -1.1338  0.7909
  287TMC3    H2 4388   2.496   2.539   1.563 -1.4735 -0.0335 -1.5325
  287TMC3    C7 4389   2.573   2.661   1.782 -0.3473 -0.0748  0.5293
  287TMC3    C8 4390   2.255   2.540   1.440 -0.1253  0.6877  0.4370
  287TMC3    O1 4391   2.596   2.749   1.863  0.1258 -0.2130  0.0319
  287TMC3    O2 4392   2.142   2.514   1.406 -0.0307  0.2439 -0.1145
  288TMC3    C1 4393   3.118   2.287  14.491 -0.6688 -0.7482 -0.1020
  288TMC3    C2 4394   3.077   2.258  14.617  0.4344 -0.7882 -0.6244
  288TMC3    C3 4395   3.078   2.362  14.706  0.0163 -0.6496  0.2333
  288TMC3    C4 4396   3.144   2.418  14.450 -0.1736  0.1639  0.4443
  288TMC3    C5 4397   3.133   2.521  14.539  0.5292  0.6050 -1.0756
  288TMC3    C6 4398   3.111   2.491  14.674  0.6496 -0.1244  0.8077
  288TMC3     C 4399   3.049   2.199  14.400 -0.5544 -0.1784  0.2425
  288TMC3     O 4400   3.004   2.094  14.446 -0.4371 -0.2488  0.4626
  288TMC3     H 4401   3.056   2.156  14.647 -1.7443 -0.6809 -1.7361
  288TMC3    H1 4402   3.168   2.440  14.347 -0.4226  1.5053  0.6688
  288TMC3    H2 4403   3.113   2.576  14.741  1.1459 -0.7982  1.6521
  288TMC3    C7 4404   3.181   2.656  14.513  0.1822 -0.3095  0.5738
  288TMC3    C8 4405   3.043   2.339  14.844  0.0373 -0.7185  0.0835
  288TMC3    O1 4406   3.139   2.742  14.592  0.3092  0.2144  0.0806
  288TMC3    O2 4407   3.108   2.398  14.928 -0.0984 -0.3517  0.7273
  289MPD2     C 4408   3.389   1.508  14.685 -0.2606  0.2172  0.7124
  289MPD2    C1 4409   3.385   1.620  14.602  0.2364  0.5926 -0.4403
  289MPD2    C2 4410   3.278   1.628  14.512 -0.2400 -0.2602 -0.0453
  289MPD2    C3 4411   3.167   1.539  14.505  0.7828 -0.1477 -0.0355
  289MPD2    C4 4412   3.174   1.436  14.594  0.5586  0.5225 -0.2672
  289MPD2    C5 4413   3.285   1.414  14.679  0.0635  0.4110 -0.1707
  289MPD2     H 4414   3.275   1.714  14.446  3.0609 -0.9810 -1.1458
  289MPD2    H1 4415   3.100   1.357  14.589  0.2198  0.7952  0.4764
  289MPD2    H2 4416   3.474   1.498  14.752 -0.0271 -0.5248  0.3133
  289MPD2    H3 4417   3.289   1.320  14.732 -0.0505  1.0104  0.9129
  289MPD2     N 4418   3.049   1.554  14.429  0.5997 -0.0277 -0.5914
  289MPD2    H5 4419   2.967   1.508  14.467  0.6216  1.4742  1.2550
  289MPD2    N1 4420   3.482   1.721  14.619  0.2148  0.1105  0.6878
  289MPD2    H7 4421   3.544   1.709  14.699 -0.0367  0.8440  0.9983
  290TMC3    C1 4422   2.901   1.660  14.293 -0.3979 -0.1744  0.2000
  290TMC3    C2 4423   2.849   1.790  14.273 -0.4685  0.4847  0.2985
  290TMC3    C3 4424   2.739   1.805  14.198  0.0958  0.5916  0.0862
  290TMC3    C4 4425   2.843   1.553  14.234 -0.2996  0.2510 -0.0512
  290TMC3    C5 4426   2.730   1.571  14.165  0.1643  0.2139  0.6690
  290TMC3    C6 4427   2.678   1.693  14.144  0.1879  0.1658 -0.3731
  290TMC3     C 4428   3.040   1.650  14.331  0.1815  0.5043  0.2324
  290TMC3     O 4429   3.113   1.734  14.295 -0.0946  0.4285 -0.2901
  290TMC3     H 4430   2.895   1.872  14.326  1.9645 -1.4141  1.1262
  290TMC3    H1 4431   2.902   1.463  14.226  1.7381  1.6906 -1.1760
  290TMC3    H2 4432   2.579   1.703  14.101  0.0181  3.0232  0.6228
  290TMC3    C7 4433   2.673   1.462  14.091  0.6186 -0.2613 -0.0403
  290TMC3    C8 4434   2.685   1.940  14.159  0.1390 -0.2860  0.9848
  290TMC3    O1 4435   2.638   1.493  13.977 -0.2358  0.2499  0.0287
  290TMC3    O2 4436   2.622   1.942  14.054 -0.0706  0.2309  0.7711
  291MPD2     C 4437   2.800   1.927   0.313 -0.2644  0.7875  0.3829
  291MPD2    C1 4438   2.852   1.796   0.306 -0.1688  0.4734 -0.3409
  291MPD2    C2 4439   2.989   1.779   0.287 -0.0364  0.3496 -0.0209
  291MPD2    C3 4440   3.072   1.887   0.295  0.0739 -0.0761  0.0815
  291MPD2    C4 4441   3.018   2.017   0.300  0.3558 -0.0617 -0.0080
  291MPD2    C5 4442   2.882   2.031   0.310  0.1989 -0.0965  0.4289
  291MPD2     H 4443   3.029   1.678   0.286  3.5869  1.7882 -0.1800
  291MPD2    H1 4444   3.085   2.102   0.306  1.4581 -0.8500 -1.1886
  291MPD2    H2 4445   2.693   1.947   0.319 -0.3205  0.8115 -0.6235
  291MPD2    H3 4446   2.833   2.127   0.316 -0.9351 -0.7802  2.0699
  291MPD2     N 4447   3.215   1.886   0.283  0.0263  0.8693 -0.2052
  291MPD2    H5 4448   3.263   1.973   0.303 -1.2271  1.0259  2.0595
  291MPD2    N1 4449   2.768   1.682   0.289  0.0873  0.4260  0.5397
  291MPD2    H7 4450   2.817   1.595   0.271  2.1355  1.4449  1.1975
  292TMC3    C1 4451   2.577   1.547   0.324  0.3764 -0.2431 -0.3113
  292TMC3    C2 4452   2.458   1.539   0.386 -0.1884 -0.9296  0.0248
  292TMC3    C3 4453   2.408   1.412   0.410  0.0170  0.5382 -0.3370
  292TMC3    C4 4454   2.644   1.437   0.265  0.2335 -0.1505  0.2018
  292TMC3    C5 4455   2.581   1.315   0.288  0.2690 -0.5318 -0.1291
  292TMC3    C6 4456   2.473   1.300   0.370  0.0079  0.3847 -0.4246
  292TMC3     C 4457   2.637   1.676   0.315 -0.2492  0.3637  0.0470
  292TMC3     O 4458   2.566   1.765   0.367 -0.0921  0.3915 -0.1801
  292TMC3     H 4459   2.401   1.626   0.416  1.6719  0.2064  0.3101
  292TMC3    H1 4460   2.729   1.455   0.199 -0.6236 -3.0078 -1.6936
  292TMC3    H2 4461   2.433   1.200   0.372 -0.8400  0.7648  1.9491
  292TMC3    C7 4462   2.657   1.197   0.254 -0.1482 -0.4489  0.1840
  292TMC3    C8 4463   2.297   1.397   0.500  0.0264 -0.7376 -0.7204
  292TMC3    O1 4464   2.610   1.094   0.300  0.0145 -0.4637  0.8523
  292TMC3    O2 4465   2.265   1.501   0.559  0.3210  0.1474  0.0796
  293MPD2     C 4466   4.167   3.016  12.533  0.2107  0.6346 -0.2101
  293MPD2    C1 4467   4.108   2.941  12.634 -1.0450  0.8144 -0.4646
  293MPD2    C2 4468   4.139   2.983  12.762  0.0853  0.0601 -0.6148
  293MPD2    C3 4469   4.218   3.094  12.781 -0.2719 -1.2779  0.8536
  293MPD2    C4 4470   4.274   3.165  12.678 -0.3796 -0.1839  0.7318
  293MPD2    C5 4471   4.249   3.122  12.556  0.4115 -0.4765 -0.6768
  293MPD2     H 4472   4.093   2.941  12.850 -0.9069  2.1514 -0.1322
  293MPD2    H1 4473   4.340   3.248  12.700 -2.4719  1.2457  1.5148
  293MPD2    H2 4474   4.148   2.986  12.431  1.9175 -0.7550 -0.1252
  293MPD2    H3 4475   4.289   3.180  12.474 -1.6005 -0.8125 -1.9047
  293MPD2     N 4476   4.235   3.135  12.916  1.0928  0.2134  0.6381
  293MPD2    H5 4477   4.202   3.072  12.988 -0.2142 -0.2646 -0.3709
  293MPD2    N1 4478   4.037   2.828  12.598  0.1033  0.2024 -0.2466
  293MPD2    H7 4479   4.026   2.808  12.499  0.9780  0.5401 -0.4072
  294TMC3    C1 4480   3.881   2.644  12.624  0.5392  0.3484  0.0019
  294TMC3    C2 4481   3.784   2.592  12.703  0.4975 -0.0891 -0.1549
  294TMC3    C3 4482   3.699   2.500  12.639  0.6253 -0.2943 -0.6499
  294TMC3    C4 4483   3.911   2.597  12.501 -0.1447 -0.0553  0.8406
  294TMC3    C5 4484   3.834   2.505  12.447  0.5915  0.1869 -0.3188
  294TMC3    C6 4485   3.728   2.447  12.512 -0.4059 -0.0288 -0.2934
  294TMC3     C 4486   3.963   2.751  12.689 -0.0127  0.4013  0.4448
  294TMC3     O 4487   3.965   2.767  12.807 -0.0880  0.6266  0.0223
  294TMC3     H 4488   3.766   2.625  12.804 -0.6922  0.7313 -0.6259
  294TMC3    H1 4489   3.996   2.639  12.449  0.0130  0.4589  1.5162
  294TMC3    H2 4490   3.678   2.369  12.456  1.9199 -0.3717 -1.9117
  294TMC3    C7 4491   3.851   2.467  12.307 -0.3632  0.5158 -0.0911
  294TMC3    C8 4492   3.582   2.444  12.711 -0.6114 -0.5567 -0.0881
  294TMC3    O1 4493   3.761   2.406  12.247  0.8546 -0.4570  0.3303
  294TMC3    O2 4494   3.569   2.474  12.828 -0.7759 -0.7909 -0.1929
  295MPD2     C 4495   0.015   1.713   0.910 -0.4831  0.3172  0.0201
  295MPD2    C1 4496   0.047   1.807   0.816  0.1067 -1.1538  0.7305
  295MPD2    C2 4497   0.009   1.937   0.847  0.3195 -0.0911  0.6460
  295MPD2    C3 4498   4.663   1.967   0.960 -0.1330 -0.1585 -0.6278
  295MPD2    C4 4499   4.618   1.861   1.037  0.0821  0.0332 -0.1378
  295MPD2    C5 4500   4.669   1.735   1.015  0.1896 -0.4979  0.4994
  295MPD2     H 4501   0.039   2.015   0.779  0.3421 -0.6750 -0.0198
  295MPD2    H1 4502   4.541   1.879   1.111 -0.1767  0.7365 -0.5817
  295MPD2    H2 4503   0.050   1.612   0.893  0.9729  0.4279  2.2584
  295MPD2    H3 4504   4.637   1.643   1.063 -0.8737  0.2855  1.3004
  295MPD2     N 4505   4.604   2.095   0.975 -0.0844 -0.0221 -0.5035
  295MPD2    H5 4506   4.523   2.094   1.036  0.6764 -0.7777  0.4848
  295MPD2    N1 4507   0.111   1.762   0.692 -0.0470  0.1289  0.2457
  295MPD2    H7 4508   0.132   1.664   0.676 -0.9374 -0.1502  0.7948
  296TMC3    C1 4509   4.551   2.321   0.963  0.8022  0.0483  0.7460
  296TMC3    C2 4510   4.530   2.427   0.877 -0.6365  0.4393 -0.5253
  296TMC3    C3 4511   4.449   2.528   0.928  0.3246  0.0250 -0.0779
  296TMC3    C4 4512   4.503   2.314   1.094  0.4956  0.6417  0.9764
  296TMC3    C5 4513   4.432   2.425   1.142 -0.6328 -0.8070  0.3456
  296TMC3    C6 4514   4.402   2.529   1.053  0.0001 -0.2429 -0.6151
  296TMC3     C 4515   4.630   2.204   0.907 -0.1771  0.1467 -0.7966
  296TMC3     O 4516   4.710   2.222   0.821  0.0344  0.2509  0.7380
  296TMC3     H 4517   4.571   2.429   0.777  0.1112 -1.6585 -0.2475
  296TMC3    H1 4518   4.527   2.236   1.166 -1.5473 -1.8587 -1.0502
  296TMC3    H2 4519   4.332   2.606   1.083  0.7192  0.1055  0.1695
  296TMC3    C7 4520   4.371   2.409   1.274 -0.3710 -0.2098  0.4442
  296TMC3    C8 4521   4.414   2.635   0.839  0.0431 -0.0121  0.0956
  296TMC3    O1 4522   4.334   2.513   1.325  0.1518 -0.2552  0.0311
  296TMC3    O2 4523   4.449   2.625   0.721  0.1151  0.5347  0.2823
  297MPD2     C 4524   2.506   3.529  16.200  0.9156 -0.0096  0.3191
  297MPD2    C1 4525   2.454   3.645  16.138  0.0182 -0.5197  0.4711
  297MPD2    C2 4526   2.530   3.763  16.149  0.7461  0.1229  0.0528
  297MPD2    C3 4527   2.650   3.762  16.210  0.0697  0.3055 -0.1527
  297MPD2    C4 4528   2.702   3.648  16.266  0.2288  0.1007 -0.0902
  297MPD2    C5 4529   2.629   3.527  16.264 -1.0935 -0.0946 -0.3843
  297MPD2     H 4530   2.496   3.853  16.099 -0.8152  0.6887  2.0944
  297MPD2    H1 4531   2.796   3.653  16.319  1.3169  0.0095 -2.0283
  297MPD2    H2 4532   2.447   3.438  16.196 -0.4082  0.7645  2.3572
  297MPD2    H3 4533   2.664   3.438  16.315 -1.2187  1.0738  1.7329
  297MPD2     N 4534   2.713   3.891  16.217 -0.2134 -0.0583  0.4696
  297MPD2    H5 4535   2.683   3.963  16.152  0.9925 -1.0504 -1.1629
  297MPD2    N1 4536   2.325   3.642  16.081  0.7892  0.9790 -0.0857
  297MPD2    H7 4537   2.288   3.729  16.046 -1.7352  0.2965  0.8733
  298TMC3    C1 4538   2.137   3.560  15.974  0.0373  0.7972  0.5337
  298TMC3    C2 4539   2.089   3.494  15.867  0.4188  0.7199 -0.0939
  298TMC3    C3 4540   1.962   3.523  15.824 -0.3388  0.4385  0.2215
  298TMC3    C4 4541   2.067   3.664  16.038  0.4484  0.0613  0.2935
  298TMC3    C5 4542   1.937   3.675  15.998  0.5273 -0.7826  0.0392
  298TMC3    C6 4543   1.882   3.613  15.892 -0.0223  0.2827 -0.3456
  298TMC3     C 4544   2.266   3.527  16.028 -0.2294  0.8293 -0.6876
  298TMC3     O 4545   2.310   3.417  16.001  0.4488  0.6854 -0.4028
  298TMC3     H 4546   2.157   3.428  15.814  0.5814  0.2886  0.6522
  298TMC3    H1 4547   2.100   3.701  16.134 -1.5276 -1.0780  1.4104
  298TMC3    H2 4548   1.777   3.626  15.865 -0.0547  1.0905  0.1738
  298TMC3    C7 4549   1.864   3.776  16.069 -0.2325  0.0972 -0.3974
  298TMC3    C8 4550   1.908   3.441  15.712  0.1288 -0.9609  0.3843
  298TMC3    O1 4551   1.907   3.812  16.177 -0.0961 -0.0005  0.5933
  298TMC3    O2 4552   1.970   3.341  15.679 -0.3280 -0.3137 -0.0424
  299MPD2     C 4553   2.534   3.186  10.242  0.5950  0.5476  0.6887
  299MPD2    C1 4554   2.615   3.297  10.271 -0.0188  0.4555  0.2156
  299MPD2    C2 4555   2.589   3.413  10.209  0.3836 -0.9318 -0.0948
  299MPD2    C3 4556   2.491   3.423  10.119  0.2172 -0.2401 -0.3125
  299MPD2    C4 4557   2.411   3.313  10.078 -0.8600  0.8963  0.5610
  299MPD2    C5 4558   2.433   3.196  10.148 -0.6027 -0.2043 -0.2482
  299MPD2     H 4559   2.653   3.499  10.222 -2.2956  0.8687  1.1777
  299MPD2    H1 4560   2.325   3.323  10.012 -0.1190  1.2944 -0.3536
  299MPD2    H2 4561   2.536   3.087  10.287 -2.3524  0.4005  0.5174
  299MPD2    H3 4562   2.361   3.115  10.140  2.2537 -2.7675 -0.2931
  299MPD2     N 4563   2.458   3.546  10.055 -0.3639 -0.3960 -0.0545
  299MPD2    H5 4564   2.386   3.554   9.984 -0.6889 -1.4759  0.1659
  299MPD2    N1 4565   2.716   3.272  10.365  0.0899 -0.8074 -0.2339
  299MPD2    H7 4566   2.730   3.177  10.399 -0.7596 -0.9981 -0.4057
  300TMC3    C1 4567   2.402   3.781  10.064  1.0147  0.4916 -0.0351
  300TMC3    C2 4568   2.361   3.855  10.178  0.3884 -0.6416 -0.2148
  300TMC3    C3 4569   2.226   3.883  10.191  0.0740  0.4579 -0.5340
  300TMC3    C4 4570   2.304   3.732   9.986  0.0414 -0.3316 -0.6123
  300TMC3    C5 4571   2.170   3.753  10.001 -0.0363 -0.1322 -0.3624
  300TMC3    C6 4572   2.130   3.834  10.103 -0.1150 -0.3520  0.5255
  300TMC3     C 4573   2.493   3.669  10.106 -0.6056  0.1714  0.1121
  300TMC3     O 4574   2.567   3.711  10.195 -0.0688 -0.2370 -0.2114
  300TMC3     H 4575   2.432   3.886  10.254  1.3660  1.7789 -2.1209
  300TMC3    H1 4576   2.331   3.673   9.900 -0.7668 -1.7553  0.1079
  300TMC3    H2 4577   2.024   3.856  10.107 -0.9410 -4.5232  0.9939
  300TMC3    C7 4578   2.123   3.623  10.021  0.3118  0.5618  0.9308
  300TMC3    C8 4579   2.177   3.949  10.312  0.6028 -0.3047  0.0678
  300TMC3    O1 4580   2.164   3.537   9.945  0.1958 -0.0115 -0.2696
  300TMC3    O2 4581   2.079   4.023  10.303 -0.2811 -0.1343  0.4349
  301MPD2     C 4582   4.192   4.543   1.504 -0.3071  0.1943  0.3397
  301MPD2    C1 4583   4.215   4.505   1.375  0.4786 -0.4974 -0.1934
  301MPD2    C2 4584   4.319   4.430   1.349 -0.7574  0.2503 -0.5292
  301MPD2    C3 4585   4.422   4.401   1.439  0.3583  0.5299  0.2739
  301MPD2    C4 4586   4.408   4.451   1.567  0.4147  0.5554 -0.1418
  301MPD2    C5 4587   4.287   4.513   1.598  0.2993  0.0707  0.0416
  301MPD2     H 4588   4.321   4.392   1.247 -0.5627 -1.3547  0.0767
  301MPD2    H1 4589   4.481   4.429   1.643 -0.4473 -1.5391  0.0897
  301MPD2    H2 4590   4.107   4.603   1.536  0.0847 -0.0346  1.8209
  301MPD2    H3 4591   4.268   4.542   1.701  0.4858 -2.6416  0.8524
  301MPD2     N 4592   4.543   4.348   1.404  0.1103  0.4346  0.9447
  301MPD2    H5 4593   4.614   4.341   1.477  1.6424 -0.4424 -0.6368
  301MPD2    N1 4594   4.143   4.559   1.265 -0.3337  0.3454 -0.4628
  301MPD2    H7 4595   4.179   4.524   1.176 -2.0126 -0.3581 -0.8613
  302TMC3    C1 4596   4.727   4.281   1.264 -0.0402  0.0297 -0.3010
  302TMC3    C2 4597   0.057   4.199   1.360  0.1544  0.1554 -0.2610
  302TMC3    C3 4598   0.173   4.141   1.317  0.1905  0.5638 -1.2469
  302TMC3    C4 4599   0.037   4.284   1.135  0.1783 -0.3842 -0.2963
  302TMC3    C5 4600   0.142   4.206   1.096  0.9276  0.3499  0.2600
  302TMC3    C6 4601   0.215   4.143   1.188  0.1391 -0.0993 -0.2714
  302TMC3     C 4602   4.585   4.332   1.277 -0.1722  0.1013  0.6081
  302TMC3     O 4603   4.521   4.327   1.174 -0.5134  0.3367  0.1937
  302TMC3     H 4604   0.025   4.189   1.463 -0.7536  3.5226 -0.1937
  302TMC3    H1 4605   4.718   4.350   1.068  0.2803 -0.0849 -0.0803
  302TMC3    H2 4606   0.307   4.097   1.154  1.6720  2.1437  0.8160
  302TMC3    C7 4607   0.177   4.194   0.955  0.2360 -0.1217  0.0512
  302TMC3    C8 4608   0.257   4.069   1.412  0.0459  0.2307 -0.4138
  302TMC3    O1 4609   0.294   4.171   0.928  0.0178  0.3902 -0.5346
  302TMC3    O2 4610   0.364   4.026   1.380 -0.1578 -0.2505  0.0697
  303MPD2     C 4611   0.034   3.484  10.437  0.2958 -0.7708  0.0612
  303MPD2    C1 4612   0.010   3.374  10.527  0.0880  0.6101 -0.3679
  303MPD2    C2 4613   0.102   3.270  10.536  0.5720  0.5911 -0.3111
  303MPD2    C3 4614   0.217   3.285  10.458 -0.6661  0.4685  0.5193
  303MPD2    C4 4615   0.242   3.395  10.379 -0.0233  0.6748  1.2045
  303MPD2    C5 4616   0.146   3.487  10.365  0.2143  0.4280 -0.1108
  303MPD2     H 4617   0.082   3.188  10.604 -1.8183 -0.9823 -2.9103
  303MPD2    H1 4618   0.334   3.407  10.322  0.1928  1.7173  1.7750
  303MPD2    H2 4619   4.700   3.567  10.432  1.7945  0.5123  0.7954
  303MPD2    H3 4620   0.157   3.570  10.297  3.7817 -0.8168 -1.0472
  303MPD2     N 4621   0.318   3.184  10.459  0.2310 -0.0843 -1.2954
  303MPD2    H5 4622   0.398   3.207  10.400 -0.9397  1.7540 -2.1740
  303MPD2    N1 4623   4.617   3.381  10.588 -0.2651  0.0941  0.1399
  303MPD2    H7 4624   4.553   3.453  10.557 -0.7991 -0.4901 -0.1126
  304TMC3    C1 4625   4.453   3.330  10.738 -0.1475 -0.0692  0.3007
  304TMC3    C2 4626   4.351   3.296  10.647 -0.0661 -0.1967  0.2313
  304TMC3    C3 4627   4.236   3.240  10.693 -0.5665  0.2503 -0.2683
  304TMC3    C4 4628   4.434   3.312  10.876  0.0585 -0.0327 -0.1808
  304TMC3    C5 4629   4.319   3.258  10.916 -0.1323  0.3983 -0.0248
  304TMC3    C6 4630   4.215   3.224  10.829 -0.6131 -0.2109  0.7046
  304TMC3     C 4631   4.580   3.301  10.690  0.0715 -0.2506  0.4330
  304TMC3     O 4632   4.646   3.229  10.762 -0.5013  0.3507 -0.2192
  304TMC3     H 4633   4.372   3.299  10.541 -1.8683  0.3192 -0.1114
  304TMC3    H1 4634   4.522   3.323  10.939  0.2185 -0.1479 -0.3821
  304TMC3    H2 4635   4.122   3.189  10.873  0.3945  1.0206  3.7751
  304TMC3    C7 4636   4.336   3.166  11.025  0.1106 -0.4649  0.0010
  304TMC3    C8 4637   4.183   3.119  10.631  0.0478  0.0963 -0.0047
  304TMC3    O1 4638   4.402   3.199  11.124 -0.2712  0.2586  0.0363
  304TMC3    O2 4639   4.190   3.032  10.716  0.1910 -0.2517 -0.5069
  305MPD2     C 4640   3.084   0.058  14.094 -0.1163  0.1520  0.3728
  305MPD2    C1 4641   3.213   0.011  14.083 -0.1577  0.3357 -0.4052
  305MPD2    C2 4642   3.242   4.660  13.981  0.1536  0.0485 -0.2755
  305MPD2    C3 4643   3.139   4.610  13.896 -0.4603 -0.2299 -0.1651
  305MPD2    C4 4644   3.012   4.641  13.921  0.4615  0.0722  0.1633
  305MPD2    C5 4645   2.985   4.732  14.023 -0.3847 -0.5097  0.0758
  305MPD2     H 4646   3.340   4.614  13.973  0.3461  0.2296  1.0895
  305MPD2    H1 4647   2.927   4.609  13.862  1.4641 -0.0725 -1.2059
  305MPD2    H2 4648   3.048   0.125  14.172 -2.7206  2.1062 -2.5012
  305MPD2    H3 4649   2.882   0.032  14.030 -0.3794 -0.3423 -0.6160
  305MPD2     N 4650   3.157   4.532  13.777 -0.1502 -0.0973 -0.5334
  305MPD2    H5 4651   3.074   4.502  13.726 -0.3589 -1.8049  0.8117
  305MPD2    N1 4652   3.311   0.055  14.169 -0.6328  0.1564 -0.5487
  305MPD2    H7 4653   3.267   0.113  14.239 -1.3573 -1.9972  0.7670
  306TMC3    C1 4654   3.521   0.112  14.268  0.4395 -0.2237  0.7585
  306TMC3    C2 4655   3.629   0.041  14.312  0.3571  0.2499  0.5155
  306TMC3    C3 4656   3.671   0.061  14.438  0.1502  0.3778  0.7239
  306TMC3    C4 4657   3.465   0.213  14.345 -0.3756 -0.6564 -0.4041
  306TMC3    C5 4658   3.517   0.240  14.473 -0.2363  0.4781  0.6982
  306TMC3    C6 4659   3.612   0.154  14.524  0.0076 -0.4849  0.0600
  306TMC3     C 4660   3.450   0.044  14.160 -0.0313 -0.4714  0.2613
  306TMC3     O 4661   3.523   4.729  14.073  0.6627  0.3817  0.0930
  306TMC3     H 4662   3.672   4.702  14.245  0.4193  0.2164  0.5926
  306TMC3    H1 4663   3.377   0.262  14.304 -0.0597  0.7100  0.5703
  306TMC3    H2 4664   3.645   0.166  14.627  2.7137 -0.0233 -0.8633
  306TMC3    C7 4665   3.507   0.387  14.506 -0.3872  0.3518 -0.7762
  306TMC3    C8 4666   3.784   4.713  14.480  0.0089 -0.7282  0.1796
  306TMC3    O1 4667   3.446   0.459  14.433 -0.4200  0.1700 -0.1828
  306TMC3    O2 4668   3.795   4.610  14.415  0.2861  0.0361  0.8384
  307MPD2     C 4669   1.358   2.325  17.321 -0.5632  0.3149  0.0629
  307MPD2    C1 4670   1.404   2.447  17.360  0.8742  0.3279  0.3483
  307MPD2    C2 4671   1.413   2.471  17.493 -0.3466 -0.2370 -0.4470
  307MPD2    C3 4672   1.382   2.373  17.586  0.1168  0.2963 -0.4335
  307MPD2    C4 4673   1.324   2.260  17.539  0.4682 -0.5898 -0.3164
  307MPD2    C5 4674   1.318   2.230  17.405  0.6246 -0.4407 -0.5756
  307MPD2     H 4675   1.455   2.568  17.521  2.4363 -0.9047 -2.3240
  307MPD2    H1 4676   1.286   2.181  17.602 -1.3236 -1.4243 -2.4723
  307MPD2    H2 4677   1.346   2.309  17.214  0.3331  0.7686 -0.1083
  307MPD2    H3 4678   1.276   2.139  17.362 -2.8216  0.9862 -0.2379
  307MPD2     N 4679   1.381   2.391  17.727 -0.0826  0.6016  0.4695
  307MPD2    H5 4680   1.350   2.318   0.051 -1.0507  0.2244 -0.4450
  307MPD2    N1 4681   1.422   2.554  17.273  0.1838 -0.7163 -0.0201
  307MPD2    H7 4682   1.441   2.636  17.331 -0.3169  1.4339 -2.9037
  308TMC3    C1 4683   1.149   2.469   0.303  0.3917  0.3581  0.5043
  308TMC3    C2 4684   1.191   2.556   0.399 -0.6911 -0.6548  0.0697
  308TMC3    C3 4685   1.316   2.617   0.378  0.0466  0.8454 -0.2836
  308TMC3    C4 4686   1.224   2.444   0.190 -0.1736  0.3066  0.4748
  308TMC3    C5 4687   1.346   2.504   0.180 -0.0948  0.2579 -0.7703
  308TMC3    C6 4688   1.391   2.601   0.267  1.3564  0.6923 -0.9898
  308TMC3     C 4689   1.014   2.421   0.297  0.1513  0.0146  0.1188
  308TMC3     O 4690   1.004   2.316   0.238 -0.2121  0.8189  0.2512
  308TMC3     H 4691   1.140   2.566   0.494  0.6678 -2.7223  1.0217
  308TMC3    H1 4692   1.183   2.383   0.111 -0.1805  2.3223 -1.0716
  308TMC3    H2 4693   1.493   2.637   0.280  0.6105  2.8832 -1.0888
  308TMC3    C7 4694   1.420   2.502   0.056 -0.8322 -0.2517  0.6869
  308TMC3    C8 4695   1.343   2.730   0.465  0.4717  0.2458  0.2616
  308TMC3    O1 4696   1.497   2.595   0.035  0.2123 -0.1599  0.0113
  308TMC3    O2 4697   1.339   2.707   0.583 -0.6000 -0.3452 -0.1921
  309MPD2     C 4698   0.175   3.192  17.139 -0.0344  0.3955  0.1562
  309MPD2    C1 4699   0.150   3.325  17.118  1.1848  0.6000  0.2460
  309MPD2    C2 4700   0.105   3.407  17.221  0.0461 -0.0428  0.1656
  309MPD2    C3 4701   0.086   3.351  17.351  0.1988 -0.2330  0.2273
  309MPD2    C4 4702   0.104   3.212  17.372  0.3212 -0.4604 -0.3919
  309MPD2    C5 4703   0.155   3.141  17.265  0.2446  0.1546 -0.7943
  309MPD2     H 4704   0.082   3.509  17.191 -0.3386 -0.3816 -0.6909
  309MPD2    H1 4705   0.104   3.158  17.466 -0.5675  2.2367  1.1535
  309MPD2    H2 4706   0.215   3.121  17.068  3.0962  0.3523  1.9732
  309MPD2    H3 4707   0.162   3.035  17.283  1.3067  0.1639 -1.1540
  309MPD2     N 4708   0.023   3.418  17.466 -0.3942  0.0507 -0.1829
  309MPD2    H5 4709   0.013   3.370  17.555  0.0807  2.7020  1.2881
  309MPD2    N1 4710   0.169   3.378  16.987 -0.3037  0.3932 -0.4324
  309MPD2    H7 4711   0.177   3.478  16.971  0.5748  0.1728 -1.3412
  310TMC3    C1 4712   0.216   3.363  16.752  0.2478 -0.1270 -0.0896
  310TMC3    C2 4713   0.154   3.456  16.676 -0.0345  0.1486  0.2852
  310TMC3    C3 4714   0.188   3.456  16.543  0.2748 -0.0743 -0.0084
  310TMC3    C4 4715   0.296   3.268  16.702 -0.1524 -1.1842 -0.4138
  310TMC3    C5 4716   0.333   3.278  16.575  0.3474  0.0375 -0.0032
  310TMC3    C6 4717   0.280   3.369  16.488  1.0921  0.0963  0.5305
  310TMC3     C 4718   0.149   3.305  16.869 -0.0535  0.5027  0.0394
  310TMC3     O 4719   0.105   3.191  16.858  0.3864 -0.0489 -0.0798
  310TMC3     H 4720   0.083   3.524  16.720  0.4221 -0.4102  1.8969
  310TMC3    H1 4721   0.341   3.206  16.779  0.6793 -0.3314 -0.2160
  310TMC3    H2 4722   0.300   3.360  16.382 -2.6227  1.4126 -0.2755
  310TMC3    C7 4723   0.444   3.185  16.549  0.1592 -0.4258  0.0189
  310TMC3    C8 4724   0.125   3.558  16.460  0.0194  0.1412 -0.1968
  310TMC3    O1 4725   0.462   3.100  16.639  0.0715 -0.5259 -0.0085
  310TMC3    O2 4726   0.018   3.595  16.500 -0.1402 -0.2331  0.5064
  311MPD2     C 4727   2.493   4.416  12.273 -0.0073  0.2878  0.2666
  311MPD2    C1 4728   2.534   4.460  12.397 -0.2791  0.8407 -0.4753
  311MPD2    C2 4729   2.445   4.456  12.500 -0.1103 -0.2372 -0.3723
  311MPD2    C3 4730   2.317   4.409  12.490 -0.5269  0.5106 -0.1750
  311MPD2    C4 4731   2.282   4.366  12.363 -0.7728  0.6212  0.1886
  311MPD2    C5 4732   2.364   4.371  12.260  0.0254 -0.0395  0.3752
  311MPD2     H 4733   2.487   4.487  12.595 -0.7268  2.7030 -1.0470
  311MPD2    H1 4734   2.186   4.318  12.343 -0.3022 -0.9864  1.8121
  311MPD2    H2 4735   2.556   4.416  12.185  1.6934  1.5189  1.4832
  311MPD2    H3 4736   2.338   4.331  12.162  0.0316  0.1459  0.2992
  311MPD2     N 4737   2.231   4.417  12.602  0.2010  0.5489 -0.1234
  311MPD2    H5 4738   2.254   4.464  12.689 -2.3214 -0.3070  1.0085
  311MPD2    N1 4739   2.658   4.525  12.431  0.5004  0.1034  0.4626
  311MPD2    H7 4740   2.680   4.559  12.524 -0.4771  0.3270  0.6137
  312TMC3    C1 4741   2.019   4.399  12.713 -0.1271 -0.9566 -0.6481
  312TMC3    C2 4742   1.882   4.410  12.696 -0.1811  0.2139  0.0108
  312TMC3    C3 4743   1.810   4.368  12.804  0.0065 -0.0403  0.2013
  312TMC3    C4 4744   2.077   4.346  12.822 -0.2368 -0.3858  0.8659
  312TMC3    C5 4745   1.997   4.293  12.917  0.6460 -0.1791 -0.5151
  312TMC3    C6 4746   1.863   4.312  12.916  0.0445  0.5692 -0.4895
  312TMC3     C 4747   2.097   4.391  12.589 -0.4922 -0.3972  0.3800
  312TMC3     O 4748   2.031   4.357  12.489  0.6587  0.2857 -0.3586
  312TMC3     H 4749   1.854   4.449  12.599 -0.4413  0.6455  0.2582
  312TMC3    H1 4750   2.184   4.335  12.833 -0.2191  0.3763  1.4288
  312TMC3    H2 4751   1.802   4.283  13.001 -1.9723  2.5588 -1.2712
  312TMC3    C7 4752   2.044   4.288  13.055  0.2085 -0.0710  0.1918
  312TMC3    C8 4753   1.665   4.395  12.814 -0.0365  0.1171  0.4332
  312TMC3    O1 4754   1.974   4.229  13.142 -0.2714 -0.3157  0.0128
  312TMC3    O2 4755   1.600   4.340  12.903  0.2023 -0.5881 -0.2196
  313MPD2     C 4756   1.277   3.904  11.309  0.2176  0.5410  0.6638
  313MPD2    C1 4757   1.216   3.971  11.201  0.0764  0.0636 -0.1142
  313MPD2    C2 4758   1.196   3.901  11.083 -0.7790  0.6032 -0.0815
  313MPD2    C3 4759   1.233   3.767  11.069  0.5452  0.4619  0.7469
  313MPD2    C4 4760   1.305   3.713  11.172  0.1478  0.0084 -1.1225
  313MPD2    C5 4761   1.324   3.771  11.293 -0.2348  0.3896 -0.7595
  313MPD2     H 4762   1.158   3.958  10.999  3.0216  2.5947 -0.4301
  313MPD2    H1 4763   1.331   3.608  11.161 -1.3443 -0.3488 -1.2068
  313MPD2    H2 4764   1.304   3.950  11.403 -2.1267 -0.3584  1.7635
  313MPD2    H3 4765   1.365   3.719  11.379  0.3380  0.6451 -0.8770
  313MPD2     N 4766   1.222   3.707  10.941  0.0662  0.2363 -0.0404
  313MPD2    H5 4767   1.147   3.744  10.883  0.6771 -0.3801 -1.2197
  313MPD2    N1 4768   1.195   4.113  11.205 -0.0032 -0.0556  0.5361
  313MPD2    H7 4769   1.155   4.162  11.126  0.5801  3.0824  2.2057
  314TMC3    C1 4770   1.274   4.337  11.238 -0.5914 -0.3596  0.5594
  314TMC3    C2 4771   1.388   4.393  11.279 -0.3652  0.1122  0.7093
  314TMC3    C3 4772   1.391   4.530  11.251  0.1116  0.1254 -0.5915
  314TMC3    C4 4773   1.167   4.397  11.181 -0.1870 -0.3646  0.4573
  314TMC3    C5 4774   1.164   4.530  11.150  0.6510  0.3083 -0.5988
  314TMC3    C6 4775   1.282   4.596  11.190  0.1311 -0.0004  0.9658
  314TMC3     C 4776   1.259   4.198  11.295  0.1938 -0.1246  1.1891
  314TMC3     O 4777   1.343   4.160  11.373 -0.0424 -0.2630 -0.0372
  314TMC3     H 4778   1.478   4.335  11.293 -0.4892 -1.0536 -3.1662
  314TMC3    H1 4779   1.085   4.336  11.146  0.3947 -0.8009 -0.1369
  314TMC3    H2 4780   1.293   4.702  11.172  1.0783 -0.1793  0.4477
  314TMC3    C7 4781   1.117   4.550  11.013 -0.0630  0.1431  0.5211
  314TMC3    C8 4782   1.516   4.587  11.230 -0.2883 -0.4475 -0.1145
  314TMC3    O1 4783   1.001   4.515  10.990  0.2881  0.0960 -0.7839
  314TMC3    O2 4784   1.529   4.654  11.129 -0.0471  0.3168 -0.0632
  315MPD2     C 4785   1.597   3.201  17.584  0.6332  0.0901  0.0221
  315MPD2    C1 4786   1.604   3.233  17.715  0.4368 -0.0846  0.0438
  315MPD2    C2 4787   1.600   3.368   0.014 -0.1509  0.4150  0.3615
  315MPD2    C3 4788   1.580   3.467  17.656  0.3225  0.0165  0.8933
  315MPD2    C4 4789   1.576   3.422  17.528  0.8843  0.3370 -0.6174
  315MPD2    C5 4790   1.577   3.293  17.487 -0.3398 -0.0900  0.6421
  315MPD2     H 4791   1.597   3.397   0.119 -0.4350  1.0909  0.1677
  315MPD2    H1 4792   1.565   3.486  17.441 -1.1815  0.0942 -0.5331
  315MPD2    H2 4793   1.581   3.100  17.546 -1.4314  0.5454 -0.3097
  315MPD2    H3 4794   1.571   3.259  17.384 -1.9070  1.6560  0.1427
  315MPD2     N 4795   1.579   3.605  17.683  0.1239 -1.0622 -0.0655
  315MPD2    H5 4796   1.598   3.634   0.039  1.8181  2.3767 -1.4370
  315MPD2    N1 4797   1.621   3.138   0.072 -0.2254 -0.9626 -0.2485
  315MPD2    H7 4798   1.629   3.157   0.171 -0.3355 -0.0612 -0.4139
  316TMC3    C1 4799   1.577   3.830  17.652 -0.6906 -0.2824  0.6648
  316TMC3    C2 4800   1.687   3.852  17.734  0.6846  1.1672  0.3058
  316TMC3    C3 4801   1.741   3.976   0.003  0.1948 -0.0516 -0.1361
  316TMC3    C4 4802   1.541   3.931  17.564 -0.1297  0.0383  0.2597
  316TMC3    C5 4803   1.597   4.054  17.578 -0.4246 -0.2274 -0.8368
  316TMC3    C6 4804   1.695   4.084  17.667  0.3157 -0.0966  0.1181
  316TMC3     C 4805   1.558   3.702  17.597  0.4108  0.3849  0.7324
  316TMC3     O 4806   1.510   3.699  17.481 -0.1105  0.2250 -1.0274
  316TMC3     H 4807   1.725   3.775   0.062 -1.5782 -0.5777 -0.4280
  316TMC3    H1 4808   1.450   3.932  17.505  0.3950  1.2564 -0.5339
  316TMC3    H2 4809   1.741   4.182  17.674  0.2742 -0.0434 -0.3447
  316TMC3    C7 4810   1.542   4.159  17.499 -0.2144  0.0200 -0.0117
  316TMC3    C8 4811   1.862   3.995   0.086  0.2807  0.2491  0.1188
  316TMC3    O1 4812   1.501   4.257  17.560  0.2894 -0.1811  0.1732
  316TMC3    O2 4813   1.935   4.087   0.044  0.0749 -0.5151  0.2478
  317MPD2     C 4814   3.133   1.677  12.883 -0.0379  0.6321  0.6523
  317MPD2    C1 4815   3.153   1.546  12.887  0.4558 -0.0937 -1.1061
  317MPD2    C2 4816   3.214   1.480  12.995 -0.3919  0.7831  0.3177
  317MPD2    C3 4817   3.250   1.554  13.104  1.2629  0.3639  0.7647
  317MPD2    C4 4818   3.213   1.689  13.105  0.3381  0.2956  0.3920
  317MPD2    C5 4819   3.165   1.745  12.991  0.5348 -0.1453 -0.2700
  317MPD2     H 4820   3.229   1.376  12.971 -0.1782  0.6148  1.1894
  317MPD2    H1 4821   3.237   1.747  13.193  2.0679 -0.5305  0.4650
  317MPD2    H2 4822   3.075   1.725  12.804  0.0441  0.3853  0.4407
  317MPD2    H3 4823   3.134   1.848  12.996  0.2247 -0.2674  0.3529
  317MPD2     N 4824   3.297   1.480  13.213 -0.7019  0.2388 -0.1820
  317MPD2    H5 4825   3.294   1.379  13.206  2.2281  0.1238  0.1499
  317MPD2    N1 4826   3.107   1.455  12.787 -0.0619  0.3534  0.4430
  317MPD2    H7 4827   3.132   1.359  12.805 -1.9398 -0.2641 -0.2706
  318TMC3    C1 4828   3.390   1.437  13.419  0.0173 -0.1382 -0.0785
  318TMC3    C2 4829   3.301   1.333  13.431 -0.2046  0.1974  0.6082
  318TMC3    C3 4830   3.321   1.252  13.542  0.1252  0.5656  0.5789
  318TMC3    C4 4831   3.485   1.466  13.517 -0.0256 -0.4740 -0.1583
  318TMC3    C5 4832   3.486   1.392  13.631  0.6635  0.1812  0.5242
  318TMC3    C6 4833   3.410   1.282  13.643 -0.5018 -0.5418  0.5301
  318TMC3     C 4834   3.350   1.537  13.326  0.2365 -0.6742  0.2337
  318TMC3     O 4835   3.389   1.648  13.355  0.0514 -0.4220  0.3294
  318TMC3     H 4836   3.217   1.323  13.363  1.6270 -2.2827 -1.3165
  318TMC3    H1 4837   3.545   1.556  13.511 -0.0585 -0.4679 -0.3908
  318TMC3    H2 4838   3.443   1.213  13.719  1.3646 -0.6118 -0.3379
  318TMC3    C7 4839   3.595   1.411  13.726 -0.3437 -0.2470  0.1370
  318TMC3    C8 4840   3.246   1.125  13.563  0.6615 -0.0063  0.6627
  318TMC3    O1 4841   3.571   1.376  13.840 -0.2543 -0.2104  0.3968
  318TMC3    O2 4842   3.253   1.076  13.672 -0.3861  0.1919 -0.3115
  319MPD2     C 4843   4.243   3.428  16.960  0.5797  0.3214  0.4220
  319MPD2    C1 4844   4.149   3.336  16.998 -0.3431  0.1970  0.0402
  319MPD2    C2 4845   4.037   3.326  16.916 -0.3334  0.1852 -0.5272
  319MPD2    C3 4846   4.018   3.394  16.801  0.0669  0.8578 -0.8344
  319MPD2    C4 4847   4.121   3.482  16.763  0.2668 -0.1737  0.0405
  319MPD2    C5 4848   4.233   3.500  16.844 -0.3815  0.2717  0.0136
  319MPD2     H 4849   3.954   3.265  16.952  1.6244 -1.8183  0.5446
  319MPD2    H1 4850   4.095   3.548  16.680  0.3320 -1.0369 -0.6612
  319MPD2    H2 4851   4.324   3.452  17.028  0.3945  1.5828  0.1977
  319MPD2    H3 4852   4.315   3.565  16.817  1.3191 -3.2687 -3.3529
  319MPD2     N 4853   3.908   3.398  16.722  0.1263 -0.3088  0.3162
  319MPD2    H5 4854   3.912   3.446  16.633  0.7451 -0.6543  0.1581
  319MPD2    N1 4855   4.158   3.263  17.120  0.1798  0.3571 -0.0003
  319MPD2    H7 4856   4.079   3.201  17.134 -1.2733  1.6637 -2.3674
  320TMC3    C1 4857   3.681   3.346  16.656  0.0020 -0.3663  0.1516
  320TMC3    C2 4858   3.706   3.383  16.529  0.2391  0.9074 -0.5375
  320TMC3    C3 4859   3.662   3.316  16.419 -0.5582  0.1868 -0.9755
  320TMC3    C4 4860   3.596   3.239  16.676 -0.0554 -0.0641  0.4913
  320TMC3    C5 4861   3.549   3.172  16.570  0.1064  0.1090 -0.2686
  320TMC3    C6 4862   3.572   3.212  16.438 -0.2882 -0.4556 -0.3753
  320TMC3     C 4863   3.785   3.349  16.763 -0.1086 -1.0073 -0.7085
  320TMC3     O 4864   3.749   3.324  16.876  0.1189 -0.3002  0.2744
  320TMC3     H 4865   3.762   3.473  16.505 -0.1878  1.3886  0.2768
  320TMC3    H1 4866   3.591   3.186  16.770  4.1991 -0.7302  0.3395
  320TMC3    H2 4867   3.503   3.170  16.365  1.3893 -0.3027 -2.0502
  320TMC3    C7 4868   3.531   3.033  16.597  0.3341 -0.1634  0.5755
  320TMC3    C8 4869   3.667   3.391  16.291  0.2461  0.3227  0.1151
  320TMC3    O1 4870   3.511   2.992  16.711  0.2467 -0.1342  0.3933
  320TMC3    O2 4871   3.687   3.512  16.295  0.1240  0.1001 -0.0378
  321TMC3    C1 4872   4.237   3.182  17.332  0.3229 -0.0166 -0.0408
  321TMC3    C2 4873   4.211   3.046  17.315  0.0193 -0.3457 -0.0453
  321TMC3    C3 4874   4.229   2.957  17.416  0.4811 -0.2517  0.7195
  321TMC3    C4 4875   4.281   3.230  17.455 -0.4358  0.1099 -0.8883
  321TMC3    C5 4876   4.310   3.133  17.552  0.0136 -0.2751 -0.4918
  321TMC3    C6 4877   4.273   3.004  17.537 -0.5317 -0.4279  0.1435
  321TMC3     C 4878   4.261   3.272  17.216 -0.1014 -0.7879 -0.8272
  321TMC3     O 4879   4.350   3.359  17.233  0.8314 -0.0396  0.3425
  321TMC3     H 4880   4.188   3.009  17.216  1.3308  0.3879 -0.6294
  321TMC3    H1 4881   4.328   3.327  17.462 -0.8862  0.1883  0.9191
  321TMC3    H2 4882   4.285   2.944  17.626  2.1280  0.7768  0.6116
  321TMC3    C7 4883   4.444   3.154  17.612  0.9088  0.2582 -0.3314
  321TMC3    C8 4884   4.322   2.846  17.382  0.2838 -0.5731 -0.1580
  321TMC3    O1 4885   4.474   3.256  17.669  0.0204 -0.0163  0.2464
  321TMC3    O2 4886   4.407   2.823  17.462  0.4396  0.0907  0.6974
  322MPD2     C 4887   3.429   4.048  13.496 -0.1134 -0.3602  0.3793
  322MPD2    C1 4888   3.372   4.028  13.621  0.2414  0.5110  0.0844
  322MPD2    C2 4889   3.311   3.910  13.657  0.2107 -1.0197  0.3051
  322MPD2    C3 4890   3.309   3.806  13.569 -0.2944  0.5027  0.3626
  322MPD2    C4 4891   3.366   3.828  13.449 -0.7846 -0.6595  0.2063
  322MPD2    C5 4892   3.423   3.944  13.412  0.0107 -0.0753 -0.0526
  322MPD2     H 4893   3.269   3.897  13.757  0.6858 -4.3004  0.0667
  322MPD2    H1 4894   3.364   3.751  13.373 -3.4307 -2.3731  2.0513
  322MPD2    H2 4895   3.485   4.134  13.461 -3.1479  0.8349 -1.5985
  322MPD2    H3 4896   3.451   3.959  13.309 -0.9226  0.4343 -0.2359
  322MPD2     N 4897   3.244   3.688  13.604  0.3663 -0.0755  0.1361
  322MPD2    H5 4898   3.202   3.699  13.696 -0.8839 -2.1751 -0.1809
  322MPD2    N1 4899   3.395   4.136  13.712  0.6132  0.5284 -0.1972
  322MPD2    H7 4900   3.474   4.193  13.687 -0.4350  2.3737  0.7451
  323TMC3    C1 4901   3.380   4.245  13.921  0.2271  0.6943 -0.9336
  323TMC3    C2 4902   3.469   4.336  13.881 -1.1038 -0.5073  0.2836
  323TMC3    C3 4903   3.527   4.409  13.982  0.4407 -0.2598 -0.0486
  323TMC3    C4 4904   3.354   4.212  14.057 -0.1123 -0.1485 -0.5238
  323TMC3    C5 4905   3.415   4.292  14.147  0.6311 -0.2434  0.2864
  323TMC3    C6 4906   3.515   4.378  14.111  0.9431  0.4481 -0.5160
  323TMC3     C 4907   3.324   4.151  13.826  0.1905  0.3649  0.1357
  323TMC3     O 4908   3.220   4.100  13.863  0.1182 -0.0419  0.2903
  323TMC3     H 4909   3.489   4.360  13.777  0.9657  0.2657  0.8495
  323TMC3    H1 4910   3.286   4.132  14.083 -2.6458  1.9479 -0.7271
  323TMC3    H2 4911   3.580   4.440  14.171  0.0801  1.0082 -0.1641
  323TMC3    C7 4912   3.437   4.216  14.268 -0.8454 -0.0951 -0.1505
  323TMC3    C8 4913   3.647   4.477  13.941 -0.1191 -0.4895 -0.1118
  323TMC3    O1 4914   3.392   4.103  14.285  0.6991  0.3732  0.0591
  323TMC3    O2 4915   3.737   4.464  14.026  0.4143 -0.0751  0.1679
  324MPD2     C 4916   0.362   0.832  13.845 -0.9826 -0.0157 -0.2418
  324MPD2    C1 4917   0.388   0.875  13.973 -0.7394 -0.3074 -0.2584
  324MPD2    C2 4918   0.277   0.875  14.064 -0.1956 -0.3252 -0.0535
  324MPD2    C3 4919   0.148   0.847  14.019 -0.2808 -0.4081 -0.6856
  324MPD2    C4 4920   0.125   0.796  13.893  0.3707  0.8255  0.4323
  324MPD2    C5 4921   0.232   0.789  13.806  0.0526 -0.0838 -0.0798
  324MPD2     H 4922   0.288   0.922  14.161  2.9654 -0.0974 -0.5213
  324MPD2    H1 4923   0.024   0.791  13.852  0.0240 -1.4327  1.5841
  324MPD2    H2 4924   0.436   0.826  13.766 -0.6437 -0.1905  0.0886
  324MPD2    H3 4925   0.212   0.765  13.702  0.7119 -0.0829 -0.2099
  324MPD2     N 4926   0.032   0.879  14.097  0.0723  0.0244 -0.0040
  324MPD2    H5 4927   4.676   0.844  14.070  0.0952  0.4299 -0.6039
  324MPD2    N1 4928   0.511   0.924  14.019 -0.4331 -0.1828 -0.3016
  324MPD2    H7 4929   0.517   0.968  14.110 -0.3101  0.5145 -0.6475
  325TMC3    C1 4930   4.640   0.947  14.283 -0.4930 -0.3048  0.2462
  325TMC3    C2 4931   4.535   0.859  14.253 -0.6485  0.2635  0.4708
  325TMC3    C3 4932   4.414   0.898  14.304 -0.1111 -0.2534 -0.3386
  325TMC3    C4 4933   4.626   1.046  14.374 -0.0195  0.2567  0.2078
  325TMC3    C5 4934   4.500   1.077  14.427  0.8784  0.4684 -0.9903
  325TMC3    C6 4935   4.393   1.007  14.391 -0.5175 -0.2065  0.2262
  325TMC3     C 4936   0.031   0.934  14.223 -0.5782  0.6444 -0.8887
  325TMC3     O 4937   0.128   0.986  14.283 -0.2704  0.5708 -0.2307
  325TMC3     H 4938   4.561   0.766  14.203  1.4885  0.7921  0.6042
  325TMC3    H1 4939   4.700   1.125  14.382 -1.5407  1.6878  0.0252
  325TMC3    H2 4940   4.294   1.047  14.411 -0.3202  0.1301  0.5267
  325TMC3    C7 4941   4.492   1.193  14.514 -0.7811  0.6244 -0.0941
  325TMC3    C8 4942   4.307   0.814  14.271  0.2611 -0.5166  0.1654
  325TMC3    O1 4943   4.595   1.260  14.539  0.1701  0.3290 -0.2301
  325TMC3    O2 4944   4.334   0.722  14.197 -0.4627 -0.3697 -0.1780
  326MPD2     C 4945   0.791   1.719  10.857  0.1433 -0.1999 -0.1157
  326MPD2    C1 4946   0.814   1.584  10.834 -0.3018  0.1916 -0.3800
  326MPD2    C2 4947   0.940   1.545  10.796 -0.2883  0.7492  0.7996
  326MPD2    C3 4948   1.030   1.646  10.771 -0.5859  0.0507  0.0873
  326MPD2    C4 4949   1.007   1.778  10.787  0.5523 -0.3425  0.0432
  326MPD2    C5 4950   0.894   1.813  10.841  0.3773 -0.2346  0.6459
  326MPD2     H 4951   0.955   1.442  10.765 -0.5334  0.4202  1.7568
  326MPD2    H1 4952   1.087   1.848  10.770 -0.2014  0.1616 -1.4562
  326MPD2    H2 4953   0.694   1.748  10.896  1.5336  2.1653  1.5929
  326MPD2    H3 4954   0.876   1.918  10.858 -1.7240 -0.5007  0.1150
  326MPD2     N 4955   1.156   1.622  10.722 -0.3502  0.1237  0.5931
  326MPD2    H5 4956   1.221   1.699  10.711 -1.3032  0.6774 -1.1539
  326MPD2    N1 4957   0.705   1.496  10.852  0.0779 -0.0629  0.6287
  326MPD2    H7 4958   0.612   1.535  10.857  1.0719  2.5281 -0.8923
  327TMC3    C1 4959   0.592   1.287  10.814  0.2901  0.0109  0.5871
  327TMC3    C2 4960   0.523   1.363  10.730  0.0123 -0.0178 -0.2838
  327TMC3    C3 4961   0.520   1.334  10.598  0.5962 -0.9651  0.6183
  327TMC3    C4 4962   0.645   1.166  10.777  0.1043  0.2118 -0.1817
  327TMC3    C5 4963   0.653   1.145  10.647  0.0375 -1.3628  0.2433
  327TMC3    C6 4964   0.601   1.230  10.553  0.5382 -0.2238 -0.2636
  327TMC3     C 4965   0.718   1.359  10.859  0.4228 -0.1168  0.8134
  327TMC3     O 4966   0.824   1.298  10.871 -0.0231  0.0016  0.0049
  327TMC3     H 4967   0.481   1.453  10.773  0.1038  0.4818 -1.2463
  327TMC3    H1 4968   0.683   1.100  10.854 -1.6760  1.0374  1.3986
  327TMC3    H2 4969   0.613   1.210  10.447 -2.2139  1.2374 -0.8616
  327TMC3    C7 4970   0.758   1.065  10.602  0.2371 -0.4516  0.0922
  327TMC3    C8 4971   0.516   1.448  10.508 -0.3579  0.8902  0.5460
  327TMC3    O1 4972   0.757   1.033  10.483 -0.0495  0.4541 -0.2021
  327TMC3    O2 4973   0.607   1.449  10.428  0.7834 -0.3283 -0.2192
  328MPD2     C 4974   3.884   1.647  17.075 -0.1192 -0.0636  0.7275
  328MPD2    C1 4975   3.785   1.565  17.019 -0.4388 -0.1583 -0.0131
  328MPD2    C2 4976   3.693   1.615  16.931  0.1807  0.5366 -0.4527
  328MPD2    C3 4977   3.694   1.754  16.910 -0.3433  0.2926 -0.0151
  328MPD2    C4 4978   3.793   1.833  16.959  0.2725  0.2405 -0.2503
  328MPD2    C5 4979   3.885   1.781  17.049  0.1058  0.4535 -0.0794
  328MPD2     H 4980   3.614   1.550  16.894 -1.3006  2.4379 -0.6275
  328MPD2    H1 4981   3.780   1.940  16.966 -2.4083 -0.2057  2.1129
  328MPD2    H2 4982   3.963   1.604  17.135  1.2481 -0.6944 -1.5314
  328MPD2    H3 4983   3.940   1.844  17.118  1.3820 -0.1918 -0.5176
  328MPD2     N 4984   3.596   1.830  16.840 -0.0756  0.2498 -0.0729
  328MPD2    H5 4985   3.607   1.930  16.827  1.0598  0.4615  2.7290
  328MPD2    N1 4986   3.772   1.437  17.074  0.1069 -0.0520  0.3520
  328MPD2    H7 4987   3.816   1.419  17.164 -2.1718 -2.0906  1.0610
  329TMC3    C1 4988   3.663   1.237  17.125  0.2408 -0.0717 -0.3539
  329TMC3    C2 4989   3.720   1.245  17.247 -0.4446 -0.7688 -0.3718
  329TMC3    C3 4990   3.761   1.125  17.304 -0.1557 -0.1282  0.6257
  329TMC3    C4 4991   3.651   1.109  17.070  0.6088 -0.0312  0.1056
  329TMC3    C5 4992   3.697   0.995  17.133  0.1692  0.1262  0.3492
  329TMC3    C6 4993   3.760   0.998  17.251 -0.9152  0.6947  1.0721
  329TMC3     C 4994   3.680   1.345  17.031  0.0002 -0.1036 -0.2229
  329TMC3     O 4995   3.627   1.337  16.921 -0.1117 -0.4326  0.1555
  329TMC3     H 4996   3.748   1.335  17.301 -0.2067 -1.5961  0.8893
  329TMC3    H1 4997   3.630   1.108  16.964 -2.4262  0.1420  0.6914
  329TMC3    H2 4998   3.806   0.912  17.297 -3.5905 -0.6577  1.2141
  329TMC3    C7 4999   3.703   0.872  17.069  0.2290  0.3241  0.2523
  329TMC3    C8 5000   3.830   1.139  17.430 -0.2019  1.0482  0.3803
  329TMC3    O1 5001   3.781   0.785  17.105 -0.3155 -0.5119 -0.1501
  329TMC3    O2 5002   3.911   1.049  17.469 -0.4337 -0.2281  0.2254
  330TMC3    C1 5003   1.382   0.390   8.797 -0.3419  0.0409  0.2810
  330TMC3    C2 5004   1.318   0.331   8.900 -0.2020  0.1584 -0.0834
  330TMC3    C3 5005   1.385   0.225   8.960 -0.6302  0.1542  0.2572
  330TMC3    C4 5006   1.507   0.348   8.748 -0.5835  0.0443 -0.0020
  330TMC3    C5 5007   1.570   0.248   8.819  0.2312  0.1823 -0.3342
  330TMC3    C6 5008   1.515   0.191   8.934 -0.1651  0.3152 -0.6265
  330TMC3     C 5009   1.337   0.514   8.751 -0.2239  0.0898 -0.0638
  330TMC3     O 5010   1.368   0.558   8.639 -0.4034  0.3998  0.6403
  330TMC3     H 5011   1.213   0.351   8.922  0.0199  0.2402  0.8940
  330TMC3    H1 5012   1.545   0.405   8.664  0.7802 -1.3003 -0.2878
  330TMC3    H2 5013   1.568   0.117   8.992  0.8021  2.9283  1.7999
  330TMC3    C7 5014   1.709   0.220   8.785 -0.5800 -0.0243 -0.2313
  330TMC3    C8 5015   1.331   0.160   9.077 -0.0704  0.4273  0.2279
  330TMC3    O1 5016   1.740   0.279   8.684 -0.1918  0.6373 -0.1071
  330TMC3    O2 5017   1.417   0.130   9.162 -0.2084  0.0973 -0.2518
  331MPD2     C 5018   0.272   0.341  12.922 -1.4389  0.9358  0.1474
  331MPD2    C1 5019   0.282   0.356  12.783  0.2526  0.2797  0.3142
  331MPD2    C2 5020   0.217   0.264  12.705  0.2346 -0.4688  0.0699
  331MPD2    C3 5021   0.133   0.169  12.755 -0.9552 -0.0452  0.3864
  331MPD2    C4 5022   0.121   0.160  12.889 -0.7449 -0.6332  0.5822
  331MPD2    C5 5023   0.202   0.233  12.975  0.1666  0.5893  0.0407
  331MPD2     H 5024   0.240   0.247  12.601  1.6905 -1.5327  0.5651
  331MPD2    H1 5025   0.071   0.077  12.938 -1.0847  1.0664  3.1543
  331MPD2    H2 5026   0.316   0.427  12.971 -1.5606  0.9559  0.2217
  331MPD2    H3 5027   0.195   0.216  13.082  0.6422 -0.9522 -0.1743
  331MPD2     N 5028   0.058   0.090  12.672  0.7164  0.3469 -0.1127
  331MPD2    H5 5029   0.080   0.098  12.573  2.2697 -1.2574  0.1039
  331MPD2    N1 5030   0.356   0.468  12.735  0.1691  0.1254 -0.8728
  331MPD2    H7 5031   0.415   0.506  12.808  0.3478 -1.7086 -0.0662
  332TMC3    C1 5032   4.661   4.635  12.640  0.3519  0.2830 -0.8272
  332TMC3    C2 5033   4.671   4.634  12.505  0.3088 -0.1935 -0.5007
  332TMC3    C3 5034   4.660   4.514  12.436 -0.2929  0.0527 -0.1286
  332TMC3    C4 5035   4.659   4.517  12.706  0.3501  0.1139 -0.5658
  332TMC3    C5 5036   4.647   4.403  12.634  0.1195 -0.4015 -0.0481
  332TMC3    C6 5037   4.642   4.392  12.497 -0.3144 -0.3183  0.0430
  332TMC3     C 5038   4.685   0.017  12.712  0.7329  0.0974  0.0713
  332TMC3     O 5039   4.632   0.014  12.821 -0.2509  0.5811  0.1767
  332TMC3     H 5040   4.695   4.726  12.452 -1.0139  1.8091  2.3406
  332TMC3    H1 5041   4.656   4.521  12.814 -0.9612  0.6838 -0.6246
  332TMC3    H2 5042   4.642   4.300  12.440  0.2397 -0.8394  0.8772
  332TMC3    C7 5043   4.670   4.280  12.708  0.0238 -0.4115 -0.0353
  332TMC3    C8 5044   4.687   4.517  12.292  0.3679  0.3294 -0.0303
  332TMC3    O1 5045   4.622   4.174  12.670 -0.4175 -0.6180  0.2245
  332TMC3    O2 5046   0.036   4.598  12.255 -0.1841 -0.2335  0.2949
  333MPD2     C 5047   4.362   0.030  11.304 -0.2022  0.0106 -0.2028
  333MPD2    C1 5048   4.459   4.696  11.231 -0.4434 -0.0519  0.7027
  333MPD2    C2 5049   4.437   4.562  11.209  0.3099 -0.2184 -0.8224
  333MPD2    C3 5050   4.342   4.497  11.284 -0.0260 -0.2355 -0.0103
  333MPD2    C4 5051   4.251   4.565  11.362  0.1482 -0.3994 -0.1142
  333MPD2    C5 5052   4.255   4.699  11.357 -0.5159  0.3712 -0.1878
  333MPD2     H 5053   4.502   4.503  11.146  0.8530 -1.3086  0.7452
  333MPD2    H1 5054   4.171   4.522  11.422  2.5355  0.7097  3.8348
  333MPD2    H2 5055   4.373   0.137  11.315 -1.3689  0.0440  0.5503
  333MPD2    H3 5056   4.177   0.022  11.406  0.1771 -0.6193  2.1023
  333MPD2     N 5057   4.341   4.358  11.280  0.6751  0.4912 -0.5839
  333MPD2    H5 5058   4.410   4.311  11.222 -0.2082  0.1122 -1.3287
  333MPD2    N1 5059   4.567   0.038  11.181  0.5271  0.0785 -0.5717
  333MPD2    H7 5060   4.574   0.129  11.225  2.0102 -0.2926 -0.0340
  334TMC3    C1 5061   0.029   0.090  11.073 -0.4688 -0.2438  0.5125
  334TMC3    C2 5062   0.139   0.057  11.001  0.0871 -0.3681  0.5117
  334TMC3    C3 5063   0.240   0.147  10.981  0.2204 -0.1621  0.5718
  334TMC3    C4 5064   0.017   0.222  11.110  0.4832  0.4180 -0.1190
  334TMC3    C5 5065   0.113   0.309  11.075  0.9448 -0.1926  0.3021
  334TMC3    C6 5066   0.231   0.280  11.027  0.3328 -0.2793 -1.2965
  334TMC3     C 5067   4.668   4.727  11.102  1.0122  0.3046  0.1335
  334TMC3     O 5068   4.685   4.615  11.050  0.0478  0.1369  0.0311
  334TMC3     H 5069   0.164   4.692  10.966 -1.9611 -0.2163 -1.3509
  334TMC3    H1 5070   4.653   0.260  11.133 -0.0235 -1.2832  0.4588
  334TMC3    H2 5071   0.298   0.354  10.986  2.7132 -0.9248  1.4295
  334TMC3    C7 5072   0.085   0.455  11.091  0.1111  1.0048 -0.1781
  334TMC3    C8 5073   0.295   0.138  10.846  0.1241 -0.8720 -0.3296
  334TMC3    O1 5074   0.173   0.529  11.048 -0.0184 -0.2644 -0.1450
  334TMC3    O2 5075   0.245   0.059  10.771  0.2320 -0.4631  0.6890
  335TMC3    C1 5076   4.348   1.816  17.355 -0.7417  0.2676  0.2400
  335TMC3    C2 5077   4.268   1.719  17.306  0.0275 -1.0077 -0.7218
  335TMC3    C3 5078   4.305   1.682  17.180 -0.9827 -0.3071 -0.4933
  335TMC3    C4 5079   4.453   1.874  17.292  0.5233 -0.0642  0.0552
  335TMC3    C5 5080   4.489   1.827  17.169  0.9456  0.0139  0.1073
  335TMC3    C6 5081   4.411   1.729  17.107  0.5874  0.0741 -0.2978
  335TMC3     C 5082   4.294   1.884  17.476  1.2306  1.0139 -0.1331
  335TMC3     O 5083   4.176   1.864  17.508 -0.2873 -0.0199 -0.0663
  335TMC3     H 5084   4.184   1.677  17.360 -0.2933  2.0305  1.1583
  335TMC3    H1 5085   4.515   1.946  17.344  0.7360 -1.1131  1.2582
  335TMC3    H2 5086   4.448   1.685  17.015 -0.6518 -1.8136  0.1040
  335TMC3    C7 5087   4.631   1.822  17.128  0.1960  0.6508 -0.1534
  335TMC3    C8 5088   4.242   1.567  17.124 -0.0813 -0.1083  0.8686
  335TMC3    O1 5089   4.659   1.771  17.018 -0.0785 -0.6455 -0.3281
  335TMC3    O2 5090   4.254   1.561  16.999  0.9732  0.0412  0.0762
  336MPD2     C 5091   4.212   4.373  15.974  0.1665  1.1231  0.0020
  336MPD2    C1 5092   4.128   4.293  15.900 -0.5467  0.0922 -0.6362
  336MPD2    C2 5093   4.111   4.161  15.939  0.2328  0.1555  0.1911
  336MPD2    C3 5094   4.158   4.109  16.054 -0.8443 -0.0787 -0.0633
  336MPD2    C4 5095   4.229   4.199  16.134  0.6898 -0.1252 -0.4999
  336MPD2    C5 5096   4.252   4.326  16.094 -0.1066  0.3898 -0.6087
  336MPD2     H 5097   4.073   4.093  15.864  1.1092  0.6235 -0.6922
  336MPD2    H1 5098   4.253   4.168  16.235  0.2573  2.7996  0.5004
  336MPD2    H2 5099   4.235   4.476  15.947  0.4349  1.7298  2.5262
  336MPD2    H3 5100   4.310   4.393  16.156  1.0436  1.9246 -3.3018
  336MPD2     N 5101   4.135   3.978  16.098 -0.3133 -0.0360 -0.2314
  336MPD2    H5 5102   4.173   3.952  16.188  0.5691  0.8972 -0.3361
  336MPD2    N1 5103   4.071   4.338  15.779 -0.4430  0.8778  0.1109
  336MPD2    H7 5104   4.025   4.261  15.730  1.3528 -0.3098  0.2710
  337TMC3    C1 5105   3.996   4.485  15.611 -0.0202  0.5158 -0.4053
  337TMC3    C2 5106   3.882   4.415  15.584  0.2623 -0.7980 -0.2223
  337TMC3    C3 5107   3.823   4.439  15.463  0.6462  0.1527  0.1682
  337TMC3    C4 5108   4.043   4.584  15.531  0.2002 -0.3548  0.9599
  337TMC3    C5 5109   3.990   4.582  15.404  0.5001 -0.3953  0.0724
  337TMC3    C6 5110   3.885   4.508  15.364  0.3914  0.3548 -0.5063
  337TMC3     C 5111   4.066   4.465  15.735 -0.6914  0.3210  0.2195
  337TMC3     O 5112   4.128   4.564  15.779  0.3743  0.2159  0.5777
  337TMC3     H 5113   3.842   4.356  15.665  1.2991  0.1592  0.9885
  337TMC3    H1 5114   4.135   4.634  15.558 -0.1864  1.6138 -1.3489
  337TMC3    H2 5115   3.847   4.520  15.264 -2.2697  0.2270  0.5012
  337TMC3    C7 5116   4.032   4.684  15.314  1.0330  0.3621  0.0705
  337TMC3    C8 5117   3.677   4.401  15.456 -0.6622 -0.5868  0.4013
  337TMC3    O1 5118   3.985   4.695  15.202 -0.4499  0.2600  0.1805
  337TMC3    O2 5119   3.618   4.397  15.567 -0.3381 -0.3174  0.6142
  338MPD2     C 5120   0.640   3.044   1.124 -0.0325 -0.3025 -0.0109
  338MPD2    C1 5121   0.519   3.107   1.087 -0.4797 -0.0834 -0.9214
  338MPD2    C2 5122   0.458   3.196   1.175 -0.1237  0.4864 -0.1994
  338MPD2    C3 5123   0.514   3.223   1.300 -0.0474  0.5058  0.2922
  338MPD2    C4 5124   0.642   3.174   1.325 -0.1831 -0.0227  1.0030
  338MPD2    C5 5125   0.699   3.076   1.245  0.3743 -0.5045 -0.0161
  338MPD2     H 5126   0.363   3.241   1.149 -0.8615 -0.3273  1.1272
  338MPD2    H1 5127   0.697   3.202   1.414 -0.6622  0.8689  1.0185
  338MPD2    H2 5128   0.689   2.965   1.069  0.2492 -0.5320  0.5679
  338MPD2    H3 5129   0.786   3.027   1.286  1.7378  1.8894 -0.0738
  338MPD2     N 5130   0.447   3.317   1.380 -0.2730  0.2318 -0.0186
  338MPD2    H5 5131   0.359   3.349   1.341 -0.0093  2.2702  1.1115
  338MPD2    N1 5132   0.448   3.062   0.976  0.3097 -1.2213 -0.5281
  338MPD2    H7 5133   0.350   3.085   0.966  0.3666 -1.1786 -0.9737
  339TMC3    C1 5134   0.396   3.447   1.574 -0.4885  0.0007  0.0635
  339TMC3    C2 5135   0.392   3.454   1.712 -0.4158 -0.1209  0.4257
  339TMC3    C3 5136   0.302   3.547   1.759  0.2403 -0.0410  0.5871
  339TMC3    C4 5137   0.325   3.537   1.491  0.1341 -0.0751 -0.0382
  339TMC3    C5 5138   0.237   3.626   1.548  0.4721  0.2448  0.6622
  339TMC3    C6 5139   0.229   3.638   1.685 -0.5122 -0.3467  0.0543
  339TMC3     C 5140   0.484   3.351   1.510  0.3640  0.3719 -0.1334
  339TMC3     O 5141   0.572   3.298   1.582 -0.2369  0.0935 -0.4418
  339TMC3     H 5142   0.443   3.380   1.772  0.8960 -0.1669 -0.7540
  339TMC3    H1 5143   0.335   3.531   1.384 -1.3194  3.9289 -0.4015
  339TMC3    H2 5144   0.162   3.712   1.728 -0.8401 -1.2776  1.1305
  339TMC3    C7 5145   0.176   3.718   1.451 -0.0001  0.5909  1.0307
  339TMC3    C8 5146   0.296   3.562   1.902 -0.5728 -0.4133 -0.1924
  339TMC3    O1 5147   0.230   3.722   1.341 -0.2252  0.2135  0.4445
  339TMC3    O2 5148   0.401   3.518   1.954  0.0467  0.1515  0.2308
  340MPD2     C 5149   4.157   1.393   9.720 -0.8292 -0.2147 -0.0238
  340MPD2    C1 5150   4.212   1.296   9.808  0.2405  0.4974 -0.3749
  340MPD2    C2 5151   4.296   1.336   9.911  0.2540 -0.1745 -0.1343
  340MPD2    C3 5152   4.336   1.472   9.913 -0.1190  0.7551  0.3173
  340MPD2    C4 5153   4.302   1.557   9.813 -0.0191 -0.2722 -0.1677
  340MPD2    C5 5154   4.198   1.520   9.728  0.4995  0.6310 -0.0540
  340MPD2     H 5155   4.349   1.268   9.976  0.6572  0.2436 -0.0319
  340MPD2    H1 5156   4.345   1.656   9.802 -0.2865 -0.1308  0.0752
  340MPD2    H2 5157   4.088   1.363   9.642  0.8801  0.5771 -1.8252
  340MPD2    H3 5158   4.155   1.592   9.658 -2.1205 -1.8022 -0.9615
  340MPD2     N 5159   4.423   1.529  10.009  0.1322 -0.4409 -0.0520
  340MPD2    H5 5160   4.471   1.613   9.978  0.8279 -0.7089  0.2795
  340MPD2    N1 5161   4.186   1.158   9.799 -0.0485  0.0895  0.2583
  340MPD2    H7 5162   4.251   1.098   9.850  1.2725  2.4173  1.3255
  341TMC3    C1 5163   4.109   0.961   9.711 -0.2734  0.1735  0.6584
  341TMC3    C2 5164   4.006   0.873   9.720 -0.2957 -0.6768  1.2797
  341TMC3    C3 5165   4.034   0.741   9.751 -0.1054  0.4309 -0.2067
  341TMC3    C4 5166   4.237   0.915   9.708 -0.3795 -0.8331  0.3472
  341TMC3    C5 5167   4.260   0.782   9.716  0.7207 -0.1081 -0.5801
  341TMC3    C6 5168   4.161   0.690   9.752 -0.6737 -0.2487 -0.2043
  341TMC3     C 5169   4.088   1.102   9.716  0.3941 -0.4938 -0.8098
  341TMC3     O 5170   3.988   1.145   9.663 -0.0797  0.4362  0.0860
  341TMC3     H 5171   3.906   0.915   9.718  0.1938  0.4493  0.2124
  341TMC3    H1 5172   4.320   0.983   9.693 -3.1698  2.5428  0.3275
  341TMC3    H2 5173   4.172   0.582   9.762  0.3804 -0.2285 -1.2293
  341TMC3    C7 5174   4.398   0.736   9.727 -0.7149  0.6758  0.0622
  341TMC3    C8 5175   3.918   0.644   9.750 -0.3122 -0.2255  0.3344
  341TMC3    O1 5176   4.428   0.650   9.811 -0.7788 -0.5420 -0.1847
  341TMC3    O2 5177   3.816   0.678   9.687 -0.5748 -0.1117  0.2449
  342MPD2     C 5178   2.384   4.622   0.031 -0.2901  0.5811 -0.1688
  342MPD2    C1 5179   2.519   4.599   0.042  0.3937 -0.9608  0.1905
  342MPD2    C2 5180   2.605   4.704   0.045 -0.0688  0.0691 -0.0325
  342MPD2    C3 5181   2.562   0.097   0.049  0.0682 -0.2262 -0.1675
  342MPD2    C4 5182   2.424   0.125   0.036 -0.2149 -0.2206 -0.1499
  342MPD2    C5 5183   2.338   0.018   0.014  0.1309  0.1160 -0.6020
  342MPD2     H 5184   2.710   4.678   0.050 -0.3168 -0.5537  1.5580
  342MPD2    H1 5185   2.388   0.226   0.052  0.8186 -0.1173  1.5668
  342MPD2    H2 5186   2.303   4.551   0.025 -0.3571  0.5330  1.3237
  342MPD2    H3 5187   2.231   0.029  17.739 -0.1005 -0.9840  0.2532
  342MPD2     N 5188   2.652   0.203   0.074 -0.4730  0.2859  0.8299
  342MPD2    H5 5189   2.616   0.298   0.081 -0.4739  0.2389  1.5299
  342MPD2    N1 5190   2.574   4.474   0.057 -0.0366  0.2402 -0.3335
  342MPD2    H7 5191   2.666   4.464   0.099 -0.4965  1.2704  0.8915
  343TMC3    C1 5192   2.597   4.241   0.040 -0.1473  0.0099 -0.0357
  343TMC3    C2 5193   2.729   4.258   0.004 -0.1727 -0.1936 -0.0380
  343TMC3    C3 5194   2.800   4.154  17.696  0.8494  0.6809 -0.1555
  343TMC3    C4 5195   2.540   4.118   0.026 -0.3028 -0.2406  0.2424
  343TMC3    C5 5196   2.611   4.022  17.707  1.0033 -0.0321  0.1710
  343TMC3    C6 5197   2.740   4.034  17.670  0.0614  0.0746 -0.5420
  343TMC3     C 5198   2.508   4.355   0.040  0.4948  0.0089 -0.5569
  343TMC3     O 5199   2.391   4.331   0.002 -0.0504  0.0825 -0.3216
  343TMC3     H 5200   2.777   4.355   0.007 -0.8207  0.1710 -1.5041
  343TMC3    H1 5201   2.434   4.102   0.046 -0.8205  1.7769 -0.8689
  343TMC3    H2 5202   2.792   3.960  17.611 -0.6770 -0.8359 -0.0634
  343TMC3    C7 5203   2.536   3.906  17.670  0.9512  0.9435 -0.3597
  343TMC3    C8 5204   2.949   4.162  17.692  0.3175  0.3128  0.2641
  343TMC3    O1 5205   2.562   3.848  17.561 -0.9132  0.4194 -0.2098
  343TMC3    O2 5206   3.003   4.233   0.038  0.3996  0.0229  0.3806
  344MPD2     C 5207   3.541   3.457  10.515  0.0459  0.1724  0.2148
  344MPD2    C1 5208   3.427   3.501  10.456 -0.3371  0.2141 -1.1456
  344MPD2    C2 5209   3.444   3.622  10.384  0.0431 -0.0341 -1.0600
  344MPD2    C3 5210   3.557   3.705  10.382 -0.2544 -0.1146  0.4514
  344MPD2    C4 5211   3.669   3.650  10.440 -0.1037  0.5396 -0.2414
  344MPD2    C5 5212   3.658   3.532  10.512 -0.1891  0.0661  0.2700
  344MPD2     H 5213   3.353   3.653  10.333 -0.7093 -0.9615 -0.2925
  344MPD2    H1 5214   3.761   3.707  10.433 -1.2805  2.3466 -0.9970
  344MPD2    H2 5215   3.552   3.364  10.569  1.6002 -0.9205 -1.9957
  344MPD2    H3 5216   3.749   3.496  10.559  0.6061  1.6545 -0.0283
  344MPD2     N 5217   3.563   3.829  10.325  0.0865  0.1765 -0.2329
  344MPD2    H5 5218   3.650   3.880  10.332  1.5902 -2.3074 -1.0893
  344MPD2    N1 5219   3.299   3.446  10.473 -0.5116 -0.2787 -0.0114
  344MPD2    H7 5220   3.227   3.506  10.435 -1.1042 -1.4248 -0.7115
  345TMC3    C1 5221   3.495   4.013  10.194  0.0454  0.5632  0.4979
  345TMC3    C2 5222   3.606   4.083  10.235  0.0595  0.5404 -0.5042
  345TMC3    C3 5223   3.661   4.188  10.166  0.1961  0.6764  0.0686
  345TMC3    C4 5224   3.434   4.058  10.082 -0.1132 -0.1080 -0.4216
  345TMC3    C5 5225   3.491   4.161  10.004  0.3229 -1.3036  0.2358
  345TMC3    C6 5226   3.602   4.228  10.045 -0.5341 -0.6593  0.2904
  345TMC3     C 5227   3.464   3.882  10.244 -0.3708 -0.4729 -0.0981
  345TMC3     O 5228   3.367   3.833  10.189 -0.0883 -0.0564  0.3730
  345TMC3     H 5229   3.635   4.055  10.336  0.5257 -0.8823 -1.0378
  345TMC3    H1 5230   3.348   4.004  10.044  0.6246 -0.0633 -2.1430
  345TMC3    H2 5231   3.643   4.308   9.984 -0.1605 -1.3219 -0.3358
  345TMC3    C7 5232   3.399   4.261   9.963  0.4881  0.4851 -0.2569
  345TMC3    C8 5233   3.724   4.294  10.235 -0.0207 -0.8330  0.1873
  345TMC3    O1 5234   3.428   4.379   9.990 -0.3098 -0.2096  0.0588
  345TMC3    O2 5235   3.735   4.398  10.173 -0.0184 -0.5278 -0.1526
  346MPD2     C 5236   3.258   0.837  14.907  0.1219 -0.0793 -0.2476
  346MPD2    C1 5237   3.308   0.913  14.805  0.4648 -0.2524 -0.1185
  346MPD2    C2 5238   3.392   1.021  14.826  0.4494 -0.6661  0.3348
  346MPD2    C3 5239   3.421   1.062  14.956 -0.0132 -0.1465  0.4618
  346MPD2    C4 5240   3.374   0.984  15.054 -0.0842 -0.1380 -0.2441
  346MPD2    C5 5241   3.293   0.873  15.027  0.1471  0.5280  0.1108
  346MPD2     H 5242   3.437   1.077  14.744  0.3355 -0.0915  0.6605
  346MPD2    H1 5243   3.400   1.001  15.158  1.4458  1.1453 -0.8358
  346MPD2    H2 5244   3.182   0.760  14.894  0.1720 -0.2692  0.6077
  346MPD2    H3 5245   3.259   0.815  15.111 -0.6642  1.1612  0.2181
  346MPD2     N 5246   3.495   1.181  14.977 -0.3540 -0.5782 -0.0322
  346MPD2    H5 5247   3.538   1.223  14.895 -0.9904  2.1041  0.9999
  346MPD2    N1 5248   3.256   0.891  14.673 -0.3539 -0.2187 -0.5426
  346MPD2    H7 5249   3.292   0.940  14.592 -0.4296 -0.5230 -0.7630
  347TMC3    C1 5250   3.626   1.347  15.084 -0.0235  0.1770  0.5364
  347TMC3    C2 5251   3.715   1.319  14.981  0.3862  0.4574  0.4651
  347TMC3    C3 5252   3.845   1.355  15.001  0.1890 -0.2209 -0.1718
  347TMC3    C4 5253   3.669   1.401  15.208 -0.1789  0.4255 -0.1279
  347TMC3    C5 5254   3.800   1.433  15.218 -0.0291  0.5339 -0.3710
  347TMC3    C6 5255   3.885   1.415  15.116 -1.0074 -0.1123 -0.4088
  347TMC3     C 5256   3.520   1.247  15.093  0.2464  0.2833  0.1495
  347TMC3     O 5257   3.488   1.216  15.208  0.5313 -0.4681  0.1221
  347TMC3     H 5258   3.688   1.282  14.882 -1.1640  0.0240  1.0461
  347TMC3    H1 5259   3.592   1.440  15.274 -0.9946  0.0223 -0.8295
  347TMC3    H2 5260   3.990   1.441  15.125 -0.7994 -0.8002 -0.8136
  347TMC3    C7 5261   3.849   1.474  15.351  0.2941  0.1239 -0.0082
  347TMC3    C8 5262   3.945   1.332  14.893 -0.0106 -0.5598 -0.5038
  347TMC3    O1 5263   3.954   1.541  15.355 -0.0898 -0.2311  0.5803
  347TMC3    O2 5264   3.928   1.235  14.816  0.2605  0.3121  0.4999
  348MPD2     C 5265   2.884   0.170  11.460 -0.1817  0.5329  0.3862
  348MPD2    C1 5266   2.751   0.126  11.470 -0.0625 -0.0399  1.1336
  348MPD2    C2 5267   2.650   0.197  11.411  0.5282  1.0479  0.7980
  348MPD2    C3 5268   2.678   0.313  11.340 -0.0179  0.0824 -0.8051
  348MPD2    C4 5269   2.809   0.358  11.336 -0.7375  0.8568  0.5263
  348MPD2    C5 5270   2.910   0.290  11.397 -0.5490 -0.0321  0.0874
  348MPD2     H 5271   2.548   0.160  11.406  1.5888 -1.7868 -0.0270
  348MPD2    H1 5272   2.844   0.448  11.286  0.0018  0.3527  0.1373
  348MPD2    H2 5273   2.960   0.098  11.489  0.0907  1.0972  1.0626
  348MPD2    H3 5274   3.010   0.330  11.380 -0.3427 -0.4729  0.2706
  348MPD2     N 5275   2.570   0.392  11.296  0.3986  0.4534  0.1903
  348MPD2    H5 5276   2.478   0.359  11.324  0.7747  0.2379  1.1552
  348MPD2    N1 5277   2.712   4.734  11.521 -0.3956 -0.1469  0.1742
  348MPD2    H7 5278   2.616   4.703  11.511  0.0189 -0.8992 -1.5850
  349TMC3    C1 5279   2.711   4.518  11.556  0.2415  0.0568 -0.2254
  349TMC3    C2 5280   2.707   4.443  11.666 -0.0368  0.6394 -0.7349
  349TMC3    C3 5281   2.592   4.367  11.692  0.1387  0.4283 -0.5169
  349TMC3    C4 5282   2.605   4.522  11.471 -0.6286  0.6436 -0.3496
  349TMC3    C5 5283   2.484   4.454  11.496  0.6836  0.0315  0.4021
  349TMC3    C6 5284   2.485   4.373  11.604  0.2280 -1.0628 -0.0244
  349TMC3     C 5285   2.796   4.633  11.557 -0.7123 -0.5621 -0.2190
  349TMC3     O 5286   2.915   4.629  11.583 -0.3973  0.0627  0.9011
  349TMC3     H 5287   2.796   4.441  11.728 -0.1595 -0.5164 -0.5823
  349TMC3    H1 5288   2.632   4.564  11.375 -0.2275 -0.7683 -0.8516
  349TMC3    H2 5289   2.397   4.313  11.624  0.6951 -0.5892  3.4255
  349TMC3    C7 5290   2.362   4.525  11.478  0.1749  0.0140 -0.4497
  349TMC3    C8 5291   2.598   4.289  11.815 -0.1113  0.6543 -0.3344
  349TMC3    O1 5292   2.277   4.528  11.569 -0.2693  0.3904 -0.0365
  349TMC3    O2 5293   2.691   4.306  11.892 -0.1343  0.6088  0.4556
  350MPD2     C 5294   1.623   3.177  10.065  0.0393 -0.3085  0.5569
  350MPD2    C1 5295   1.528   3.101  10.139  0.3417 -0.6690 -1.1466
  350MPD2    C2 5296   1.477   3.152  10.257  0.0320 -1.0440 -0.4732
  350MPD2    C3 5297   1.514   3.280  10.291  0.3193  0.1872 -0.0832
  350MPD2    C4 5298   1.597   3.358  10.219 -0.9358  0.6887 -0.1108
  350MPD2    C5 5299   1.650   3.306  10.107  0.2972 -0.5837 -0.0068
  350MPD2     H 5300   1.403   3.091  10.307  0.4230  0.5161  2.0362
  350MPD2    H1 5301   1.634   3.456  10.249 -0.4235  0.0172  1.4390
  350MPD2    H2 5302   1.670   3.145   9.973  2.7198  1.6199  1.2539
  350MPD2    H3 5303   1.724   3.366  10.055  0.4546  0.1484  1.0503
  350MPD2     N 5304   1.445   3.324  10.404  0.0265  0.1717  0.5899
  350MPD2    H5 5305   1.361   3.273  10.432  0.4899 -1.7957 -1.5589
  350MPD2    N1 5306   1.474   2.975  10.089 -0.2700 -0.0259  0.0521
  350MPD2    H7 5307   1.421   2.920  10.156  0.0051 -2.1796 -1.5263
  351TMC3    C1 5308   1.459   2.788   9.954  0.8113 -0.4581  0.3585
  351TMC3    C2 5309   1.531   2.704   9.875  0.0918 -0.1748  0.0532
  351TMC3    C3 5310   1.461   2.602   9.819  0.7216  0.1768  0.0372
  351TMC3    C4 5311   1.322   2.782   9.970 -0.1720 -0.4864 -0.4736
  351TMC3    C5 5312   1.259   2.672   9.915 -0.1676 -0.1517  0.0541
  351TMC3    C6 5313   1.328   2.583   9.837  0.6974  0.2982 -0.5107
  351TMC3     C 5314   1.515   2.917   9.971  0.5603 -0.2758  0.0417
  351TMC3     O 5315   1.593   2.961   9.887  0.2278  0.9379 -0.3907
  351TMC3     H 5316   1.639   2.720   9.871 -0.0971  1.9776  3.0627
  351TMC3    H1 5317   1.262   2.859  10.019  0.5293 -0.4664  0.3584
  351TMC3    H2 5318   1.279   2.504   9.781 -1.4305  1.1007  0.2492
  351TMC3    C7 5319   1.118   2.646   9.950 -0.4302 -0.8765  0.7859
  351TMC3    C8 5320   1.532   2.482   9.765 -0.0214  0.1500  0.2827
  351TMC3    O1 5321   1.061   2.747   9.994  0.2117 -0.2020 -0.5897
  351TMC3    O2 5322   1.462   2.379   9.752  0.2828 -0.5276 -0.1221
  352MPD2     C 5323   3.233   0.307   0.946 -0.4661 -0.2995  0.2874
  352MPD2    C1 5324   3.354   0.381   0.935  0.0977  0.1843 -1.1963
  352MPD2    C2 5325   3.472   0.317   0.958 -0.4013 -0.4633 -0.4533
  352MPD2    C3 5326   3.479   0.184   0.995  0.1419  0.7014  0.3670
  352MPD2    C4 5327   3.363   0.109   1.014  0.0725 -0.1994  0.3032
  352MPD2    C5 5328   3.242   0.177   0.979 -0.0257 -0.0713  0.1041
  352MPD2     H 5329   3.560   0.379   0.944 -1.1658  0.2866 -2.0180
  352MPD2    H1 5330   3.352   0.007   1.047 -1.7628  0.5520  2.0561
  352MPD2    H2 5331   3.134   0.347   0.926  0.1092  1.8730  1.7908
  352MPD2    H3 5332   3.155   0.113   0.994 -0.8008  1.1070  0.6468
  352MPD2     N 5333   3.603   0.110   1.020 -1.3072  0.8484 -0.0130
  352MPD2    H5 5334   3.598   0.011   1.040  0.4216  0.2636 -2.5640
  352MPD2    N1 5335   3.344   0.521   0.914  0.1431  0.5199 -0.3528
  352MPD2    H7 5336   3.251   0.552   0.890  0.9847  0.2079 -4.0066
  353TMC3    C1 5337   3.834   0.073   1.010 -0.5661  0.6374  0.1134
  353TMC3    C2 5338   3.858   4.731   1.116 -0.8009  0.8176 -0.4222
  353TMC3    C3 5339   3.981   4.675   1.130  0.4817 -0.1704  0.1970
  353TMC3    C4 5340   3.929   0.091   0.916  0.0986  0.2854 -0.3522
  353TMC3    C5 5341   4.056   0.050   0.940 -0.7498 -0.3909 -0.1841
  353TMC3    C6 5342   4.083   4.696   1.039  0.6701 -0.1789  0.2519
  353TMC3     C 5343   3.726   0.170   1.010 -0.1025  0.5656  0.3352
  353TMC3     O 5344   3.757   0.279   0.962 -0.8216  0.3866 -0.0936
  353TMC3     H 5345   3.782   4.726   1.193 -1.0460  3.3148 -0.4913
  353TMC3    H1 5346   3.912   0.150   0.827 -1.1947  0.1765 -0.1746
  353TMC3    H2 5347   4.183   4.655   1.051  0.3665  0.4422  4.6556
  353TMC3    C7 5348   4.145   0.054   0.827 -0.2093  0.0700  0.7314
  353TMC3    C8 5349   4.025   4.634   1.262 -0.6606  0.5554  0.3938
  353TMC3    O1 5350   4.224   4.699   0.810 -0.4332 -0.2352 -0.1270
  353TMC3    O2 5351   3.959   4.654   1.362  0.7224  0.0121  0.1156
  354TMC3    C1 5352   1.232   1.918  13.285 -0.0763  0.3456 -0.4184
  354TMC3    C2 5353   1.250   2.040  13.224 -0.4000 -1.3101 -0.0074
  354TMC3    C3 5354   1.254   2.034  13.087 -0.1841 -0.4557 -0.2670
  354TMC3    C4 5355   1.272   1.802  13.219 -0.5029 -0.3739 -0.9632
  354TMC3    C5 5356   1.278   1.811  13.082 -0.0058 -0.0653 -0.3593
  354TMC3    C6 5357   1.269   1.927  13.016 -0.1914 -0.1109 -0.4476
  354TMC3     C 5358   1.201   1.911  13.432  0.5009 -0.9736 -0.2697
  354TMC3     O 5359   1.239   1.811  13.495  0.0486 -0.0510  0.6887
  354TMC3     H 5360   1.252   2.128  13.288 -0.3035 -0.3708 -1.3016
  354TMC3    H1 5361   1.241   1.706  13.260  0.1091  0.1585  0.7549
  354TMC3    H2 5362   1.256   1.930  12.908  0.5560 -2.0759 -0.5792
  354TMC3    C7 5363   1.289   1.688  13.008 -0.3178 -0.5256 -0.1886
  354TMC3    C8 5364   1.243   2.162  13.019 -0.2532  0.2368  0.7780
  354TMC3    O1 5365   1.249   1.580  13.055  0.5794  0.4835  0.8552
  354TMC3    O2 5366   1.197   2.254  13.089 -0.4314  0.5613  1.0562
  355MPD2     C 5367   1.777   1.730  12.054 -1.1977 -1.1279  0.0907
  355MPD2    C1 5368   1.816   1.747  11.921  0.2971  0.7624  0.3858
  355MPD2    C2 5369   1.924   1.835  11.893  0.3972  0.1511 -0.1830
  355MPD2    C3 5370   1.972   1.921  11.994  0.4143  0.1521 -0.0113
  355MPD2    C4 5371   1.925   1.902  12.124  0.2566 -0.2648  0.0618
  355MPD2    C5 5372   1.843   1.794  12.150 -0.4717 -0.7695 -0.2760
  355MPD2     H 5373   1.961   1.838  11.791  0.9324  2.0813  0.0597
  355MPD2    H1 5374   1.972   1.938  12.214  2.0751 -3.2959  0.3087
  355MPD2    H2 5375   1.708   1.650  12.080 -1.9617  0.3838  2.7396
  355MPD2    H3 5376   1.822   1.787  12.256  1.4466 -1.5981  0.0492
  355MPD2     N 5377   2.054   2.038  11.962  0.2428  0.2188  0.1617
  355MPD2    H5 5378   2.070   2.090  12.048  0.1494 -2.2454  1.6671
  355MPD2    N1 5379   1.736   1.680  11.826 -0.0979 -0.0682  0.0136
  355MPD2    H7 5380   1.680   1.606  11.867 -1.5486 -0.1124 -2.0028
  356TMC3    C1 5381   2.142   2.214  11.840 -0.1902 -0.0020  0.3074
  356TMC3    C2 5382   2.163   2.268  11.713 -0.3133 -0.3560 -0.1208
  356TMC3    C3 5383   2.163   2.401  11.707  0.8332 -0.4073 -0.0438
  356TMC3    C4 5384   2.124   2.289  11.952  0.4608  0.1988 -0.3886
  356TMC3    C5 5385   2.131   2.423  11.940  0.5050 -0.5780 -0.7168
  356TMC3    C6 5386   2.147   2.478  11.816  0.5223  0.7133  0.3169
  356TMC3     C 5387   2.103   2.072  11.838 -0.2574 -0.6504  0.0900
  356TMC3     O 5388   2.100   2.010  11.733 -0.6037  0.1217  0.3813
  356TMC3     H 5389   2.166   2.205  11.625  1.2138  1.8688 -1.6567
  356TMC3    H1 5390   2.138   2.239  12.047 -1.2121 -1.5918 -1.0684
  356TMC3    H2 5391   2.134   2.585  11.803 -1.9339  0.1595 -1.8769
  356TMC3    C7 5392   2.111   2.502  12.063  0.9561  0.1585 -0.5220
  356TMC3    C8 5393   2.178   2.454  11.575 -0.2768  0.1292 -0.0823
  356TMC3    O1 5394   2.080   2.446  12.166  0.4603 -0.2954 -0.2350
  356TMC3    O2 5395   2.147   2.379  11.482 -0.0143 -0.0312  0.6391
  357MPD2     C 5396   0.494   1.842   0.725  0.7505  0.4884  0.0905
  357MPD2    C1 5397   0.500   1.969   0.773 -0.2399 -0.2895 -0.8047
  357MPD2    C2 5398   0.434   2.006   0.895 -0.4089  1.0821 -0.7673
  357MPD2    C3 5399   0.366   1.911   0.969 -0.3788 -0.2129  0.3691
  357MPD2    C4 5400   0.367   1.787   0.920  0.1834 -0.1362  0.8485
  357MPD2    C5 5401   0.431   1.750   0.801  0.2288 -0.6729 -0.1689
  357MPD2     H 5402   0.435   2.104   0.940 -0.3272  0.8716 -0.3126
  357MPD2    H1 5403   0.309   1.706   0.964 -0.7749 -1.5115 -2.9605
  357MPD2    H2 5404   0.534   1.818   0.627  0.1570  1.6038 -0.4150
  357MPD2    H3 5405   0.414   1.650   0.763 -1.5185  0.2845 -1.9254
  357MPD2     N 5406   0.312   1.935   1.103 -0.2381  0.5377  0.0954
  357MPD2    H5 5407   0.263   1.856   1.142  0.0234 -0.9654 -2.6387
  357MPD2    N1 5408   0.582   2.066   0.699 -0.5954 -0.1170 -0.3027
  357MPD2    H7 5409   0.629   2.035   0.615  1.8288 -0.0243  1.0080
  358TMC3    C1 5410   0.728   2.240   0.695  1.0567  0.4812 -0.1770
  358TMC3    C2 5411   0.813   2.156   0.631  0.7601 -0.8259 -0.1439
  358TMC3    C3 5412   0.938   2.216   0.608  0.0233  0.5368 -0.0492
  358TMC3    C4 5413   0.752   2.371   0.729 -0.2134  0.3129 -0.6420
  358TMC3    C5 5414   0.877   2.422   0.705 -0.2604 -0.6427  0.0954
  358TMC3    C6 5415   0.971   2.352   0.633  0.5788 -0.3568  0.1661
  358TMC3     C 5416   0.610   2.191   0.749 -0.0814  0.4302 -0.2942
  358TMC3     O 5417   0.552   2.263   0.828 -0.3580  0.3598 -0.0257
  358TMC3     H 5418   0.795   2.054   0.599  0.5850 -1.2248  1.1978
  358TMC3    H1 5419   0.671   2.429   0.773  0.8090  1.6723 -0.5801
  358TMC3    H2 5420   1.072   2.383   0.608 -0.2503  1.6380 -0.6845
  358TMC3    C7 5421   0.915   2.557   0.736 -0.3836 -0.0387 -0.4379
  358TMC3    C8 5422   1.031   2.151   0.523 -0.1040 -0.1481  0.2876
  358TMC3    O1 5423   0.819   2.624   0.760  0.6326  0.1580 -0.4473
  358TMC3    O2 5424   1.144   2.197   0.522  0.4595 -0.0558  0.0123
  359MPD2     C 5425   1.728   1.026  12.441  0.8287  0.1603 -0.3392
  359MPD2    C1 5426   1.726   0.978  12.312  0.4519  0.3702  0.8082
  359MPD2    C2 5427   1.658   0.863  12.290  0.5019 -0.5387 -0.9569
  359MPD2    C3 5428   1.599   0.799  12.393 -0.0694 -0.6022 -0.1411
  359MPD2    C4 5429   1.591   0.853  12.514 -0.0969  0.3687  0.0477
  359MPD2    C5 5430   1.658   0.971  12.539  0.2642 -0.0013 -0.2554
  359MPD2     H 5431   1.654   0.812  12.195  0.0407 -2.1190 -0.0794
  359MPD2    H1 5432   1.539   0.802  12.595  1.1760 -0.7627  0.1389
  359MPD2    H2 5433   1.774   1.122  12.462 -0.5537  0.9122 -0.7664
  359MPD2    H3 5434   1.657   1.019  12.636 -1.5525  1.9000 -1.1996
  359MPD2     N 5435   1.531   0.677  12.374  0.2811  0.1676  0.1819
  359MPD2    H5 5436   1.498   0.633  12.459 -0.6113  0.3215 -0.0832
  359MPD2    N1 5437   1.800   1.028  12.203 -0.0294  0.2963 -0.7177
  359MPD2    H7 5438   1.797   0.975  12.116 -2.2749 -0.8722  0.0739
  360TMC3    C1 5439   1.953   1.167  12.083 -0.3179  0.9976 -0.3003
  360TMC3    C2 5440   2.092   1.164  12.098 -0.0353 -0.5874  0.4342
  360TMC3    C3 5441   2.165   1.133  11.989  0.3650 -0.0886 -1.0100
  360TMC3    C4 5442   1.888   1.137  11.970  0.6937  0.2601 -0.0505
  360TMC3    C5 5443   1.964   1.106  11.863  0.2955 -0.4067  0.4919
  360TMC3    C6 5444   2.103   1.105  11.874  0.2353  0.4827 -0.6367
  360TMC3     C 5445   1.883   1.140  12.208  0.0753  0.4237 -0.5027
  360TMC3     O 5446   1.913   1.213  12.301  0.1762  0.2832 -0.3242
  360TMC3     H 5447   2.133   1.153  12.197 -2.1912 -2.9192  1.0778
  360TMC3    H1 5448   1.781   1.153  11.969  0.5489 -0.7233 -0.3092
  360TMC3    H2 5449   2.160   1.077  11.786  0.7832 -0.6391  0.0713
  360TMC3    C7 5450   1.896   1.066  11.736 -0.2362 -0.6270 -1.0612
  360TMC3    C8 5451   2.296   1.089  12.018  0.1156 -0.3312  0.1646
  360TMC3    O1 5452   1.781   1.093  11.716 -0.0608 -0.1250 -0.0902
  360TMC3    O2 5453   2.320   1.047  12.131 -0.3517 -0.1865 -0.0663
  361MPD2     C 5454   3.579   0.450  17.558  0.0009  0.1862  0.4680
  361MPD2    C1 5455   3.550   0.342  17.471  0.1035 -0.3291 -0.2815
  361MPD2    C2 5456   3.646   0.247  17.438  0.5135  0.4347 -0.2395
  361MPD2    C3 5457   3.769   0.256  17.499 -0.0940  0.1340 -0.0652
  361MPD2    C4 5458   3.803   0.362  17.584  0.1035 -0.2713 -0.4834
  361MPD2    C5 5459   3.705   0.450  17.615  0.0977 -0.1774 -0.4540
  361MPD2     H 5460   3.615   0.170  17.368 -0.5068  0.1664  0.4903
  361MPD2    H1 5461   3.897   0.367  17.637  0.1031  0.0964 -0.5167
  361MPD2    H2 5462   3.513   0.532  17.585  0.1692  0.7310 -0.7506
  361MPD2    H3 5463   3.731   0.521  17.693 -0.0903  1.3005 -1.7233
  361MPD2     N 5464   3.864   0.152  17.492  0.2264  0.1553  0.5365
  361MPD2    H5 5465   3.945   0.168  17.552  1.6005  1.4267 -1.6293
  361MPD2    N1 5466   3.422   0.318  17.421 -0.3152  0.0708 -0.1380
  361MPD2    H7 5467   3.407   0.234  17.366 -0.1707  0.8486 -1.3617
  362TMC3    C1 5468   3.188   0.345  17.401  0.2179  0.0758 -0.0926
  362TMC3    C2 5469   3.072   0.396  17.454 -0.2406  0.3781 -0.1951
  362TMC3    C3 5470   2.966   0.431  17.375  0.4057 -0.2495 -0.5023
  362TMC3    C4 5471   3.202   0.326  17.267 -0.1907 -0.1235 -0.6728
  362TMC3    C5 5472   3.099   0.363  17.191  0.2538 -0.3670 -0.1084
  362TMC3    C6 5473   2.979   0.405  17.237 -0.4411 -0.5395  0.3241
  362TMC3     C 5474   3.310   0.388  17.462 -0.0955 -0.1174 -0.8507
  362TMC3     O 5475   3.299   0.487  17.531 -0.8744 -1.4463 -0.0542
  362TMC3     H 5476   3.065   0.414  17.560 -0.4464  1.2305 -0.3554
  362TMC3    H1 5477   3.293   0.297  17.214  0.4426  1.5001 -0.4532
  362TMC3    H2 5478   2.887   0.404  17.180 -0.6733 -0.7173  0.6954
  362TMC3    C7 5479   3.122   0.355  17.047  0.0596 -0.1070 -0.2777
  362TMC3    C8 5480   2.836   0.393  17.424  0.4845  0.6712  0.1830
  362TMC3    O1 5481   3.196   0.263  17.011  0.0700 -0.1516 -0.5411
  362TMC3    O2 5482   2.796   0.279  17.389  0.1829  0.0492  0.0136
  363TMC3    C1 5483   1.841   2.400   9.297  0.2955  0.1589  0.4048
  363TMC3    C2 5484   1.956   2.445   9.362 -0.6721 -0.1879 -0.0383
  363TMC3    C3 5485   1.955   2.570   9.416  0.7601 -0.0366  0.2707
  363TMC3    C4 5486   1.733   2.477   9.283  0.3503  0.6205 -0.7710
  363TMC3    C5 5487   1.735   2.591   9.351 -0.0085  0.0398 -0.0055
  363TMC3    C6 5488   1.841   2.645   9.421  0.0386 -0.5469  0.5086
  363TMC3     C 5489   1.849   2.266   9.235 -0.1943  0.2592  0.1380
  363TMC3     O 5490   1.930   2.183   9.272 -0.3618 -0.2796 -0.2496
  363TMC3     H 5491   2.038   2.377   9.379 -1.3962 -1.2321 -0.6637
  363TMC3    H1 5492   1.649   2.437   9.227  0.2215 -0.6306  0.3216
  363TMC3    H2 5493   1.847   2.749   9.453 -3.2043 -0.5730  1.2036
  363TMC3    C7 5494   1.605   2.660   9.382 -0.2573  0.1274  0.4816
  363TMC3    C8 5495   2.069   2.618   9.494  0.1669 -0.1644 -0.6562
  363TMC3    O1 5496   1.608   2.784   9.381 -0.3473 -0.0292  0.1888
  363TMC3    O2 5497   2.041   2.690   9.592 -0.6771  0.5681  0.0631
  364MPD2     C 5498   0.399   1.951  10.414  0.1864 -0.0177 -0.0935
  364MPD2    C1 5499   0.513   1.880  10.394  0.6132 -0.0341  0.3441
  364MPD2    C2 5500   0.532   1.744  10.434  0.3559  0.0216  0.1348
  364MPD2    C3 5501   0.422   1.685  10.499  0.5641  0.0120  0.6888
  364MPD2    C4 5502   0.308   1.759  10.518  1.0194 -0.7128 -0.3110
  364MPD2    C5 5503   0.294   1.885  10.471  0.0671  0.5417  0.3100
  364MPD2     H 5504   0.622   1.686  10.418  0.0227 -0.7426  1.0472
  364MPD2    H1 5505   0.217   1.715  10.556  1.4008 -0.1043  1.2939
  364MPD2    H2 5506   0.390   2.044  10.360  0.3208  0.7640  1.2264
  364MPD2    H3 5507   0.194   1.927  10.463 -0.3892 -1.0436 -2.3617
  364MPD2     N 5508   0.426   1.547  10.543 -0.3825 -0.4294 -0.3158
  364MPD2    H5 5509   0.355   1.521  10.611  0.5316  1.6507  1.4281
  364MPD2    N1 5510   0.604   1.950  10.317 -0.2074  0.0219 -0.0558
  364MPD2    H7 5511   0.591   2.050  10.304 -0.9332  0.0317  0.7636
  365TMC3    C1 5512   0.795   2.005  10.199 -0.0862 -0.3426 -0.2829
  365TMC3    C2 5513   0.879   1.962  10.102 -0.3730 -0.3695 -0.8108
  365TMC3    C3 5514   0.956   2.056  10.041  0.2522  0.5700 -0.2899
  365TMC3    C4 5515   0.801   2.133  10.259 -0.0768  0.0084  0.0987
  365TMC3    C5 5516   0.879   2.225  10.193  0.3360  0.1956 -0.1107
  365TMC3    C6 5517   0.953   2.186  10.079 -0.9400  0.6472 -0.1929
  365TMC3     C 5518   0.719   1.899  10.269  0.5309 -0.6293 -0.1528
  365TMC3     O 5519   0.755   1.783  10.265 -0.0435 -0.6838 -0.5409
  365TMC3     H 5520   0.875   1.861  10.064 -0.9394  0.4776 -2.9955
  365TMC3    H1 5521   0.753   2.155  10.354 -0.5310 -0.1051 -0.1058
  365TMC3    H2 5522   1.028   2.253  10.040 -2.0191  2.3035  0.5665
  365TMC3    C7 5523   0.921   2.352  10.262 -1.1808 -0.2100 -0.1494
  365TMC3    C8 5524   1.064   2.015   9.948  0.4832 -0.2113  1.0963
  365TMC3    O1 5525   1.008   2.417  10.215 -1.2170  0.2457 -0.0521
  365TMC3    O2 5526   1.081   2.096   9.856  0.2242  0.8798 -0.1520
  366MPD2     C 5527   3.771   3.024  14.959 -0.0182  0.2718 -0.4948
  366MPD2    C1 5528   3.785   3.090  15.076 -0.1953  1.0832 -0.2910
  366MPD2    C2 5529   3.897   3.062  15.151  0.4457  0.1981 -0.9065
  366MPD2    C3 5530   3.988   2.971  15.113 -0.0467 -0.2516  0.2894
  366MPD2    C4 5531   3.972   2.903  14.994 -0.5003 -0.0994 -0.2891
  366MPD2    C5 5532   3.866   2.929  14.911 -0.8497  0.5674  0.5259
  366MPD2     H 5533   3.930   3.119  15.237 -0.1099 -0.5158 -0.2145
  366MPD2    H1 5534   4.047   2.838  14.950  0.4996 -0.4952  1.9885
  366MPD2    H2 5535   3.686   3.049  14.896 -0.4272  0.7901  0.2651
  366MPD2    H3 5536   3.859   2.891  14.810  0.6698  0.1779  0.5655
  366MPD2     N 5537   4.112   2.965  15.196 -0.5856 -0.5723 -0.2696
  366MPD2    H5 5538   4.117   3.031  15.273 -0.4331  0.8515 -1.5070
  366MPD2    N1 5539   3.733   3.215  15.114  0.1781  0.3266  0.1517
  366MPD2    H7 5540   3.764   3.258  15.201  0.0724 -0.4233  0.5584
  367TMC3    C1 5541   3.610   3.412  15.115 -0.0935  0.1444 -0.8619
  367TMC3    C2 5542   3.687   3.465  15.214 -0.1800 -0.2185 -0.4311
  367TMC3    C3 5543   3.680   3.599  15.234 -0.3822  1.4283 -0.9737
  367TMC3    C4 5544   3.517   3.487  15.052  0.3268 -0.1516  0.2166
  367TMC3    C5 5545   3.509   3.618  15.081 -0.2933  0.4350 -0.1432
  367TMC3    C6 5546   3.585   3.680  15.173  0.1901  0.3244 -0.7787
  367TMC3     C 5547   3.629   3.278  15.059  0.0219 -0.6659  0.4589
  367TMC3     O 5548   3.556   3.237  14.967 -0.6203 -0.1037  0.0801
  367TMC3     H 5549   3.771   3.410  15.256  1.0994 -0.2638 -3.0333
  367TMC3    H1 5550   3.451   3.438  14.981  0.6131  0.1422 -0.2568
  367TMC3    H2 5551   3.570   3.784  15.200  1.9383  0.0998  1.0477
  367TMC3    C7 5552   3.425   3.704  14.998 -0.1214 -0.5426  0.0443
  367TMC3    C8 5553   3.780   3.646  15.324  1.1760 -0.0090  0.2291
  367TMC3    O1 5554   3.463   3.816  14.974  0.1030  0.0336 -0.7033
  367TMC3    O2 5555   3.847   3.572  15.398 -0.1678 -0.3192 -0.2671
  368MPD2     C 5556   0.215   0.508  13.421 -0.1923  0.3391  0.8345
  368MPD2    C1 5557   0.230   0.569  13.302 -0.6391 -1.2498 -0.4662
  368MPD2    C2 5558   0.339   0.535  13.226 -0.6817 -0.2360 -0.0192
  368MPD2    C3 5559   0.435   0.448  13.264  0.4134 -0.3717 -0.2271
  368MPD2    C4 5560   0.417   0.390  13.385  0.1815 -0.5126  0.4214
  368MPD2    C5 5561   0.310   0.420  13.466 -0.4010  0.0063 -0.5246
  368MPD2     H 5562   0.353   0.578  13.127 -0.6486  0.7898  0.4360
  368MPD2    H1 5563   0.474   0.303  13.416  0.2402 -0.5655  0.1721
  368MPD2    H2 5564   0.122   0.529  13.474 -0.3015  1.4711  0.2156
  368MPD2    H3 5565   0.304   0.363  13.558 -1.1665  0.2252 -0.4354
  368MPD2     N 5566   0.547   0.420  13.178 -0.6099  0.2245  0.1436
  368MPD2    H5 5567   0.560   0.472  13.092  1.1256  0.1775  0.3748
  368MPD2    N1 5568   0.134   0.661  13.265 -0.6288  0.2504 -0.5216
  368MPD2    H7 5569   0.066   0.688  13.335 -0.9878 -1.8899 -0.0337
  369TMC3    C1 5570   0.018   0.822  13.135 -0.4630 -0.1160 -0.2625
  369TMC3    C2 5571   0.019   0.933  13.047 -0.0726 -0.0794  0.0910
  369TMC3    C3 5572   4.639   0.991  13.011  0.3232  0.2205  0.2512
  369TMC3    C4 5573   4.633   0.787  13.192 -0.1781  0.2197  0.2466
  369TMC3    C5 5574   4.522   0.862  13.168 -0.2428 -0.2363  0.5815
  369TMC3    C6 5575   4.518   0.958  13.069 -0.1317 -0.9558  0.2016
  369TMC3     C 5576   0.133   0.737  13.154  0.9719 -0.5602  0.0202
  369TMC3     O 5577   0.220   0.760  13.072  0.2361 -0.5190  0.4318
  369TMC3     H 5578   0.113   0.953  12.997 -0.1456 -0.5270 -0.2254
  369TMC3    H1 5579   4.633   0.701  13.258 -0.6011  0.2809  0.3304
  369TMC3    H2 5580   4.429   1.013  13.041  1.6829  1.2365 -1.2755
  369TMC3    C7 5581   4.402   0.821  13.241 -0.2173  0.1621  0.6916
  369TMC3    C8 5582   4.647   1.055  12.873  0.6868  0.2288  0.3357
  369TMC3    O1 5583   4.402   0.714  13.299  0.6072  0.2486 -0.5694
  369TMC3    O2 5584   0.016   1.035  12.810  0.2355 -0.8864  0.0445
  370TMC3    C1 5585   4.626   1.153  16.217  0.0954  0.2369 -0.3510
  370TMC3    C2 5586   4.604   1.082  16.333  0.6661  0.3147 -0.0615
  370TMC3    C3 5587   4.566   0.953  16.328 -0.8064  0.2064 -0.3307
  370TMC3    C4 5588   4.617   1.082  16.093 -0.0948  0.4247 -1.1602
  370TMC3    C5 5589   4.587   0.948  16.093  0.0185  0.2777  1.1625
  370TMC3    C6 5590   4.563   0.880  16.214  0.3087  0.4711  0.3744
  370TMC3     C 5591   4.590   1.290  16.225 -0.1460 -0.3240  1.2303
  370TMC3     O 5592   4.533   1.321  16.328 -0.1437  0.4649  0.2515
  370TMC3     H 5593   4.608   1.135  16.427 -3.0432 -0.4899  0.5686
  370TMC3    H1 5594   4.624   1.143  16.005 -0.6045 -0.4844 -1.8392
  370TMC3    H2 5595   4.507   0.788  16.202  0.7049  0.1701  0.8392
  370TMC3    C7 5596   4.610   0.870  15.968 -0.2813  0.3244 -0.2287
  370TMC3    C8 5597   4.522   0.881  16.446  0.5819 -0.1932 -0.1364
  370TMC3    O1 5598   4.583   0.929  15.865  0.2222  0.0339  0.2405
  370TMC3    O2 5599   4.490   0.764  16.420  0.0039 -0.5542 -1.2034
  371TMC3    C1 5600   1.221   4.175  15.390 -0.2372  0.4088  0.4614
  371TMC3    C2 5601   1.161   4.186  15.514  0.6043 -0.6354  0.0287
  371TMC3    C3 5602   1.090   4.296  15.534  0.4250  0.0254  1.0288
  371TMC3    C4 5603   1.209   4.281  15.299 -0.8332  0.1847  0.3878
  371TMC3    C5 5604   1.133   4.389  15.334 -0.3635  0.6329 -0.4181
  371TMC3    C6 5605   1.067   4.398  15.451  0.3950 -0.2094  0.2359
  371TMC3     C 5606   1.247   4.048  15.334 -0.8379 -0.0808  0.3373
  371TMC3     O 5607   1.313   4.039  15.230  0.6085 -0.1670  0.0654
  371TMC3     H 5608   1.159   4.105  15.586  0.0137  0.1528  0.8804
  371TMC3    H1 5609   1.252   4.277  15.199  1.7542  2.4227  1.3835
  371TMC3    H2 5610   1.012   4.489  15.474 -1.1125 -0.4418 -2.5122
  371TMC3    C7 5611   1.123   4.500  15.249  0.1956 -0.7432  0.7304
  371TMC3    C8 5612   1.065   4.327  15.675 -0.6423 -0.2481 -0.0273
  371TMC3    O1 5613   1.099   4.605  15.308  0.0926  0.1292 -0.7448
  371TMC3    O2 5614   1.144   4.284  15.759  0.1210  0.0328  0.2207
  372MPD2     C 5615   0.860   0.716  13.106  0.0751  0.0596 -0.4024
  372MPD2    C1 5616   0.947   0.641  13.187  0.5134  0.4974  0.0326
  372MPD2    C2 5617   0.906   0.603  13.310 -0.7057 -0.1071 -0.2602
  372MPD2    C3 5618   0.780   0.625  13.362 -0.5672 -0.4758 -0.1470
  372MPD2    C4 5619   0.692   0.693  13.277 -0.0030 -0.2178 -0.4789
  372MPD2    C5 5620   0.736   0.747  13.157  0.3611 -0.7252 -0.6808
  372MPD2     H 5621   0.966   0.537  13.371 -0.5238  0.3435  0.0519
  372MPD2    H1 5622   0.591   0.706  13.314 -0.5768 -1.9322 -1.4350
  372MPD2    H2 5623   0.877   0.732  13.001 -0.1422 -1.6392 -0.6969
  372MPD2    H3 5624   0.671   0.803  13.092  2.0769 -0.4886 -2.1574
  372MPD2     N 5625   0.744   0.562  13.487  0.3008  0.0471  0.0311
  372MPD2    H5 5626   0.809   0.505  13.540 -0.2975 -1.1643 -0.5228
  372MPD2    N1 5627   1.079   0.605  13.149  0.5152  0.4766 -0.3529
  372MPD2    H7 5628   1.147   0.569  13.215 -2.5099  0.1338  2.6010
  373TMC3    C1 5629   0.612   0.497  13.671 -0.0582  0.0066 -0.4929
  373TMC3    C2 5630   0.580   0.550  13.788  0.1409 -0.3602 -0.2708
  373TMC3    C3 5631   0.600   0.474  13.906  0.6977  0.8010  0.4482
  373TMC3    C4 5632   0.670   0.373  13.664  0.0813  0.2901 -0.5157
  373TMC3    C5 5633   0.683   0.303  13.779  0.1255 -0.3471  0.6009
  373TMC3    C6 5634   0.658   0.348  13.901  0.0689  0.3442 -0.9901
  373TMC3     C 5635   0.623   0.582  13.552  0.5724 -0.2525 -0.0048
  373TMC3     O 5636   0.546   0.673  13.538  0.2167  0.6057  0.0380
  373TMC3     H 5637   0.532   0.647  13.794  0.4544 -0.3725  2.7022
  373TMC3    H1 5638   0.687   0.330  13.566  1.9943  0.5562 -0.3127
  373TMC3    H2 5639   0.681   0.293  13.992  0.4230  1.0255 -0.6627
  373TMC3    C7 5640   0.745   0.171  13.758  0.4570 -0.1428 -0.3274
  373TMC3    C8 5641   0.659   0.560  14.007 -0.5119 -0.2515 -0.4188
  373TMC3    O1 5642   0.786   0.140  13.647 -0.2643 -0.2163 -0.3031
  373TMC3    O2 5643   0.741   0.635  13.952 -0.6237 -0.4319 -0.1231
  374TMC3    C1 5644   0.959   0.368   9.627  0.8439  0.3423  0.1648
  374TMC3    C2 5645   1.099   0.363   9.607  0.4521 -1.0879  0.0245
  374TMC3    C3 5646   1.149   0.420   9.494  0.3249  0.4322  0.3912
  374TMC3    C4 5647   0.876   0.430   9.538  0.3549  0.2071 -0.3067
  374TMC3    C5 5648   0.938   0.495   9.436 -0.0341 -0.3193  0.0810
  374TMC3    C6 5649   1.065   0.480   9.403  0.1713 -0.4326 -0.5633
  374TMC3     C 5650   0.900   0.339   9.755 -0.4361  0.5760  0.1676
  374TMC3     O 5651   0.782   0.369   9.766 -0.0837  0.5384 -0.3591
  374TMC3     H 5652   1.158   0.293   9.666  1.7239 -2.2299 -2.5815
  374TMC3    H1 5653   0.768   0.419   9.539  0.5229 -1.2794  0.7576
  374TMC3    H2 5654   1.098   0.538   9.318 -0.2737 -1.8297 -1.7002
  374TMC3    C7 5655   0.856   0.574   9.345 -1.2434 -0.1801  0.1555
  374TMC3    C8 5656   1.293   0.421   9.459 -0.1272  0.3762 -0.1741
  374TMC3    O1 5657   0.905   0.581   9.232  0.4950 -0.3231  0.1838
  374TMC3    O2 5658   1.325   0.462   9.348  0.1155 -0.5283 -0.6435
  375MPD2     C 5659   1.072   1.180  17.033 -0.1610 -0.4380 -0.2082
  375MPD2    C1 5660   1.011   1.236  16.918 -0.2780 -0.0108 -0.2882
  375MPD2    C2 5661   1.091   1.262  16.808 -0.2415  0.2637 -0.1718
  375MPD2    C3 5662   1.227   1.233  16.797  0.9594  0.1872  0.3248
  375MPD2    C4 5663   1.281   1.180  16.916  0.2701  0.8229  0.4565
  375MPD2    C5 5664   1.212   1.154  17.032 -0.0920 -0.2483  0.0835
  375MPD2     H 5665   1.034   1.309  16.728  0.2829 -1.2107 -1.4149
  375MPD2    H1 5666   1.386   1.157  16.927  0.7488  2.1156 -1.5613
  375MPD2    H2 5667   1.016   1.151  17.121  0.1910 -1.8684 -0.4576
  375MPD2    H3 5668   1.264   1.114  17.118 -1.1548 -2.1924 -0.1888
  375MPD2     N 5669   1.310   1.253  16.678 -0.1946  0.6018 -0.2449
  375MPD2    H5 5670   1.410   1.243  16.688  0.1974  1.9080 -2.9507
  375MPD2    N1 5671   0.876   1.263  16.917 -0.4082  0.7581 -0.1943
  375MPD2    H7 5672   0.831   1.302  16.835  0.8598 -2.9559 -2.7033
  376TMC3    C1 5673   1.358   1.300  16.452 -0.6477 -0.2706 -0.6862
  376TMC3    C2 5674   1.466   1.374  16.491  0.1181 -0.3509  0.2461
  376TMC3    C3 5675   1.539   1.426  16.386 -0.2956 -0.2203  0.3075
  376TMC3    C4 5676   1.312   1.302  16.323  0.4377  1.1992  0.3333
  376TMC3    C5 5677   1.385   1.363  16.225 -0.2457 -0.0018 -0.3995
  376TMC3    C6 5678   1.503   1.426  16.254  0.7452 -0.5700  0.5096
  376TMC3     C 5679   1.261   1.275  16.555  0.2035 -0.5522 -0.0054
  376TMC3     O 5680   1.145   1.253  16.520 -0.3794  0.3122  0.2004
  376TMC3     H 5681   1.508   1.383  16.591  3.1321  1.6486 -1.2049
  376TMC3    H1 5682   1.211   1.272  16.299  1.6783 -1.0081 -2.0759
  376TMC3    H2 5683   1.560   1.475  16.176  0.2959 -0.8054  0.0297
  376TMC3    C7 5684   1.380   1.331  16.083  0.0833 -0.1460 -0.1441
  376TMC3    C8 5685   1.681   1.453  16.407 -0.1946  0.2614 -1.0413
  376TMC3    O1 5686   1.461   1.378  16.009 -0.1566 -0.1794  0.0829
  376TMC3    O2 5687   1.745   1.521  16.325  0.1833 -0.2049 -0.1244
  377MPD2     C 5688   4.662   0.555  12.847 -0.1813  0.1740 -0.6892
  377MPD2    C1 5689   4.562   0.640  12.799  0.2583  0.7901 -0.3755
  377MPD2    C2 5690   4.432   0.633  12.851 -0.0047  0.1357 -0.5736
  377MPD2    C3 5691   4.406   0.552  12.959  0.4376  0.6443  0.0683
  377MPD2    C4 5692   4.506   0.474  13.008 -0.2222 -0.6137  1.3574
  377MPD2    C5 5693   4.632   0.475  12.955  0.7498 -0.9830  0.2225
  377MPD2     H 5694   4.355   0.694  12.805  0.5242 -0.4819 -2.2812
  377MPD2    H1 5695   4.490   0.416  13.098  0.0804  0.4362  2.0761
  377MPD2    H2 5696   0.028   0.558  12.810 -0.4264 -1.0097 -1.4704
  377MPD2    H3 5697   4.713   0.430  13.010 -0.3898 -0.6899  2.1449
  377MPD2     N 5698   4.276   0.545  13.016 -0.0848  0.2738  0.6090
  377MPD2    H5 5699   4.265   0.476  13.090  0.6492 -0.5285 -0.0355
  377MPD2    N1 5700   4.607   0.729  12.701 -0.3237 -0.2100 -0.3575
  377MPD2    H7 5701   4.705   0.725  12.675 -0.4578  1.6291 -1.1241
  378TMC3    C1 5702   4.576   0.968  12.307 -0.2196  0.0335 -0.2645
  378TMC3    C2 5703   4.518   0.940  12.428  0.8226  0.5185  0.6025
  378TMC3    C3 5704   4.593   0.869  12.517  0.1680 -0.3316  0.2965
  378TMC3    C4 5705   4.702   0.931  12.277 -0.2013 -0.2968 -0.1345
  378TMC3    C5 5706   0.034   0.858  12.376  0.3489  0.4345  0.0368
  378TMC3    C6 5707   4.719   0.827  12.493 -0.0074  0.5520 -0.0225
  378TMC3     C 5708   4.505   1.058  12.218  0.2769 -0.5715 -0.1778
  378TMC3     O 5709   4.579   1.121  12.140  0.1308  0.0446  0.7115
  378TMC3     H 5710   4.420   0.975  12.458 -0.3800 -1.1757 -1.3866
  378TMC3    H1 5711   0.014   0.966  12.186 -1.3374  1.4713 -0.0356
  378TMC3    H2 5712   0.052   0.782  12.565  0.8034 -1.5431 -2.1086
  378TMC3    C7 5713   0.177   0.838  12.359  0.2969  0.1374  0.2876
  378TMC3    C8 5714   4.527   0.816  12.632 -0.1487 -0.4614  0.2255
  378TMC3    O1 5715   0.246   0.826  12.465 -0.2502 -0.1447 -0.0895
  378TMC3    O2 5716   4.403   0.834  12.652  0.4088 -0.2134  0.5857
  379MPD2     C 5717   0.096   3.869  16.052  0.5201 -0.7471 -0.0419
  379MPD2    C1 5718   4.728   3.798  16.112  0.0480 -0.2612 -0.2673
  379MPD2    C2 5719   0.028   3.716  16.219 -0.6231 -0.7732 -0.2234
  379MPD2    C3 5720   0.161   3.688  16.253  0.1953  0.1429  0.3430
  379MPD2    C4 5721   0.261   3.740  16.170 -0.7999  0.2182  1.0904
  379MPD2    C5 5722   0.228   3.836  16.077 -0.5903 -0.2421 -0.2278
  379MPD2     H 5723   4.681   3.664  16.268  0.4820 -2.2667  0.0637
  379MPD2    H1 5724   0.366   3.719  16.185 -0.6111 -0.3996 -1.1367
  379MPD2    H2 5725   0.066   3.943  15.979 -0.4984 -1.4393 -0.3218
  379MPD2    H3 5726   0.310   3.879  16.021  1.3798  0.1239  2.9367
  379MPD2     N 5727   0.206   3.597  16.353 -0.1256 -0.3694  0.4877
  379MPD2    H5 5728   0.304   3.572  16.361  0.3225  1.8483  1.8084
  379MPD2    N1 5729   4.597   3.802  16.046 -0.0656  0.1215 -0.0629
  379MPD2    H7 5730   4.577   3.872  15.976  0.0146 -1.0981 -1.3094
  380TMC3    C1 5731   4.420   3.701  15.929 -0.4286 -0.3535  0.0280
  380TMC3    C2 5732   4.467   3.600  15.844 -0.0759 -0.0555  0.6127
  380TMC3    C3 5733   4.451   3.601  15.706  0.6553 -0.7455  0.1066
  380TMC3    C4 5734   4.370   3.818  15.867 -0.0400 -0.4919 -0.0584
  380TMC3    C5 5735   4.345   3.810  15.734  0.3695 -0.7397 -0.4024
  380TMC3    C6 5736   4.372   3.698  15.655  0.3123  0.1948  0.2899
  380TMC3     C 5737   4.498   3.710  16.054 -0.2104  0.4460  0.8563
  380TMC3     O 5738   4.506   3.604  16.121  0.6335  0.0880 -0.4207
  380TMC3     H 5739   4.512   3.517  15.897  3.4000  0.8712 -0.8680
  380TMC3    H1 5740   4.331   3.907  15.914 -1.2616 -0.3279 -1.3807
  380TMC3    H2 5741   4.368   3.701  15.547 -0.6574  1.8127  0.3768
  380TMC3    C7 5742   4.267   3.915  15.673  0.7664 -0.3680  0.5045
  380TMC3    C8 5743   4.575   3.583  15.628  0.2156 -0.0398 -0.1205
  380TMC3    O1 5744   4.309   4.029  15.690 -0.3266 -0.3924 -0.4298
  380TMC3    O2 5745   4.568   3.600  15.509  0.3608  0.1608 -0.3508
  381TMC3    C1 5746   4.431   0.085  16.306  0.9302  0.1513  0.1317
  381TMC3    C2 5747   4.523   0.179  16.269 -0.0530 -0.2778 -0.2349
  381TMC3    C3 5748   4.545   0.287  16.354  0.4345 -0.2442  0.4820
  381TMC3    C4 5749   4.375   0.087  16.428  0.3631 -0.1365  0.4581
  381TMC3    C5 5750   4.395   0.189  16.511  0.0009  0.2543  0.3113
  381TMC3    C6 5751   4.490   0.286  16.484 -0.0797  0.3013 -0.0212
  381TMC3     C 5752   4.434   4.689  16.241 -0.4126 -0.7857 -0.0638
  381TMC3     O 5753   4.406   4.592  16.314 -0.3085 -0.3903 -0.4126
  381TMC3     H 5754   4.570   0.170  16.171  1.9743 -1.4104  0.8318
  381TMC3    H1 5755   4.311   0.008  16.465  1.1625 -1.8870 -1.9124
  381TMC3    H2 5756   4.498   0.368  16.554  0.2460 -0.0839  0.3917
  381TMC3    C7 5757   4.396   0.142  16.652  0.1498 -0.2326 -0.4401
  381TMC3    C8 5758   4.669   0.356  16.331 -0.2751 -0.7132  0.5292
  381TMC3    O1 5759   4.436   0.027  16.674 -0.6841 -0.0272  0.4183
  381TMC3    O2 5760   4.727   0.337  16.224  0.0888  0.9626  0.2233
  382MPD2     C 5761   3.896   2.198  17.338  0.0707 -0.5081  0.7784
  382MPD2    C1 5762   3.826   2.280  17.426 -0.0971 -0.1875  0.1513
  382MPD2    C2 5763   3.696   2.314  17.393 -0.5480 -0.5474  0.4658
  382MPD2    C3 5764   3.646   2.284  17.266 -1.0597 -0.7834 -0.0809
  382MPD2    C4 5765   3.719   2.212  17.178 -0.8728  0.2316  0.5128
  382MPD2    C5 5766   3.847   2.165  17.210 -0.2689 -0.0393 -0.1858
  382MPD2     H 5767   3.638   2.368  17.467  1.0010  2.3224 -0.4084
  382MPD2    H1 5768   3.677   2.189  17.080  0.1676  1.7195 -0.2764
  382MPD2    H2 5769   3.989   2.153  17.369 -0.0977 -0.4023  1.4230
  382MPD2    H3 5770   3.911   2.119  17.135  1.2743  0.0997  1.0254
  382MPD2     N 5771   3.522   2.352  17.227  0.7045 -0.4737 -0.1738
  382MPD2    H5 5772   3.477   2.312  17.146 -1.6487  1.5514  0.1459
  382MPD2    N1 5773   3.878   2.348  17.537 -0.3904 -0.2508 -0.8569
  382MPD2    H7 5774   3.826   2.423  17.580  1.7646 -0.2451  1.7772
  383TMC3    C1 5775   3.333   2.503  17.244  0.3251  0.0949  0.0638
  383TMC3    C2 5776   3.247   2.401  17.239  0.4464 -0.0460  1.1364
  383TMC3    C3 5777   3.113   2.424  17.256 -0.0135  0.1595  0.4151
  383TMC3    C4 5778   3.282   2.622  17.290 -0.5164 -0.1474 -0.4449
  383TMC3    C5 5779   3.147   2.649  17.301 -0.5465  0.2661 -0.1986
  383TMC3    C6 5780   3.059   2.547  17.288 -0.1410 -0.1330  0.2498
  383TMC3     C 5781   3.471   2.473  17.281 -0.3533  0.4197 -0.2757
  383TMC3     O 5782   3.520   2.551  17.360 -0.1646 -0.2277 -0.4701
  383TMC3     H 5783   3.289   2.304  17.213 -0.4739  0.1871 -1.2215
  383TMC3    H1 5784   3.350   2.704  17.313 -0.7980 -0.5435  1.7334
  383TMC3    H2 5785   2.953   2.563  17.306  0.3283  1.3262  1.6703
  383TMC3    C7 5786   3.113   2.767  17.379  0.5347  0.8839 -0.5701
  383TMC3    C8 5787   3.025   2.312  17.258  0.0985  0.3211  0.8734
  383TMC3    O1 5788   3.001   2.757  17.432 -0.1704 -0.6240  0.3817
  383TMC3    O2 5789   2.911   2.344  17.228 -0.2726 -0.7171 -0.0424
  384MPD2     C 5790   0.384   3.822  12.220 -0.2817  0.5852 -0.9079
  384MPD2    C1 5791   0.340   3.694  12.236  0.4735  0.3290 -0.0398
  384MPD2    C2 5792   0.359   3.603  12.125 -0.7948 -0.1009  0.5250
  384MPD2    C3 5793   0.419   3.646  12.000 -0.2188  0.2461 -0.3075
  384MPD2    C4 5794   0.445   3.778  11.987 -0.3677 -0.5213  0.2672
  384MPD2    C5 5795   0.429   3.861  12.095 -0.0314 -0.0637 -0.0175
  384MPD2     H 5796   0.326   3.500  12.124  0.0186 -0.3628  0.1353
  384MPD2    H1 5797   0.483   3.808  11.890  0.1759 -1.4356  0.1915
  384MPD2    H2 5798   0.380   3.893  12.302  0.4358 -1.7024  1.0828
  384MPD2    H3 5799   0.469   3.960  12.077 -2.1999  0.6713 -0.7208
  384MPD2     N 5800   0.423   3.546  11.899 -0.2797 -0.4816  0.4757
  384MPD2    H5 5801   0.388   3.453  11.920  0.3566 -0.3843  1.9738
  384MPD2    N1 5802   0.297   3.648  12.367  1.0755 -0.5471 -0.4684
  384MPD2    H7 5803   0.276   3.716  12.440 -0.0993 -1.1687 -0.2223
  385TMC3    C1 5804   0.493   3.437  11.709 -0.1726 -0.6433  0.4114
  385TMC3    C2 5805   0.610   3.393  11.653 -0.0856 -0.3606 -0.1326
  385TMC3    C3 5806   0.621   3.256  11.666  0.3462 -0.5293  1.6059
  385TMC3    C4 5807   0.391   3.353  11.745 -0.5773 -0.4838 -1.0355
  385TMC3    C5 5808   0.401   3.216  11.754  0.2780 -0.0004 -1.0410
  385TMC3    C6 5809   0.522   3.171  11.719  0.5616  0.1546 -0.3288
  385TMC3     C 5810   0.486   3.560  11.782  0.5780  0.4762 -0.4481
  385TMC3     O 5811   0.571   3.643  11.756  0.0330 -0.0776 -0.2833
  385TMC3     H 5812   0.692   3.458  11.625 -0.4843 -0.5946 -1.7949
  385TMC3    H1 5813   0.296   3.404  11.761  0.0468  0.8441 -1.6116
  385TMC3    H2 5814   0.540   3.066  11.739 -1.3060  0.0328  0.6803
  385TMC3    C7 5815   0.335   3.176  11.883 -0.2004 -0.1654  0.4534
  385TMC3    C8 5816   0.722   3.199  11.579  0.4071  0.6332 -0.0881
  385TMC3    O1 5817   0.283   3.269  11.946  0.4736 -0.5283 -0.1736
  385TMC3    O2 5818   0.809   3.270  11.530  0.1861  0.4033  0.0734
  386TMC3    C1 5819   1.165   0.711  11.759  0.4978  0.4574 -0.9067
  386TMC3    C2 5820   1.099   0.753  11.648 -0.0172  0.3151 -0.2192
  386TMC3    C3 5821   1.043   0.880  11.661 -0.9205  0.3020  0.4473
  386TMC3    C4 5822   1.172   0.771  11.878 -0.2968  0.3093  0.5571
  386TMC3    C5 5823   1.114   0.894  11.886 -0.2566 -0.2336  0.4809
  386TMC3    C6 5824   1.044   0.955  11.779 -0.1380 -0.0584 -0.2848
  386TMC3     C 5825   1.228   0.575  11.746  1.0110 -0.9324  0.0606
  386TMC3     O 5826   1.170   0.485  11.686  0.2604 -0.2097 -0.0967
  386TMC3     H 5827   1.094   0.695  11.557  0.9301  2.0440 -1.3593
  386TMC3    H1 5828   1.223   0.736  11.967 -0.4014  0.6645  0.7547
  386TMC3    H2 5829   0.995   1.051  11.783  1.9697  0.9948  0.5080
  386TMC3    C7 5830   1.073   0.931  12.027 -0.0237 -0.2142 -0.1807
  386TMC3    C8 5831   0.950   0.924  11.557  0.0548  0.3464 -0.1256
  386TMC3    O1 5832   1.146   0.899  12.122 -0.0159 -0.0096  0.0626
  386TMC3    O2 5833   0.869   1.008  11.588  0.8751 -0.5421  0.3837
  387MPD2     C 5834   2.986   1.016   9.635 -0.2418 -0.4045  0.3302
  387MPD2    C1 5835   3.104   0.959   9.678 -0.3463  0.5758 -0.0485
  387MPD2    C2 5836   3.114   0.820   9.679  0.2067  0.0458 -0.6382
  387MPD2    C3 5837   3.003   0.742   9.660 -0.6244 -0.3948 -0.9624
  387MPD2    C4 5838   2.882   0.794   9.623 -0.9533 -0.2648 -1.4357
  387MPD2    C5 5839   2.878   0.934   9.609 -0.4321  0.4117 -0.8965
  387MPD2     H 5840   3.207   0.781   9.718 -0.2986 -1.4764 -0.9746
  387MPD2    H1 5841   2.787   0.743   9.612 -0.7533 -0.7861 -0.7299
  387MPD2    H2 5842   2.970   1.123   9.642  2.4645 -0.0682  1.5557
  387MPD2    H3 5843   2.787   0.986   9.579 -0.0731  1.2570 -0.5342
  387MPD2     N 5844   3.033   0.611   9.702  0.0657 -0.3846 -0.2221
  387MPD2    H5 5845   3.128   0.587   9.728 -0.7371 -2.0179  1.1526
  387MPD2    N1 5846   3.218   1.029   9.714  0.4519  0.5322  0.6241
  387MPD2    H7 5847   3.296   0.969   9.737  0.2483 -0.4496 -1.2425
  388TMC3    C1 5848   3.357   1.184   9.809 -0.0132  0.1049 -0.5070
  388TMC3    C2 5849   3.388   1.313   9.837  0.1268  0.2271 -0.2572
  388TMC3    C3 5850   3.494   1.332   9.922 -0.3393  0.4742  0.0869
  388TMC3    C4 5851   3.420   1.084   9.868 -0.0768  0.2257  0.1246
  388TMC3    C5 5852   3.528   1.105   9.946  0.3056  0.1607  0.1006
  388TMC3    C6 5853   3.565   1.232   9.985 -0.3586 -0.0930 -1.2857
  388TMC3     C 5854   3.228   1.162   9.744 -0.1793 -0.4213 -0.3467
  388TMC3     O 5855   3.147   1.250   9.733  0.9266 -0.2936 -0.0668
  388TMC3     H 5856   3.345   1.400   9.788  1.5059  0.8355 -0.3919
  388TMC3    H1 5857   3.371   0.988   9.880 -0.3178  0.2393 -0.7397
  388TMC3    H2 5858   3.662   1.250  10.030 -0.3349 -1.5793 -0.7189
  388TMC3    C7 5859   3.588   0.995  10.016 -0.0026  0.6385  0.2422
  388TMC3    C8 5860   3.525   1.471   9.960  0.3589 -0.0277 -0.7600
  388TMC3    O1 5861   3.649   1.029  10.119 -0.2797 -0.2325 -0.5599
  388TMC3    O2 5862   3.487   1.561   9.882 -0.2510 -0.1474 -0.0840
  389MPD2     C 5863   2.305   3.416  11.515  0.6160  0.0542  0.2629
  389MPD2    C1 5864   2.347   3.380  11.389 -1.0130  0.2366  0.3753
  389MPD2    C2 5865   2.311   3.259  11.327  0.5888  0.0711  0.2426
  389MPD2    C3 5866   2.220   3.185  11.398 -0.1998 -0.0030 -0.0027
  389MPD2    C4 5867   2.186   3.215  11.526 -0.1828 -1.0223 -0.5028
  389MPD2    C5 5868   2.227   3.330  11.583 -0.6531  0.5797 -0.6613
  389MPD2     H 5869   2.341   3.240  11.225  1.4035  1.1980  0.2735
  389MPD2    H1 5870   2.109   3.163  11.581  0.1349 -0.1013  0.7952
  389MPD2    H2 5871   2.332   3.506  11.569  0.5231  1.1922 -1.5664
  389MPD2    H3 5872   2.196   3.358  11.684 -0.4052  2.9308 -1.2352
  389MPD2     N 5873   2.148   3.083  11.340  0.8603  0.4478  0.4022
  389MPD2    H5 5874   2.097   3.017  11.399  0.4913 -0.1472 -0.5714
  389MPD2    N1 5875   2.436   3.480  11.325  0.4386 -0.6829 -0.3461
  389MPD2    H7 5876   2.445   3.573  11.365 -0.8344 -1.3348  1.4463
  390TMC3    C1 5877   2.047   2.952  11.173  0.3070  0.4394  0.2183
  390TMC3    C2 5878   2.036   2.850  11.256  0.7311 -0.0650  0.0042
  390TMC3    C3 5879   1.958   2.753  11.206  0.4413 -0.3880  0.0555
  390TMC3    C4 5880   1.954   2.988  11.080 -0.5338 -0.0759  0.3745
  390TMC3    C5 5881   1.866   2.889  11.044  0.5364 -0.2205  0.5494
  390TMC3    C6 5882   1.879   2.768  11.101  0.0314 -0.7283 -0.6446
  390TMC3     C 5883   2.143   3.054  11.205  0.2926 -0.2348 -0.1963
  390TMC3     O 5884   2.182   3.120  11.105 -0.0694 -0.4435 -0.1707
  390TMC3     H 5885   2.116   2.826  11.325  0.2740 -1.5150  0.0346
  390TMC3    H1 5886   1.959   3.081  11.026 -1.5725 -0.3753 -0.2451
  390TMC3    H2 5887   1.830   2.677  11.071 -3.8505  0.8514  0.9136
  390TMC3    C7 5888   1.727   2.928  11.069  0.5185 -0.2291  0.1856
  390TMC3    C8 5889   1.931   2.636  11.288 -0.0256  0.1847  0.1235
  390TMC3    O1 5890   1.706   3.031  11.130 -0.2424  0.2998  0.4110
  390TMC3    O2 5891   1.913   2.529  11.240 -0.1336  0.4704  0.1920
  391MPD2     C 5892   1.804   0.424  10.960 -0.1358 -0.0466 -0.2840
  391MPD2    C1 5893   1.934   0.429  10.918 -0.0792 -0.5266 -0.2851
  391MPD2    C2 5894   1.956   0.410  10.775 -0.2164 -0.6372  0.3379
  391MPD2    C3 5895   1.849   0.414  10.682  0.4987 -0.0080  0.6286
  391MPD2    C4 5896   1.719   0.402  10.729  0.0384  0.6215 -0.4636
  391MPD2    C5 5897   1.700   0.410  10.866 -0.5118 -0.1048 -0.7791
  391MPD2     H 5898   2.060   0.413  10.744 -0.6051 -3.0779 -1.1650
  391MPD2    H1 5899   1.630   0.400  10.667 -1.8622 -0.6494  2.3380
  391MPD2    H2 5900   1.791   0.435  11.067 -0.5469  2.5447 -0.6131
  391MPD2    H3 5901   1.597   0.413  10.900 -0.7729 -1.2825 -1.4589
  391MPD2     N 5902   1.880   0.406  10.543 -0.3888  0.0959 -0.6475
  391MPD2    H5 5903   1.977   0.384  10.522 -0.1956  1.0603 -0.7474
  391MPD2    N1 5904   2.035   0.452  11.018  0.9582 -0.8059  0.1767
  391MPD2    H7 5905   2.000   0.480  11.109  1.9443 -0.5169  0.4602
  392TMC3    C1 5906   1.855   0.423  10.315 -0.2491 -0.0825 -0.0876
  392TMC3    C2 5907   1.779   0.398  10.207  0.0005 -0.2801  0.2150
  392TMC3    C3 5908   1.809   0.452  10.086 -0.3536 -0.4737  0.5623
  392TMC3    C4 5909   1.957   0.506  10.301  0.2286  0.7884  0.3273
  392TMC3    C5 5910   1.981   0.568  10.187  0.0794  0.0746  0.0097
  392TMC3    C6 5911   1.920   0.534  10.070 -0.1605  0.3764 -0.8136
  392TMC3     C 5912   1.786   0.422  10.439 -0.2522  0.6671  0.3551
  392TMC3     O 5913   1.665   0.440  10.447 -0.0182  0.6536 -0.1701
  392TMC3     H 5914   1.679   0.356  10.216 -0.8456  1.7212  0.1591
  392TMC3    H1 5915   2.019   0.530  10.387  0.0357  0.2090  0.6280
  392TMC3    H2 5916   1.956   0.575   9.977 -0.5970  1.4221 -0.5165
  392TMC3    C7 5917   2.107   0.643  10.179 -0.2947 -0.3410 -0.1060
  392TMC3    C8 5918   1.718   0.432   9.973  0.8860 -1.0340  0.7530
  392TMC3    O1 5919   2.099   0.752  10.129  1.0887  0.1735  0.0696
  392TMC3    O2 5920   1.605   0.392   9.988 -0.3113  0.1815 -0.5248
  393TMC3    C1 5921   0.250   3.669  10.725 -0.5559  0.3705 -0.5359
  393TMC3    C2 5922   0.176   3.716  10.831 -0.3576  0.3242 -0.3847
  393TMC3    C3 5923   0.149   3.617  10.925  0.3528 -0.5841 -0.3411
  393TMC3    C4 5924   0.288   3.539  10.717  0.7392 -0.1432 -0.3196
  393TMC3    C5 5925   0.259   3.455  10.817 -0.0313 -0.1032 -0.5014
  393TMC3    C6 5926   0.180   3.483  10.919  0.3666 -0.0463  0.3185
  393TMC3     C 5927   0.291   3.757  10.613  0.2402 -0.3756  0.2719
  393TMC3     O 5928   0.304   3.699  10.509  0.2456  0.3558  0.5345
  393TMC3     H 5929   0.133   3.816  10.830 -1.4028 -0.1200  0.5444
  393TMC3    H1 5930   0.352   3.510  10.635 -1.0456  0.7116 -2.0205
  393TMC3    H2 5931   0.166   3.403  10.991 -1.4480  1.4893  1.6534
  393TMC3    C7 5932   0.351   3.346  10.831  0.3092  0.7170  0.0325
  393TMC3    C8 5933   0.087   3.654  11.050 -0.2910  0.5752  0.2009
  393TMC3    O1 5934   0.313   3.233  10.865  0.3062 -0.1479 -0.5021
  393TMC3    O2 5935   0.036   3.560  11.114 -0.1957 -0.0103  0.2397
  394TMC3    C1 5936   2.570   3.576  11.159 -0.0951 -0.0320 -0.3117
  394TMC3    C2 5937   2.490   3.685  11.139  0.1184 -0.0583 -0.4361
  394TMC3    C3 5938   2.521   3.775  11.037  0.1545  0.6929 -0.5608
  394TMC3    C4 5939   2.686   3.560  11.099 -0.2426 -0.0658  0.2161
  394TMC3    C5 5940   2.721   3.639  10.998 -0.0887  0.4199  0.8117
  394TMC3    C6 5941   2.635   3.744  10.966 -0.3391 -0.0100  0.7966
  394TMC3     C 5942   2.514   3.456  11.211 -0.1658 -0.3590 -0.4652
  394TMC3     O 5943   2.553   3.352  11.162 -0.0903  0.8961  0.4366
  394TMC3     H 5944   2.396   3.693  11.192  0.5868  3.5239 -0.1483
  394TMC3    H1 5945   2.753   3.478  11.125  2.4967  1.6544 -1.4021
  394TMC3    H2 5946   2.676   3.816  10.896  0.9982 -1.3654  0.1717
  394TMC3    C7 5947   2.856   3.626  10.940 -0.5615  0.0040 -0.4120
  394TMC3    C8 5948   2.406   3.858  10.998  0.1982 -0.1018 -0.2133
  394TMC3    O1 5949   2.932   3.561  11.008  0.2707 -0.1763  0.0923
  394TMC3    O2 5950   2.354   3.937  11.079 -0.3527  0.0398  0.5098
  395TMC3    C1 5951   2.296   0.721  14.464 -0.2579 -0.6468  0.1464
  395TMC3    C2 5952   2.184   0.698  14.385  0.4160 -0.0300 -0.0803
  395TMC3    C3 5953   2.091   0.804  14.371  0.5264 -0.2513  0.2030
  395TMC3    C4 5954   2.324   0.851  14.512  0.0965  0.0891  0.1174
  395TMC3    C5 5955   2.242   0.957  14.478 -0.2997 -0.1716  0.3886
  395TMC3    C6 5956   2.126   0.934  14.408  0.1362 -0.2223 -0.0429
  395TMC3     C 5957   2.312   0.616  14.564  0.0604  0.8014  0.5760
  395TMC3     O 5958   2.336   0.497  14.533 -0.0059  0.3714 -0.0551
  395TMC3     H 5959   2.163   0.598  14.349 -2.1334 -0.1287  1.6854
  395TMC3    H1 5960   2.414   0.854  14.571  0.0171  0.8953  0.1994
  395TMC3    H2 5961   2.054   1.015  14.397 -1.6971 -1.5623  1.9570
  395TMC3    C7 5962   2.241   1.073  14.565  0.2773  0.0165 -0.0916
  395TMC3    C8 5963   1.950   0.771  14.372  1.0246  0.0406 -0.7585
  395TMC3    O1 5964   2.312   1.072  14.662 -0.0494 -0.0293 -0.3300
  395TMC3    O2 5965   1.873   0.868  14.372 -0.3348  0.0877 -0.1994
  396MPD2     C 5966   1.838   2.506  17.426  0.2461 -0.1632  0.1480
  396MPD2    C1 5967   1.972   2.520  17.398  0.4331 -0.7158  0.4935
  396MPD2    C2 5968   2.007   2.610  17.296 -0.1155  0.3137  0.1424
  396MPD2    C3 5969   1.912   2.692  17.235 -0.3319  0.3695  0.0064
  396MPD2    C4 5970   1.777   2.670  17.264  0.2890 -0.6570 -0.4642
  396MPD2    C5 5971   1.751   2.587  17.362 -0.2792 -0.7498  0.4645
  396MPD2     H 5972   2.109   2.626  17.265  0.0822  0.7300  0.9762
  396MPD2    H1 5973   1.707   2.747  17.234  0.4922  0.0678  0.9325
  396MPD2    H2 5974   1.796   2.454  17.511 -0.0027 -0.8276 -0.3755
  396MPD2    H3 5975   1.649   2.588  17.399 -0.6067  1.7268 -0.5126
  396MPD2     N 5976   1.957   2.795  17.150  0.0515  0.0403 -0.2447
  396MPD2    H5 5977   2.057   2.794  17.134  0.4197 -1.7667  2.0464
  396MPD2    N1 5978   2.059   2.419  17.451  1.3184  0.1102 -0.5398
  396MPD2    H7 5979   2.018   2.335  17.492  0.1192  1.2012  0.5040
  397TMC3    C1 5980   2.265   2.300  17.479 -0.0967  0.0443  0.0077
  397TMC3    C2 5981   2.325   2.239  17.368  0.1426 -0.0821 -0.2226
  397TMC3    C3 5982   2.297   2.111  17.337  0.1434 -0.0429  0.6876
  397TMC3    C4 5983   2.192   2.213  17.562  0.3736  0.1273  0.4857
  397TMC3    C5 5984   2.168   2.081  17.528 -0.1292  0.3955 -0.0869
  397TMC3    C6 5985   2.229   2.027  17.423 -0.2156 -0.0180 -0.3613
  397TMC3     C 5986   2.200   2.422  17.438 -0.4003 -0.6061 -1.1221
  397TMC3     O 5987   2.278   2.492  17.376 -0.3248  0.2992 -0.3715
  397TMC3     H 5988   2.363   2.307  17.293  0.8202  0.1298  0.3087
  397TMC3    H1 5989   2.137   2.254  17.645 -2.6998  0.1195 -1.5697
  397TMC3    H2 5990   2.208   1.925  17.392  0.7499 -0.2147 -0.3620
  397TMC3    C7 5991   2.093   1.987  17.613  0.1460 -0.5346 -0.1541
  397TMC3    C8 5992   2.269   2.082  17.194 -0.7048  0.0054  0.6674
  397TMC3    O1 5993   2.042   1.891  17.558 -0.6234 -0.7803 -0.1811
  397TMC3    O2 5994   2.204   1.982  17.167 -0.3480  0.0231 -0.0567
  398MPD2     C 5995   0.476   3.430   0.285 -0.0299  0.0384  0.1215
  398MPD2    C1 5996   0.564   3.331   0.279 -0.2465  0.3672  0.2204
  398MPD2    C2 5997   0.694   3.369   0.254  0.0461  0.3139  0.0344
  398MPD2    C3 5998   0.737   3.494   0.229 -0.5508 -0.5019  0.4251
  398MPD2    C4 5999   0.646   3.600   0.236  0.0093 -0.3510 -0.1915
  398MPD2    C5 6000   0.519   3.561   0.271  0.2463  0.2152 -0.5302
  398MPD2     H 6001   0.771   3.294   0.247 -1.6321 -1.3317 -0.8174
  398MPD2    H1 6002   0.670   3.704   0.218  0.7433 -0.2020  1.6395
  398MPD2    H2 6003   0.369   3.426   0.303  0.1753  0.5140  1.4597
  398MPD2    H3 6004   0.445   3.640   0.278 -0.1068 -0.1139 -0.5561
  398MPD2     N 6005   0.873   3.513   0.195  0.3601 -0.6094  0.4689
  398MPD2    H5 6006   0.930   3.429   0.197 -1.2532 -1.7194 -0.3231
  398MPD2    N1 6007   0.537   3.189   0.291  0.0817 -0.3474 -0.1597
  398MPD2    H7 6008   0.620   3.131   0.301  0.8500  0.4951 -1.5413
  399TMC3    C1 6009   0.419   2.984   0.253  0.4710 -0.2848 -0.8580
  399TMC3    C2 6010   0.541   2.926   0.229 -0.3000  0.8845 -1.0148
  399TMC3    C3 6011   0.538   2.795   0.183  0.4990  0.0130 -0.6555
  399TMC3    C4 6012   0.295   2.928   0.234  0.0518  0.0163  0.2896
  399TMC3    C5 6013   0.300   2.800   0.183 -0.5980  0.6331 -0.7221
  399TMC3    C6 6014   0.417   2.735   0.163 -0.2245 -0.1361  0.0817
  399TMC3     C 6015   0.419   3.133   0.264 -0.2079 -0.1756 -0.1706
  399TMC3     O 6016   0.315   3.192   0.243  0.5050  0.4499  0.8644
  399TMC3     H 6017   0.642   2.964   0.219 -0.3183  1.5427  1.3698
  399TMC3    H1 6018   0.202   2.978   0.262  0.2566  0.2585  0.5359
  399TMC3    H2 6019   0.411   2.640   0.110 -0.0404  0.0100 -0.2038
  399TMC3    C7 6020   0.178   2.725   0.170  0.4697 -0.8942 -0.0086
  399TMC3    C8 6021   0.660   2.746   0.128 -0.0663 -0.2941  0.0751
  399TMC3    O1 6022   0.188   2.605   0.146  0.2810 -0.0527  0.0140
  399TMC3    O2 6023   0.756   2.823   0.126  0.4194  0.1205 -0.8033
  400TMC3    C1 6024   3.364   1.884  16.805 -1.0459  0.0556  0.7593
  400TMC3    C2 6025   3.239   1.836  16.766 -0.2512 -0.1374  0.3593
  400TMC3    C3 6026   3.135   1.918  16.791  1.3271 -0.0300 -0.5486
  400TMC3    C4 6027   3.390   2.004  16.868  0.8071 -0.4597  0.1367
  400TMC3    C5 6028   3.277   2.081  16.897 -0.2201 -0.0440 -0.0108
  400TMC3    C6 6029   3.152   2.034  16.862  0.2265  0.0726 -0.4062
  400TMC3     C 6030   3.466   1.781  16.812  1.0972 -0.1365 -0.3145
  400TMC3     O 6031   3.426   1.666  16.816 -0.0022  0.6338  0.3604
  400TMC3     H 6032   3.219   1.737  16.726 -0.1945 -0.4253  1.0428
  400TMC3    H1 6033   3.488   2.034  16.904 -0.6924  1.8615  2.2294
  400TMC3    H2 6034   3.066   2.098  16.878 -0.3623 -1.1421  1.1875
  400TMC3    C7 6035   3.296   2.210  16.940 -0.3565 -0.0926 -0.2049
  400TMC3    C8 6036   2.999   1.868  16.787 -0.6849 -0.2825 -0.4853
  400TMC3    O1 6037   3.400   2.239  17.004  0.2002  0.4337  0.2327
  400TMC3    O2 6038   2.900   1.934  16.773 -0.2557 -0.4211  0.7845
  401MPD2     C 6039   1.801   0.351   0.028  0.2028 -0.3433 -0.6015
  401MPD2    C1 6040   1.724   0.312   0.139  0.5494 -1.0534 -0.2756
  401MPD2    C2 6041   1.688   0.181   0.146  0.1659  0.3622 -0.8908
  401MPD2    C3 6042   1.721   0.088   0.056  0.0707  0.2195 -1.0111
  401MPD2    C4 6043   1.774   0.137  17.679 -0.3101 -0.2312  0.4308
  401MPD2    C5 6044   1.816   0.265  17.662 -0.0479  0.4353 -0.5059
  401MPD2     H 6045   1.646   0.150   0.241  2.2994  1.5000  0.4275
  401MPD2    H1 6046   1.785   0.080  17.587  2.0548 -0.3749  0.7919
  401MPD2    H2 6047   1.850   0.447   0.014  1.0827 -1.0734 -2.5134
  401MPD2    H3 6048   1.849   0.304  17.566 -1.0299 -0.1244 -1.0632
  401MPD2     N 6049   1.686   4.688   0.065 -0.1962  0.4762  1.0057
  401MPD2    H5 6050   1.700   4.633  17.720 -0.4158 -0.4268  1.5493
  401MPD2    N1 6051   1.715   0.397   0.246  0.8700 -0.2489 -0.1830
  401MPD2    H7 6052   1.668   0.359   0.328 -1.3584 -0.2039 -1.4483
  402TMC3    C1 6053   1.658   4.481   0.168  0.3002 -0.3052 -0.1566
  402TMC3    C2 6054   1.599   4.421   0.272  0.3579 -0.0131 -0.0065
  402TMC3    C3 6055   1.642   4.304   0.332  0.7918  0.7421  0.1772
  402TMC3    C4 6056   1.778   4.438   0.135  0.3536 -0.0574  0.8084
  402TMC3    C5 6057   1.835   4.332   0.201  0.2037  0.0764  0.7523
  402TMC3    C6 6058   1.767   4.255   0.294  0.6010 -0.0446  0.0995
  402TMC3     C 6059   1.649   4.622   0.180 -0.4043  0.1137 -0.4031
  402TMC3     O 6060   1.629   4.659   0.296 -0.2184 -0.1553 -0.2872
  402TMC3     H 6061   1.516   4.469   0.324  0.2147  0.4790 -0.6832
  402TMC3    H1 6062   1.843   4.495   0.069 -2.9601  0.0622 -2.3337
  402TMC3    H2 6063   1.816   4.170   0.341 -2.0253 -1.0373  1.0721
  402TMC3    C7 6064   1.983   4.339   0.217  0.0653  0.2925 -0.3778
  402TMC3    C8 6065   1.643   4.303   0.474 -0.6258 -0.1578  0.4168
  402TMC3    O1 6066   2.041   4.363   0.115  0.6530 -0.4436 -0.2206
  402TMC3    O2 6067   1.757   4.309   0.515 -0.0748  0.0605  0.3565
  403MPD2     C 6068   4.525   3.789  13.194 -0.2931 -0.0861  0.1769
  403MPD2    C1 6069   4.552   3.678  13.268 -0.5440  0.6420 -0.4173
  403MPD2    C2 6070   4.683   3.664  13.314 -0.3679 -0.4599 -0.1878
  403MPD2    C3 6071   0.042   3.765  13.300  0.2946  0.5156  0.0938
  403MPD2    C4 6072   0.010   3.880  13.230  0.1310  0.3043 -0.0412
  403MPD2    C5 6073   4.619   3.889  13.177  0.0795 -0.3131  0.5472
  403MPD2     H 6074   4.709   3.566  13.354 -1.6296 -1.4314 -1.7676
  403MPD2    H1 6075   0.077   3.963  13.212  0.4944 -0.3335 -1.6668
  403MPD2    H2 6076   4.425   3.799  13.152  0.1037  2.3819 -0.1770
  403MPD2    H3 6077   4.586   3.978  13.126 -2.4369 -1.5618  0.0004
  403MPD2     N 6078   0.171   3.743  13.349  0.7743  0.0482 -0.5613
  403MPD2    H5 6079   0.182   3.656  13.400  1.0005 -0.1491 -0.9525
  403MPD2    N1 6080   4.454   3.574  13.272  0.1293 -0.0697 -0.0032
  403MPD2    H7 6081   4.363   3.586  13.229 -0.4803 -0.2495  1.2229
  404TMC3    C1 6082   4.353   3.364  13.291 -0.6931 -0.3370  0.3683
  404TMC3    C2 6083   4.347   3.248  13.362 -1.1609 -0.1322 -0.0113
  404TMC3    C3 6084   4.346   3.128  13.296 -0.1079  0.2300  0.6887
  404TMC3    C4 6085   4.329   3.369  13.155 -0.1461  0.3159 -0.3633
  404TMC3    C5 6086   4.311   3.244  13.100  1.0243 -0.2700 -0.5806
  404TMC3    C6 6087   4.338   3.125  13.159  0.4239 -0.4531  0.3054
  404TMC3     C 6088   4.457   3.453  13.339 -0.3004  0.0509  0.7589
  404TMC3     O 6089   4.527   3.423  13.432  0.2903 -0.0583  0.1481
  404TMC3     H 6090   4.374   3.240  13.467 -0.8253  2.0254  0.0723
  404TMC3    H1 6091   4.302   3.456  13.097 -1.0289  1.4946  1.8170
  404TMC3    H2 6092   4.373   3.041  13.100  0.9932  1.7424 -2.4793
  404TMC3    C7 6093   4.294   3.253  12.956  0.2120  0.0596  0.4120
  404TMC3    C8 6094   4.385   3.012  13.378  0.5823  0.1132  0.1827
  404TMC3    O1 6095   4.319   3.353  12.896  0.4221 -0.7771  0.1165
  404TMC3    O2 6096   4.441   2.920  13.324  0.4994  0.5540  0.2788
  405MPD2     C 6097   0.329   4.272  14.499 -0.4876 -0.2808  0.1787
  405MPD2    C1 6098   0.376   4.165  14.429 -0.1426 -0.6134  0.0597
  405MPD2    C2 6099   0.340   4.151  14.301  0.3660  0.8479  0.4384
  405MPD2    C3 6100   0.267   4.247  14.229 -0.7913 -0.0020  0.4297
  405MPD2    C4 6101   0.221   4.355  14.300  0.2122 -0.0897  0.1923
  405MPD2    C5 6102   0.245   4.358  14.434  0.2682 -0.6887  0.1479
  405MPD2     H 6103   0.367   4.058  14.250 -1.4276  0.1492  0.7783
  405MPD2    H1 6104   0.146   4.422  14.258  0.9440 -0.0401 -1.0286
  405MPD2    H2 6105   0.350   4.288  14.605 -0.5488  2.3141 -0.1979
  405MPD2    H3 6106   0.212   4.443  14.493  1.6533 -0.6745  0.9141
  405MPD2     N 6107   0.218   4.234  14.094  0.2561  0.1383  0.0202
  405MPD2    H5 6108   0.150   4.303  14.067  1.7915  1.0471 -1.5288
  405MPD2    N1 6109   0.451   4.067  14.500 -0.0769  0.0501 -0.6453
  405MPD2    H7 6110   0.474   4.085  14.598 -1.5171 -1.5571 -0.0050
  406TMC3    C1 6111   4.727   4.071  13.788  0.6782  0.3974 -0.2807
  406TMC3    C2 6112   0.050   3.992  13.698 -0.2281 -0.3814  0.1688
  406TMC3    C3 6113   0.187   3.964  13.723  0.0451 -0.0301 -0.0713
  406TMC3    C4 6114   0.058   4.142  13.880  0.0841  0.4479  0.3213
  406TMC3    C5 6115   0.194   4.130  13.882  0.4266  0.3360  0.3933
  406TMC3    C6 6116   0.261   4.051  13.797 -0.1792  0.2731  0.4812
  406TMC3     C 6117   4.579   4.054  13.804  0.4330 -0.4379  0.6222
  406TMC3     O 6118   4.513   4.008  13.711 -0.1433 -0.5531  0.2832
  406TMC3     H 6119   4.724   3.919  13.646 -0.3795 -0.2725  0.1934
  406TMC3    H1 6120   0.004   4.218  13.935 -3.3949 -1.2336 -0.8471
  406TMC3    H2 6121   0.368   4.037  13.798 -0.0631  1.1531  0.4827
  406TMC3    C7 6122   0.261   4.142  14.009  0.2190  0.3336 -0.3964
  406TMC3    C8 6123   0.214   3.832  13.763 -0.3038  0.1026 -0.6710
  406TMC3    O1 6124   0.350   4.064  14.028 -0.3294  0.1162 -0.3036
  406TMC3    O2 6125   0.166   3.742  13.694 -0.0095 -0.1972 -0.1629
  407MPD2     C 6126   2.375   0.663   9.809 -0.4026 -0.1251 -0.5792
  407MPD2    C1 6127   2.508   0.649   9.776 -0.2008 -0.0316  0.4210
  407MPD2    C2 6128   2.599   0.729   9.831 -0.6316 -0.4079  0.1992
  407MPD2    C3 6129   2.560   0.843   9.904  0.0844 -0.4667  0.2201
  407MPD2    C4 6130   2.429   0.859   9.940  0.1998  0.4050 -0.9142
  407MPD2    C5 6131   2.336   0.769   9.889  0.0983  0.2278 -0.2625
  407MPD2     H 6132   2.700   0.721   9.791 -0.1574  0.1235  1.2926
  407MPD2    H1 6133   2.403   0.936  10.012  1.7125  0.1397 -0.0740
  407MPD2    H2 6134   2.301   0.606   9.754  1.6195 -1.9589 -1.4094
  407MPD2    H3 6135   2.231   0.775   9.916 -0.2032  0.5270 -1.5273
  407MPD2     N 6136   2.658   0.937   9.950 -0.0208 -0.0859  0.6117
  407MPD2    H5 6137   2.617   1.027   9.973  0.1129 -0.1057  0.9262
  407MPD2    N1 6138   2.545   0.550   9.684  0.5392 -0.0989 -0.1219
  407MPD2    H7 6139   2.646   0.546   9.676  0.2960  0.8794 -3.5086
  408TMC3    C1 6140   2.529   0.372   9.532 -0.2459  0.4065 -0.4663
  408TMC3    C2 6141   2.645   0.404   9.471 -0.3009  0.6621  0.1956
  408TMC3    C3 6142   2.710   0.304   9.397  0.0512 -0.4299 -0.2652
  408TMC3    C4 6143   2.474   0.245   9.526  0.8468  0.1837  0.1922
  408TMC3    C5 6144   2.537   0.152   9.448 -0.3135 -0.4679 -0.3658
  408TMC3    C6 6145   2.656   0.174   9.381 -0.5318  0.4413 -1.0288
  408TMC3     C 6146   2.459   0.466   9.611  0.0081  0.5724 -0.1554
  408TMC3     O 6147   2.338   0.490   9.582  0.1515  0.7848 -0.3394
  408TMC3     H 6148   2.678   0.506   9.484  0.2935  0.4801  0.1307
  408TMC3    H1 6149   2.380   0.230   9.577  0.0208  0.6857 -1.1706
  408TMC3    H2 6150   2.705   0.099   9.319  2.6801 -0.3772  2.5327
  408TMC3    C7 6151   2.482   0.022   9.437  0.2067  0.9269 -0.6988
  408TMC3    C8 6152   2.833   0.330   9.331  0.5368 -0.0747  0.5298
  408TMC3    O1 6153   2.427   4.713   9.534  0.0323  0.2644 -0.1538
  408TMC3    O2 6154   2.906   0.231   9.309  0.0898  0.1558 -0.2463
  409MPD2     C 6155   1.898   1.371  17.141  0.0948  0.4371  0.4990
  409MPD2    C1 6156   2.025   1.373  17.201 -0.2160  0.3042  0.0022
  409MPD2    C2 6157   2.115   1.467  17.160 -0.0435 -0.5072 -0.0681
  409MPD2    C3 6158   2.092   1.548  17.052  0.0399  0.1395  0.1144
  409MPD2    C4 6159   1.966   1.549  16.999  0.2357  0.3450 -0.3799
  409MPD2    C5 6160   1.868   1.464  17.036  0.2598  0.1704 -0.1318
  409MPD2     H 6161   2.210   1.474  17.212 -0.0888  0.1864 -0.0765
  409MPD2    H1 6162   1.950   1.624  16.922  0.4331 -0.2859 -1.0349
  409MPD2    H2 6163   1.817   1.312  17.182  0.8293 -1.2133 -0.4785
  409MPD2    H3 6164   1.771   1.462  16.987  0.8856 -3.1015 -1.3001
  409MPD2     N 6165   2.183   1.645  17.000 -0.2004  0.3078 -0.0424
  409MPD2    H5 6166   2.139   1.716  16.943  2.4873  0.8297 -1.4646
  409MPD2    N1 6167   2.048   1.296  17.321  0.4607 -0.7954  0.6325
  409MPD2    H7 6168   2.128   1.323  17.377  1.1262  1.0587 -1.2488
  410TMC3    C1 6169   2.393   1.748  16.940 -0.2314  0.2515  0.0119
  410TMC3    C2 6170   2.485   1.811  17.008  0.0706  0.6138 -0.2437
  410TMC3    C3 6171   2.547   1.924  16.949 -0.5721  0.3574  0.2785
  410TMC3    C4 6172   2.348   1.788  16.814 -0.1922 -0.1382 -0.4574
  410TMC3    C5 6173   2.414   1.895  16.760 -0.3959 -0.2921 -0.3714
  410TMC3    C6 6174   2.514   1.967  16.825 -0.0985 -0.0147 -0.6957
  410TMC3     C 6175   2.321   1.642  17.016  0.3528  0.0464  0.0162
  410TMC3     O 6176   2.396   1.561  17.074 -0.0354  0.0725 -0.3596
  410TMC3     H 6177   2.497   1.786  17.113 -0.4462  2.1784  0.1989
  410TMC3    H1 6178   2.296   1.720  16.747 -1.4675  0.1958  0.2183
  410TMC3    H2 6179   2.569   2.049  16.781  1.1028 -1.5160 -2.0287
  410TMC3    C7 6180   2.396   1.920  16.617  0.4338  0.1867  0.2440
  410TMC3    C8 6181   2.672   1.976  17.003  0.0312 -0.2914  0.4365
  410TMC3    O1 6182   2.346   1.827  16.554  0.6272 -0.2361  0.0860
  410TMC3    O2 6183   2.675   2.093  16.985  0.7477 -0.0491  0.9376
  411MPD2     C 6184   2.516   1.788  14.559  0.2658  0.2052  0.1447
  411MPD2    C1 6185   2.452   1.820  14.439 -0.0894 -0.2204  1.1970
  411MPD2    C2 6186   2.409   1.721  14.352  0.0822  1.3704 -0.1288
  411MPD2    C3 6187   2.416   1.586  14.388  0.1580  0.1600  0.4342
  411MPD2    C4 6188   2.458   1.558  14.510  0.0666 -0.5505 -0.6556
  411MPD2    C5 6189   2.511   1.651  14.597 -0.4381 -0.1536 -0.3909
  411MPD2     H 6190   2.374   1.741  14.251 -2.4318 -1.2469  0.2065
  411MPD2    H1 6191   2.465   1.456  14.544 -1.5530  0.1906  1.9142
  411MPD2    H2 6192   2.550   1.860  14.632 -2.8884  0.3802  1.4569
  411MPD2    H3 6193   2.533   1.617  14.697 -0.1342  0.3817 -0.2762
  411MPD2     N 6194   2.367   1.481  14.297  0.7303 -0.0907 -0.6855
  411MPD2    H5 6195   2.368   1.390  14.343 -0.3821  0.6719  0.8469
  411MPD2    N1 6196   2.430   1.957  14.412 -0.6278  0.4494 -0.4987
  411MPD2    H7 6197   2.457   2.021  14.486 -1.9690 -0.5732  0.8801
  412TMC3    C1 6198   2.296   1.378  14.103  0.0842  1.0619  0.6690
  412TMC3    C2 6199   2.221   1.282  14.163  0.3307 -0.0550  0.2034
  412TMC3    C3 6200   2.154   1.196  14.081  0.1026  0.5593 -0.3861
  412TMC3    C4 6201   2.296   1.390  13.968  0.2093  0.4860 -0.2125
  412TMC3    C5 6202   2.220   1.317  13.886 -0.7488  0.4378  0.3092
  412TMC3    C6 6203   2.152   1.209  13.942  0.7333  0.0742 -0.0434
  412TMC3     C 6204   2.325   1.498  14.169 -0.2014 -0.0273  0.8745
  412TMC3     O 6205   2.333   1.597  14.097  0.1445 -0.5196  0.6884
  412TMC3     H 6206   2.217   1.277  14.271  2.7397 -1.6215  0.2075
  412TMC3    H1 6207   2.364   1.457  13.916  0.4614 -1.2805 -2.1319
  412TMC3    H2 6208   2.093   1.150  13.873  1.8522 -0.8365 -0.2139
  412TMC3    C7 6209   2.130   1.397  13.805  1.0229  0.1311 -0.2574
  412TMC3    C8 6210   2.018   1.176  14.137 -0.1338 -0.1094  0.0064
  412TMC3    O1 6211   2.017   1.351  13.801 -0.0092  0.0410 -0.0561
  412TMC3    O2 6212   2.000   1.170  14.259  0.3856  0.0163 -0.2585
  413MPD2     C 6213   4.468   0.793  15.430  0.2482 -0.9883 -0.3177
  413MPD2    C1 6214   4.391   0.757  15.319 -0.1632  0.1546  0.8030
  413MPD2    C2 6215   4.463   0.698  15.214 -0.4166  0.1145  0.2293
  413MPD2    C3 6216   4.592   0.641  15.226 -1.0854 -0.7913 -0.6029
  413MPD2    C4 6217   4.666   0.671  15.343  0.2296  0.2242 -0.2033
  413MPD2    C5 6218   4.598   0.746  15.441  1.0985  0.3105  0.8348
  413MPD2     H 6219   4.416   0.664  15.122 -0.0209 -1.9393  0.7843
  413MPD2    H1 6220   0.035   0.646  15.356  0.4459  0.8325 -0.7925
  413MPD2    H2 6221   4.425   0.844  15.515  1.5889  0.2392 -0.3794
  413MPD2    H3 6222   4.650   0.784  15.528 -1.1291  0.8179  1.9242
  413MPD2     N 6223   4.642   0.553  15.124 -0.1942 -0.0592 -0.5174
  413MPD2    H5 6224   4.577   0.532  15.049 -0.2189 -1.2458 -0.1689
  413MPD2    N1 6225   4.254   0.766  15.324  0.0900  0.3425  0.1305
  413MPD2    H7 6226   4.217   0.802  15.411 -1.6535 -1.4840  0.1454
  414TMC3    C1 6227   0.055   0.406  15.021 -0.6772 -0.4889 -0.1653
  414TMC3    C2 6228   0.106   0.293  15.061  0.0867  0.5157  0.4046
  414TMC3    C3 6229   0.118   0.197  14.964  0.5252 -0.6453 -0.1242
  414TMC3    C4 6230   4.721   0.428  14.904  0.1930  0.2905 -0.2387
  414TMC3    C5 6231   4.722   0.323  14.816 -0.3216  0.1083  0.1707
  414TMC3    C6 6232   0.054   0.205  14.843 -0.6729 -0.2150 -0.1789
  414TMC3     C 6233   0.032   0.500  15.126  0.4844 -0.2634 -0.0654
  414TMC3     O 6234   0.123   0.501  15.208  0.1867 -0.0285  0.2884
  414TMC3     H 6235   0.131   0.274  15.165  0.3801  0.9923  0.4210
  414TMC3    H1 6236   4.693   0.528  14.872 -0.6345 -0.2930 -1.3210
  414TMC3    H2 6237   0.043   0.114  14.786 -0.5190 -0.8678  0.8291
  414TMC3    C7 6238   4.632   0.330  14.709 -0.2460 -0.0399 -0.2958
  414TMC3    C8 6239   0.181   0.073  14.994 -0.6622  0.1633 -0.0954
  414TMC3    O1 6240   4.521   0.366  14.741 -0.1555  0.4758 -0.2306
  414TMC3    O2 6241   0.169   4.706  14.928  0.7871  0.3672  0.5622
  415TMC3    C1 6242   0.408   2.958  10.478 -0.1848 -0.0241  0.1484
  415TMC3    C2 6243   0.517   2.996  10.406  0.5538  0.2489  0.5369
  415TMC3    C3 6244   0.606   2.912  10.350  0.2989  0.4503 -0.1669
  415TMC3    C4 6245   0.381   2.828  10.504  0.1828  0.5021 -0.4219
  415TMC3    C5 6246   0.466   2.734  10.440  0.2688  0.1283  0.3835
  415TMC3    C6 6247   0.578   2.778  10.367 -0.2614  0.3013  0.1327
  415TMC3     C 6248   0.310   3.059  10.511  0.0262  0.2284  0.0839
  415TMC3     O 6249   0.216   3.013  10.573  0.2799 -0.0419 -0.4706
  415TMC3     H 6250   0.520   3.101  10.378 -0.1934  0.1071 -0.0698
  415TMC3    H1 6251   0.309   2.796  10.578  1.3125  1.0249  0.9013
  415TMC3    H2 6252   0.658   2.710  10.339 -0.3442  1.0715 -1.9659
  415TMC3    C7 6253   0.412   2.601  10.406 -0.1816 -0.6682 -0.1900
  415TMC3    C8 6254   0.725   2.941  10.273  0.7850 -0.6644 -0.9000
  415TMC3    O1 6255   0.478   2.541  10.322  0.1632  0.0762  0.8760
  415TMC3    O2 6256   0.769   2.852  10.200  0.1738  0.0493  0.5522
  416MPD2     C 6257   1.610   1.543  11.318  0.7994  0.6335  0.4423
  416MPD2    C1 6258   1.532   1.509  11.210  0.3632  0.1540  0.6787
  416MPD2    C2 6259   1.587   1.463  11.090 -0.4107  0.3198  0.2743
  416MPD2    C3 6260   1.723   1.466  11.070 -0.0916  0.7723 -0.3265
  416MPD2    C4 6261   1.803   1.505  11.178  0.1031 -0.0950  0.6021
  416MPD2    C5 6262   1.747   1.539  11.300 -0.5261 -0.2513 -0.3218
  416MPD2     H 6263   1.525   1.425  11.009  1.3550 -0.6840 -0.6004
  416MPD2    H1 6264   1.911   1.494  11.171  0.3029  1.5047  1.1747
  416MPD2    H2 6265   1.566   1.560  11.416  1.7828 -0.9713  1.1625
  416MPD2    H3 6266   1.819   1.544  11.381  0.3984 -0.9581 -1.1035
  416MPD2     N 6267   1.788   1.416  10.958  0.9826  0.5575  0.1197
  416MPD2    H5 6268   1.876   1.453  10.926  0.6405  2.0120  0.8760
  416MPD2    N1 6269   1.395   1.508  11.242 -0.3606 -0.6819 -0.1795
  416MPD2    H7 6270   1.361   1.530  11.335 -0.2159 -0.3115 -0.2163
  417TMC3    C1 6271   1.165   1.537  11.200  0.4272  0.6484 -1.1639
  417TMC3    C2 6272   1.129   1.525  11.327  0.7356  0.0868  0.3361
  417TMC3    C3 6273   1.019   1.582  11.373 -0.4378  0.1600 -0.3285
  417TMC3    C4 6274   1.095   1.617  11.113  0.4234 -0.7150  0.2966
  417TMC3    C5 6275   0.992   1.694  11.161  0.0713  0.2967  0.8292
  417TMC3    C6 6276   0.947   1.666  11.290 -0.3718  0.8356  0.4107
  417TMC3     C 6277   1.298   1.500  11.144  0.9371 -0.0542 -0.5941
  417TMC3     O 6278   1.312   1.478  11.025 -0.5305  0.4637  0.2855
  417TMC3     H 6279   1.178   1.457  11.395 -1.8005 -1.3377  0.7350
  417TMC3    H1 6280   1.132   1.634  11.012  0.9947  0.3820  0.6872
  417TMC3    H2 6281   0.860   1.716  11.330 -1.8794 -0.1703 -1.6579
  417TMC3    C7 6282   0.986   1.840  11.138 -0.2790  0.0202  0.5409
  417TMC3    C8 6283   1.006   1.626  11.512 -0.2822 -0.7380  0.1440
  417TMC3    O1 6284   1.088   1.891  11.102 -0.0403  0.0900  0.1447
  417TMC3    O2 6285   0.954   1.734  11.532  0.6222 -0.4431  0.7979
  418TMC3    C1 6286   1.152   3.510  17.652  0.4324 -0.5599 -0.1183
  418TMC3    C2 6287   1.062   3.588  17.709  0.0921  0.1053  0.4920
  418TMC3    C3 6288   1.063   3.605   0.107  0.8540  0.4158  0.1590
  418TMC3    C4 6289   1.239   3.435  17.723 -0.0278  0.2304 -0.5293
  418TMC3    C5 6290   1.233   3.439   0.122  0.1178  0.1319 -0.1206
  418TMC3    C6 6291   1.144   3.525   0.180  0.4020 -0.8786 -0.1343
  418TMC3     C 6292   1.167   3.519  17.506 -0.1888  0.1835  0.1752
  418TMC3     O 6293   1.118   3.614  17.451  0.3757 -0.0178 -0.0047
  418TMC3     H 6294   0.989   3.651  17.659 -0.9163 -0.5063  1.1874
  418TMC3    H1 6295   1.306   3.370  17.668 -0.4986 -2.0160  1.5711
  418TMC3    H2 6296   1.128   3.507   0.286 -0.3517 -0.2480 -0.1401
  418TMC3    C7 6297   1.275   3.318   0.194  0.1327 -0.1794 -0.1604
  418TMC3    C8 6298   0.934   3.630   0.162  0.1888 -0.6154  0.4827
  418TMC3    O1 6299   1.310   3.231   0.120 -0.5598 -0.3686  0.6557
  418TMC3    O2 6300   0.891   3.743   0.152 -0.4101  0.5888  0.0833
  419MPD2     C 6301   3.539   1.416  12.767 -0.3205 -0.0249  0.8436
  419MPD2    C1 6302   3.494   1.545  12.761 -0.0193  0.3097  0.3098
  419MPD2    C2 6303   3.542   1.642  12.851  0.0306  0.9435  0.2249
  419MPD2    C3 6304   3.611   1.603  12.965  0.3618  0.5789 -0.3852
  419MPD2    C4 6305   3.638   1.471  12.985 -0.1452 -0.2620  0.4302
  419MPD2    C5 6306   3.601   1.382  12.884  0.4969 -1.5110  0.5022
  419MPD2     H 6307   3.518   1.745  12.829 -1.2112  0.2743 -1.6394
  419MPD2    H1 6308   3.693   1.439  13.073  3.0778 -2.5161 -2.3993
  419MPD2    H2 6309   3.518   1.331  12.703 -0.7154  0.5544  0.2034
  419MPD2    H3 6310   3.622   1.276  12.896  2.6241 -1.1206  0.1212
  419MPD2     N 6311   3.643   1.705  13.060 -0.4010  0.6430 -0.2382
  419MPD2    H5 6312   3.600   1.794  13.034 -1.9772 -0.2139 -0.5292
  419MPD2    N1 6313   3.422   1.596  12.647  0.0528 -0.1847  0.0428
  419MPD2    H7 6314   3.404   1.696  12.652 -0.5027 -0.2836 -0.0099
  420TMC3    C1 6315   3.736   1.831  13.236 -0.3280  0.3051 -0.0876
  420TMC3    C2 6316   3.686   1.940  13.171 -0.2462 -0.4625  0.2052
  420TMC3    C3 6317   3.711   2.056  13.245 -0.1268  0.1727 -0.1265
  420TMC3    C4 6318   3.789   1.832  13.364 -0.1111  0.2220 -0.6031
  420TMC3    C5 6319   3.807   1.948  13.430  0.2709 -0.4091 -1.0072
  420TMC3    C6 6320   3.764   2.066  13.370  0.4180  0.5710  0.2914
  420TMC3     C 6321   3.723   1.703  13.169  0.1697 -0.0771  0.4439
  420TMC3     O 6322   3.808   1.617  13.205  0.5441 -0.2522  0.1666
  420TMC3     H 6323   3.658   1.937  13.067 -3.0682  0.8093  0.9410
  420TMC3    H1 6324   3.825   1.743  13.415 -0.9436  1.0281  1.3802
  420TMC3    H2 6325   3.774   2.166  13.410  0.6008  0.4556  0.5346
  420TMC3    C7 6326   3.841   1.934  13.573  0.2708 -0.4336  0.5809
  420TMC3    C8 6327   3.631   2.158  13.196 -1.1073  0.0447 -0.2092
  420TMC3    O1 6328   3.804   1.834  13.629 -0.3817  0.1156  0.4215
  420TMC3    O2 6329   3.640   2.175  13.077  0.1965 -0.1682 -0.1398
  421TMC3    C1 6330   0.378   3.812  13.464 -0.2218  0.5473  0.6283
  421TMC3    C2 6331   0.442   3.923  13.525  0.1002 -0.7246 -0.3865
  421TMC3    C3 6332   0.563   3.906  13.580 -0.3586 -0.1035 -0.0117
  421TMC3    C4 6333   0.420   3.685  13.484 -0.1550  0.0040  0.4541
  421TMC3    C5 6334   0.534   3.667  13.563  0.0806  0.0680 -0.2559
  421TMC3    C6 6335   0.607   3.774  13.607 -1.4105  0.0782 -0.4867
  421TMC3     C 6336   0.264   3.847  13.378  0.4596  0.4509 -0.8294
  421TMC3     O 6337   0.258   3.966  13.353 -0.3789 -0.2735 -0.0312
  421TMC3     H 6338   0.398   4.021  13.507  1.1261  0.1381  1.8333
  421TMC3    H1 6339   0.364   3.597  13.455  0.7781 -0.9497  1.5150
  421TMC3    H2 6340   0.695   3.754  13.668 -1.4728  0.3900 -0.2977
  421TMC3    C7 6341   0.570   3.535  13.608  0.1699 -0.4000 -0.9792
  421TMC3    C8 6342   0.608   4.010  13.676 -0.0240 -0.0063  0.6703
  421TMC3    O1 6343   0.655   3.539  13.695  0.5801 -0.3253  0.1538
  421TMC3    O2 6344   0.669   3.971  13.774  0.1582 -0.1803  0.1004
  422TMC3    C1 6345   3.020   0.010  12.246 -0.1330  0.1511  0.4148
  422TMC3    C2 6346   2.991   0.128  12.293 -0.4851  0.0994  0.0145
  422TMC3    C3 6347   2.892   0.136  12.391  0.5049  0.3915  0.5275
  422TMC3    C4 6348   2.959   4.631  12.281  0.2003  0.0883 -0.2945
  422TMC3    C5 6349   2.863   4.637  12.373 -0.1608  0.3375  0.1062
  422TMC3    C6 6350   2.826   0.023  12.432 -0.5391  0.0055 -0.2837
  422TMC3     C 6351   3.129   4.731  12.154 -0.8505  0.5913  0.0324
  422TMC3     O 6352   3.193   4.628  12.156 -1.1720  0.0368 -0.3437
  422TMC3     H 6353   3.066   0.206  12.285 -0.8331  0.5107  0.8215
  422TMC3    H1 6354   3.000   4.536  12.249 -0.5072 -0.6072  0.8627
  422TMC3    H2 6355   2.730   0.034  12.482 -0.4814  2.0856 -0.6339
  422TMC3    C7 6356   2.762   4.541  12.336  0.2635 -0.2712  0.3055
  422TMC3    C8 6357   2.834   0.256  12.448  0.0897  1.1386  1.0123
  422TMC3    O1 6358   2.783   4.480  12.231 -0.1503 -0.0957  0.3797
  422TMC3    O2 6359   2.786   0.252  12.562 -0.2097  0.0260 -0.2333
  423MPD2     C 6360   3.814   1.191   0.622  0.1781 -0.2772  0.4734
  423MPD2    C1 6361   3.805   1.052   0.635 -0.6800 -0.1853 -0.5878
  423MPD2    C2 6362   3.890   0.968   0.559 -0.2123 -0.4110 -0.3207
  423MPD2    C3 6363   3.978   1.025   0.473 -0.4245  0.5299 -0.4222
  423MPD2    C4 6364   3.981   1.165   0.460  0.0695 -0.0056 -0.2112
  423MPD2    C5 6365   3.904   1.243   0.535 -0.2489 -0.2052  0.3027
  423MPD2     H 6366   3.885   0.860   0.570 -2.8880 -0.4283 -1.6152
  423MPD2    H1 6367   4.049   1.214   0.391 -0.1265  0.2345 -0.2349
  423MPD2    H2 6368   3.754   1.257   0.684  0.8470  1.9020 -1.2016
  423MPD2    H3 6369   3.905   1.349   0.512 -1.1689 -0.4108 -0.6872
  423MPD2     N 6370   4.065   0.954   0.384 -0.1475  0.9587  0.2402
  423MPD2    H5 6371   4.120   1.008   0.318 -1.6626  1.2440 -0.7950
  423MPD2    N1 6372   3.703   0.989   0.714 -0.3685  0.4467 -1.1024
  423MPD2    H7 6373   3.709   0.888   0.715 -0.4363  0.4646  0.2197
  424TMC3    C1 6374   3.483   0.953   0.811 -0.4641  0.4119  0.4408
  424TMC3    C2 6375   3.517   0.828   0.842  0.0451  0.4640  0.8392
  424TMC3    C3 6376   3.410   0.747   0.871 -0.3592  0.2895 -0.3226
  424TMC3    C4 6377   3.355   1.002   0.810  0.3386 -0.3390  0.4548
  424TMC3    C5 6378   3.254   0.913   0.827  0.6009  0.4864  0.2616
  424TMC3    C6 6379   3.278   0.782   0.857 -0.1597  0.2696 -0.3166
  424TMC3     C 6380   3.589   1.049   0.769 -0.3604  0.8764 -0.0057
  424TMC3     O 6381   3.575   1.173   0.781 -0.2522 -0.1384  0.8813
  424TMC3     H 6382   3.621   0.810   0.867  0.7764  2.8155 -0.5311
  424TMC3    H1 6383   3.343   1.103   0.774  0.0120 -0.4706  0.1852
  424TMC3    H2 6384   3.205   0.703   0.848 -2.4709  2.4721 -0.6276
  424TMC3    C7 6385   3.125   0.938   0.774 -0.4820 -0.1472  0.0646
  424TMC3    C8 6386   3.448   0.609   0.901  0.3642  0.0653  0.3527
  424TMC3    O1 6387   3.057   0.844   0.744 -0.3698 -0.4657 -0.1476
  424TMC3    O2 6388   3.568   0.592   0.889 -0.3461 -0.1438  0.0234
  425MPD2     C 6389   3.670   0.167   0.087  0.1088  0.1735 -0.2581
  425MPD2    C1 6390   3.570   0.103   0.017  0.3763  0.2289  0.4299
  425MPD2    C2 6391   3.436   0.144   0.030  0.0296 -0.9441 -0.4811
  425MPD2    C3 6392   3.406   0.261   0.093 -0.5642 -0.6517  0.1107
  425MPD2    C4 6393   3.508   0.329   0.159  0.2258  0.0260 -0.4587
  425MPD2    C5 6394   3.640   0.280   0.167 -0.2278 -0.7234 -0.2321
  425MPD2     H 6395   3.360   0.101  17.705 -0.5971 -0.3049 -0.1619
  425MPD2    H1 6396   3.504   0.431   0.196  1.4672 -0.0680 -0.0813
  425MPD2    H2 6397   3.772   0.131   0.083  0.0791  0.0702 -0.0806
  425MPD2    H3 6398   3.721   0.341   0.204 -1.0523 -0.1180  0.5913
  425MPD2     N 6399   3.272   0.301   0.093  0.2744 -0.0688 -0.2705
  425MPD2    H5 6400   3.210   0.240   0.042  0.2019 -0.0689 -0.1829
  425MPD2    N1 6401   3.594   4.727  17.678 -0.5237 -0.8584 -0.2912
  425MPD2    H7 6402   3.690   4.696  17.693 -0.6239 -0.7804  0.5161
  426TMC3    C1 6403   3.571   4.553  17.512  0.3086 -0.0557 -0.3672
  426TMC3    C2 6404   3.513   4.510  17.397  0.4946 -0.9066 -0.0725
  426TMC3    C3 6405   3.566   4.401  17.336  0.8095 -0.2442 -0.5887
  426TMC3    C4 6406   3.664   4.480  17.583 -0.2664  0.7393  0.3234
  426TMC3    C5 6407   3.717   4.371  17.517  0.2007 -0.0833 -0.7960
  426TMC3    C6 6408   3.664   4.330  17.398 -0.4204  0.0271  0.5512
  426TMC3     C 6409   3.521   4.676  17.567  0.1100  0.4912 -0.5657
  426TMC3     O 6410   3.428   4.726  17.504 -0.7753  0.7408  0.0786
  426TMC3     H 6411   3.424   4.558  17.359  0.7493 -1.9457 -1.9915
  426TMC3    H1 6412   3.689   4.492  17.688 -2.3248  0.6177  0.8325
  426TMC3    H2 6413   3.694   4.235  17.356 -0.6544 -1.2477  3.2543
  426TMC3    C7 6414   3.761   4.261  17.606  0.1385  0.0799 -0.6723
  426TMC3    C8 6415   3.508   4.340  17.220 -0.2400 -0.9503 -0.0259
  426TMC3    O1 6416   3.865   4.195  17.584 -0.1537  0.4481  0.3532
  426TMC3    O2 6417   3.591   4.285  17.146 -0.0863  0.3449  0.1688
  427MPD2     C 6418   1.602   1.989  14.552 -0.4844  0.5005 -0.0487
  427MPD2    C1 6419   1.636   2.032  14.680  0.2450 -0.3475  0.3420
  427MPD2    C2 6420   1.552   2.124  14.748 -0.0671 -0.1581 -0.1283
  427MPD2    C3 6421   1.426   2.164  14.695 -0.6199 -0.3943  0.6171
  427MPD2    C4 6422   1.387   2.106  14.577  0.3585  0.6990 -0.2805
  427MPD2    C5 6423   1.478   2.032  14.501 -0.3161 -0.2498  0.1844
  427MPD2     H 6424   1.584   2.179  14.836 -0.7304 -2.2534  1.4336
  427MPD2    H1 6425   1.298   2.134  14.522  1.3902  0.0197 -2.3150
  427MPD2    H2 6426   1.656   1.924  14.483  0.2571  2.2254 -1.1044
  427MPD2    H3 6427   1.447   1.984  14.409  1.8444 -1.3932  0.0613
  427MPD2     N 6428   1.345   2.264  14.748  0.0752 -0.1871 -0.6781
  427MPD2    H5 6429   1.255   2.272  14.700 -1.3539 -2.6856  1.6042
  427MPD2    N1 6430   1.756   1.990  14.749  0.0739  0.0508  0.1336
  427MPD2    H7 6431   1.779   2.029  14.839  0.7447  0.5869 -0.2705
  428TMC3    C1 6432   1.952   1.862  14.808  0.7869 -0.3604  0.3185
  428TMC3    C2 6433   1.945   1.735  14.863 -0.9335 -0.2989 -0.3956
  428TMC3    C3 6434   2.001   1.706  14.981  0.5467 -0.2870  1.0014
  428TMC3    C4 6435   2.020   1.962  14.875  0.0824 -1.1086  0.2699
  428TMC3    C5 6436   2.083   1.928  14.996 -0.3321  0.0918 -0.4186
  428TMC3    C6 6437   2.066   1.803  15.050 -0.3405 -0.4221  0.4429
  428TMC3     C 6438   1.855   1.897  14.707  0.0411 -0.0244  0.0174
  428TMC3     O 6439   1.844   1.820  14.613  0.4313  0.2103  0.0533
  428TMC3     H 6440   1.895   1.654  14.811 -1.5084 -0.1710 -0.0407
  428TMC3    H1 6441   2.018   2.057  14.822  0.5677 -1.3667 -0.2003
  428TMC3    H2 6442   2.101   1.774  15.149  2.2323  0.9836 -0.0753
  428TMC3    C7 6443   2.201   1.993  15.038  0.2565 -0.2157  0.0145
  428TMC3    C8 6444   1.964   1.583  15.048  0.0267  0.5287 -0.1622
  428TMC3    O1 6445   2.239   1.983  15.153 -0.1298  0.1171  0.0078
  428TMC3    O2 6446   2.036   1.551  15.138  0.2361 -0.1426 -0.8660
  429MPD2     C 6447   2.573   2.537   0.031  0.4287  0.6154 -0.3537
  429MPD2    C1 6448   2.620   2.460  17.659  0.3287 -0.3908 -0.1696
  429MPD2    C2 6449   2.661   2.526  17.546 -0.2277  0.0242  0.3897
  429MPD2    C3 6450   2.649   2.663  17.533  0.9124  0.0794  0.6959
  429MPD2    C4 6451   2.600   2.737  17.640 -0.1557 -0.1517 -0.0498
  429MPD2    C5 6452   2.562   2.675   0.018 -0.0976 -0.6114 -0.9710
  429MPD2     H 6453   2.713   2.466  17.472 -2.0597 -0.0217 -0.8614
  429MPD2    H1 6454   2.608   2.844  17.629  0.6059  0.0052  1.9451
  429MPD2    H2 6455   2.548   2.488   0.124  1.1927  0.3801 -0.2783
  429MPD2    H3 6456   2.545   2.733   0.108 -1.0493 -0.9410 -0.9372
  429MPD2     N 6457   2.693   2.722  17.411 -0.3491 -0.9659  0.1405
  429MPD2    H5 6458   2.733   2.663  17.339  2.8713  2.8542 -1.1838
  429MPD2    N1 6459   2.625   2.323  17.654  0.2756 -0.2549  0.0293
  429MPD2    H7 6460   2.665   2.299  17.564 -1.9489 -1.3849 -0.6548
  430TMC3    C1 6461   2.704   2.866  17.232  0.2553  0.4013  0.3991
  430TMC3    C2 6462   2.594   2.903  17.166 -0.5620  0.3610 -0.4569
  430TMC3    C3 6463   2.589   2.886  17.032 -0.1510  0.0235 -0.2049
  430TMC3    C4 6464   2.814   2.826  17.165  0.2401 -0.8439 -0.4164
  430TMC3    C5 6465   2.809   2.835  17.031 -0.2097 -0.4711 -0.5485
  430TMC3    C6 6466   2.700   2.874  16.965  0.0253 -0.6859 -1.2575
  430TMC3     C 6467   2.688   2.850  17.373 -0.1476  0.4629 -0.0796
  430TMC3     O 6468   2.620   2.934  17.425 -0.7806  0.0366 -0.1742
  430TMC3     H 6469   2.503   2.936  17.215 -1.0956  1.1527 -1.9796
  430TMC3    H1 6470   2.892   2.774  17.219 -0.0533  0.6166  1.4248
  430TMC3    H2 6471   2.694   2.840  16.862  1.7834  0.8381 -1.8682
  430TMC3    C7 6472   2.878   2.725  16.964  0.0895 -0.0795 -0.3144
  430TMC3    C8 6473   2.466   2.877  16.956  0.2346  0.2302  0.0106
  430TMC3    O1 6474   2.826   2.612  16.962 -0.2337 -0.5395  0.3605
  430TMC3    O2 6475   2.477   2.915  16.839 -0.0413  0.0669  0.4142
  431MPD2     C 6476   3.327   2.291  12.777 -0.2980 -0.4648  0.3967
  431MPD2    C1 6477   3.408   2.272  12.664  0.2122 -0.3147 -0.3996
  431MPD2    C2 6478   3.371   2.181  12.567  1.0327 -0.4159  0.2251
  431MPD2    C3 6479   3.264   2.097  12.586  0.7173 -0.1110 -0.1492
  431MPD2    C4 6480   3.185   2.114  12.696 -0.7621  0.4060 -0.9056
  431MPD2    C5 6481   3.216   2.210  12.786 -0.1185 -0.1345 -1.0381
  431MPD2     H 6482   3.433   2.172  12.478  1.5253  3.7063  0.1425
  431MPD2    H1 6483   3.100   2.047  12.706 -1.2366  0.9143 -1.5291
  431MPD2    H2 6484   3.345   2.363  12.856  0.7488 -0.1486 -0.1413
  431MPD2    H3 6485   3.154   2.213  12.875 -1.3082  0.7596 -1.9051
  431MPD2     N 6486   3.232   1.996  12.499  0.2925  0.2110 -0.0200
  431MPD2    H5 6487   3.158   1.933  12.528  0.6204 -0.3811 -0.4917
  431MPD2    N1 6488   3.519   2.351  12.632  0.2695 -0.5158  0.7333
  431MPD2    H7 6489   3.547   2.332  12.536 -2.1043 -0.4472  0.0171
  432TMC3    C1 6490   3.287   1.828  12.355  0.4883  0.3541 -0.1715
  432TMC3    C2 6491   3.356   1.798  12.239  0.2176  1.0494 -0.0413
  432TMC3    C3 6492   3.364   1.669  12.205  0.4544  0.2803 -0.5429
  432TMC3    C4 6493   3.289   1.741  12.459 -0.0548  0.2327 -0.8872
  432TMC3    C5 6494   3.328   1.611  12.430 -0.2533  0.6977 -0.0889
  432TMC3    C6 6495   3.364   1.574  12.304  0.1850  0.5671 -0.0551
  432TMC3     C 6496   3.298   1.964  12.384  0.0575 -0.0960 -0.7848
  432TMC3     O 6497   3.374   2.034  12.317 -0.3129 -0.0500 -0.0358
  432TMC3     H 6498   3.357   1.864  12.153 -0.2460  2.1346  0.7785
  432TMC3    H1 6499   3.245   1.767  12.555 -0.8333 -0.7159 -0.9874
  432TMC3    H2 6500   3.389   1.473  12.272 -1.2369  1.1095 -2.9413
  432TMC3    C7 6501   3.383   1.529  12.535 -0.8576  0.3859  0.0052
  432TMC3    C8 6502   3.450   1.635  12.095 -0.6118 -0.3154  0.3154
  432TMC3    O1 6503   3.387   1.409  12.505  0.0397 -0.2638 -0.2332
  432TMC3    O2 6504   3.463   1.519  12.055 -0.2962 -0.1606 -0.4828
  433MPD2     C 6505   2.576   0.783  10.613  0.8988 -0.7125 -0.2846
  433MPD2    C1 6506   2.635   0.673  10.672  0.3054 -0.0166  0.1289
  433MPD2    C2 6507   2.665   0.690  10.807 -0.5409 -0.3659 -0.1784
  433MPD2    C3 6508   2.673   0.811  10.871 -1.2420  0.4629 -0.9318
  433MPD2    C4 6509   2.618   0.927  10.807 -0.3058 -0.7676  1.1346
  433MPD2    C5 6510   2.570   0.913  10.675 -0.4771 -0.0412 -0.3923
  433MPD2     H 6511   2.707   0.613  10.872  0.2817 -0.8991 -1.3381
  433MPD2    H1 6512   2.601   1.020  10.859 -3.9790  0.6608 -2.6269
  433MPD2    H2 6513   2.531   0.773  10.515 -0.2886  0.3067  0.1517
  433MPD2    H3 6514   2.528   1.002  10.628  0.8425  0.5683 -0.4368
  433MPD2     N 6515   2.728   0.817  10.998  0.3551  0.0415 -0.1943
  433MPD2    H5 6516   2.763   0.731  11.039 -2.1416 -0.5810  0.6111
  433MPD2    N1 6517   2.641   0.557  10.601 -0.2897  0.3775 -0.7060
  433MPD2    H7 6518   2.644   0.556  10.500 -1.1612  1.9356 -0.7407
  434TMC3    C1 6519   2.749   0.358  10.543  0.1579 -0.6372 -0.4368
  434TMC3    C2 6520   2.870   0.325  10.576  0.3507  0.3657  0.8007
  434TMC3    C3 6521   2.919   0.202  10.538 -0.4167 -0.1028  0.0585
  434TMC3    C4 6522   2.666   0.275  10.471  0.0016 -0.5115 -0.0046
  434TMC3    C5 6523   2.711   0.155  10.433 -0.2090 -0.7140  0.3152
  434TMC3    C6 6524   2.843   0.115  10.468 -0.0637  0.1619  0.0182
  434TMC3     C 6525   2.696   0.439  10.651 -0.7218 -1.0343 -0.6515
  434TMC3     O 6526   2.727   0.410  10.769 -0.3053 -0.1709  0.5370
  434TMC3     H 6527   2.926   0.400  10.632  2.2173  1.1815 -2.1114
  434TMC3    H1 6528   2.559   0.289  10.463 -0.2397 -2.0400  0.5012
  434TMC3    H2 6529   2.891   0.035  10.411 -1.8421  0.0101 -1.2867
  434TMC3    C7 6530   2.614   0.051  10.407 -0.6236  0.0244  0.4519
  434TMC3    C8 6531   3.039   0.159  10.603 -0.3083  0.1441 -0.5034
  434TMC3    O1 6532   2.504   0.081  10.362  0.7622  0.2817  0.7421
  434TMC3    O2 6533   3.114   0.246  10.652  0.6114  1.2657 -0.2785
  435MPD2     C 6534   0.073   1.030  15.376  0.2075  0.0599 -0.1584
  435MPD2    C1 6535   0.029   1.033  15.507  0.0794  0.5604 -0.2109
  435MPD2    C2 6536   0.099   0.970  15.607 -0.7473 -0.5811  0.2511
  435MPD2    C3 6537   0.209   0.896  15.576  0.0074 -1.0006 -0.0747
  435MPD2    C4 6538   0.252   0.896  15.442  0.5547  0.1180 -0.3561
  435MPD2    C5 6539   0.189   0.959  15.345 -0.1247 -0.4854 -0.3993
  435MPD2     H 6540   0.060   0.983  15.708  1.4832 -0.3202  1.0932
  435MPD2    H1 6541   0.337   0.837  15.408  2.0659  1.1800  1.5971
  435MPD2    H2 6542   0.024   1.084  15.296  1.2758  0.6075 -0.4355
  435MPD2    H3 6543   0.226   0.960  15.244  0.3315 -0.7524 -0.2363
  435MPD2     N 6544   0.289   0.828  15.679 -0.1483  0.1410 -0.0968
  435MPD2    H5 6545   0.240   0.831  15.768  2.3828  1.9673  1.1960
  435MPD2    N1 6546   4.644   1.097  15.547  0.0693 -0.4169  0.6662
  435MPD2    H7 6547   4.623   1.096  15.646  0.4848  1.7650  0.7876
  436TMC3    C1 6548   4.342   1.299  15.718 -0.0446 -0.1286  0.3273
  436TMC3    C2 6549   4.453   1.242  15.664 -0.3936 -0.2749 -0.0107
  436TMC3    C3 6550   4.438   1.212  15.526  0.5900  0.2965 -0.0938
  436TMC3    C4 6551   4.233   1.319  15.643  0.3500  0.4583  0.3813
  436TMC3    C5 6552   4.221   1.283  15.509 -0.6457 -0.8095 -0.0173
  436TMC3    C6 6553   4.326   1.228  15.449  0.3299 -0.0579 -0.3842
  436TMC3     C 6554   4.323   1.278  15.861  0.1422 -0.2667 -0.2186
  436TMC3     O 6555   4.391   1.192  15.917 -0.6729  0.3443  0.0897
  436TMC3     H 6556   4.545   1.250  15.722 -0.9221  1.1315  0.6375
  436TMC3    H1 6557   4.145   1.357  15.693  1.5674  1.9133  1.4290
  436TMC3    H2 6558   4.322   1.185  15.349 -2.2168  0.4969 -0.5176
  436TMC3    C7 6559   4.091   1.215  15.476  0.0429  0.2296 -0.1204
  436TMC3    C8 6560   4.553   1.157  15.463  0.0175 -0.1931  0.0647
  436TMC3    O1 6561   4.024   1.179  15.572  0.0411 -0.1935  0.5269
  436TMC3    O2 6562   4.548   1.149  15.340 -0.1837  1.3502 -0.1042
  437TMC3    C1 6563   2.850   3.065  12.739 -0.0894  0.1627 -0.1452
  437TMC3    C2 6564   2.716   3.071  12.756  0.5172  0.4954  0.2439
  437TMC3    C3 6565   2.652   3.093  12.637  0.4484 -0.6544  0.1138
  437TMC3    C4 6566   2.920   3.073  12.621 -0.5647  0.4606  0.3327
  437TMC3    C5 6567   2.849   3.096  12.510 -0.0409  0.9741 -0.3009
  437TMC3    C6 6568   2.716   3.101  12.520 -0.2102 -0.3761 -0.3067
  437TMC3     C 6569   2.934   3.040  12.853 -0.7368  0.2532 -0.0495
  437TMC3     O 6570   2.909   2.944  12.926  0.4086 -0.2962  0.2783
  437TMC3     H 6571   2.669   3.064  12.853  0.9387 -2.5201  0.2363
  437TMC3    H1 6572   3.024   3.041  12.617 -0.0045  2.2004  0.9860
  437TMC3    H2 6573   2.658   3.119  12.430 -0.2276 -0.1858 -0.2578
  437TMC3    C7 6574   2.921   3.113  12.384 -0.0347  1.6237 -0.0607
  437TMC3    C8 6575   2.517   3.134  12.638  0.6656 -0.7050  0.7221
  437TMC3    O1 6576   2.857   3.071  12.291 -0.6540 -0.2699 -0.2067
  437TMC3    O2 6577   2.453   3.102  12.542 -0.2605 -0.4867  0.0382
  438MPD2     C 6578   1.087   3.808  16.665 -0.1238 -0.0320 -0.8428
  438MPD2    C1 6579   1.176   3.706  16.666 -0.6175  0.3592 -0.5398
  438MPD2    C2 6580   1.138   3.593  16.729 -0.5624  0.0720 -0.0111
  438MPD2    C3 6581   1.016   3.581  16.795 -0.4522  0.2483 -0.1350
  438MPD2    C4 6582   0.932   3.688  16.796 -0.4420 -0.5785  0.1963
  438MPD2    C5 6583   0.972   3.808  16.737 -0.5596 -0.0802  0.8175
  438MPD2     H 6584   1.209   3.511  16.719  1.0893  1.4990 -0.1087
  438MPD2    H1 6585   0.827   3.674  16.823 -0.1023  0.1142  1.8902
  438MPD2    H2 6586   1.108   3.902  16.614 -1.7013 -0.0168 -1.4507
  438MPD2    H3 6587   0.904   3.890  16.715  0.1780  0.4420  0.4817
  438MPD2     N 6588   0.975   3.457  16.851 -0.2973 -1.2132  0.6044
  438MPD2    H5 6589   0.890   3.462  16.906 -0.7372 -0.5822 -0.1275
  438MPD2    N1 6590   1.304   3.705  16.604  0.7322 -0.1260 -0.1998
  438MPD2    H7 6591   1.374   3.638  16.634  1.6500  0.3080 -1.3882
  439TMC3    C1 6592   1.473   3.792  16.463 -0.0200  0.2734 -0.2018
  439TMC3    C2 6593   1.478   3.754  16.336  0.1169  0.0736 -0.3920
  439TMC3    C3 6594   1.586   3.674  16.298 -0.3657  0.8803  0.4344
  439TMC3    C4 6595   1.566   3.739  16.547 -0.1819  0.8194 -0.4624
  439TMC3    C5 6596   1.669   3.653  16.506  0.4561 -0.7134  0.0782
  439TMC3    C6 6597   1.681   3.619  16.379  0.0583 -0.6153 -0.3932
  439TMC3     C 6598   1.333   3.795  16.506 -0.2095  0.3330 -0.0058
  439TMC3     O 6599   1.258   3.874  16.445  0.5354  0.2026 -0.1264
  439TMC3     H 6600   1.388   3.768  16.277 -1.8239  0.0598  2.5392
  439TMC3    H1 6601   1.561   3.764  16.652 -1.6140 -0.2735 -0.2746
  439TMC3    H2 6602   1.753   3.548  16.340 -1.1158 -1.1972 -1.5028
  439TMC3    C7 6603   1.764   3.605  16.604  0.2852  0.6149  0.4204
  439TMC3    C8 6604   1.580   3.603  16.169  0.3115  0.4960 -0.1304
  439TMC3    O1 6605   1.729   3.635  16.722 -0.2495 -0.2606  0.3368
  439TMC3    O2 6606   1.653   3.505  16.158 -0.3505 -0.0221  0.1446
  440MPD2     C 6607   4.698   4.136  14.468  0.2198 -0.3617  0.6459
  440MPD2    C1 6608   4.675   4.216  14.579 -0.2519  0.8963  0.0337
  440MPD2    C2 6609   0.001   4.176  14.695 -0.1340  0.6541 -1.2806
  440MPD2    C3 6610   0.075   4.056  14.709 -0.0490  0.1740  0.1734
  440MPD2    C4 6611   0.084   3.971  14.602 -0.1008 -0.1504  0.1908
  440MPD2    C5 6612   0.027   4.015  14.482  0.7491  0.4527 -0.5791
  440MPD2     H 6613   4.725   4.232  14.787  1.1858 -0.7567 -0.2513
  440MPD2    H1 6614   0.137   3.877  14.604 -1.0200 -0.6458  1.2285
  440MPD2    H2 6615   4.658   4.151  14.368  0.6093 -0.4844  0.4671
  440MPD2    H3 6616   0.040   3.961  14.389  0.3185  1.7566 -1.3929
  440MPD2     N 6617   0.138   4.018  14.832 -0.1072  0.1734 -0.4717
  440MPD2    H5 6618   0.148   3.917  14.840 -0.8721  0.2634  1.6627
  440MPD2    N1 6619   4.603   4.336  14.585 -0.3770  0.0371  0.3747
  440MPD2    H7 6620   4.587   4.375  14.677  1.3085  0.4848  0.4747
  441TMC3    C1 6621   0.272   4.064  15.030 -0.2020 -0.2720 -0.3423
  441TMC3    C2 6622   0.357   4.158  15.087  0.4573  0.1862 -0.4461
  441TMC3    C3 6623   0.392   4.157  15.217 -0.8007 -0.4909  0.1633
  441TMC3    C4 6624   0.217   3.968  15.110 -0.3939  0.1033  0.4701
  441TMC3    C5 6625   0.258   3.960  15.240 -0.0355 -0.4808 -0.2370
  441TMC3    C6 6626   0.345   4.058  15.297 -0.1046 -0.6531  0.9583
  441TMC3     C 6627   0.198   4.111  14.915 -0.2640 -0.0101  0.0146
  441TMC3     O 6628   0.215   4.233  14.900  0.4798  0.6068  0.1343
  441TMC3     H 6629   0.400   4.229  15.017  0.2074  0.9620  0.1987
  441TMC3    H1 6630   0.158   3.889  15.064  0.7604 -0.7513  0.4583
  441TMC3    H2 6631   0.385   4.061  15.398  1.7907 -1.7182  0.2478
  441TMC3    C7 6632   0.205   3.851  15.324 -0.3870  0.7558 -1.4812
  441TMC3    C8 6633   0.437   4.277  15.279  0.0422  0.8677  0.2509
  441TMC3    O1 6634   0.090   3.812  15.301 -0.3291  0.1677 -0.5439
  441TMC3    O2 6635   0.488   4.271  15.389  0.2293 -0.5626 -0.3575
  442MPD2     C 6636   3.092   4.533  16.875  0.2702  0.8844 -0.0858
  442MPD2    C1 6637   3.017   4.582  16.777 -0.2124  0.5778 -0.8296
  442MPD2    C2 6638   3.006   4.502  16.664  0.0751 -0.3194  0.3707
  442MPD2    C3 6639   3.072   4.378  16.650  0.0410 -0.4010  0.4948
  442MPD2    C4 6640   3.143   4.332  16.762  0.5663 -1.1153  0.0428
  442MPD2    C5 6641   3.156   4.408  16.874  0.0005  0.0850 -0.1844
  442MPD2     H 6642   2.948   4.538  16.579  1.0821  0.6243  0.0782
  442MPD2    H1 6643   3.205   4.245  16.746  0.7763 -0.8003 -0.8669
  442MPD2    H2 6644   3.105   4.582  16.971 -1.2286 -0.0055  0.5723
  442MPD2    H3 6645   3.216   4.359  16.950 -0.9881 -1.3660 -0.3306
  442MPD2     N 6646   3.060   4.299  16.539 -0.2981 -0.7740 -0.3169
  442MPD2    H5 6647   3.085   4.201  16.550  2.3820  0.0570  1.0727
  442MPD2    N1 6648   2.955   4.713  16.776 -0.1434 -0.3366 -0.5757
  442MPD2    H7 6649   2.915   0.001  16.686 -1.1057 -0.6931 -0.2385
  443TMC3    C1 6650   2.828   0.159  16.862 -0.7011 -0.2888 -0.3549
  443TMC3    C2 6651   2.784   0.204  16.735  0.2359 -0.0177 -0.2661
  443TMC3    C3 6652   2.672   0.276  16.721  0.1702 -0.7136 -0.2414
  443TMC3    C4 6653   2.761   0.187  16.972 -0.5047  0.2930  0.0830
  443TMC3    C5 6654   2.642   0.254  16.959  0.0448  0.4010 -0.4039
  443TMC3    C6 6655   2.587   0.299  16.832 -0.5404  0.3823 -0.5799
  443TMC3     C 6656   2.937   0.067  16.882 -0.3097 -0.0196 -0.6567
  443TMC3     O 6657   2.966   0.042  17.000 -0.9173 -0.2026 -0.6496
  443TMC3     H 6658   2.847   0.191  16.648  0.0465 -2.6696 -0.0152
  443TMC3    H1 6659   2.783   0.142  17.068  0.3477 -1.0789 -0.7573
  443TMC3    H2 6660   2.498   0.360  16.828 -1.5712 -0.8706  2.8095
  443TMC3    C7 6661   2.538   0.171  17.004  0.1866 -0.1443  0.2746
  443TMC3    C8 6662   2.596   0.264  16.594  0.0083 -0.2228 -0.4427
  443TMC3    O1 6663   2.451   0.139  16.929  0.0376  0.3366  0.5595
  443TMC3    O2 6664   2.663   0.246  16.492  0.4639 -0.2012  0.1572
  444MPD2     C 6665   3.233   4.173  17.605 -0.7403  0.0063 -0.0430
  444MPD2    C1 6666   3.139   4.081  17.555  0.6728 -0.1733  0.4211
  444MPD2    C2 6667   3.172   3.992  17.451  0.1530  0.3780  0.0398
  444MPD2    C3 6668   3.299   3.981  17.405  0.0658  0.7294 -0.7923
  444MPD2    C4 6669   3.392   4.055  17.474  0.1670  0.4961 -0.0347
  444MPD2    C5 6670   3.366   4.157  17.569  0.2161  0.1242  0.0881
  444MPD2     H 6671   3.095   3.928  17.409  0.5280  1.2600 -1.9835
  444MPD2    H1 6672   3.496   4.050  17.443 -0.2246 -2.6983 -0.7330
  444MPD2    H2 6673   3.211   4.250  17.679  0.5769 -1.6436  2.0725
  444MPD2    H3 6674   3.445   4.215  17.615  0.6548  0.1153 -0.6550
  444MPD2     N 6675   3.340   3.887  17.307 -0.0318 -0.6933  0.0133
  444MPD2    H5 6676   3.274   3.822  17.265  0.9034 -1.1438 -0.7505
  444MPD2    N1 6677   3.003   4.086  17.594  0.0703 -0.3812  0.4714
  444MPD2    H7 6678   2.941   4.028  17.538 -0.3884 -1.2781  1.9070
  445TMC3    C1 6679   3.471   3.768  17.160  0.2510 -0.1207  0.2435
  445TMC3    C2 6680   3.358   3.695  17.120  0.5467 -0.7240  0.2760
  445TMC3    C3 6681   3.374   3.603  17.019 -0.0148 -0.4422 -0.1046
  445TMC3    C4 6682   3.589   3.755  17.090  0.0782  0.0963 -0.6082
  445TMC3    C5 6683   3.596   3.677  16.980 -0.8433 -0.7888 -0.2948
  445TMC3    C6 6684   3.485   3.593  16.944 -1.0178  0.1475  0.1975
  445TMC3     C 6685   3.469   3.867  17.257 -0.6989  0.1828 -0.1333
  445TMC3     O 6686   3.575   3.918  17.288 -0.2168  0.4008  0.1502
  445TMC3     H 6687   3.265   3.712  17.172  1.4605 -0.8295  1.9312
  445TMC3    H1 6688   3.673   3.820  17.114 -0.8833  1.5910 -1.2693
  445TMC3    H2 6689   3.491   3.526  16.859 -1.0124  1.7403 -1.0629
  445TMC3    C7 6690   3.704   3.680  16.887  0.2539 -0.2539 -1.0051
  445TMC3    C8 6691   3.280   3.505  16.981  0.2067 -0.6136  0.8346
  445TMC3    O1 6692   3.675   3.631  16.783  0.2350 -0.1236 -0.0583
  445TMC3    O2 6693   3.286   3.456  16.865 -0.0154 -0.6165 -0.2703
  446MPD2     C 6694   2.724   4.627  10.836  0.0824 -0.2810  0.1765
  446MPD2    C1 6695   2.652   0.004  10.840 -0.7112  0.2352  1.1196
  446MPD2    C2 6696   2.725   0.119  10.874 -0.0043  0.1711 -0.1112
  446MPD2    C3 6697   2.860   0.119  10.906 -1.1042 -0.1627  0.7171
  446MPD2    C4 6698   2.931   0.001  10.900 -0.7805  0.2910 -0.9512
  446MPD2    C5 6699   2.859   4.627  10.858  0.4054  0.1544 -1.1449
  446MPD2     H 6700   2.671   0.213  10.886 -1.6707 -0.9029  0.8248
  446MPD2    H1 6701   3.038   4.722  10.908 -0.8718 -0.0956 -0.4030
  446MPD2    H2 6702   2.688   4.533  10.797 -3.2081  1.1556 -0.3073
  446MPD2    H3 6703   2.918   4.536  10.857  0.6536  0.2907  1.5934
  446MPD2     N 6704   2.924   0.241  10.943 -0.1247  0.1087  0.8176
  446MPD2    H5 6705   2.871   0.325  10.921 -0.4464 -0.1877  0.4538
  446MPD2    N1 6706   2.510   0.008  10.809  0.7454 -0.2259 -0.5402
  446MPD2    H7 6707   2.472   0.094  10.769 -2.4141 -1.4241 -0.1596
  447TMC3    C1 6708   3.081   0.399  10.997  0.0601  0.1241  0.4057
  447TMC3    C2 6709   3.036   0.479  10.894 -0.1366  0.2085  0.2337
  447TMC3    C3 6710   3.086   0.603  10.891  0.4377  0.1761  0.3649
  447TMC3    C4 6711   3.180   0.434  11.072 -0.2048  0.4889  0.2284
  447TMC3    C5 6712   3.224   0.566  11.071 -0.3355  0.1601  0.4846
  447TMC3    C6 6713   3.173   0.653  10.976  0.9737  0.2454 -0.2836
  447TMC3     C 6714   3.053   0.262  10.974  0.9159 -1.0234  0.0109
  447TMC3     O 6715   3.128   0.185  11.031 -0.7820 -0.0944  0.5372
  447TMC3     H 6716   2.972   0.446  10.813  0.2536  0.3669 -0.1399
  447TMC3    H1 6717   3.235   0.361  11.130  0.0618 -0.6118 -1.4206
  447TMC3    H2 6718   3.189   0.760  10.968  1.0370  0.3064  0.6656
  447TMC3    C7 6719   3.335   0.618  11.148  0.3246  0.9040 -0.0503
  447TMC3    C8 6720   3.092   0.666  10.753 -0.0471  0.0586  0.2240
  447TMC3    O1 6721   3.348   0.740  11.149  0.0068  0.1814 -0.1176
  447TMC3    O2 6722   2.990   0.653  10.683  0.2555 -0.5254  0.0879
  448TMC3    C1 6723   1.112   0.325  16.703 -0.3083 -0.2553  0.8409
  448TMC3    C2 6724   1.024   0.218  16.689 -0.0750 -1.1122 -0.8804
  448TMC3    C3 6725   1.006   0.136  16.789  0.1947  0.6845  0.6428
  448TMC3    C4 6726   1.184   0.343  16.821 -0.0360 -0.1039 -0.5273
  448TMC3    C5 6727   1.171   0.243  16.915 -0.1789  0.1193  0.5351
  448TMC3    C6 6728   1.083   0.138  16.902 -0.5033 -0.1819 -0.1387
  448TMC3     C 6729   1.062   0.451  16.642 -0.0377 -0.5996  0.4496
  448TMC3     O 6730   0.942   0.453  16.627 -0.0429 -0.2461 -0.0755
  448TMC3     H 6731   0.977   0.207  16.592 -2.1994  2.2215 -0.2296
  448TMC3    H1 6732   1.271   0.407  16.822  1.3837 -2.0361 -1.5691
  448TMC3    H2 6733   1.062   0.079  16.991  2.0373 -1.7204 -0.5447
  448TMC3    C7 6734   1.290   0.215  16.993 -0.6699 -0.4130 -0.4382
  448TMC3    C8 6735   0.970   4.732  16.757  0.6135 -0.6751  0.0573
  448TMC3    O1 6736   1.397   0.263  16.963 -0.0905  0.0954  0.4564
  448TMC3    O2 6737   1.018   4.643  16.826  0.5891 -0.0432 -0.0972
  449MPD2     C 6738   2.452   3.012  14.011 -0.0924 -0.1033 -0.1100
  449MPD2    C1 6739   2.316   3.037  13.989 -0.1007  0.2403  0.1689
  449MPD2    C2 6740   2.235   3.048  14.097  0.0553 -0.1430  0.1119
  449MPD2    C3 6741   2.272   3.032  14.227 -0.1179  0.0130 -0.1359
  449MPD2    C4 6742   2.399   2.999  14.249 -0.7300 -0.3433 -0.4747
  449MPD2    C5 6743   2.489   2.994  14.146 -0.7153 -0.2797 -0.6159
  449MPD2     H 6744   2.137   3.092  14.080  1.5790  3.2935  0.1578
  449MPD2    H1 6745   2.441   3.012  14.349 -2.8950 -0.0803  0.3880
  449MPD2    H2 6746   2.533   3.012  13.939  0.0997 -1.6255  0.1072
  449MPD2    H3 6747   2.591   2.982  14.180 -0.8282 -0.6038 -0.3949
  449MPD2     N 6748   2.175   3.043  14.326  0.7285  0.4320  0.1778
  449MPD2    H5 6749   2.083   3.068  14.291  0.4879 -0.8093 -0.0721
  449MPD2    N1 6750   2.257   3.051  13.867  0.8638  0.0310  0.2770
  449MPD2    H7 6751   2.157   3.062  13.862  0.8094 -0.3112  0.6162
  450TMC3    C1 6752   2.253   3.139  13.652  0.7937  0.4011  0.4914
  450TMC3    C2 6753   2.300   3.260  13.608 -0.3093  1.1998  0.2794
  450TMC3    C3 6754   2.205   3.359  13.593  0.3945  0.3757  0.0183
  450TMC3    C4 6755   2.120   3.114  13.661 -0.0981  0.3314  0.6262
  450TMC3    C5 6756   2.033   3.221  13.650  0.7702 -0.3699 -0.3652
  450TMC3    C6 6757   2.071   3.341  13.606 -0.5625 -0.7239 -0.0914
  450TMC3     C 6758   2.337   3.079  13.754 -0.0520 -0.5279  0.2725
  450TMC3     O 6759   2.457   3.094  13.744  0.3248 -0.3119 -0.3078
  450TMC3     H 6760   2.404   3.292  13.613  0.1794 -0.3768  0.1069
  450TMC3    H1 6761   2.086   3.016  13.694 -1.1517 -0.5634 -3.1613
  450TMC3    H2 6762   2.002   3.424  13.608  0.9101  0.5016 -1.0491
  450TMC3    C7 6763   1.951   3.212  13.766 -0.0892  0.6815  0.0747
  450TMC3    C8 6764   2.232   3.462  13.491  0.3261 -0.8012  0.2154
  450TMC3    O1 6765   1.995   3.138  13.855 -0.1472 -0.2203 -0.1412
  450TMC3    O2 6766   2.135   3.528  13.450  0.2447  0.5125  0.2257
  451MPD2     C 6767   4.212   2.980   1.627  0.6391  0.0509  0.4222
  451MPD2    C1 6768   4.080   2.945   1.655 -0.2617  0.1849 -0.1822
  451MPD2    C2 6769   4.034   2.819   1.619  0.2701  0.6340 -0.1103
  451MPD2    C3 6770   4.119   2.734   1.547  0.0669 -0.3663 -0.3680
  451MPD2    C4 6771   4.241   2.779   1.502 -0.8621  0.5107  0.0336
  451MPD2    C5 6772   4.287   2.903   1.546 -0.0421  0.5758  0.3245
  451MPD2     H 6773   3.933   2.783   1.634  0.1872  1.6026  1.6720
  451MPD2    H1 6774   4.299   2.711   1.441  1.2076 -1.0274  3.7465
  451MPD2    H2 6775   4.251   3.076   1.656 -0.8665  0.6571  0.4574
  451MPD2    H3 6776   4.389   2.934   1.527  0.0479 -0.4689 -0.8682
  451MPD2     N 6777   4.069   2.612   1.497 -0.0124 -0.0014 -0.2196
  451MPD2    H5 6778   4.126   2.582   1.418  1.0945  1.2167  0.1217
  451MPD2    N1 6779   3.996   3.055   1.679 -0.1901  0.0108  0.0786
  451MPD2    H7 6780   4.030   3.150   1.668  1.0212 -0.4631 -0.2504
  452TMC3    C1 6781   3.920   2.431   1.462  0.9092  0.0834 -0.5667
  452TMC3    C2 6782   3.838   2.341   1.529 -1.1030  0.1636 -0.7036
  452TMC3    C3 6783   3.798   2.223   1.477 -0.3195 -0.2597  0.1188
  452TMC3    C4 6784   3.948   2.404   1.328  0.4412 -0.5029  0.1832
  452TMC3    C5 6785   3.915   2.280   1.276  0.5561  0.4293 -0.1395
  452TMC3    C6 6786   3.845   2.189   1.350 -1.1736  0.6806 -0.0081
  452TMC3     C 6787   3.953   2.551   1.530 -0.2312  0.4972 -0.0927
  452TMC3     O 6788   3.891   2.570   1.634 -0.4193  0.1011  0.0943
  452TMC3     H 6789   3.795   2.370   1.624  1.7670  0.0623  0.6310
  452TMC3    H1 6790   4.011   2.465   1.266 -1.8498  1.9376  0.2404
  452TMC3    H2 6791   3.803   2.106   1.295  0.0353  1.0387 -1.4752
  452TMC3    C7 6792   3.983   2.232   1.156 -0.3789 -0.4664  0.2013
  452TMC3    C8 6793   3.676   2.161   1.538 -0.9171  0.0838  0.1946
  452TMC3    O1 6794   4.064   2.312   1.109  0.2771 -0.3095 -0.6599
  452TMC3    O2 6795   3.612   2.220   1.622  0.4069  0.0104  0.4473
  453TMC3    C1 6796   0.149   4.103  12.430  0.2584 -0.0927  0.2025
  453TMC3    C2 6797   0.060   3.993  12.431  0.0298  0.1137 -0.4202
  453TMC3    C3 6798   4.716   3.975  12.323 -1.2480  0.1368  0.0786
  453TMC3    C4 6799   0.165   4.190  12.326 -0.1703  0.0684 -0.4982
  453TMC3    C5 6800   0.081   4.163  12.217 -0.1425  0.5891  0.1712
  453TMC3    C6 6801   4.719   4.065  12.223  0.5575 -0.5071  0.0239
  453TMC3     C 6802   0.250   4.131  12.529 -0.1498 -0.6625 -0.2689
  453TMC3     O 6803   0.294   4.246  12.532  0.1727 -0.4174 -0.5440
  453TMC3     H 6804   0.068   3.916  12.507  0.5303 -1.5751 -2.2034
  453TMC3    H1 6805   0.228   4.278  12.327 -0.5567  0.3229  0.8780
  453TMC3    H2 6806   4.656   4.045  12.136  1.4746 -0.0036 -0.7577
  453TMC3    C7 6807   0.160   4.155  12.100  0.1116  0.3543  0.2723
  453TMC3    C8 6808   4.721   3.837  12.279 -0.4910  0.5849  0.5860
  453TMC3    O1 6809   0.115   4.072  12.026 -0.0342  0.3388  0.2102
  453TMC3    O2 6810   4.712   3.748  12.363  0.1672  0.0088 -0.4371
  454MPD2     C 6811   3.833   4.152  16.132 -0.8818  0.8093  0.4268
  454MPD2    C1 6812   3.769   4.039  16.090  0.4400  0.0666 -0.2913
  454MPD2    C2 6813   3.725   3.947  16.180 -0.0806 -0.2617  0.1044
  454MPD2    C3 6814   3.737   3.979  16.316 -0.1629  0.4283 -0.5761
  454MPD2    C4 6815   3.808   4.095  16.351  0.1377  0.6908 -0.4427
  454MPD2    C5 6816   3.853   4.181  16.261  0.1974 -0.2897  0.1652
  454MPD2     H 6817   3.688   3.849  16.153  1.2362 -0.8502  0.4340
  454MPD2    H1 6818   3.810   4.126  16.455  0.3629 -0.4953 -0.0904
  454MPD2    H2 6819   3.872   4.217  16.055 -0.4854 -1.1781 -1.0504
  454MPD2    H3 6820   3.901   4.270  16.301 -0.2503  0.3145 -0.6335
  454MPD2     N 6821   3.677   3.897  16.406 -0.3027  0.2138  0.1952
  454MPD2    H5 6822   3.617   3.826  16.366  0.1998 -0.8690  1.3630
  454MPD2    N1 6823   3.746   4.003  15.956 -0.5535  0.2978  0.6576
  454MPD2    H7 6824   3.684   3.924  15.940 -1.6542  1.0414  1.2267
  455TMC3    C1 6825   3.540   3.834  16.579 -0.3110 -0.6071 -0.3949
  455TMC3    C2 6826   3.457   3.895  16.663 -0.3875  0.2783  0.3469
  455TMC3    C3 6827   3.350   3.820  16.706 -0.1031 -0.8201  0.1110
  455TMC3    C4 6828   3.524   3.712  16.536 -0.4776 -0.1526  0.1971
  455TMC3    C5 6829   3.405   3.651  16.576 -0.1972  0.0237  0.9516
  455TMC3    C6 6830   3.316   3.702  16.657  0.4781 -0.0087 -0.1472
  455TMC3     C 6831   3.654   3.918  16.539 -0.0525 -0.0401 -0.6854
  455TMC3     O 6832   3.678   4.018  16.608  0.1742  0.1463 -0.3836
  455TMC3     H 6833   3.478   3.997  16.692  0.2643 -0.0750  1.1017
  455TMC3    H1 6834   3.593   3.669  16.465 -0.0301  0.6849  0.1282
  455TMC3    H2 6835   3.230   3.645  16.690  1.2581 -2.7167 -2.7706
  455TMC3    C7 6836   3.376   3.536  16.499  0.3215  0.0809  0.3080
  455TMC3    C8 6837   3.269   3.877  16.807 -0.0392  0.1858  0.2853
  455TMC3    O1 6838   3.395   3.545  16.378  0.1339 -0.4061 -0.0500
  455TMC3    O2 6839   3.161   3.825  16.824 -0.4275 -0.1449  0.2047
  456MPD2     C 6840   1.651   4.043  15.928  0.1722 -0.4708 -0.6222
  456MPD2    C1 6841   1.709   3.966  16.028  0.1357 -0.0016  0.0941
  456MPD2    C2 6842   1.684   4.003  16.158 -0.5234 -0.1663  0.3164
  456MPD2    C3 6843   1.601   4.108  16.197 -0.0508  0.3592  0.1137
  456MPD2    C4 6844   1.555   4.183  16.092  0.1077  0.0328  0.7852
  456MPD2    C5 6845   1.582   4.153  15.962  0.5380  0.1142 -0.1351
  456MPD2     H 6846   1.738   3.955  16.239 -0.8599  1.9301  1.7758
  456MPD2    H1 6847   1.491   4.270  16.103  0.8223  0.7023 -0.3437
  456MPD2    H2 6848   1.667   4.031  15.821 -0.3113  0.1086 -0.7597
  456MPD2    H3 6849   1.534   4.213  15.885 -0.3024 -1.5002 -0.8755
  456MPD2     N 6850   1.569   4.134  16.328 -0.1478 -0.2283 -0.0787
  456MPD2    H5 6851   1.571   4.068  16.405  0.9332  0.9275  0.8953
  456MPD2    N1 6852   1.778   3.847  15.993 -0.0864 -0.2900 -0.4434
  456MPD2    H7 6853   1.785   3.829  15.893 -0.0200 -0.7233 -0.3631
  457TMC3    C1 6854   1.439   4.218  16.495  0.5185 -0.4036  0.1342
  457TMC3    C2 6855   1.302   4.220  16.487  0.5833  0.3443 -0.6656
  457TMC3    C3 6856   1.226   4.172  16.584  0.2927  0.0520 -0.3969
  457TMC3    C4 6857   1.505   4.151  16.594  0.2297 -0.5017 -0.0268
  457TMC3    C5 6858   1.429   4.123  16.706 -0.1815  0.6082  0.0362
  457TMC3    C6 6859   1.290   4.126  16.705  1.0664 -0.1704 -0.2533
  457TMC3     C 6860   1.513   4.250  16.374  0.2142 -0.5516  0.1398
  457TMC3     O 6861   1.491   4.365  16.325 -0.3752 -0.4094 -0.1010
  457TMC3     H 6862   1.260   4.273  16.403 -0.3215  0.2100 -0.2941
  457TMC3    H1 6863   1.612   4.141  16.585  0.3184 -0.9046  1.4007
  457TMC3    H2 6864   1.243   4.076  16.789 -1.4591  1.5880 -0.6259
  457TMC3    C7 6865   1.489   4.137  16.839 -0.3365 -0.3690 -0.4023
  457TMC3    C8 6866   1.114   4.256  16.606 -0.0875  0.0346 -0.0790
  457TMC3    O1 6867   1.580   4.058  16.871  0.1990 -0.0955 -0.4237
  457TMC3    O2 6868   1.095   4.295  16.723  0.2066 -0.5151  0.0680
  458MPD2     C 6869   3.372   3.151  12.151  0.2269  0.3392 -0.0568
  458MPD2    C1 6870   3.403   3.158  12.288 -0.3953  0.1251  0.4942
  458MPD2    C2 6871   3.288   3.149  12.368  0.4706  0.0400 -0.9968
  458MPD2    C3 6872   3.162   3.143  12.323 -0.0665  0.9568  0.5285
  458MPD2    C4 6873   3.134   3.130  12.192 -0.1407 -0.0877 -0.5251
  458MPD2    C5 6874   3.243   3.139  12.101 -0.3326 -0.3735 -0.2776
  458MPD2     H 6875   3.296   3.135  12.475  1.3078  0.1959 -1.0374
  458MPD2    H1 6876   3.032   3.122  12.157  0.3102 -1.8398 -1.4434
  458MPD2    H2 6877   3.449   3.158  12.074 -0.6041  2.3541 -0.6949
  458MPD2    H3 6878   3.215   3.142  11.997 -1.6488  1.1229  0.1198
  458MPD2     N 6879   3.056   3.135  12.412 -0.3085 -0.3376  0.5478
  458MPD2    H5 6880   3.074   3.149  12.511  0.0049  0.9337  0.3077
  458MPD2    N1 6881   3.533   3.174  12.335 -0.4581  1.0934  0.7138
  458MPD2    H7 6882   3.613   3.177  12.272 -1.1053 -0.7620 -0.1705
  459TMC3    C1 6883   3.720   3.159  12.491 -0.0334 -0.3026 -0.5641
  459TMC3    C2 6884   3.794   3.264  12.438 -0.4455 -0.7888  0.6019
  459TMC3    C3 6885   3.905   3.313  12.509  0.0197  0.2563  0.2723
  459TMC3    C4 6886   3.759   3.097  12.603  0.3372  0.2431  1.0261
  459TMC3    C5 6887   3.860   3.156  12.680 -0.3060 -0.7414  0.1285
  459TMC3    C6 6888   3.937   3.259  12.633  0.0264  0.5233 -0.9168
  459TMC3     C 6889   3.573   3.166  12.466 -0.0755  0.2644 -0.6591
  459TMC3     O 6890   3.506   3.179  12.570 -0.0643  0.2593 -0.1729
  459TMC3     H 6891   3.761   3.313  12.347 -1.4976 -2.4339  0.1022
  459TMC3    H1 6892   3.698   3.013  12.633  0.8831 -0.0089  1.4373
  459TMC3    H2 6893   4.018   3.298  12.694 -1.5420 -0.7562  1.9933
  459TMC3    C7 6894   3.850   3.131  12.821  0.2152 -0.4242 -0.1141
  459TMC3    C8 6895   3.980   3.420  12.449  0.4460 -0.0622  0.1098
  459TMC3    O1 6896   3.783   3.032  12.849 -0.3262 -0.1893  0.2685
  459TMC3    O2 6897   3.941   3.479  12.351 -0.4505  0.4250 -0.1873
  460MPD2     C 6898   3.405   0.755  10.570 -0.2689  1.0511 -0.2573
  460MPD2    C1 6899   3.268   0.763  10.600  0.2300 -0.0038 -0.2935
  460MPD2    C2 6900   3.183   0.834  10.508 -0.5187  0.5982  0.0050
  460MPD2    C3 6901   3.242   0.899  10.394 -0.1413 -0.5400 -0.6235
  460MPD2    C4 6902   3.375   0.875  10.368  0.1208  0.6120  0.6424
  460MPD2    C5 6903   3.458   0.813  10.455 -0.0048  0.0240  0.1364
  460MPD2     H 6904   3.081   0.858  10.534 -0.7681 -1.1051  0.6076
  460MPD2    H1 6905   3.426   0.906  10.277 -1.9397 -2.8831 -1.7061
  460MPD2    H2 6906   3.481   0.714  10.636 -0.3011 -0.3352 -1.0788
  460MPD2    H3 6907   3.564   0.826  10.440 -0.0042  0.2948  0.3884
  460MPD2     N 6908   3.155   0.968  10.309  0.2927 -0.0758  0.3428
  460MPD2    H5 6909   3.055   0.950  10.315  0.0210  0.6369 -1.9203
  460MPD2    N1 6910   3.220   0.707  10.724  0.0249 -0.5798 -0.0571
  460MPD2    H7 6911   3.284   0.681  10.798  0.2788  0.7811  0.2008
  461TMC3    C1 6912   3.073   1.079  10.115  0.6419 -0.3614 -0.1777
  461TMC3    C2 6913   2.976   0.981  10.095 -1.2640  0.3749 -0.0539
  461TMC3    C3 6914   2.867   1.030  10.026 -0.1465 -0.3231 -0.3421
  461TMC3    C4 6915   3.069   1.203  10.063 -0.1725 -0.6022  0.1332
  461TMC3    C5 6916   2.956   1.249  10.002 -0.5960  0.2559  0.1342
  461TMC3    C6 6917   2.854   1.158   9.974 -0.0487 -0.2202  0.6572
  461TMC3     C 6918   3.191   1.040  10.197 -0.3593  1.0011  0.6846
  461TMC3     O 6919   3.301   1.076  10.158 -0.2334 -0.3773 -0.3784
  461TMC3     H 6920   2.959   0.895  10.159 -0.1775  0.1998 -0.0068
  461TMC3    H1 6921   3.163   1.259  10.064 -2.3088  3.0562 -2.6717
  461TMC3    H2 6922   2.768   1.190   9.917  0.2690 -1.4905 -0.5717
  461TMC3    C7 6923   2.951   1.383   9.944  0.3165 -0.0367  0.6298
  461TMC3    C8 6924   2.791   0.918   9.973  0.1850 -0.1410 -0.0034
  461TMC3    O1 6925   2.855   1.417   9.875 -0.0624  0.0871  0.0554
  461TMC3    O2 6926   2.846   0.811   9.959 -0.1152 -0.5568  0.0535
  462TMC3    C1 6927   3.569   1.805   0.481 -0.4543  0.8292  0.2558
  462TMC3    C2 6928   3.650   1.700   0.452 -0.6126 -0.1179  0.0540
  462TMC3    C3 6929   3.621   1.638   0.339  0.2914  0.0279  0.6333
  462TMC3    C4 6930   3.452   1.833   0.421  0.3000 -0.1927 -0.1243
  462TMC3    C5 6931   3.423   1.764   0.308  0.6388  1.0693 -0.0544
  462TMC3    C6 6932   3.518   1.680   0.262  0.1817  0.1432  0.0109
  462TMC3     C 6933   3.573   1.847   0.618  0.2068  0.4084  0.3392
  462TMC3     O 6934   3.612   1.767   0.703  0.1081  0.2133 -0.1007
  462TMC3     H 6935   3.725   1.667   0.523 -1.1882 -1.1963  0.1562
  462TMC3    H1 6936   3.388   1.908   0.465 -0.6283  0.3992 -2.4620
  462TMC3    H2 6937   3.480   1.623   0.179  1.7969 -1.7807  0.5807
  462TMC3    C7 6938   3.298   1.779   0.239 -0.1520 -0.5033  0.0455
  462TMC3    C8 6939   3.716   1.540   0.300 -0.2952  0.1227 -0.0037
  462TMC3    O1 6940   3.256   1.679   0.177  0.1313  0.2569 -0.5232
  462TMC3    O2 6941   3.819   1.526   0.368 -0.2394  0.0139  0.7648
  463MPD2     C 6942   3.225   1.420   1.591 -0.4147 -0.4175 -0.5681
  463MPD2    C1 6943   3.306   1.374   1.491  0.1781 -0.3445  0.7438
  463MPD2    C2 6944   3.442   1.391   1.510 -0.0676 -0.2701  0.0798
  463MPD2    C3 6945   3.502   1.454   1.616  0.2411 -0.2260 -0.0418
  463MPD2    C4 6946   3.419   1.479   1.723  0.6756  0.5097  0.1806
  463MPD2    C5 6947   3.283   1.466   1.707  0.1011 -0.2382 -0.3773
  463MPD2     H 6948   3.498   1.362   1.422 -0.8176 -0.8831 -0.1950
  463MPD2    H1 6949   3.446   1.527   1.817  2.8415  1.0509 -0.7221
  463MPD2    H2 6950   3.118   1.406   1.590 -0.4036 -0.5743  0.0300
  463MPD2    H3 6951   3.213   1.510   1.776 -1.0646  1.2582 -2.4959
  463MPD2     N 6952   3.642   1.483   1.627 -0.5426  0.9639 -0.0065
  463MPD2    H5 6953   3.672   1.546   1.700  2.5232  0.1037 -0.5208
  463MPD2    N1 6954   3.259   1.301   1.382 -0.3532 -0.2790 -0.1436
  463MPD2    H7 6955   3.323   1.253   1.319  2.6363 -1.0423  3.5338
  464TMC3    C1 6956   3.113   1.152   1.283 -0.2347 -0.0665 -0.0815
  464TMC3    C2 6957   2.994   1.125   1.226  0.1834  0.6989  0.6716
  464TMC3    C3 6958   2.972   0.999   1.173 -0.1401 -0.1397 -0.2584
  464TMC3    C4 6959   3.210   1.061   1.299  0.3351  0.3261  0.2132
  464TMC3    C5 6960   3.191   0.944   1.237  0.1107  0.7686  0.1294
  464TMC3    C6 6961   3.074   0.908   1.177 -0.0572  0.4684  0.2119
  464TMC3     C 6962   3.127   1.278   1.350  0.0159 -0.3427 -0.3063
  464TMC3     O 6963   3.024   1.342   1.384 -0.1543  0.0402 -0.1115
  464TMC3     H 6964   2.927   1.210   1.221  1.2742  1.5099 -0.2181
  464TMC3    H1 6965   3.299   1.070   1.359  1.1602 -3.3017 -0.4729
  464TMC3    H2 6966   3.069   0.814   1.125  1.9161  0.7524 -0.4876
  464TMC3    C7 6967   3.301   0.845   1.246 -0.5213 -0.9187  0.3168
  464TMC3    C8 6968   2.861   0.977   1.082  0.0295  0.8371  0.1619
  464TMC3    O1 6969   3.416   0.885   1.223 -0.2007  0.1526 -0.4153
  464TMC3    O2 6970   2.863   0.871   1.018 -0.0509 -0.6612 -0.7556
  465MPD2     C 6971   0.631   3.494  16.669  0.0556  0.3884  0.6114
  465MPD2    C1 6972   0.567   3.561  16.770  0.1353 -0.0965  0.1273
  465MPD2    C2 6973   0.511   3.682  16.742  0.3962 -0.3191  0.3061
  465MPD2    C3 6974   0.503   3.719  16.609 -0.0127  0.6869 -0.1791
  465MPD2    C4 6975   0.562   3.653  16.511  0.2277 -0.2623  0.0059
  465MPD2    C5 6976   0.632   3.541  16.540  0.3162 -0.2217 -0.4015
  465MPD2     H 6977   0.465   3.742  16.819 -0.2892 -0.2927 -0.1291
  465MPD2    H1 6978   0.564   3.683  16.407 -1.3498 -1.7092 -0.4483
  465MPD2    H2 6979   0.702   3.416  16.697  0.7104  0.4035 -1.0352
  465MPD2    H3 6980   0.698   3.497  16.467 -2.2195 -0.4624 -2.5636
  465MPD2     N 6981   0.420   3.829  16.583  0.2315  0.1315  0.2429
  465MPD2    H5 6982   0.348   3.849  16.652  0.0316  0.5626 -0.0923
  465MPD2    N1 6983   0.558   3.510  16.898  0.0654 -0.3807  0.2221
  465MPD2    H7 6984   0.528   3.575  16.970 -1.8994 -1.7108  0.6160
  466TMC3    C1 6985   0.060   3.969  16.546  0.4936 -0.3690  0.4788
  466TMC3    C2 6986   0.056   4.095  16.494 -0.2172 -0.3503  0.4496
  466TMC3    C3 6987   0.153   4.143  16.416 -0.0572 -0.6278 -0.0151
  466TMC3    C4 6988   0.171   3.897  16.530 -0.1052 -0.0696  0.1084
  466TMC3    C5 6989   0.274   3.951  16.454  0.8315  0.1976  0.3926
  466TMC3    C6 6990   0.263   4.065  16.385 -0.1643 -0.2342  0.5443
  466TMC3     C 6991   4.706   3.946  16.656  0.4851  0.0516  0.0198
  466TMC3     O 6992   4.648   4.041  16.714 -0.0325  0.4054  0.2417
  466TMC3     H 6993   4.703   4.158  16.504 -0.0669  0.4758 -3.5589
  466TMC3    H1 6994   0.179   3.804  16.585  1.5162 -0.4532 -0.7841
  466TMC3    H2 6995   0.349   4.095  16.326  1.2345 -1.7627  1.8264
  466TMC3    C7 6996   0.399   3.885  16.456 -0.1003 -0.0236 -0.5952
  466TMC3    C8 6997   0.139   4.276  16.375 -0.1169 -0.2541 -0.4796
  466TMC3    O1 6998   0.477   3.902  16.360  0.4945 -0.2802 -0.4225
  466TMC3    O2 6999   0.192   4.311  16.269 -0.1807  0.0535 -0.3654
  467TMC3    C1 7000   1.236   2.847  13.801  0.0187  0.2011  1.0942
  467TMC3    C2 7001   1.275   2.949  13.714 -0.3088 -0.0878  0.7877
  467TMC3    C3 7002   1.221   2.945  13.589  0.2547 -0.0508 -0.1399
  467TMC3    C4 7003   1.132   2.767  13.772 -0.1674 -0.0800  0.0606
  467TMC3    C5 7004   1.075   2.774  13.650 -0.7703 -0.2172 -0.0250
  467TMC3    C6 7005   1.120   2.863  13.549  0.3559  0.4356 -0.2269
  467TMC3     C 7006   1.350   2.776  13.848 -0.0774  0.4292  0.1181
  467TMC3     O 7007   1.433   2.841  13.911 -0.5321  0.0370  0.0149
  467TMC3     H 7008   1.357   3.016  13.737  0.0936  0.0579 -1.0854
  467TMC3    H1 7009   1.100   2.687  13.839  2.9554 -0.9006  0.5737
  467TMC3    H2 7010   1.077   2.867  13.450 -0.0304  0.4721 -0.0572
  467TMC3    C7 7011   0.958   2.696  13.619  0.5808  0.5635 -0.4322
  467TMC3    C8 7012   1.307   3.005  13.492  0.1077  0.3854 -0.0554
  467TMC3    O1 7013   0.954   2.653  13.505  0.5893  0.3855  0.2202
  467TMC3    O2 7014   1.361   3.111  13.525  0.1136  0.2485  0.3063
  468MPD2     C 7015   4.566   0.884  11.232  0.3454  0.0828 -0.3487
  468MPD2    C1 7016   4.696   0.866  11.193 -0.3337 -0.1611  0.2375
  468MPD2    C2 7017   0.004   0.747  11.146  0.4935 -0.6519  0.2601
  468MPD2    C3 7018   4.662   0.631  11.169  0.6601 -0.5452  0.6383
  468MPD2    C4 7019   4.532   0.654  11.204 -0.1573  0.2720  0.1486
  468MPD2    C5 7020   4.488   0.776  11.246 -0.2829  0.8274 -0.6781
  468MPD2     H 7021   0.109   0.743  11.118  1.1467 -3.3082  3.0449
  468MPD2    H1 7022   4.462   0.571  11.197 -1.4724  1.3518  0.5687
  468MPD2    H2 7023   4.518   0.978  11.256  0.7169 -0.2113  1.6004
  468MPD2    H3 7024   4.384   0.788  11.276 -0.1944 -0.6849  0.2093
  468MPD2     N 7025   4.705   0.491  11.151  0.0086 -0.1408  0.2570
  468MPD2    H5 7026   4.639   0.417  11.175  1.0685 -0.9100  0.8142
  468MPD2    N1 7027   0.061   0.962  11.192 -0.2650 -0.1757  0.1120
  468MPD2    H7 7028   0.142   0.942  11.134 -0.1588 -0.5104  0.3783
  469TMC3    C1 7029   0.187   1.145  11.270  0.4163  0.0054  0.5440
  469TMC3    C2 7030   0.286   1.124  11.174  0.3259  0.0313  0.1287
  469TMC3    C3 7031   0.402   1.189  11.180 -0.7515 -0.1720  0.1062
  469TMC3    C4 7032   0.203   1.234  11.374 -0.2213 -0.3462 -0.6224
  469TMC3    C5 7033   0.326   1.294  11.377 -0.4866  0.1964  0.4247
  469TMC3    C6 7034   0.431   1.267  11.290 -0.6359 -0.1210  0.9845
  469TMC3     C 7035   0.060   1.072  11.272 -0.2554 -0.3988 -0.1213
  469TMC3     O 7036   4.713   1.102  11.357 -0.6655 -0.1096  0.6689
  469TMC3     H 7037   0.272   1.050  11.096  0.1262  0.1182  0.0814
  469TMC3    H1 7038   0.131   1.282  11.440  1.1070  0.1211  0.4857
  469TMC3    H2 7039   0.523   1.324  11.295  0.6707 -2.0365 -1.2909
  469TMC3    C7 7040   0.320   1.431  11.427 -0.1937 -0.3157  0.6599
  469TMC3    C8 7041   0.515   1.117  11.109  0.1399 -0.4533 -0.2126
  469TMC3    O1 7042   0.343   1.526  11.350 -0.0729 -0.7136  0.5150
  469TMC3    O2 7043   0.494   1.066  11.001 -0.2150 -0.2282  0.0980
  470TMC3    C1 7044   2.490   2.027   1.250 -0.0568  0.2962 -0.3473
  470TMC3    C2 7045   2.596   2.099   1.308 -0.3412 -0.6110  0.3153
  470TMC3    C3 7046   2.575   2.169   1.421 -0.0715  0.1593 -0.0753
  470TMC3    C4 7047   2.364   2.045   1.299 -0.1614 -0.2946  0.2859
  470TMC3    C5 7048   2.350   2.112   1.419 -0.2275  0.5916  0.0733
  470TMC3    C6 7049   2.450   2.188   1.477 -0.0595 -0.1885  0.1291
  470TMC3     C 7050   2.515   1.977   1.121  0.1404 -0.2365  0.0811
  470TMC3     O 7051   2.631   1.977   1.084 -0.5830  0.2928  0.0995
  470TMC3     H 7052   2.691   2.111   1.257  0.0354  2.4216  1.7520
  470TMC3    H1 7053   2.285   1.988   1.251  0.4163 -0.8868  0.0393
  470TMC3    H2 7054   2.446   2.222   1.580  0.3631 -0.3175  0.1875
  470TMC3    C7 7055   2.215   2.140   1.468 -0.3153 -0.4644 -0.0567
  470TMC3    C8 7056   2.660   2.282   1.454 -0.1021  0.4621  0.1606
  470TMC3    O1 7057   2.134   2.084   1.393  0.0641 -0.1664 -0.3351
  470TMC3    O2 7058   2.617   2.364   1.536  0.4750  0.6869 -0.2071
  471MPD2     C 7059   2.085   2.584  16.803 -0.6104  0.2879  0.0613
  471MPD2    C1 7060   2.140   2.696  16.750 -0.5822  0.1326  0.1302
  471MPD2    C2 7061   2.236   2.764  16.824  0.4646 -0.7207 -0.1764
  471MPD2    C3 7062   2.268   2.727  16.956  0.8987  0.3451 -0.5547
  471MPD2    C4 7063   2.202   2.617  17.013  0.1178  0.3484  0.1486
  471MPD2    C5 7064   2.107   2.555  16.939  0.2903 -0.3538  0.5403
  471MPD2     H 7065   2.269   2.855  16.775 -0.3123 -1.2491 -1.6994
  471MPD2    H1 7066   2.232   2.575  17.109  4.3521 -0.0967 -1.3574
  471MPD2    H2 7067   2.013   2.522  16.751  0.2138  0.2705 -1.0427
  471MPD2    H3 7068   2.068   2.464  16.981  0.7037 -0.2528  1.1415
  471MPD2     N 7069   2.370   2.800  17.020  0.1457  0.0370  0.2878
  471MPD2    H5 7070   2.397   2.789  17.117 -0.8913 -1.3918  0.4126
  471MPD2    N1 7071   2.119   2.729  16.612 -0.0861  0.0579  0.0040
  471MPD2    H7 7072   2.180   2.798  16.568  0.1018  1.8936  3.1126
  472TMC3    C1 7073   2.093   2.678  16.383  1.0349  0.5326 -0.1112
  472TMC3    C2 7074   2.022   2.625  16.283  0.0066  0.9519 -0.0313
  472TMC3    C3 7075   2.088   2.567  16.172  0.1732  0.2623 -0.1383
  472TMC3    C4 7076   2.229   2.679  16.377 -0.2532 -0.1772  0.1572
  472TMC3    C5 7077   2.293   2.617  16.279  1.5243 -0.2475 -1.2078
  472TMC3    C6 7078   2.224   2.570  16.171 -0.6073 -0.2287 -0.6856
  472TMC3     C 7079   2.039   2.663  16.520 -0.7720  0.6938  0.0798
  472TMC3     O 7080   1.938   2.592  16.536  0.3044  0.1286  0.5841
  472TMC3     H 7081   1.915   2.608  16.297 -0.4907  1.0592 -3.6068
  472TMC3    H1 7082   2.289   2.714  16.460  0.0065 -1.7611  0.6234
  472TMC3    H2 7083   2.280   2.532  16.087  2.1952 -0.8142  1.4309
  472TMC3    C7 7084   2.382   2.517  16.334  0.7077 -0.2074 -0.9973
  472TMC3    C8 7085   2.036   2.441  16.125  0.2792 -0.3759 -0.1129
  472TMC3    O1 7086   2.408   2.527  16.455 -0.0959 -0.2387 -0.4181
  472TMC3    O2 7087   2.120   2.363  16.081  0.5263  0.3715 -0.2469
  473MPD2     C 7088   2.598   4.663  13.922 -0.4808 -0.8468  0.5084
  473MPD2    C1 7089   2.625   0.057  13.872  0.2352  0.2544  0.0582
  473MPD2    C2 7090   2.633   0.158  13.957  0.6649 -0.6464  0.0733
  473MPD2    C3 7091   2.622   0.141  14.099 -0.3305  0.3135  0.0084
  473MPD2    C4 7092   2.578   0.020  14.140 -0.2593  0.4545 -0.0756
  473MPD2    C5 7093   2.564   4.651  14.050  0.6527  0.7878 -0.5384
  473MPD2     H 7094   2.670   0.249  13.911 -0.6421  0.1351  0.5605
  473MPD2    H1 7095   2.572   4.732  14.246  1.5474  0.9186  0.1160
  473MPD2    H2 7096   2.589   4.568  13.870  1.1623 -0.6646 -0.0884
  473MPD2    H3 7097   2.522   4.554  14.075  0.4352  1.2195  0.7934
  473MPD2     N 7098   2.642   0.247  14.194 -0.3491  0.6799 -0.0280
  473MPD2    H5 7099   2.620   0.222  14.290 -1.1253  2.6919  0.3170
  473MPD2    N1 7100   2.641   0.083  13.736 -0.6113 -0.1730  0.3516
  473MPD2    H7 7101   2.677   0.173  13.708  0.7260 -0.1391  2.1967
  474TMC3    C1 7102   2.689   0.463  14.282 -0.8269  0.4033  0.4971
  474TMC3    C2 7103   2.676   0.593  14.245 -0.0297  0.2904 -0.5620
  474TMC3    C3 7104   2.685   0.686  14.344  0.8190 -0.3257 -0.1313
  474TMC3    C4 7105   2.710   0.416  14.407 -0.8939  0.2131 -0.2242
  474TMC3    C5 7106   2.721   0.509  14.504 -0.0047  0.7184  0.0783
  474TMC3    C6 7107   2.703   0.645  14.480  0.1695 -0.0658 -0.3579
  474TMC3     C 7108   2.698   0.372  14.170 -0.3866  0.3175  0.1698
  474TMC3     O 7109   2.740   0.423  14.068 -0.3821  0.5721 -0.2892
  474TMC3     H 7110   2.659   0.620  14.142 -0.5338  0.2631 -0.4883
  474TMC3    H1 7111   2.709   0.312  14.439 -1.5432  0.5375  0.8073
  474TMC3    H2 7112   2.699   0.724  14.554 -0.3520 -0.5785  0.1544
  474TMC3    C7 7113   2.698   0.465  14.641  0.4130  0.3184  0.2898
  474TMC3    C8 7114   2.657   0.833  14.316 -0.3168 -0.1996  0.1170
  474TMC3    O1 7115   2.641   0.359  14.656 -0.3525  0.3538 -0.2147
  474TMC3    O2 7116   2.683   0.904  14.413 -0.0983  0.3710  0.1185
  475MPD2     C 7117   0.793   3.134  10.683  0.2204  0.1721 -0.2595
  475MPD2    C1 7118   0.805   3.272  10.706  0.6691  0.1614 -0.4452
  475MPD2    C2 7119   0.696   3.347  10.746 -0.0490  0.8196 -0.4277
  475MPD2    C3 7120   0.573   3.292  10.759  0.3770  0.2155  0.3488
  475MPD2    C4 7121   0.560   3.161  10.721 -0.0171 -0.1063  0.1190
  475MPD2    C5 7122   0.671   3.088  10.679  0.2745 -0.3812  0.1724
  475MPD2     H 7123   0.711   3.452  10.770 -2.4326  0.8548  0.8714
  475MPD2    H1 7124   0.464   3.110  10.730 -0.9539  2.0092  2.1531
  475MPD2    H2 7125   0.872   3.070  10.645 -1.0024 -1.1762 -0.5505
  475MPD2    H3 7126   0.642   2.988  10.649 -0.4681 -0.1872  0.2464
  475MPD2     N 7127   0.475   3.383  10.787 -0.3090 -0.4800 -0.1923
  475MPD2    H5 7128   0.502   3.480  10.791 -1.2000 -0.1850 -1.2623
  475MPD2    N1 7129   0.930   3.338  10.689 -0.9117  0.4380 -0.8678
  475MPD2    H7 7130   0.940   3.438  10.703 -1.1055  0.2338  0.7453
  476TMC3    C1 7131   1.148   3.383  10.659 -1.0457  0.2499 -0.4066
  476TMC3    C2 7132   1.248   3.361  10.563  0.4280 -0.3655  0.2268
  476TMC3    C3 7133   1.366   3.428  10.590 -0.9123 -0.6212 -0.0345
  476TMC3    C4 7134   1.148   3.473  10.753  0.1012 -0.1089 -0.2239
  476TMC3    C5 7135   1.273   3.545  10.773  0.0442  0.3072  0.3176
  476TMC3    C6 7136   1.382   3.518  10.690 -0.5333  0.7040 -0.2210
  476TMC3     C 7137   1.045   3.282  10.652 -0.5424 -0.0141 -0.1479
  476TMC3     O 7138   1.070   3.176  10.593 -0.0970  0.2930  0.4138
  476TMC3     H 7139   1.223   3.294  10.481 -2.2276  1.2566 -0.2864
  476TMC3    H1 7140   1.073   3.475  10.832 -1.5202 -0.9042 -1.7641
  476TMC3    H2 7141   1.479   3.565  10.701  0.2140 -0.7950 -0.4353
  476TMC3    C7 7142   1.311   3.608  10.901  0.3743 -0.2016 -0.2300
  476TMC3    C8 7143   1.462   3.429  10.484  0.3042  0.9028  0.0286
  476TMC3    O1 7144   1.419   3.581  10.949 -0.1474 -0.2515  0.1986
  476TMC3    O2 7145   1.531   3.525  10.470 -0.6843 -0.2109 -0.5282
  477MPD2     C 7146   3.937   4.626  11.620 -0.3939  0.1391  0.1954
  477MPD2    C1 7147   3.801   4.617  11.649  0.2502  0.3080 -0.1196
  477MPD2    C2 7148   3.755   4.563  11.767  0.1018  0.1884 -0.2053
  477MPD2    C3 7149   3.844   4.518  11.859  0.7955 -0.1235 -0.1911
  477MPD2    C4 7150   3.980   4.538  11.832 -0.3297  0.1309  0.2276
  477MPD2    C5 7151   4.026   4.592  11.715 -0.0785 -0.0334 -0.3601
  477MPD2     H 7152   3.648   4.557  11.783  0.3248 -0.6211  0.9600
  477MPD2    H1 7153   4.047   4.523  11.916 -0.4320 -2.0396 -0.0862
  477MPD2    H2 7154   3.980   4.666  11.528 -0.9252 -0.6355 -0.3878
  477MPD2    H3 7155   4.133   4.610  11.703  0.0346 -0.2813  0.2978
  477MPD2     N 7156   3.807   4.437  11.971 -0.4964  0.3720  0.3454
  477MPD2    H5 7157   3.876   4.376  12.012 -1.3089 -1.5246 -1.1139
  477MPD2    N1 7158   3.703   4.662  11.557  0.0495  0.2537  0.0950
  477MPD2    H7 7159   3.612   4.665  11.603 -0.0246  0.6189 -0.0732
  478TMC3    C1 7160   3.615   0.004  11.345 -0.3212 -0.1125 -0.4455
  478TMC3    C2 7161   3.521   0.076  11.412 -0.0304  0.3251  0.6295
  478TMC3    C3 7162   3.445   0.156  11.329  0.0229  0.0690 -0.1248
  478TMC3    C4 7163   3.619   4.707  11.213 -0.0292  0.3219 -0.1416
  478TMC3    C5 7164   3.516   0.025  11.137 -0.1706 -0.4896 -0.3747
  478TMC3    C6 7165   3.430   0.119  11.193 -0.1662 -0.2177  0.5036
  478TMC3     C 7166   3.720   4.681  11.423  0.0642 -0.2841 -0.2330
  478TMC3     O 7167   3.824   4.648  11.364  0.1322  0.3735 -0.5854
  478TMC3     H 7168   3.548   0.118  11.508 -2.0981  0.4097  1.1799
  478TMC3    H1 7169   3.706   4.657  11.171  0.2415  0.6734  0.0028
  478TMC3    H2 7170   3.349   0.173  11.146  0.8461  0.9917  0.1563
  478TMC3    C7 7171   3.491   4.690  11.012 -0.2487  0.2763 -0.7379
  478TMC3    C8 7172   3.365   0.265  11.387 -0.6050  0.2862  0.1466
  478TMC3    O1 7173   3.582   4.616  10.979 -0.6656  0.0508  0.0144
  478TMC3    O2 7174   3.248   0.259  11.349 -0.6410  0.2505  0.2989
  479MPD2     C 7175   2.400   2.206  14.814 -0.2285 -0.0435  0.6662
  479MPD2    C1 7176   2.369   2.146  14.934 -0.4792  0.5449 -1.0439
  479MPD2    C2 7177   2.444   2.171  15.048  0.4910  0.0733  0.7906
  479MPD2    C3 7178   2.531   2.280  15.051 -0.3789  0.1128 -0.6966
  479MPD2    C4 7179   2.546   2.351  14.936 -0.1202 -0.0656 -0.2920
  479MPD2    C5 7180   2.485   2.314  14.821 -0.3858  0.1264 -0.9237
  479MPD2     H 7181   2.427   2.103  15.131 -1.9089 -2.5600 -1.8536
  479MPD2    H1 7182   2.602   2.444  14.935 -1.9196  0.9962 -1.5516
  479MPD2    H2 7183   2.351   2.185  14.719 -2.8989 -1.0319  2.2515
  479MPD2    H3 7184   2.505   2.371  14.731  0.8425 -1.5622 -1.7238
  479MPD2     N 7185   2.592   2.332  15.164 -0.6374  0.5281 -0.0043
  479MPD2    H5 7186   2.666   2.398  15.143  0.8580 -1.1148  0.0806
  479MPD2    N1 7187   2.254   2.064  14.935 -0.0626 -0.6154 -0.3507
  479MPD2    H7 7188   2.214   2.057  14.843 -0.8925 -0.4887  0.0042
  480TMC3    C1 7189   2.286   2.160  15.471 -0.0487 -1.0059  0.0146
  480TMC3    C2 7190   2.174   2.204  15.406  0.3503  0.4655 -0.3458
  480TMC3    C3 7191   2.196   2.291  15.298  0.0705  0.1146 -0.4690
  480TMC3    C4 7192   2.410   2.188  15.429  0.2104 -0.3472 -0.0433
  480TMC3    C5 7193   2.426   2.285  15.335 -0.6903  0.7985 -0.1145
  480TMC3    C6 7194   2.322   2.340  15.261 -0.3926 -0.2103 -0.4579
  480TMC3     C 7195   2.275   2.050  15.572 -0.4922 -0.4329 -0.0056
  480TMC3     O 7196   2.380   1.993  15.596  0.1450 -0.2802 -0.3622
  480TMC3     H 7197   2.076   2.161  15.416 -0.3387  2.1118  0.0183
  480TMC3    H1 7198   2.496   2.155  15.487  1.6629  0.1024 -1.9571
  480TMC3    H2 7199   2.333   2.414  15.182  1.5040 -0.5152 -0.4701
  480TMC3    C7 7200   2.567   2.296  15.294  0.1609  0.0780 -0.0508
  480TMC3    C8 7201   2.088   2.306  15.202  0.4283  0.0574 -0.3110
  480TMC3    O1 7202   2.651   2.300  15.383 -0.1639  0.2076 -0.1985
  480TMC3    O2 7203   1.977   2.270  15.242  0.3537 -0.5025  0.2780
  481MPD2     C 7204   4.177   1.916  14.630  0.0030  0.5259 -0.0253
  481MPD2    C1 7205   4.065   1.840  14.656 -0.1276  0.3928 -0.6618
  481MPD2    C2 7206   4.026   1.821  14.785  0.6765  0.0223 -0.0642
  481MPD2    C3 7207   4.080   1.895  14.890 -0.0565  0.1343  0.1849
  481MPD2    C4 7208   4.190   1.978  14.862  0.0643  0.5538  0.6318
  481MPD2    C5 7209   4.236   1.990  14.730 -0.0389  0.5574 -0.0083
  481MPD2     H 7210   3.935   1.765  14.801  0.2150  0.5343 -0.8869
  481MPD2    H1 7211   4.232   2.042  14.939 -1.4336  2.8228 -0.4261
  481MPD2    H2 7212   4.227   1.926  14.534 -1.4056  0.2896 -0.7955
  481MPD2    H3 7213   4.315   2.060  14.704  0.0344  0.9800  1.3499
  481MPD2     N 7214   4.026   1.891  15.020 -0.1321 -0.3369 -0.0791
  481MPD2    H5 7215   4.050   1.968  15.082 -3.4271  0.6605 -0.0214
  481MPD2    N1 7216   4.013   1.777  14.540 -0.4912 -0.0731 -0.3582
  481MPD2    H7 7217   4.064   1.799  14.455  0.1094  1.5526  0.4217
  482TMC3    C1 7218   3.871   1.636  14.400 -0.5321 -1.1673  0.4512
  482TMC3    C2 7219   3.773   1.544  14.406  0.0667  0.3103 -0.3044
  482TMC3    C3 7220   3.689   1.537  14.301  0.1447 -0.1494  0.2774
  482TMC3    C4 7221   3.879   1.727  14.296  0.0580 -0.1568 -0.0431
  482TMC3    C5 7222   3.781   1.731  14.200  0.0358 -0.8388  0.0733
  482TMC3    C6 7223   3.684   1.630  14.194 -0.2607  0.3331  0.4241
  482TMC3     C 7224   3.918   1.674  14.539  0.5893  0.3452 -0.1732
  482TMC3     O 7225   3.857   1.619  14.632 -0.0374  0.2413  0.1451
  482TMC3     H 7226   3.750   1.494  14.499 -0.3620 -0.0933 -0.6268
  482TMC3    H1 7227   3.945   1.811  14.311 -1.3377  0.5987  1.8606
  482TMC3    H2 7228   3.605   1.632  14.119  1.1944 -0.6891 -1.1504
  482TMC3    C7 7229   3.794   1.818  14.080 -0.2887 -0.1938 -0.6008
  482TMC3    C8 7230   3.564   1.453  14.313 -0.2269  0.4530  0.6370
  482TMC3    O1 7231   3.730   1.778  13.982  0.5192  0.1046 -0.9689
  482TMC3    O2 7232   3.567   1.362  14.397  0.0472 -0.2621  0.3400
  483TMC3    C1 7233   1.754   0.582   0.379 -0.1969  0.2558  0.2580
  483TMC3    C2 7234   1.775   0.716   0.392 -0.9507  0.5231  0.3312
  483TMC3    C3 7235   1.806   0.773   0.513 -0.4222 -0.0358 -0.4047
  483TMC3    C4 7236   1.744   0.499   0.490  0.2387 -1.0245 -0.6591
  483TMC3    C5 7237   1.788   0.556   0.608  0.6256  0.7446  0.4284
  483TMC3    C6 7238   1.829   0.690   0.623  0.1574 -0.8987  0.6527
  483TMC3     C 7239   1.752   0.528   0.241 -0.2683 -0.0093 -0.3657
  483TMC3     O 7240   1.764   0.611   0.151 -0.1841 -0.2305  0.9383
  483TMC3     H 7241   1.768   0.783   0.307  1.2081  1.7592  1.1203
  483TMC3    H1 7242   1.741   0.391   0.482  0.4014 -1.0041 -0.9727
  483TMC3    H2 7243   1.878   0.736   0.708  2.6495 -1.4682 -0.4581
  483TMC3    C7 7244   1.851   0.462   0.704  0.4012 -0.1582  0.1679
  483TMC3    C8 7245   1.892   0.885   0.489 -0.2560 -0.5533 -0.2708
  483TMC3    O1 7246   1.975   0.471   0.713 -1.0891 -0.2024  0.2000
  483TMC3    O2 7247   1.992   0.868   0.423  0.3326 -0.2993 -0.0525
  484MPD2     C 7248   4.168   3.641  12.423  0.7305 -0.1851 -0.3153
  484MPD2    C1 7249   4.202   3.517  12.461  1.2261  0.3180  0.9271
  484MPD2    C2 7250   4.328   3.495  12.507 -0.3093 -0.3722  0.3014
  484MPD2    C3 7251   4.425   3.590  12.505 -0.3252 -1.1746 -0.1872
  484MPD2    C4 7252   4.398   3.714  12.451 -0.1834 -0.4285  0.1904
  484MPD2    C5 7253   4.268   3.738  12.411 -0.6172  0.3269  0.0082
  484MPD2     H 7254   4.338   3.394  12.544  1.8112  0.6526  2.5183
  484MPD2    H1 7255   4.469   3.795  12.442 -0.9840  0.5346  2.7494
  484MPD2    H2 7256   4.071   3.683  12.400  0.3870 -2.5799 -3.2287
  484MPD2    H3 7257   4.246   3.836  12.371 -1.7960 -0.0225 -0.1805
  484MPD2     N 7258   4.563   3.559  12.536 -0.5096 -0.2838 -0.6412
  484MPD2    H5 7259   4.626   3.623  12.489  0.9128 -0.4224  1.0427
  484MPD2    N1 7260   4.111   3.410  12.486  0.0020 -0.7771 -0.1139
  484MPD2    H7 7261   4.151   3.331  12.536 -0.1617 -1.1765 -0.6171
  485TMC3    C1 7262   0.021   3.416  12.576  0.5793 -0.3664 -0.7428
  485TMC3    C2 7263   0.059   3.292  12.608  0.0618  0.1971  0.0354
  485TMC3    C3 7264   0.193   3.258  12.590  1.0766 -0.2180 -0.5073
  485TMC3    C4 7265   0.103   3.516  12.544 -0.5543 -0.6565 -0.2900
  485TMC3    C5 7266   0.236   3.483  12.533 -0.1893  0.5322  0.6242
  485TMC3    C6 7267   0.285   3.354  12.558 -0.0923  0.5806 -0.5914
  485TMC3     C 7268   4.608   3.438  12.588  0.3554  0.2403  0.1311
  485TMC3     O 7269   4.545   3.353  12.642  0.2313 -0.4764  0.5453
  485TMC3     H 7270   4.725   3.210  12.622  0.1218 -0.0885 -1.3204
  485TMC3    H1 7271   0.062   3.613  12.517  1.1206  0.7664  2.2851
  485TMC3    H2 7272   0.390   3.329  12.548 -0.4652 -0.4583 -1.8551
  485TMC3    C7 7273   0.289   3.514  12.401  0.0859  0.2327 -0.0433
  485TMC3    C8 7274   0.209   3.130  12.517 -0.3052 -0.2375 -0.1048
  485TMC3    O1 7275   0.337   3.419  12.347  0.1349 -0.1737  0.2959
  485TMC3    O2 7276   0.135   3.036  12.544 -0.1119  0.3342 -0.3884
  486MPD2     C 7277   1.757   1.943  12.999  0.2996  0.3882 -0.1754
  486MPD2    C1 7278   1.809   1.985  12.879  0.5025  0.0756  0.2924
  486MPD2    C2 7279   1.759   2.098  12.820 -0.5451 -0.5502 -0.2490
  486MPD2    C3 7280   1.659   2.179  12.873 -0.2854  0.0772  0.8204
  486MPD2    C4 7281   1.621   2.145  13.006  0.7430 -0.1087  0.1063
  486MPD2    C5 7282   1.672   2.030  13.065  1.2939  0.3273  0.4011
  486MPD2     H 7283   1.799   2.123  12.722  0.5034 -1.9441 -0.1715
  486MPD2    H1 7284   1.563   2.217  13.062 -1.6572 -1.5888 -0.4970
  486MPD2    H2 7285   1.798   1.849  13.035  0.1688  0.5884  0.4941
  486MPD2    H3 7286   1.637   1.998  13.162 -0.6968  1.2215 -0.0204
  486MPD2     N 7287   1.614   2.287  12.798 -0.8047 -0.2380 -0.0778
  486MPD2    H5 7288   1.664   2.302  12.710 -0.5571  0.0898  0.1171
  486MPD2    N1 7289   1.900   1.899  12.811 -0.6274 -0.4699  0.0011
  486MPD2    H7 7290   1.905   1.805  12.850  1.4987 -1.0196 -1.5901
  487TMC3    C1 7291   2.018   1.827  12.625 -0.1361 -0.1605 -0.2024
  487TMC3    C2 7292   1.932   1.802  12.518  1.1983  0.3603 -0.0887
  487TMC3    C3 7293   1.872   1.680  12.505 -0.7701  0.0749 -0.0823
  487TMC3    C4 7294   2.049   1.722  12.704  0.0644 -0.3357 -0.0541
  487TMC3    C5 7295   1.982   1.600  12.676  0.1613  0.9075  0.1372
  487TMC3    C6 7296   1.914   1.568  12.562 -0.2074  0.0019 -0.1232
  487TMC3     C 7297   1.971   1.939  12.700 -0.4135 -0.1793  0.2004
  487TMC3     O 7298   1.993   2.046  12.652  0.1382 -0.1425 -0.9987
  487TMC3     H 7299   1.889   1.890  12.473 -2.2460 -1.6460 -0.6831
  487TMC3    H1 7300   2.118   1.747  12.784  0.1829 -1.5027  0.2246
  487TMC3    H2 7301   1.858   1.477  12.545  0.9814 -0.4543 -1.5607
  487TMC3    C7 7302   1.931   1.531  12.794 -0.1651  0.4427  0.5361
  487TMC3    C8 7303   1.732   1.696  12.547  0.5403 -0.1662 -0.3307
  487TMC3    O1 7304   1.943   1.607  12.886  0.2284  0.2243 -0.5225
  487TMC3    O2 7305   1.688   1.809  12.558  0.1370 -0.3054 -0.3914
  488MPD2     C 7306   2.328   4.025  16.283 -0.2194  0.0026  0.0118
  488MPD2    C1 7307   2.341   4.160  16.330 -0.3741  0.0902  0.2171
  488MPD2    C2 7308   2.292   4.181  16.458  0.5560  0.9010 -0.2897
  488MPD2    C3 7309   2.251   4.082  16.551 -0.2529 -0.6298 -0.5384
  488MPD2    C4 7310   2.250   3.955  16.498  0.5555  0.0447  0.0287
  488MPD2    C5 7311   2.284   3.926  16.367  0.3500  0.1721  0.6059
  488MPD2     H 7312   2.277   4.282  16.494  0.0196  0.7564 -0.1054
  488MPD2    H1 7313   2.210   3.868  16.550 -0.2519 -1.2469 -2.7499
  488MPD2    H2 7314   2.376   4.003  16.188 -0.9644  1.0798 -0.6106
  488MPD2    H3 7315   2.271   3.829  16.321  2.0122 -0.7669  2.1172
  488MPD2     N 7316   2.215   4.126  16.683 -0.1361  0.1056  0.7794
  488MPD2    H5 7317   2.214   4.226  16.702  1.8066  0.0043  1.4809
  488MPD2    N1 7318   2.385   4.273  16.253  0.3351 -0.3296 -0.5102
  488MPD2    H7 7319   2.420   4.352  16.307 -2.9443  1.3462 -0.8210
  489TMC3    C1 7320   2.178   4.107  16.913  0.0229 -0.5950 -0.0218
  489TMC3    C2 7321   2.223   4.234  16.926 -0.0222 -0.2614  0.4339
  489TMC3    C3 7322   2.222   4.285  17.049 -0.0605  0.1719 -0.3111
  489TMC3    C4 7323   2.151   4.030  17.019  0.7403  0.1315  0.2963
  489TMC3    C5 7324   2.150   4.084  17.141  0.3494 -0.2679 -0.1174
  489TMC3    C6 7325   2.179   4.220  17.157 -0.3481  0.6761  0.4549
  489TMC3     C 7326   2.179   4.042  16.786 -0.5139  0.5051 -0.1412
  489TMC3     O 7327   2.164   3.924  16.784  0.1089  0.2475 -0.0229
  489TMC3     H 7328   2.257   4.301  16.849 -0.0506  1.4522  1.9098
  489TMC3    H1 7329   2.141   3.922  17.007 -0.5056  0.3068 -0.1653
  489TMC3    H2 7330   2.171   4.259  17.257  2.2072  1.3750  0.3828
  489TMC3    C7 7331   2.070   4.029  17.250  0.8787  0.2077  0.2943
  489TMC3    C8 7332   2.281   4.422  17.061 -0.3229  0.2668 -0.1106
  489TMC3    O1 7333   2.085   4.078  17.360  0.4912 -0.0383  0.2423
  489TMC3    O2 7334   2.313   4.491  16.962 -0.2505  0.0279 -0.1182
  490MPD2     C 7335   3.199   3.747  17.688 -0.1073  0.2732 -1.1985
  490MPD2    C1 7336   3.115   3.677   0.034 -0.4382 -0.7382 -0.3242
  490MPD2    C2 7337   3.166   3.617   0.149  0.4492  0.2682  0.4420
  490MPD2    C3 7338   3.304   3.616   0.167  0.0361  0.1178 -0.1898
  490MPD2    C4 7339   3.386   3.685   0.079 -0.1749 -0.5852 -0.7240
  490MPD2    C5 7340   3.337   3.752  17.711 -0.6471 -0.3831 -0.7304
  490MPD2     H 7341   3.100   3.562   0.216 -0.6042  0.6470 -0.2848
  490MPD2    H1 7342   3.494   3.693   0.082 -0.1150 -0.9397 -1.9811
  490MPD2    H2 7343   3.166   3.796  17.597 -0.3527 -0.3433 -1.4395
  490MPD2    H3 7344   3.405   3.806  17.645  2.9003 -3.7166  0.1879
  490MPD2     N 7345   3.377   3.542   0.264 -0.0509  0.0749  0.1819
  490MPD2    H5 7346   3.479   3.541   0.266 -0.0509 -1.0574 -0.0107
  490MPD2    N1 7347   2.980   3.646  17.739  0.1955 -0.1404 -0.2018
  490MPD2    H7 7348   2.922   3.608   0.074 -0.1258 -0.9308 -0.8655
  491TMC3    C1 7349   2.787   3.633  17.625 -0.0791  0.6793  0.1310
  491TMC3    C2 7350   2.744   3.587   0.011 -0.6203  0.1772 -0.1841
  491TMC3    C3 7351   2.657   3.479   0.002 -0.0512 -0.4038 -0.7619
  491TMC3    C4 7352   2.755   3.582  17.496  0.5137 -0.1292  0.1192
  491TMC3    C5 7353   2.663   3.476  17.504 -0.0111  0.3917 -0.2752
  491TMC3    C6 7354   2.606   3.442  17.620 -0.4184 -0.2690  0.4893
  491TMC3     C 7355   2.913   3.694  17.629  0.5645  0.6833  1.0430
  491TMC3     O 7356   2.952   3.765  17.534  0.1949 -0.2376  0.2811
  491TMC3     H 7357   2.770   3.638   0.102  0.0696  0.7779 -0.7137
  491TMC3    H1 7358   2.804   3.613  17.405 -1.0918  1.3114 -0.2542
  491TMC3    H2 7359   2.518   3.378  17.621  1.1425 -2.3828  1.4264
  491TMC3    C7 7360   2.593   3.424  17.387 -0.1070  0.3443 -0.0627
  491TMC3    C8 7361   2.605   3.425   0.122 -0.0601 -0.7667 -0.1910
  491TMC3    O1 7362   2.505   3.343  17.398  0.6742  0.1517 -0.6445
  491TMC3    O2 7363   2.620   3.492   0.224  0.4703  0.4061  0.1315
  492MPD2     C 7364   2.682   2.811  10.729  0.0039  0.9759  0.3430
  492MPD2    C1 7365   2.775   2.900  10.789 -0.1801  0.1633 -0.1613
  492MPD2    C2 7366   2.812   2.874  10.922  0.7049 -0.1459 -0.5319
  492MPD2    C3 7367   2.755   2.767  10.993 -0.5742 -0.2904  0.5522
  492MPD2    C4 7368   2.666   2.684  10.929 -0.6507  0.2359 -0.4323
  492MPD2    C5 7369   2.626   2.706  10.797 -0.5069 -0.3268 -0.3196
  492MPD2     H 7370   2.895   2.926  10.970  0.7248  1.0418 -1.8601
  492MPD2    H1 7371   2.610   2.610  10.984  1.4873 -2.6065 -2.0598
  492MPD2    H2 7372   2.653   2.829  10.627  2.0215  0.1641 -0.3843
  492MPD2    H3 7373   2.550   2.644  10.751 -0.4009 -0.7363  0.0496
  492MPD2     N 7374   2.786   2.732  11.125 -0.7648 -0.1421 -0.3655
  492MPD2    H5 7375   2.762   2.638  11.153  0.3008 -0.6848 -1.2700
  492MPD2    N1 7376   2.845   2.988  10.710  0.7634 -0.4463 -0.0076
  492MPD2    H7 7377   2.815   2.999  10.614 -0.2644  0.4308  0.4151
  493TMC3    C1 7378   2.981   3.151  10.639 -0.3067 -0.4988 -0.4872
  493TMC3    C2 7379   3.111   3.181  10.611  0.1148 -0.1867 -0.0516
  493TMC3    C3 7380   3.140   3.286  10.533 -0.5246 -0.2187 -0.6160
  493TMC3    C4 7381   2.877   3.224  10.584 -0.8042 -0.4707  0.0011
  493TMC3    C5 7382   2.915   3.319  10.489  0.1371 -0.1837  0.2414
  493TMC3    C6 7383   3.043   3.361  10.472 -0.0713 -0.4884  0.2787
  493TMC3     C 7384   2.956   3.052  10.739  0.5025 -0.2978 -0.4150
  493TMC3     O 7385   3.053   3.027  10.809  0.7627  0.4368  0.3346
  493TMC3     H 7386   3.193   3.114  10.634  0.1643  0.4959  1.7836
  493TMC3    H1 7387   2.773   3.204  10.611 -0.4208  0.3896  2.1087
  493TMC3    H2 7388   3.069   3.434  10.397 -1.4078 -1.3091 -0.9952
  493TMC3    C7 7389   2.820   3.371  10.391  0.3988  0.3972 -0.0414
  493TMC3    C8 7390   3.275   3.327  10.536  0.4115  0.4839 -0.6765
  493TMC3    O1 7391   2.842   3.486  10.345  0.3644  0.0181  0.5184
  493TMC3    O2 7392   3.363   3.246  10.558  0.2036 -0.1774  0.3480
  494TMC3    C1 7393   3.470   0.435   0.554 -0.5162 -0.0133  0.0645
  494TMC3    C2 7394   3.519   0.326   0.617  0.2312 -0.0106  0.0389
  494TMC3    C3 7395   3.659   0.320   0.613 -0.3191 -0.5855  0.0046
  494TMC3    C4 7396   3.540   0.534   0.494 -0.4471  0.3395 -0.4112
  494TMC3    C5 7397   3.677   0.536   0.505 -0.1778 -0.2281  0.3905
  494TMC3    C6 7398   3.737   0.425   0.569  0.1365  0.5054 -0.7429
  494TMC3     C 7399   3.329   0.448   0.540 -0.0530  0.3150  0.6471
  494TMC3     O 7400   3.281   0.559   0.559  0.0974 -0.1578  0.1758
  494TMC3     H 7401   3.462   0.237   0.639 -1.7768  1.1843 -0.3817
  494TMC3    H1 7402   3.488   0.614   0.443 -0.5804 -0.4390 -1.5134
  494TMC3    H2 7403   3.845   0.417   0.572  0.1573 -0.4702 -4.1721
  494TMC3    C7 7404   3.752   0.584   0.391  0.3000  0.1692  0.6125
  494TMC3    C8 7405   3.727   0.195   0.611  0.0072 -0.6416  0.2528
  494TMC3    O1 7406   3.855   0.525   0.353  0.3530  0.4430 -0.1423
  494TMC3    O2 7407   3.848   0.203   0.601  0.0031  0.0440  0.1896
  495TMC3    C1 7408   2.313   2.144  14.312  0.4206  0.3725  0.4597
  495TMC3    C2 7409   2.232   2.179  14.205  0.4732 -0.3271 -0.2804
  495TMC3    C3 7410   2.154   2.292  14.212 -0.2795 -0.0928 -0.2882
  495TMC3    C4 7411   2.305   2.208  14.428  0.5155  0.5854 -0.6352
  495TMC3    C5 7412   2.222   2.317  14.435 -0.4510 -0.5821 -0.2346
  495TMC3    C6 7413   2.146   2.361  14.332 -0.1255 -0.3125  0.6628
  495TMC3     C 7414   2.367   2.002  14.303 -0.1238 -0.2089 -0.2972
  495TMC3     O 7415   2.303   1.945  14.212 -0.5468 -0.1709  0.0209
  495TMC3     H 7416   2.233   2.115  14.117  0.4663 -0.3117 -0.2917
  495TMC3    H1 7417   2.364   2.174  14.512 -1.8661 -1.3180  0.2713
  495TMC3    H2 7418   2.081   2.447  14.347  1.5173  0.8895  0.9211
  495TMC3    C7 7419   2.213   2.376  14.564  0.3746 -0.1484  0.7373
  495TMC3    C8 7420   2.029   2.308  14.126  0.4561 -0.4739  0.8274
  495TMC3    O1 7421   2.309   2.432  14.613 -0.0780 -0.4936  0.1875
  495TMC3    O2 7422   1.939   2.368  14.176  0.1764  0.0400 -0.1775
  496MPD2     C 7423   4.597   2.494  15.857  0.9349 -0.6304  0.5592
  496MPD2    C1 7424   4.563   2.564  15.743 -0.5300  0.7243  0.5475
  496MPD2    C2 7425   4.464   2.661  15.748 -0.4452  0.2284  0.4206
  496MPD2    C3 7426   4.394   2.688  15.866 -0.7973  0.1247 -0.0628
  496MPD2    C4 7427   4.431   2.614  15.972 -0.6061  0.6391 -0.3342
  496MPD2    C5 7428   4.527   2.520  15.969  0.3817  0.4734  0.2816
  496MPD2     H 7429   4.427   2.714  15.660  1.6828  1.2640  0.1558
  496MPD2    H1 7430   4.386   2.627  16.070 -1.8268 -1.0439 -0.6740
  496MPD2    H2 7431   4.683   2.428  15.861  1.8942  0.4980 -1.1304
  496MPD2    H3 7432   4.553   2.469  16.062  1.0606 -0.1355 -0.2404
  496MPD2     N 7433   4.287   2.781  15.872 -0.4466 -0.7778 -0.5921
  496MPD2    H5 7434   4.247   2.827  15.791 -3.5983  0.6554  1.7472
  496MPD2    N1 7435   4.634   2.530  15.628 -0.0062  0.0542 -0.4221
  496MPD2    H7 7436   4.687   2.443  15.633 -1.3605 -0.6612  1.2986
  497TMC3    C1 7437   4.111   2.912  15.965  0.4103  0.1071 -0.9466
  497TMC3    C2 7438   4.006   2.876  15.881  0.2445 -0.6863 -1.0089
  497TMC3    C3 7439   3.877   2.920  15.910 -0.1263  0.2883  0.2001
  497TMC3    C4 7440   4.089   2.980  16.081  0.6540  0.0644  0.3324
  497TMC3    C5 7441   3.963   3.017  16.105  0.4020  0.0324 -0.4033
  497TMC3    C6 7442   3.857   2.995  16.023  0.4077  0.5969  0.1717
  497TMC3     C 7443   4.218   2.816  15.988 -0.7117  0.1760 -0.1658
  497TMC3     O 7444   4.253   2.804  16.105  0.5578 -0.0227 -0.0314
  497TMC3     H 7445   4.027   2.808  15.799 -1.0153 -1.8899 -0.3450
  497TMC3    H1 7446   4.174   3.020  16.136 -0.6840  1.9178  1.0486
  497TMC3    H2 7447   3.768   3.050  16.051 -0.8397 -0.4790 -1.6824
  497TMC3    C7 7448   3.924   3.052  16.241 -0.3678  0.4921  0.0276
  497TMC3    C8 7449   3.769   2.851  15.845  0.1474 -0.0863  0.5236
  497TMC3    O1 7450   3.800   3.046  16.269  0.0052 -0.0063  0.8111
  497TMC3    O2 7451   3.790   2.801  15.734  0.6911  0.9596 -0.4789
  498MPD2     C 7452   1.141   3.230  10.179 -0.1364  0.2764  0.1348
  498MPD2    C1 7453   1.053   3.313  10.245 -0.3332 -0.8396  0.1313
  498MPD2    C2 7454   0.923   3.256  10.282  0.3187 -0.8738 -0.0623
  498MPD2    C3 7455   0.902   3.118  10.268  0.7979  0.6328 -0.0940
  498MPD2    C4 7456   1.001   3.038  10.226  0.2040 -0.2759  0.2838
  498MPD2    C5 7457   1.117   3.092  10.176  0.6828 -0.0969  0.1857
  498MPD2     H 7458   0.843   3.305  10.336 -0.1678 -2.3805  0.5798
  498MPD2    H1 7459   0.995   2.930  10.229 -0.7267 -0.1547  2.3627
  498MPD2    H2 7460   1.242   3.257  10.151 -0.8206  2.1464 -0.5436
  498MPD2    H3 7461   1.199   3.027  10.147  1.3500  0.1520  1.4775
  498MPD2     N 7462   0.777   3.063  10.308 -0.0699  0.5050  0.0159
  498MPD2    H5 7463   0.711   3.125  10.355 -0.5796 -0.3418  0.4166
  498MPD2    N1 7464   1.074   3.452  10.259  0.0595  0.0302 -0.6069
  498MPD2    H7 7465   1.001   3.500  10.309 -1.2000  0.8347 -3.2466
  499TMC3    C1 7466   1.177   3.668  10.226 -0.2549  0.0618  0.3476
  499TMC3    C2 7467   1.175   3.707  10.363  0.4285 -0.3482  0.0709
  499TMC3    C3 7468   1.245   3.825  10.393 -0.2057 -0.8626  0.8108
  499TMC3    C4 7469   1.235   3.745  10.132 -0.3721  0.3809  0.7885
  499TMC3    C5 7470   1.290   3.863  10.167 -0.0347  0.2525 -0.2981
  499TMC3    C6 7471   1.304   3.906  10.296 -0.3718  0.5729  0.5077
  499TMC3     C 7472   1.171   3.526  10.196  0.2831  0.0536 -0.1304
  499TMC3     O 7473   1.239   3.490  10.102  0.0334  0.0959 -0.1682
  499TMC3     H 7474   1.142   3.643  10.443 -0.9155 -2.0674 -1.8754
  499TMC3    H1 7475   1.249   3.718  10.028 -0.7872  0.4843  0.7063
  499TMC3    H2 7476   1.336   4.006  10.325  1.0386  0.6949 -1.5250
  499TMC3    C7 7477   1.265   3.972  10.069  0.3868 -0.0850  0.6550
  499TMC3    C8 7478   1.295   3.835  10.524 -0.3427 -0.0903  0.7017
  499TMC3    O1 7479   1.331   4.076  10.085 -0.3831 -0.1710  0.4807
  499TMC3    O2 7480   1.221   3.810  10.620 -0.7536  0.5187  0.2536
  500MPD2     C 7481   2.079   4.283  11.115  0.1722  1.0692  0.7220
  500MPD2    C1 7482   2.164   4.329  11.018  0.1357  0.3755 -0.0660
  500MPD2    C2 7483   2.114   4.359  10.894  0.0058  0.4854 -0.6528
  500MPD2    C3 7484   1.977   4.358  10.864  0.0498 -0.7487 -1.1832
  500MPD2    C4 7485   1.894   4.319  10.972  0.3166  0.3077  0.1362
  500MPD2    C5 7486   1.939   4.275  11.094 -0.2411 -0.2534  0.1582
  500MPD2     H 7487   2.185   4.382  10.815  0.3787 -1.1318 -0.7776
  500MPD2    H1 7488   1.787   4.309  10.957  0.1747  4.2095 -1.5159
  500MPD2    H2 7489   2.117   4.258  11.213  0.4728  0.3717  0.4315
  500MPD2    H3 7490   1.863   4.252  11.167 -0.2851 -1.0363 -0.1277
  500MPD2     N 7491   1.915   4.400  10.741  0.2957 -0.2856  0.0127
  500MPD2    H5 7492   1.814   4.406  10.751  0.2483  2.3247 -2.3656
  500MPD2    N1 7493   2.304   4.322  11.024  0.5295 -0.5425  0.5780
  500MPD2    H7 7494   2.358   4.339  10.940 -1.9715  0.3554 -0.8246
  501TMC3    C1 7495   2.504   4.223  11.085 -0.8465 -0.6561 -0.2055
  501TMC3    C2 7496   2.536   4.209  10.950  0.0517  0.5840  0.0247
  501TMC3    C3 7497   2.669   4.209  10.917  0.6358 -0.2576 -0.1937
  501TMC3    C4 7498   2.600   4.203  11.179  0.3104  0.0967 -0.2199
  501TMC3    C5 7499   2.727   4.201  11.141  0.5884 -0.3637 -0.2018
  501TMC3    C6 7500   2.770   4.218  11.011 -0.4224  0.2836 -0.0020
  501TMC3     C 7501   2.377   4.278  11.129  0.4209 -0.1474  0.4446
  501TMC3     O 7502   2.340   4.270  11.247  1.0345  0.4192  0.0048
  501TMC3     H 7503   2.460   4.199  10.873 -0.5998 -2.9135  1.1369
  501TMC3    H1 7504   2.565   4.188  11.280  1.1307  4.9835  0.8015
  501TMC3    H2 7505   2.874   4.224  10.979 -1.0809  1.9961 -1.8421
  501TMC3    C7 7506   2.837   4.180  11.233 -0.8245  0.1064 -0.0338
  501TMC3    C8 7507   2.699   4.261  10.783  0.2032  0.3463  0.4372
  501TMC3    O1 7508   2.938   4.150  11.172 -0.4261  0.4069  0.1289
  501TMC3    O2 7509   2.805   4.320  10.761  0.1217 -0.7864  0.2437
  502TMC3    C1 7510   1.974   2.757  14.993 -0.0183  1.0344 -0.1145
  502TMC3    C2 7511   1.997   2.857  14.907  0.2934  0.0907  0.1485
  502TMC3    C3 7512   1.906   2.956  14.890  0.4849  0.0913  0.0137
  502TMC3    C4 7513   1.846   2.748  15.041  0.1654 -0.4495 -0.5412
  502TMC3    C5 7514   1.753   2.848  15.023 -0.1263  0.2476  0.0295
  502TMC3    C6 7515   1.783   2.955  14.945  0.1048 -0.2301  0.5618
  502TMC3     C 7516   2.060   2.776  15.106  0.3228 -0.2669  0.5269
  502TMC3     O 7517   2.170   2.816  15.074  0.2500  0.3406 -0.1752
  502TMC3     H 7518   2.093   2.854  14.856  0.0761 -1.0929 -0.1846
  502TMC3    H1 7519   1.820   2.659  15.096  2.4992 -1.0426 -0.4047
  502TMC3    H2 7520   1.712   3.036  14.934  0.5219 -0.2841 -2.3691
  502TMC3    C7 7521   1.665   2.865  15.135  0.3802 -0.0575  0.2641
  502TMC3    C8 7522   1.962   3.087  14.900 -0.0834  0.2882  0.6996
  502TMC3    O1 7523   1.709   2.815  15.241 -0.2588  0.1490  0.4921
  502TMC3    O2 7524   1.884   3.179  14.882 -0.5718 -0.6656  0.3333
  503MPD2     C 7525   4.181   4.085  17.230 -0.0603 -0.7169  0.2987
  503MPD2    C1 7526   4.208   4.133  17.358 -0.6361 -0.9632 -0.2209
  503MPD2    C2 7527   4.270   4.048  17.451  0.7914 -0.2218 -0.0572
  503MPD2    C3 7528   4.305   3.916  17.424 -0.0519 -0.1583 -0.4249
  503MPD2    C4 7529   4.269   3.872  17.303 -0.0312 -0.5983 -0.1974
  503MPD2    C5 7530   4.204   3.949  17.213  0.5059 -0.2230  0.0102
  503MPD2     H 7531   4.290   4.088  17.550  1.3752  0.9234 -0.6302
  503MPD2    H1 7532   4.289   3.772  17.268 -2.2659 -1.0365 -0.2648
  503MPD2    H2 7533   4.149   4.148  17.147  0.8210 -0.3827  0.2136
  503MPD2    H3 7534   4.187   3.894  17.121  2.3888  0.1090 -0.5401
  503MPD2     N 7535   4.374   3.836  17.511 -0.4951  0.2218 -0.1321
  503MPD2    H5 7536   4.403   3.743  17.482 -0.8707  0.4156 -1.1235
  503MPD2    N1 7537   4.183   4.267  17.390 -0.1206  0.5849 -0.2228
  503MPD2    H7 7538   4.222   4.309  17.474 -2.3604  0.2775  0.9949
  504TMC3    C1 7539   4.523   3.765  17.681  0.2583 -0.3134  0.9682
  504TMC3    C2 7540   4.519   3.703   0.060  0.4965 -0.3361  0.2395
  504TMC3    C3 7541   4.595   3.592   0.078 -0.5145 -0.6025  0.0061
  504TMC3    C4 7542   4.601   3.713  17.578  0.0746 -0.2891 -0.6906
  504TMC3    C5 7543   4.668   3.600  17.596  0.1010  0.4165  0.0657
  504TMC3    C6 7544   4.660   3.533  17.714  0.7870 -0.0021  0.2863
  504TMC3     C 7545   4.425   3.865  17.634 -0.0150  0.4486  0.5319
  504TMC3     O 7546   4.395   3.961  17.708  0.7312 -0.0270 -0.0939
  504TMC3     H 7547   4.482   3.750   0.151 -0.0971 -0.0084 -0.1649
  504TMC3    H1 7548   4.604   3.756  17.478  2.1026  0.8665 -0.1278
  504TMC3    H2 7549   4.701   3.434  17.727 -0.7066 -0.7391 -0.5857
  504TMC3    C7 7550   4.732   3.554  17.472  0.0563 -0.7377 -0.4024
  504TMC3    C8 7551   4.543   3.506   0.184 -0.6830  0.0145 -0.0827
  504TMC3    O1 7552   0.013   3.632  17.379 -0.4471 -0.2190  0.3522
  504TMC3    O2 7553   4.424   3.518   0.218 -0.4031 -0.6103 -0.5396
  505MPD2     C 7554   4.041   2.782  10.271 -0.0892  0.1680  0.8899
  505MPD2    C1 7555   4.083   2.770  10.404 -0.3633 -0.0887 -0.1559
  505MPD2    C2 7556   4.131   2.882  10.471 -0.0208 -0.2308 -0.2754
  505MPD2    C3 7557   4.134   3.006  10.416  0.3341  0.5615  0.1150
  505MPD2    C4 7558   4.098   3.018  10.283 -0.4545  0.1580 -0.1511
  505MPD2    C5 7559   4.057   2.907  10.213 -0.0134  0.1104 -0.0618
  505MPD2     H 7560   4.178   2.863  10.568  2.4279  1.2353 -1.1729
  505MPD2    H1 7561   4.129   3.114  10.245 -0.9599 -0.0747 -1.1528
  505MPD2    H2 7562   4.008   2.692  10.220 -0.2963  1.8017 -1.8427
  505MPD2    H3 7563   4.035   2.933  10.110 -0.3795  0.2802  0.0571
  505MPD2     N 7564   4.173   3.114  10.491 -0.5162 -0.5067  0.2691
  505MPD2    H5 7565   4.201   3.196  10.438 -3.1231  0.0164 -0.3117
  505MPD2    N1 7566   4.079   2.639  10.461  0.5173 -0.1836 -0.0267
  505MPD2    H7 7567   4.049   2.562  10.401 -0.5207  0.8248 -0.8026
  506TMC3    C1 7568   4.143   2.464  10.604 -0.3996  0.4175  0.1574
  506TMC3    C2 7569   4.235   2.431  10.505 -0.1279 -1.8503 -0.5691
  506TMC3    C3 7570   4.353   2.383  10.535  0.7461 -0.2534 -0.1497
  506TMC3    C4 7571   4.174   2.432  10.734  0.6261 -0.2678  0.6465
  506TMC3    C5 7572   4.299   2.378  10.766 -0.4130 -0.0305  0.1682
  506TMC3    C6 7573   4.390   2.365  10.669 -0.1377 -0.8412  0.4547
  506TMC3     C 7574   4.111   2.604  10.591 -0.0328 -0.8506  0.5857
  506TMC3     O 7575   4.145   2.669  10.692  0.2023  0.5683 -0.0543
  506TMC3     H 7576   4.220   2.470  10.404  0.6636 -2.4315 -0.9085
  506TMC3    H1 7577   4.106   2.458  10.815 -0.8478 -0.8643 -0.3924
  506TMC3    H2 7578   4.486   2.328  10.701  0.2769 -0.0868  0.0982
  506TMC3    C7 7579   4.361   2.448  10.878 -0.1578  0.3543 -0.7122
  506TMC3    C8 7580   4.455   2.358  10.434  0.1453  0.0825  0.0511
  506TMC3    O1 7581   4.424   2.376  10.956  0.0397 -0.4567 -0.1077
  506TMC3    O2 7582   4.425   2.334  10.318 -0.6314 -0.2054 -0.4010
  507TMC3    C1 7583   0.416   3.718  14.687  0.3798 -0.4184  0.2414
  507TMC3    C2 7584   0.447   3.605  14.612  0.0120  0.0294  0.8878
  507TMC3    C3 7585   0.536   3.628  14.509 -0.5809  0.2277  0.6656
  507TMC3    C4 7586   0.445   3.843  14.643  0.2247 -0.2434  0.2255
  507TMC3    C5 7587   0.540   3.857  14.541 -0.0229  0.5437 -0.3716
  507TMC3    C6 7588   0.593   3.746  14.478  0.7557 -0.0376 -0.1968
  507TMC3     C 7589   0.305   3.711  14.782 -0.4495  0.4376 -0.4848
  507TMC3     O 7590   0.295   3.798  14.869  0.1684  0.4303 -0.5513
  507TMC3     H 7591   0.424   3.501  14.635 -1.8995  0.2280 -0.1352
  507TMC3    H1 7592   0.409   3.934  14.691 -1.2633 -0.5003 -0.3803
  507TMC3    H2 7593   0.669   3.742  14.401 -0.2190 -3.6939 -1.0093
  507TMC3    C7 7594   0.510   3.959  14.443 -0.3467 -0.4623  0.7803
  507TMC3    C8 7595   0.492   3.560  14.391  0.3644  0.1318  0.0664
  507TMC3    O1 7596   0.511   3.918  14.326 -0.3200 -0.2720  0.2574
  507TMC3    O2 7597   0.466   3.442  14.411  0.1991 -0.2695  0.2586
  508MPD2     C 7598   1.076   1.207  15.922  0.1412  0.0753  0.2590
  508MPD2    C1 7599   1.210   1.243  15.925  0.0896 -0.2597  0.0729
  508MPD2    C2 7600   1.278   1.277  15.811 -0.3974 -0.7854 -0.5856
  508MPD2    C3 7601   1.216   1.252  15.689 -0.3197  0.1875 -0.6955
  508MPD2    C4 7602   1.092   1.194  15.691  0.5585  0.4899 -0.9817
  508MPD2    C5 7603   1.015   1.176  15.803 -0.1701 -0.0256  0.3459
  508MPD2     H 7604   1.376   1.321  15.801 -0.5877 -0.1073  0.5447
  508MPD2    H1 7605   1.048   1.155  15.599 -0.3907 -0.3067 -0.1934
  508MPD2    H2 7606   1.020   1.202  16.015  0.8483  0.2693  0.6980
  508MPD2    H3 7607   0.918   1.128  15.804  0.7353 -1.8956 -0.3471
  508MPD2     N 7608   1.263   1.300  15.565 -0.0945 -0.2694  0.2716
  508MPD2    H5 7609   1.342   1.363  15.576  0.1201 -0.4653 -0.1313
  508MPD2    N1 7610   1.264   1.266  16.052 -0.4924 -0.2864 -0.8063
  508MPD2    H7 7611   1.210   1.234  16.131  1.0683 -0.6751  0.1037
  509TMC3    C1 7612   1.159   1.592  15.286 -0.0709 -0.0914  0.1008
  509TMC3    C2 7613   1.284   1.636  15.280  0.0651  0.7790 -0.5544
  509TMC3    C3 7614   1.386   1.542  15.299  0.0179  0.0661 -0.1730
  509TMC3    C4 7615   1.139   1.459  15.318  0.5327 -0.2689  0.1869
  509TMC3    C5 7616   1.246   1.375  15.346  0.3529  0.2658 -0.4024
  509TMC3    C6 7617   1.372   1.417  15.328 -0.4460  0.2285  0.1923
  509TMC3     C 7618   1.047   1.678  15.302  1.0456 -0.1082 -0.2848
  509TMC3     O 7619   0.969   1.657  15.394 -0.0044 -0.5551 -0.2708
  509TMC3     H 7620   1.314   1.739  15.262 -0.6499  1.0834 -0.0035
  509TMC3    H1 7621   1.045   1.420  15.357 -0.5258  3.9891  1.9678
  509TMC3    H2 7622   1.458   1.352  15.346 -1.6713 -0.9528  1.7783
  509TMC3    C7 7623   1.213   1.270  15.443  0.6972  0.3991 -0.0292
  509TMC3    C8 7624   1.532   1.585  15.291  0.4027 -0.0953 -1.0385
  509TMC3    O1 7625   1.143   1.179  15.404  0.6562 -0.2113  0.1451
  509TMC3    O2 7626   1.619   1.503  15.309 -0.5935 -0.1591 -0.1325
  510MPD2     C 7627   3.606   2.902  14.616 -0.7595 -0.6224  0.1939
  510MPD2    C1 7628   3.673   2.786  14.654  0.2369 -0.7243  0.3285
  510MPD2    C2 7629   3.798   2.755  14.605 -0.5683 -0.4968 -1.0104
  510MPD2    C3 7630   3.846   2.841  14.499  0.1812 -0.1500  0.5754
  510MPD2    C4 7631   3.776   2.950  14.455 -0.2556  0.4279  0.4407
  510MPD2    C5 7632   3.661   2.985  14.529 -0.0692  0.1154 -0.6044
  510MPD2     H 7633   3.853   2.673  14.651  0.0101  1.8686  2.5713
  510MPD2    H1 7634   3.796   3.015  14.370 -1.4771  1.3801  0.8758
  510MPD2    H2 7635   3.515   2.923  14.670 -0.5283  1.1446 -0.1027
  510MPD2    H3 7636   3.600   3.072  14.510  0.0911  0.3866  0.1133
  510MPD2     N 7637   3.971   2.812  14.439 -0.0587  0.2066  0.1514
  510MPD2    H5 7638   4.021   2.731  14.476  2.0101  1.0232 -0.8270
  510MPD2    N1 7639   3.614   2.716  14.759 -0.0050  0.4410 -0.4572
  510MPD2    H7 7640   3.521   2.744  14.786  0.1419 -1.2386  1.8108
  511TMC3    C1 7641   3.557   2.537  14.911 -0.0988  0.1250 -0.3144
  511TMC3    C2 7642   3.480   2.603  15.001 -0.2247  0.0983 -0.2854
  511TMC3    C3 7643   3.387   2.521  15.067 -1.0271  0.4025 -0.5946
  511TMC3    C4 7644   3.548   2.404  14.894  0.6726  0.1468  0.5692
  511TMC3    C5 7645   3.454   2.329  14.959 -0.7843 -0.3896  0.3810
  511TMC3    C6 7646   3.374   2.395  15.035  0.0810  0.2675  0.4096
  511TMC3     C 7647   3.648   2.598  14.816  0.0364  0.0369  0.7888
  511TMC3     O 7648   3.751   2.529  14.809  0.2093  0.5558 -0.6187
  511TMC3     H 7649   3.485   2.710  15.017 -0.6510 -0.2623  2.2545
  511TMC3    H1 7650   3.617   2.356  14.827 -0.8142 -0.1670 -0.7364
  511TMC3    H2 7651   3.287   2.338  15.067 -0.7129 -0.3703 -2.9504
  511TMC3    C7 7652   3.397   2.224  14.868 -0.5128  0.0591  0.3804
  511TMC3    C8 7653   3.336   2.565  15.194  0.1129  0.2850 -0.4659
  511TMC3    O1 7654   3.418   2.239  14.749  0.2814 -0.3334 -0.3113
  511TMC3    O2 7655   3.400   2.660  15.239 -1.2540  0.2136 -0.0934
  512TMC3    C1 7656   2.645   2.032  13.022  0.1065 -0.0223  0.3686
  512TMC3    C2 7657   2.694   2.000  13.146 -0.0906 -0.5529 -0.4300
  512TMC3    C3 7658   2.793   1.902  13.136 -0.3459  0.4561  0.0484
  512TMC3    C4 7659   2.668   1.964  12.905 -0.4585  0.4854 -0.9311
  512TMC3    C5 7660   2.751   1.854  12.920  0.2218  0.1962  0.5568
  512TMC3    C6 7661   2.825   1.821  13.032  0.1458  0.1507 -0.2136
  512TMC3     C 7662   2.575   2.158  13.017 -0.5055  0.6140 -1.3939
  512TMC3     O 7663   2.614   2.250  13.084 -0.1971 -0.6043 -0.2250
  512TMC3     H 7664   2.687   2.069  13.229  0.7758  0.6605 -1.3633
  512TMC3    H1 7665   2.639   2.009  12.811 -1.7316 -0.3878 -0.9630
  512TMC3    H2 7666   2.916   1.763  13.034 -0.4843 -0.8445 -0.1288
  512TMC3    C7 7667   2.775   1.769  12.804  0.7202 -0.0088  0.6374
  512TMC3    C8 7668   2.886   1.881  13.238 -0.0229  0.1211 -0.1274
  512TMC3    O1 7669   2.749   1.830  12.703 -0.0391 -0.7878  0.1915
  512TMC3    O2 7670   2.908   1.764  13.262  0.0602  0.1832 -0.0545
  513MPD2     C 7671   4.101   1.748  13.668 -0.4310  0.6000  0.2256
  513MPD2    C1 7672   4.161   1.847  13.602 -0.0807 -0.4478 -0.7237
  513MPD2    C2 7673   4.229   1.951  13.665  0.4980 -0.1185  0.6893
  513MPD2    C3 7674   4.227   1.964  13.802  0.5003  1.1606  0.4245
  513MPD2    C4 7675   4.173   1.857  13.874  0.5800  0.3104  0.0647
  513MPD2    C5 7676   4.120   1.753  13.808 -0.2145  0.1946 -0.0286
  513MPD2     H 7677   4.279   2.030  13.611 -1.3347  0.3835 -0.2650
  513MPD2    H1 7678   4.178   1.850  13.983  1.6659 -0.1665 -0.0150
  513MPD2    H2 7679   4.040   1.666  13.632  0.4271 -0.9102  2.1797
  513MPD2    H3 7680   4.067   1.685  13.874 -2.3047 -0.8353 -2.8045
  513MPD2     N 7681   4.296   2.072  13.860  0.1442  0.2690 -0.0787
  513MPD2    H5 7682   4.337   2.143  13.800  1.4620  0.9374  1.5742
  513MPD2    N1 7683   4.145   1.838  13.457 -0.3417 -0.5866 -0.2355
  513MPD2    H7 7684   4.095   1.756  13.422 -5.3374  1.6916  1.5114
  514TMC3    C1 7685   4.206   1.877  13.226  0.1907 -0.0746  0.0090
  514TMC3    C2 7686   4.110   1.946  13.161  0.3490 -0.6439  0.1671
  514TMC3    C3 7687   4.146   2.026  13.054 -0.1836  0.4286 -0.9690
  514TMC3    C4 7688   4.333   1.896  13.185 -0.0176 -0.0407  0.0137
  514TMC3    C5 7689   4.368   1.974  13.078 -0.6687 -0.0860  0.8337
  514TMC3    C6 7690   4.274   2.040  13.005  0.2491  0.2922 -0.7793
  514TMC3     C 7691   4.221   1.906  13.370  0.2814 -0.5312 -0.8165
  514TMC3     O 7692   4.302   1.999  13.385 -0.1134 -0.2278  0.3316
  514TMC3     H 7693   4.009   1.941  13.201  0.2046  0.2318 -0.0864
  514TMC3    H1 7694   4.410   1.843  13.239  2.8149 -0.7415 -4.7599
  514TMC3    H2 7695   4.316   2.119  12.945  0.4974  0.4899 -0.3405
  514TMC3    C7 7696   4.498   2.041  13.093 -0.3152 -0.0496  0.3602
  514TMC3    C8 7697   4.042   2.077  12.956  0.1515 -0.6511 -0.7934
  514TMC3    O1 7698   4.563   2.079  12.993 -0.2008  0.4590 -0.0443
  514TMC3    O2 7699   3.928   2.072  13.005  0.5827 -0.2130 -0.4629
  515MPD2     C 7700   2.668   3.878  14.998 -0.0127  0.4601 -0.6681
  515MPD2    C1 7701   2.686   3.862  14.865 -0.4338 -0.7188  0.6338
  515MPD2    C2 7702   2.738   3.968  14.795 -0.1085  0.3056 -0.9475
  515MPD2    C3 7703   2.792   4.072  14.864 -0.1102  0.0738  0.3813
  515MPD2    C4 7704   2.773   4.085  15.001 -0.2021  0.1280 -0.1017
  515MPD2    C5 7705   2.693   3.995  15.064  0.6456 -0.0519 -0.1348
  515MPD2     H 7706   2.746   3.955  14.688  1.7598 -0.6926 -0.6816
  515MPD2    H1 7707   2.814   4.171  15.052  0.0236  0.8748 -1.5341
  515MPD2    H2 7708   2.628   3.795  15.056  1.3441  1.4191  1.6281
  515MPD2    H3 7709   2.688   3.984  15.172  1.9420  3.9458  0.3255
  515MPD2     N 7710   2.875   4.171  14.797 -0.1628 -0.3338  0.6154
  515MPD2    H5 7711   2.924   4.225  14.868  1.5091  0.7387 -1.3845
  515MPD2    N1 7712   2.656   3.740  14.799 -0.4459  0.2651  0.2925
  515MPD2    H7 7713   2.638   3.739  14.699 -0.7619 -0.1106  0.3505
  516TMC3    C1 7714   2.581   3.516  14.766 -0.8142 -0.6260  0.2091
  516TMC3    C2 7715   2.486   3.545  14.672  0.3790  0.5620 -0.3184
  516TMC3    C3 7716   2.431   3.438  14.607 -0.3414 -1.0578 -0.1424
  516TMC3    C4 7717   2.607   3.388  14.801 -0.2606 -0.9365 -0.0512
  516TMC3    C5 7718   2.555   3.278  14.727  0.5145 -0.0978  0.2162
  516TMC3    C6 7719   2.459   3.304  14.629 -0.0004 -0.2351  0.0411
  516TMC3     C 7720   2.631   3.616  14.859  0.2052 -0.3244  0.6281
  516TMC3     O 7721   2.652   3.577  14.975  0.3912 -0.1903 -0.0139
  516TMC3     H 7722   2.467   3.645  14.635  0.7655  0.1733 -1.5411
  516TMC3    H1 7723   2.675   3.370  14.884  0.6788  3.1104  0.0590
  516TMC3    H2 7724   2.391   3.228  14.592  0.7953 -1.7271  1.6803
  516TMC3    C7 7725   2.584   3.147  14.784 -0.5282  0.2084  0.4987
  516TMC3    C8 7726   2.351   3.480  14.494  0.2185  0.1424 -0.4990
  516TMC3    O1 7727   2.687   3.147  14.855 -0.0878  0.0883  0.0072
  516TMC3    O2 7728   2.289   3.589  14.500 -0.2094 -0.7603  0.4737
  517MPD2     C 7729   3.010   0.974  17.686  0.1999 -0.3367 -0.1840
  517MPD2    C1 7730   2.916   0.915   0.023  0.2084 -0.1155 -0.4838
  517MPD2    C2 7731   2.825   0.994   0.097  0.4812  0.2148 -0.5392
  517MPD2    C3 7732   2.844   1.129   0.098  0.0072  0.3613 -0.3072
  517MPD2    C4 7733   2.951   1.185   0.034  0.6638 -0.2501  0.1832
  517MPD2    C5 7734   3.033   1.112  17.700 -0.1596  0.1337  0.3480
  517MPD2     H 7735   2.747   0.943   0.152  0.8857  2.8919  2.5102
  517MPD2    H1 7736   2.964   1.292   0.041 -0.9125  0.0607 -1.4995
  517MPD2    H2 7737   3.084   0.928  17.621  1.0866  1.1087 -0.1890
  517MPD2    H3 7738   3.111   1.159  17.640 -0.6587  0.7275  0.1607
  517MPD2     N 7739   2.761   1.221   0.167 -0.1931  0.0655  0.1234
  517MPD2    H5 7740   2.789   1.317   0.152  0.6011 -0.0034  1.1973
  517MPD2    N1 7741   2.916   0.772   0.026  0.0935 -0.0176 -0.4050
  517MPD2    H7 7742   2.985   0.727  17.705 -1.0695 -2.1935 -0.1191
  518TMC3    C1 7743   2.882   0.551   0.097  0.1648  0.4369  0.5394
  518TMC3    C2 7744   2.802   0.440   0.100 -0.6729 -0.5838 -0.2123
  518TMC3    C3 7745   2.864   0.318   0.118  0.4448 -0.7198 -0.0126
  518TMC3    C4 7746   3.020   0.541   0.124 -0.3285 -0.2107 -0.4272
  518TMC3    C5 7747   3.076   0.418   0.127 -0.7747  0.8070  0.4183
  518TMC3    C6 7748   3.003   0.300   0.123  0.3604  0.2418 -0.0442
  518TMC3     C 7749   2.821   0.683   0.070  0.2156 -0.3516  0.0711
  518TMC3     O 7750   2.711   0.712   0.116  0.2986 -0.2837  0.0309
  518TMC3     H 7751   2.696   0.451   0.080 -1.2047 -2.2538  1.6775
  518TMC3    H1 7752   3.079   0.632   0.127 -0.5682 -0.0434 -0.8517
  518TMC3    H2 7753   3.045   0.203   0.147 -2.0603 -0.8223 -0.0949
  518TMC3    C7 7754   3.221   0.416   0.147 -0.5541  1.0707  0.4021
  518TMC3    C8 7755   2.788   0.192   0.106 -0.4956 -0.7497  0.0024
  518TMC3    O1 7756   3.278   0.513   0.199 -0.2495 -0.2481 -0.4828
  518TMC3    O2 7757   2.853   0.087   0.098  0.4142 -0.1223  0.3281
  519MPD2     C 7758   4.004   3.924  14.494  0.6393  0.2434  0.0054
  519MPD2    C1 7759   3.956   3.863  14.383 -0.9787  1.1421  0.4552
  519MPD2    C2 7760   4.003   3.729  14.364  0.3792  0.0174  1.1971
  519MPD2    C3 7761   4.096   3.665  14.444 -0.4729  0.2008  0.1640
  519MPD2    C4 7762   4.153   3.734  14.544  0.2035  0.5612  0.5686
  519MPD2    C5 7763   4.097   3.858  14.569  0.1281  0.0467 -0.3132
  519MPD2     H 7764   3.954   3.661  14.295  0.5047  1.1206  0.0260
  519MPD2    H1 7765   4.222   3.685  14.613  0.4593 -0.9067 -0.7441
  519MPD2    H2 7766   3.980   4.027  14.519 -1.2277 -0.2785  0.3898
  519MPD2    H3 7767   4.133   3.909  14.657  0.0686  0.4411 -0.5174
  519MPD2     N 7768   4.144   3.538  14.415  0.2488  0.1246 -0.1892
  519MPD2    H5 7769   4.229   3.510  14.464 -0.7168 -1.9752  0.2922
  519MPD2    N1 7770   3.854   3.918  14.290  0.3694  0.5524  0.3559
  519MPD2    H7 7771   3.818   3.855  14.219  0.9088  0.9601 -0.2800
  520TMC3    C1 7772   4.159   3.342  14.278  0.3143 -0.3158  0.4426
  520TMC3    C2 7773   4.064   3.271  14.197 -0.6585 -0.4272 -0.9764
  520TMC3    C3 7774   4.104   3.228  14.072 -0.0070  0.2894  0.7043
  520TMC3    C4 7775   4.291   3.352  14.240  0.1317 -0.2432 -0.1677
  520TMC3    C5 7776   4.325   3.291  14.120  0.7905  0.1389  0.3042
  520TMC3    C6 7777   4.233   3.229  14.035  0.0078 -0.5702  0.2482
  520TMC3     C 7778   4.080   3.452  14.336  0.5904  0.5225 -1.0698
  520TMC3     O 7779   3.961   3.457  14.317 -0.0162 -0.1351 -0.1846
  520TMC3     H 7780   3.962   3.253  14.231 -0.5213  1.4124  0.4190
  520TMC3    H1 7781   4.360   3.426  14.279 -0.5738  0.3240  0.0191
  520TMC3    H2 7782   4.272   3.168  13.954  1.6502  0.5208  0.2063
  520TMC3    C7 7783   4.469   3.291  14.090 -0.2234 -0.1690 -0.1786
  520TMC3    C8 7784   4.036   3.125  14.001  0.5783 -0.0394 -0.2347
  520TMC3    O1 7785   4.543   3.315  14.183  0.0008 -0.9770  0.1810
  520TMC3    O2 7786   4.097   3.031  13.948  0.6664 -0.2713 -0.6939
  521MPD2     C 7787   0.178   1.952  17.329  0.4943 -1.2761  0.8023
  521MPD2    C1 7788   0.119   1.885  17.225 -0.4750 -0.4293  0.0863
  521MPD2    C2 7789   0.197   1.802  17.138 -0.0357 -0.4008 -0.2842
  521MPD2    C3 7790   0.330   1.781  17.167 -0.2665 -0.1231 -0.0305
  521MPD2    C4 7791   0.390   1.846  17.270  0.3670 -0.1362  0.0468
  521MPD2    C5 7792   0.307   1.920  17.355 -0.5458 -0.4230 -0.3506
  521MPD2     H 7793   0.146   1.753  17.057  2.1752 -0.4297 -1.6480
  521MPD2    H1 7794   0.486   1.822  17.315  0.9593  2.1048 -0.0624
  521MPD2    H2 7795   0.126   2.027  17.388 -0.2963 -1.6894  0.6293
  521MPD2    H3 7796   0.364   1.973  17.431 -2.5540  1.9633 -0.5074
  521MPD2     N 7797   0.399   1.686  17.088 -0.3897 -0.3252  0.2745
  521MPD2    H5 7798   0.350   1.656  17.004  0.5802 -2.7573  0.5922
  521MPD2    N1 7799   4.715   1.889  17.222  0.4333  0.1828 -0.4133
  521MPD2    H7 7800   4.675   1.938  17.302 -0.5080 -3.5922  1.4533
  522TMC3    C1 7801   0.549   1.521  17.017  0.1857  0.0750  0.3230
  522TMC3    C2 7802   0.614   1.409  17.062 -0.0216  0.4400 -0.2038
  522TMC3    C3 7803   0.664   1.315  16.983  0.8390  0.3655 -0.2189
  522TMC3    C4 7804   0.524   1.535  16.886  0.3949 -0.6607  0.3983
  522TMC3    C5 7805   0.564   1.437  16.803 -0.9559 -0.5572 -0.8838
  522TMC3    C6 7806   0.636   1.325  16.848  0.9012 -0.4673 -0.5369
  522TMC3     C 7807   0.518   1.625  17.113  0.9855 -0.3735  0.1409
  522TMC3     O 7808   0.590   1.616  17.214  0.1442 -0.2562 -0.0100
  522TMC3     H 7809   0.633   1.395  17.167  0.1863  0.9684 -0.1709
  522TMC3    H1 7810   0.496   1.632  16.848  0.1811 -1.3013 -1.0661
  522TMC3    H2 7811   0.668   1.245  16.782 -0.2069  0.6332 -2.4200
  522TMC3    C7 7812   0.551   1.457  16.657 -0.1512  0.4941 -0.3559
  522TMC3    C8 7813   0.798   1.272  17.020 -0.3515  1.0588 -0.0321
  522TMC3    O1 7814   0.642   1.414  16.590 -0.1861 -0.6312  0.4806
  522TMC3    O2 7815   0.815   1.244  17.135 -0.3572  0.1972 -0.0066
  523MPD2     C 7816   3.197   1.651  10.031  0.3146 -0.2094 -0.1745
  523MPD2    C1 7817   3.089   1.592   9.963 -0.3564  0.3004  1.1762
  523MPD2    C2 7818   3.016   1.670   9.871  0.3449 -0.3795 -0.1058
  523MPD2    C3 7819   3.045   1.800   9.838  0.8878 -0.2964  0.0795
  523MPD2    C4 7820   3.157   1.854   9.897 -0.2121 -0.3797  0.8260
  523MPD2    C5 7821   3.227   1.781   9.990 -1.0265  0.2358 -0.6870
  523MPD2     H 7822   2.935   1.628   9.813  1.4141 -0.9221 -1.2116
  523MPD2    H1 7823   3.197   1.947   9.858  1.1583 -0.9328  0.9146
  523MPD2    H2 7824   3.265   1.602  10.099  0.1882  0.5372  0.4849
  523MPD2    H3 7825   3.301   1.833  10.049  0.1002 -0.0428 -1.8569
  523MPD2     N 7826   2.976   1.884   9.746  0.3058  0.2115 -0.2177
  523MPD2    H5 7827   2.997   1.983   9.738  2.7393 -0.1139  2.1499
  523MPD2    N1 7828   3.058   1.458   9.996  0.3775  0.7555 -0.3853
  523MPD2    H7 7829   3.103   1.419  10.079 -0.1241  2.7025  0.8031
  524TMC3    C1 7830   2.844   1.927   9.556  0.1463 -1.0049 -0.2251
  524TMC3    C2 7831   2.842   1.899   9.422 -1.0389  0.2992  0.8559
  524TMC3    C3 7832   2.781   1.991   9.342 -0.1689 -0.0793 -0.4854
  524TMC3    C4 7833   2.821   2.052   9.604  0.5115  0.0423  0.0815
  524TMC3    C5 7834   2.759   2.150   9.524  0.4818  0.0496  0.4090
  524TMC3    C6 7835   2.737   2.114   9.396 -0.6251 -0.3015  0.3905
  524TMC3     C 7836   2.902   1.825   9.649  0.6716  0.2071 -0.4374
  524TMC3     O 7837   2.909   1.708   9.608 -0.1601  0.1678 -0.3248
  524TMC3     H 7838   2.855   1.797   9.387 -1.4523  0.2905  0.7281
  524TMC3    H1 7839   2.819   2.073   9.711  0.7198 -1.0744  0.2996
  524TMC3    H2 7840   2.694   2.191   9.332  0.3791 -0.6597 -0.7229
  524TMC3    C7 7841   2.685   2.254   9.589 -0.4732  0.0107 -0.0699
  524TMC3    C8 7842   2.785   1.975   9.196  0.3496 -0.0587  0.1995
  524TMC3    O1 7843   2.715   2.276   9.705 -0.3150 -0.0309  0.0089
  524TMC3    O2 7844   2.719   2.056   9.134  0.2135  0.0997  0.4387
  525MPD2     C 7845   0.809   3.287  14.337  0.8081  0.8295  0.1691
  525MPD2    C1 7846   0.920   3.298  14.412 -0.3718  0.5387  0.5839
  525MPD2    C2 7847   0.982   3.423  14.413 -0.2541 -0.0532 -1.0998
  525MPD2    C3 7848   0.927   3.533  14.351  0.2385 -0.7919  0.3746
  525MPD2    C4 7849   0.814   3.510  14.278 -0.3239  0.2898 -0.1070
  525MPD2    C5 7850   0.750   3.387  14.268  0.6007  0.8613  0.7472
  525MPD2     H 7851   1.066   3.443  14.479 -1.1984 -0.9796  0.3971
  525MPD2    H1 7852   0.768   3.594  14.227  0.7436  1.1972  0.4202
  525MPD2    H2 7853   0.761   3.190  14.336  1.4831  0.4949  0.1791
  525MPD2    H3 7854   0.657   3.365  14.218 -0.4949  1.9213  2.3003
  525MPD2     N 7855   0.974   3.669  14.366  0.0706 -0.0492  0.0352
  525MPD2    H5 7856   0.921   3.739  14.316 -1.3067 -1.1143  0.0131
  525MPD2    N1 7857   0.982   3.195  14.491 -0.2588 -0.5905 -0.4347
  525MPD2    H7 7858   1.067   3.217  14.541 -0.1341 -1.1463 -0.4109
  526TMC3    C1 7859   0.967   3.011  14.639  0.2934 -0.4326  0.1982
  526TMC3    C2 7860   0.892   3.004  14.749 -0.2679  0.1424  0.2142
  526TMC3    C3 7861   0.947   2.950  14.867  0.0575 -0.6038  0.6602
  526TMC3    C4 7862   1.096   2.981  14.630  0.6878 -0.0592  0.4281
  526TMC3    C5 7863   1.145   2.931  14.745  0.0198  0.1489  0.0328
  526TMC3    C6 7864   1.074   2.911  14.858 -0.5323  0.7541  0.1405
  526TMC3     C 7865   0.906   3.084  14.526 -0.1590 -0.1210 -0.1366
  526TMC3     O 7866   0.792   3.045  14.496  0.2370 -0.1236 -0.4420
  526TMC3     H 7867   0.790   3.042  14.743  0.1108  0.8303 -1.8231
  526TMC3    H1 7868   1.149   2.985  14.535 -0.6963 -0.7879 -0.3790
  526TMC3    H2 7869   1.126   2.868  14.944 -1.4343  2.0978  1.3642
  526TMC3    C7 7870   1.257   2.837  14.735 -0.2528  0.7346  0.0143
  526TMC3    C8 7871   0.892   2.960  15.006  0.0714  0.1855 -0.5059
  526TMC3    O1 7872   1.303   2.801  14.839  0.3825  0.2414  0.2430
  526TMC3    O2 7873   0.960   2.920  15.100 -0.3011  0.6998 -0.1384
  527MPD2     C 7874   2.768   1.263   0.631 -0.1146  0.8588  0.1844
  527MPD2    C1 7875   2.810   1.314   0.746 -0.3764 -0.7968 -0.4783
  527MPD2    C2 7876   2.920   1.257   0.809  0.1098  0.1115  0.8004
  527MPD2    C3 7877   2.969   1.134   0.756 -0.0812  0.0163 -0.3656
  527MPD2    C4 7878   2.904   1.079   0.648  0.6539  0.6521 -0.7181
  527MPD2    C5 7879   2.824   1.153   0.575  0.1013 -0.1663  0.2078
  527MPD2     H 7880   2.964   1.302   0.898 -0.6368  0.3861  1.0321
  527MPD2    H1 7881   2.952   0.995   0.598  0.2931 -0.0805  0.1627
  527MPD2    H2 7882   2.682   1.299   0.577 -0.9925 -1.2639  0.1703
  527MPD2    H3 7883   2.777   1.119   0.483 -0.0329 -1.5432  0.7865
  527MPD2     N 7884   3.091   1.070   0.799  0.1924  0.5572  0.7334
  527MPD2    H5 7885   3.158   1.123   0.854  1.0584  0.5693 -0.3390
  527MPD2    N1 7886   2.736   1.411   0.816 -0.0601  0.6688 -0.1001
  527MPD2    H7 7887   2.759   1.422   0.914  0.3265 -0.7577 -0.0413
  528TMC3    C1 7888   2.552   1.569   0.853  0.2275 -0.4436 -0.2176
  528TMC3    C2 7889   2.615   1.584   0.976 -0.3842 -0.2675 -0.3333
  528TMC3    C3 7890   2.529   1.614   1.081 -0.1570  0.6979  1.0735
  528TMC3    C4 7891   2.421   1.592   0.832  1.0153  0.1972  0.5995
  528TMC3    C5 7892   2.341   1.625   0.936  0.0089 -0.3092 -0.2849
  528TMC3    C6 7893   2.398   1.649   1.059 -0.1583  0.6437 -0.3966
  528TMC3     C 7894   2.633   1.491   0.758  0.0914  0.1035 -0.0914
  528TMC3     O 7895   2.620   1.517   0.638  0.0282  0.0554  0.4310
  528TMC3     H 7896   2.722   1.579   0.986 -0.3408 -0.0306 -0.7026
  528TMC3    H1 7897   2.387   1.563   0.733  1.3414  0.4642  0.4103
  528TMC3    H2 7898   2.337   1.686   1.141 -0.5586 -0.1434 -0.3336
  528TMC3    C7 7899   2.193   1.638   0.927 -0.3681  0.2181 -0.3240
  528TMC3    C8 7900   2.592   1.670   1.201 -0.3009  0.2494 -0.5034
  528TMC3    O1 7901   2.136   1.666   1.030  0.3253 -0.1744  0.2313
  528TMC3    O2 7902   2.709   1.715   1.194  0.1070  0.6014  0.0108
  529MPD2     C 7903   1.309   3.812   0.245  0.3132  0.4407  0.4667
  529MPD2    C1 7904   1.316   3.901   0.348 -0.3533 -0.1562 -0.1376
  529MPD2    C2 7905   1.310   4.043   0.323  0.5787 -0.4788  0.4692
  529MPD2    C3 7906   1.295   4.092   0.188  0.1652  0.1907 -0.2942
  529MPD2    C4 7907   1.275   3.994   0.095 -0.3131 -0.1397  0.0098
  529MPD2    C5 7908   1.283   3.858   0.121  0.7031  0.5367  0.1044
  529MPD2     H 7909   1.318   4.114   0.404 -0.7307  1.0572 -0.7641
  529MPD2    H1 7910   1.242   4.028  17.737 -1.0496 -1.3192 -0.1522
  529MPD2    H2 7911   1.311   3.704   0.254 -0.8570  0.3181 -0.7731
  529MPD2    H3 7912   1.261   3.791   0.039 -1.1661  0.5150  0.6407
  529MPD2     N 7913   1.280   4.223   0.153  0.0970 -0.0675  0.4559
  529MPD2    H5 7914   1.243   4.244   0.061  1.5514  2.2047  0.3782
  529MPD2    N1 7915   1.319   3.862   0.486  0.4462  0.0534 -0.0630
  529MPD2    H7 7916   1.328   3.935   0.557 -1.8792  1.6360 -1.3862
  530TMC3    C1 7917   1.319   3.714   0.672  0.2223 -0.5986  0.5039
  530TMC3    C2 7918   1.369   3.820   0.747 -1.5425 -0.2801 -0.1485
  530TMC3    C3 7919   1.375   3.802   0.878  0.2262  0.4502 -1.0331
  530TMC3    C4 7920   1.269   3.603   0.732 -0.5443 -0.6347  0.5254
  530TMC3    C5 7921   1.252   3.613   0.870  0.2135  0.6308 -0.6842
  530TMC3    C6 7922   1.313   3.705   0.949  0.0766  0.4891 -0.5310
  530TMC3     C 7923   1.313   3.730   0.527  0.0631  0.6537  0.1247
  530TMC3     O 7924   1.268   3.643   0.455 -0.5981  0.0142  0.3295
  530TMC3     H 7925   1.432   3.899   0.707 -0.8235 -0.1590  1.2458
  530TMC3    H1 7926   1.211   3.529   0.678  1.2319 -0.5857 -1.4356
  530TMC3    H2 7927   1.317   3.708   1.057  1.1960  0.8380 -0.5825
  530TMC3    C7 7928   1.212   3.493   0.940 -0.4868  0.0852 -0.8065
  530TMC3    C8 7929   1.448   3.902   0.958  0.2938  0.1427 -0.4080
  530TMC3    O1 7930   1.227   3.385   0.887  0.4970  0.6424  0.3981
  530TMC3    O2 7931   1.454   4.017   0.912 -0.0014  0.4343  0.5029
  531MPD2     C 7932   0.057   2.294  13.424  0.3733 -0.3511  0.4951
  531MPD2    C1 7933   4.674   2.256  13.490  0.0642  0.0226 -0.1476
  531MPD2    C2 7934   4.590   2.181  13.414  0.5126  0.2834  0.1023
  531MPD2    C3 7935   4.604   2.154  13.278  0.2160 -0.7462  0.3691
  531MPD2    C4 7936   4.718   2.196  13.214  0.2120 -1.0097  0.6691
  531MPD2    C5 7937   0.077   2.267  13.285 -0.1654 -0.5101 -0.2041
  531MPD2     H 7938   4.508   2.128  13.459  0.2478 -0.0453 -0.7571
  531MPD2    H1 7939   0.021   2.171  13.115  0.6664  2.7989 -0.1206
  531MPD2    H2 7940   0.134   2.348  13.479 -0.9617  1.3152  0.7165
  531MPD2    H3 7941   0.166   2.297  13.230  0.5221 -0.4115  0.9705
  531MPD2     N 7942   4.501   2.080  13.223 -0.2618  0.4382 -0.3034
  531MPD2    H5 7943   4.425   2.061  13.288 -0.6209 -1.2246 -1.2004
  531MPD2    N1 7944   4.647   2.280  13.624  0.1740  0.2887 -0.5389
  531MPD2    H7 7945   4.729   2.311  13.675  0.3581 -0.0566 -0.6310
  532TMC3    C1 7946   4.536   2.288  13.835  0.1225  1.0780 -0.5371
  532TMC3    C2 7947   4.408   2.281  13.885  0.4596  0.3141  0.5309
  532TMC3    C3 7948   4.398   2.219  14.014  0.0298  0.1622 -0.1457
  532TMC3    C4 7949   4.649   2.238  13.897  1.2550 -0.5408 -0.5102
  532TMC3    C5 7950   4.630   2.195  14.027 -0.3985 -0.0272  0.3571
  532TMC3    C6 7951   4.512   2.187  14.087 -0.2989 -0.1283 -0.2849
  532TMC3     C 7952   4.525   2.268  13.689 -0.0439  0.3241 -0.8468
  532TMC3     O 7953   4.418   2.220  13.656  0.7473 -0.1458  0.6627
  532TMC3     H 7954   4.315   2.321  13.847  0.7535 -0.7899 -1.3207
  532TMC3    H1 7955   0.010   2.231  13.845  1.9466 -0.7866  0.8113
  532TMC3    H2 7956   4.505   2.149  14.188  0.8545 -0.2163 -0.2380
  532TMC3    C7 7957   0.016   2.167  14.105 -0.1651  0.3788 -0.3433
  532TMC3    C8 7958   4.315   2.099  13.990  0.1044 -0.2095  0.3164
  532TMC3    O1 7959   0.006   2.178  14.223  0.0117  0.4565  0.1937
  532TMC3    O2 7960   4.296   2.027  14.090 -0.2303 -0.7378 -0.0693
  533TMC3    C1 7961   1.123   3.843  14.423  0.7012  0.6545 -0.4638
  533TMC3    C2 7962   1.256   3.879  14.429 -0.4502  0.0826 -0.4843
  533TMC3    C3 7963   1.297   3.956  14.536 -0.0972 -0.1776  0.4880
  533TMC3    C4 7964   1.032   3.902  14.498 -0.5705 -0.5327 -0.5450
  533TMC3    C5 7965   1.071   3.974  14.605 -0.0689 -0.6477 -0.4982
  533TMC3    C6 7966   1.204   3.990  14.630  0.8334 -0.1755  0.2751
  533TMC3     C 7967   1.104   3.706  14.392  0.5983  0.1501 -0.6910
  533TMC3     O 7968   1.196   3.631  14.423 -0.8771  0.2934  0.4592
  533TMC3     H 7969   1.334   3.826  14.375 -0.7312 -1.5508  0.6884
  533TMC3    H1 7970   0.926   3.888  14.480 -0.7363  0.8555 -0.6901
  533TMC3    H2 7971   1.242   4.047  14.714 -0.6414  1.3242 -0.0598
  533TMC3    C7 7972   0.972   3.980  14.712  0.2269 -0.5606  0.3125
  533TMC3    C8 7973   1.441   3.976  14.570 -0.5505  0.1144 -0.0762
  533TMC3    O1 7974   0.886   3.901  14.706 -0.0232 -0.0729 -0.3325
  533TMC3    O2 7975   1.474   3.969  14.688  0.1979  0.2021  0.0040
  534MPD2     C 7976   3.455   0.597   1.261 -0.3276  0.3095 -0.5379
  534MPD2    C1 7977   3.321   0.603   1.276  0.6102  0.3328  0.6353
  534MPD2    C2 7978   3.247   0.491   1.316  0.0659  0.0047 -0.2271
  534MPD2    C3 7979   3.316   0.368   1.341 -0.7402 -0.0891  0.1804
  534MPD2    C4 7980   3.450   0.362   1.333 -0.5879  0.4845  0.7887
  534MPD2    C5 7981   3.519   0.473   1.292 -0.4540 -0.0081  0.0419
  534MPD2     H 7982   3.140   0.506   1.322 -0.0040  0.1061 -1.7975
  534MPD2    H1 7983   3.510   0.274   1.350 -2.3025 -0.5141  1.6820
  534MPD2    H2 7984   3.516   0.679   1.225 -1.2234  0.5785 -1.4302
  534MPD2    H3 7985   3.627   0.471   1.281 -0.3719 -0.3027  0.9263
  534MPD2     N 7986   3.250   0.246   1.355 -0.4483  0.5197  0.3265
  534MPD2    H5 7987   3.310   0.165   1.344  0.0741  0.7180  1.7216
  534MPD2    N1 7988   3.248   0.721   1.262 -0.2826  0.0400  0.7075
  534MPD2    H7 7989   3.153   0.716   1.298 -0.2588  1.5921  0.9752
  535TMC3    C1 7990   3.070   0.092   1.336  0.7312  0.0571  0.2578
  535TMC3    C2 7991   2.944   0.061   1.366  0.1634  0.0181  0.3751
  535TMC3    C3 7992   2.884   4.689   1.309 -0.2378 -0.8661 -0.2625
  535TMC3    C4 7993   3.153   0.007   1.261  0.7271 -0.7022 -0.7146
  535TMC3    C5 7994   3.095   4.624   1.214  0.2224 -1.0566 -0.0813
  535TMC3    C6 7995   2.963   4.599   1.240 -0.1093 -0.0142 -0.5772
  535TMC3     C 7996   3.113   0.230   1.365  0.7376 -0.1676 -0.2039
  535TMC3     O 7997   3.031   0.317   1.389  0.0715  0.5559  0.4941
  535TMC3     H 7998   2.880   0.140   1.404 -1.1113 -1.2726  0.9320
  535TMC3    H1 7999   3.251   0.040   1.226  0.4936 -1.8355 -2.4135
  535TMC3    H2 8000   2.927   4.504   1.202  1.2903 -0.7791  0.0033
  535TMC3    C7 8001   3.157   4.553   1.101 -0.3972  0.9139 -0.0518
  535TMC3    C8 8002   2.747   4.658   1.320  0.3164 -0.0333  0.8392
  535TMC3    O1 8003   3.275   4.515   1.110  0.1784  0.6327 -0.6579
  535TMC3    O2 8004   2.710   4.559   1.266  0.3049  0.1071  0.3659
  536MPD2     C 8005   1.614   3.287  16.582 -0.3457 -0.1747 -0.4860
  536MPD2    C1 8006   1.720   3.202  16.552  0.1130 -0.3658  0.4491
  536MPD2    C2 8007   1.741   3.150  16.425  0.7280  0.2254  0.0088
  536MPD2    C3 8008   1.647   3.173  16.323 -0.2761 -0.6488 -0.4414
  536MPD2    C4 8009   1.541   3.256  16.360  0.4735  0.0672  0.1086
  536MPD2    C5 8010   1.530   3.309  16.486  0.0802 -0.0666  0.6955
  536MPD2     H 8011   1.829   3.088  16.413  2.4199  2.7967 -0.5750
  536MPD2    H1 8012   1.465   3.285  16.288 -1.3092 -0.6583  1.6768
  536MPD2    H2 8013   1.605   3.330  16.681 -2.0195 -0.5823 -0.4644
  536MPD2    H3 8014   1.443   3.371  16.504  1.5318  1.4723  2.4416
  536MPD2     N 8015   1.644   3.104  16.193 -1.0146  0.4774  0.5251
  536MPD2    H5 8016   1.562   3.125  16.138 -0.6289 -1.8243 -0.9149
  536MPD2    N1 8017   1.802   3.176  16.667  0.0434  0.5003  0.5086
  536MPD2    H7 8018   1.758   3.198  16.756  0.5552  1.5680  0.4910
  537TMC3    C1 8019   1.979   3.104  16.798  0.3059  0.3174  0.4299
  537TMC3    C2 8020   2.109   3.132  16.831 -0.3262 -0.4527  0.1649
  537TMC3    C3 8021   2.156   3.088  16.951  0.3235 -0.2194 -0.1777
  537TMC3    C4 8022   1.900   3.032  16.887 -0.1592 -0.0297 -0.8107
  537TMC3    C5 8023   1.957   2.983  17.003 -0.0842 -0.5580  0.1009
  537TMC3    C6 8024   2.085   3.012  17.037 -0.1835 -0.0223  0.3286
  537TMC3     C 8025   1.934   3.146  16.664 -0.4891  0.3801  0.3705
  537TMC3     O 8026   2.009   3.170  16.572  0.3151 -0.3743 -0.2674
  537TMC3     H 8027   2.156   3.208  16.769  0.2815 -0.3560  0.7454
  537TMC3    H1 8028   1.799   3.009  16.856 -0.7607  1.4972  0.0168
  537TMC3    H2 8029   2.131   2.979  17.129  0.4760  0.9078  0.3419
  537TMC3    C7 8030   1.881   2.895  17.092  0.5289 -1.0309 -0.2199
  537TMC3    C8 8031   2.268   3.150  17.027 -0.9497 -0.2041  0.1937
  537TMC3    O1 8032   1.758   2.909  17.093  0.3899  0.5210 -0.0311
  537TMC3    O2 8033   2.281   3.137  17.150  0.1650  0.3668 -0.0379
  538TMC3    C1 8034   3.513   0.975  10.876  0.8365 -0.0852 -0.5860
  538TMC3    C2 8035   3.638   0.976  10.818 -0.0927 -0.3380  0.0116
  538TMC3    C3 8036   3.648   1.022  10.688 -0.1932  0.5902  0.3562
  538TMC3    C4 8037   3.401   1.031  10.806 -0.0064 -0.9036  0.0646
  538TMC3    C5 8038   3.415   1.074  10.678 -0.2707  0.2424 -0.6551
  538TMC3    C6 8039   3.535   1.065  10.620  0.4402  0.1334  0.3642
  538TMC3     C 8040   3.506   1.004  11.016  0.3280 -0.3047 -0.2307
  538TMC3     O 8041   3.404   1.053  11.061  0.1133  0.1509 -0.1167
  538TMC3     H 8042   3.722   0.924  10.862  0.2852 -1.7106 -2.3444
  538TMC3    H1 8043   3.303   1.036  10.853  0.8678  2.2525  1.5458
  538TMC3    H2 8044   3.543   1.081  10.513 -1.6147  0.4804  0.2628
  538TMC3    C7 8045   3.297   1.139  10.622  0.3700 -0.0685 -0.3013
  538TMC3    C8 8046   3.771   0.984  10.620  0.2071 -0.6597  0.0319
  538TMC3    O1 8047   3.187   1.125  10.682 -0.0638 -0.0156 -0.3355
  538TMC3    O2 8048   3.843   0.900  10.671 -0.3134  0.9041 -0.0578
  539MPD2     C 8049   3.475   0.548  11.596  0.5583  0.2352 -0.0648
  539MPD2    C1 8050   3.386   0.473  11.523 -0.3789 -0.6678  0.2428
  539MPD2    C2 8051   3.271   0.528  11.479 -0.2955  0.2006  0.1037
  539MPD2    C3 8052   3.233   0.656  11.516  0.4101 -0.2960  0.6416
  539MPD2    C4 8053   3.313   0.722  11.611  0.0099  0.8938  0.0631
  539MPD2    C5 8054   3.427   0.664  11.657 -0.5684  0.2849 -0.7677
  539MPD2     H 8055   3.212   0.482  11.400 -0.0170 -1.2854  0.7560
  539MPD2    H1 8056   3.279   0.820  11.641  0.3406  1.1243 -0.3004
  539MPD2    H2 8057   3.574   0.519  11.627  0.5433 -0.0032 -0.2411
  539MPD2    H3 8058   3.475   0.717  11.738  1.0709 -1.0694 -0.8522
  539MPD2     N 8059   3.116   0.726  11.468 -0.1283 -0.2519 -0.5388
  539MPD2    H5 8060   3.096   0.812  11.517 -0.4452  0.2351 -1.5320
  539MPD2    N1 8061   3.433   0.348  11.480 -0.3596  0.2104  0.9349
  539MPD2    H7 8062   3.532   0.329  11.490 -0.3747 -0.3968 -0.0222
  540TMC3    C1 8063   2.903   0.745  11.366 -0.1390 -0.0260 -0.1000
  540TMC3    C2 8064   2.867   0.773  11.236 -0.5082  0.2576 -0.3847
  540TMC3    C3 8065   2.809   0.892  11.207  0.6367 -0.5762 -0.3390
  540TMC3    C4 8066   2.883   0.839  11.467  0.0515 -0.2520 -0.1018
  540TMC3    C5 8067   2.824   0.963  11.433  0.3360 -0.3847  0.5683
  540TMC3    C6 8068   2.791   0.990  11.302 -0.3344  0.6042  0.1290
  540TMC3     C 8069   3.029   0.673  11.375 -0.5740 -0.5489 -0.2107
  540TMC3     O 8070   3.040   0.575  11.309 -0.3076 -0.1392 -0.5565
  540TMC3     H 8071   2.902   0.706  11.157 -0.6393 -0.1102 -0.1305
  540TMC3    H1 8072   2.902   0.809  11.569  0.4192  0.8839  0.1634
  540TMC3    H2 8073   2.733   1.076  11.271 -0.1706  1.0938  1.2038
  540TMC3    C7 8074   2.736   1.017  11.528  0.3359 -0.6266  0.8451
  540TMC3    C8 8075   2.763   0.932  11.071 -0.8606  0.5006 -0.2421
  540TMC3    O1 8076   2.636   1.074  11.488  0.0635 -0.2838 -0.0027
  540TMC3    O2 8077   2.762   1.050  11.035 -1.0015  0.4468  0.3230
  541MPD2     C 8078   1.181   2.371  12.812 -0.2589  0.2427  0.1684
  541MPD2    C1 8079   1.219   2.242  12.780 -0.5443 -0.2626  0.0756
  541MPD2    C2 8080   1.219   2.199  12.648 -0.0689 -0.2175 -0.2768
  541MPD2    C3 8081   1.171   2.290  12.556  0.0058 -0.3733 -0.4399
  541MPD2    C4 8082   1.114   2.414  12.589 -0.3799  0.2658 -0.6774
  541MPD2    C5 8083   1.126   2.453  12.716  0.1162 -0.1601 -0.7328
  541MPD2     H 8084   1.257   2.100  12.627  0.4994  0.2506 -1.4281
  541MPD2    H1 8085   1.067   2.483  12.520  2.0867  0.3245 -2.3306
  541MPD2    H2 8086   1.198   2.413  12.910  1.7148  1.4239 -0.6846
  541MPD2    H3 8087   1.092   2.551  12.747  2.7530  0.5324 -0.0221
  541MPD2     N 8088   1.155   2.261  12.421  0.0167 -0.0751 -0.0221
  541MPD2    H5 8089   1.104   2.325  12.360 -3.7222 -1.4398  1.6265
  541MPD2    N1 8090   1.263   2.154  12.880  0.5846 -0.4636  0.2327
  541MPD2    H7 8091   1.310   2.070  12.847  0.9466 -0.6040  1.1133
  542TMC3    C1 8092   1.159   2.162  12.213 -0.5551 -0.2204  0.1572
  542TMC3    C2 8093   1.151   2.042  12.145 -0.4904 -0.2062  0.5091
  542TMC3    C3 8094   1.077   2.036  12.024  0.2598 -0.6623 -0.0088
  542TMC3    C4 8095   1.105   2.274  12.159  0.1294  0.4624  0.2274
  542TMC3    C5 8096   1.058   2.268  12.031 -0.0045 -0.0343  0.1426
  542TMC3    C6 8097   1.026   2.150  11.967 -0.3294  0.5753 -0.6230
  542TMC3     C 8098   1.186   2.148  12.353  0.3250  0.6878  0.6665
  542TMC3     O 8099   1.233   2.047  12.401  0.6657 -0.4381  0.0506
  542TMC3     H 8100   1.198   1.951  12.180  0.4141 -0.4928 -1.4658
  542TMC3    H1 8101   1.140   2.369  12.197  1.6769  0.5506 -1.4516
  542TMC3    H2 8102   0.974   2.138  11.873 -2.0601  0.7034  0.3230
  542TMC3    C7 8103   1.016   2.397  11.975 -0.5576 -0.1604 -0.7747
  542TMC3    C8 8104   1.100   1.920  11.935 -0.2962 -0.2240 -0.5300
  542TMC3    O1 8105   0.990   2.482  12.060 -0.1247 -0.5491 -0.5860
  542TMC3    O2 8106   1.106   1.946  11.814 -0.0615  0.6607  0.0417
  543TMC3    C1 8107   0.969   3.239  16.939  0.0155  1.0212 -0.0099
  543TMC3    C2 8108   0.989   3.106  16.905  0.0163 -0.8456 -0.0698
  543TMC3    C3 8109   0.981   3.011  16.998 -0.6190 -0.8446 -0.1735
  543TMC3    C4 8110   0.933   3.274  17.067  0.3914 -0.2405 -0.2509
  543TMC3    C5 8111   0.911   3.174  17.151 -0.5083 -0.2632 -0.2296
  543TMC3    C6 8112   0.938   3.041  17.125  0.2975 -0.0870 -0.1347
  543TMC3     C 8113   1.031   3.333  16.840 -0.2029  0.2281 -0.3395
  543TMC3     O 8114   1.124   3.295  16.766  0.7798 -0.3492  0.3860
  543TMC3     H 8115   1.004   3.083  16.800 -0.7016 -0.5821 -0.2256
  543TMC3    H1 8116   0.925   3.378  17.097 -0.6171 -0.6337  0.8540
  543TMC3    H2 8117   0.925   2.960  17.197 -1.3712 -1.7518 -2.3268
  543TMC3    C7 8118   0.896   3.209  17.294 -0.6137  0.0541  0.6826
  543TMC3    C8 8119   1.012   2.873  16.959  0.4411  0.5885 -0.0055
  543TMC3    O1 8120   0.917   3.130  17.384 -0.1184 -0.6200  0.1102
  543TMC3    O2 8121   1.042   2.858  16.838 -0.4294  0.0930 -0.1680
  544MPD2     C 8122   1.094   2.381  17.135 -0.7373  0.2080 -0.0881
  544MPD2    C1 8123   1.124   2.439  17.007  0.5142 -0.8561  0.1681
  544MPD2    C2 8124   1.079   2.564  16.974  0.7120  0.5546  0.6335
  544MPD2    C3 8125   1.031   2.643  17.074  0.3812  0.5700 -0.5237
  544MPD2    C4 8126   1.007   2.584  17.198 -0.3017 -0.7984  0.2986
  544MPD2    C5 8127   1.028   2.448  17.227 -0.2346 -0.3742  0.2410
  544MPD2     H 8128   1.080   2.604  16.873 -0.1959  0.2016  0.4830
  544MPD2    H1 8129   0.961   2.648  17.272 -3.2155 -2.9582  0.3141
  544MPD2    H2 8130   1.130   2.280  17.153 -0.1012  0.4028 -0.2604
  544MPD2    H3 8131   1.017   2.407  17.326  0.5947 -1.5261 -0.1442
  544MPD2     N 8132   1.005   2.781  17.066  0.2936  0.0772  0.2143
  544MPD2    H5 8133   0.980   2.815  17.159 -0.4174 -2.2684  0.8673
  544MPD2    N1 8134   1.206   2.367  16.926  0.1979  0.0196  0.2364
  544MPD2    H7 8135   1.235   2.279  16.968 -1.1493  1.1042  3.5027
  545TMC3    C1 8136   1.341   2.299  16.754 -0.1941 -0.4005  0.3803
  545TMC3    C2 8137   1.353   2.286  16.617 -0.0453 -0.4525 -0.5244
  545TMC3    C3 8138   1.406   2.172  16.566  0.2235 -0.0091  0.1763
  545TMC3    C4 8139   1.381   2.206  16.848  0.5538 -0.0835 -0.0146
  545TMC3    C5 8140   1.451   2.099  16.787 -0.1620  0.2733  0.2132
  545TMC3    C6 8141   1.467   2.083  16.648 -0.4883  1.1791 -0.1132
  545TMC3     C 8142   1.254   2.408  16.802 -0.2095 -0.5387  0.2820
  545TMC3     O 8143   1.234   2.504  16.727  0.1741 -0.7001  0.4904
  545TMC3     H 8144   1.308   2.366  16.559 -0.1152 -0.1057  0.0033
  545TMC3    H1 8145   1.384   2.222  16.955  1.1136 -0.7780  0.0710
  545TMC3    H2 8146   1.528   2.006  16.602 -4.0568 -0.7926 -1.4924
  545TMC3    C7 8147   1.575   2.049  16.858  0.3764 -0.2501 -0.2640
  545TMC3    C8 8148   1.413   2.149  16.421 -0.2989  0.4968 -0.3769
  545TMC3    O1 8149   1.662   1.986  16.801  0.0502  0.3509  0.0132
  545TMC3    O2 8150   1.410   2.255  16.360  0.6531  0.0632  0.3995
  546MPD2     C 8151   2.245   3.528   0.062 -0.1665 -0.3051 -0.3449
  546MPD2    C1 8152   2.270   3.579  17.679 -0.0808  0.1112 -0.6798
  546MPD2    C2 8153   2.339   3.698  17.669  0.1940  0.3139  0.1493
  546MPD2    C3 8154   2.377   3.757   0.042  0.1325 -0.3023 -0.0980
  546MPD2    C4 8155   2.350   3.709   0.167  0.0783  0.0400 -0.0034
  546MPD2    C5 8156   2.276   3.598   0.177 -0.3137 -0.5877  0.4462
  546MPD2     H 8157   2.360   3.740  17.571  2.1998 -1.0560 -0.0086
  546MPD2    H1 8158   2.387   3.760   0.254 -1.3996 -0.9316  1.1974
  546MPD2    H2 8159   2.194   3.432   0.065 -0.8387  0.0448 -0.6299
  546MPD2    H3 8160   2.268   3.546   0.272  2.1973  0.0136  1.0038
  546MPD2     N 8161   2.451   3.871   0.033  0.4415 -0.0938  0.0338
  546MPD2    H5 8162   2.471   3.919   0.119 -0.4920  0.5118 -0.0825
  546MPD2    N1 8163   2.222   3.501  17.573  0.0235  0.1403 -0.2049
  546MPD2    H7 8164   2.172   3.415  17.591  0.7878 -0.0283  1.0835
  547TMC3    C1 8165   2.174   3.443  17.355  0.9699 -0.0742 -0.2952
  547TMC3    C2 8166   2.139   3.490  17.237  0.4241 -0.4672  0.6350
  547TMC3    C3 8167   2.044   3.413  17.174  0.2549 -0.6263  0.2210
  547TMC3    C4 8168   2.147   3.322  17.406 -0.2235 -0.0265  0.5136
  547TMC3    C5 8169   2.056   3.247  17.347 -0.6914 -0.2055  0.4484
  547TMC3    C6 8170   1.989   3.299  17.236  1.2353 -0.2975  0.0758
  547TMC3     C 8171   2.236   3.537  17.445  0.2578 -0.4192 -0.2248
  547TMC3     O 8172   2.265   3.646  17.400 -0.3682  0.1596  0.2094
  547TMC3     H 8173   2.174   3.582  17.191  0.3521 -0.8896 -0.2504
  547TMC3    H1 8174   2.205   3.278  17.486  0.6767 -2.7010 -1.6243
  547TMC3    H2 8175   1.922   3.236  17.180  0.7205  0.0079  0.3531
  547TMC3    C7 8176   2.005   3.126  17.406 -0.2225  0.0113 -0.4890
  547TMC3    C8 8177   2.019   3.428  17.033  0.2811  0.2550 -0.5169
  547TMC3    O1 8178   1.888   3.101  17.424 -0.1749 -0.0133 -0.6493
  547TMC3    O2 8179   1.918   3.379  16.995 -0.4274  0.7480  0.6505
  548MPD2     C 8180   2.200   3.722  12.778 -0.4185 -0.9428 -0.1305
  548MPD2    C1 8181   2.121   3.651  12.691 -0.3628 -0.2018  0.2802
  548MPD2    C2 8182   2.185   3.572  12.595 -0.3891  0.7096 -0.3490
  548MPD2    C3 8183   2.327   3.555  12.599  0.0653 -0.0843  0.4896
  548MPD2    C4 8184   2.412   3.630  12.682 -0.6485  0.1642 -0.8903
  548MPD2    C5 8185   2.341   3.710  12.772 -0.1645 -0.2157  0.0552
  548MPD2     H 8186   2.131   3.515  12.520 -1.4544 -0.1134  1.0674
  548MPD2    H1 8187   2.520   3.636  12.674 -0.6133 -0.8422 -1.1458
  548MPD2    H2 8188   2.157   3.792  12.848 -0.1848 -1.1626  0.2366
  548MPD2    H3 8189   2.397   3.776  12.837  0.4092 -0.0150 -0.6417
  548MPD2     N 8190   2.373   3.472  12.494 -0.2467 -0.1471  0.2230
  548MPD2    H5 8191   2.310   3.449  12.418  0.2910  1.7098 -0.7845
  548MPD2    N1 8192   1.982   3.673  12.699  0.5286  0.0317  0.2971
  548MPD2    H7 8193   1.950   3.735  12.773 -2.6306  1.8803 -2.6359
  549TMC3    C1 8194   1.753   3.621  12.676  0.3194 -0.6892 -0.5755
  549TMC3    C2 8195   1.719   3.750  12.661  0.2303  0.1979 -0.2609
  549TMC3    C3 8196   1.592   3.787  12.683 -0.5314  0.3427  0.6713
  549TMC3    C4 8197   1.661   3.519  12.697  0.2627 -0.4860 -0.0886
  549TMC3    C5 8198   1.533   3.563  12.730 -0.0814  0.2038 -0.4216
  549TMC3    C6 8199   1.495   3.696  12.718 -0.5040 -0.5598 -0.0435
  549TMC3     C 8200   1.889   3.595  12.631  0.1027  0.3316  0.1144
  549TMC3     O 8201   1.907   3.498  12.560 -0.0847 -0.5711  0.1722
  549TMC3     H 8202   1.797   3.820  12.632 -0.7348  0.4277 -2.3508
  549TMC3    H1 8203   1.699   3.417  12.695  0.5202 -0.3965  0.2097
  549TMC3    H2 8204   1.401   3.728  12.762 -0.3351 -0.3356  0.1607
  549TMC3    C7 8205   1.429   3.478  12.790 -0.2628  0.8293 -0.6184
  549TMC3    C8 8206   1.539   3.908  12.625  0.3067  0.1156  1.2913
  549TMC3    O1 8207   1.331   3.536  12.849 -0.3470  0.3122  0.3169
  549TMC3    O2 8208   1.420   3.925  12.640  0.3731 -0.1104  0.0499
  550TMC3    C1 8209   0.514   1.947  12.566  0.1224 -0.7480  0.3654
  550TMC3    C2 8210   0.522   2.008  12.687 -0.1818  0.8282  0.4099
  550TMC3    C3 8211   0.420   2.100  12.715 -0.1116 -0.3754 -0.2735
  550TMC3    C4 8212   0.419   1.975  12.476  0.4073  0.6912 -0.5737
  550TMC3    C5 8213   0.333   2.072  12.508  0.8197 -0.8217  0.0955
  550TMC3    C6 8214   0.319   2.127  12.630 -0.7836 -0.3384 -0.1370
  550TMC3     C 8215   0.608   1.840  12.528 -0.4332  0.1555 -0.2312
  550TMC3     O 8216   0.680   1.798  12.616 -0.0361  1.2106  0.2616
  550TMC3     H 8217   0.613   1.994  12.743 -1.5072 -0.0183  2.3649
  550TMC3    H1 8218   0.416   1.930  12.378  2.2187 -0.5521 -0.0674
  550TMC3    H2 8219   0.249   2.205  12.656 -2.4983 -1.5030 -1.2705
  550TMC3    C7 8220   0.223   2.106  12.420  1.0998 -0.2006 -0.0725
  550TMC3    C8 8221   0.432   2.185  12.832  0.2408 -0.3102 -0.1134
  550TMC3    O1 8222   0.125   2.160  12.469 -0.0406 -0.2977  0.2862
  550TMC3    O2 8223   0.375   2.290  12.826  0.7052  0.1388 -0.3816
  551TMC3    C1 8224   3.221   4.312  13.424  0.2062 -0.3687  0.4455
  551TMC3    C2 8225   3.328   4.347  13.345 -0.4573  0.2178  0.1463
  551TMC3    C3 8226   3.406   4.448  13.385  0.3112 -0.5195  0.3091
  551TMC3    C4 8227   3.194   4.373  13.540  0.3039  0.4113 -0.3970
  551TMC3    C5 8228   3.285   4.472  13.578  1.3653  0.0722 -0.7446
  551TMC3    C6 8229   3.391   4.510  13.507  0.3012 -0.3756  0.0681
  551TMC3     C 8230   3.111   4.288  13.327  0.1875  0.3142  0.3448
  551TMC3     O 8231   3.126   4.332  13.216 -0.6400  0.1537  0.3166
  551TMC3     H 8232   3.354   4.305  13.249 -1.2001  0.6706 -0.2439
  551TMC3    H1 8233   3.111   4.342  13.603  0.2759 -1.1387 -1.2072
  551TMC3    H2 8234   3.453   4.593  13.540  2.6425 -0.9282 -2.9703
  551TMC3    C7 8235   3.277   4.534  13.708  0.0215  0.8036  0.3210
  551TMC3    C8 8236   3.535   4.459  13.308  0.1463  0.5404  0.6799
  551TMC3    O1 8237   3.375   4.602  13.742 -0.3053 -0.0339  0.0914
  551TMC3    O2 8238   3.563   4.358  13.250 -0.0818  0.1669  0.6265
  552MPD2     C 8239   4.487   1.806  14.469 -0.3087  0.4768  0.4433
  552MPD2    C1 8240   4.592   1.817  14.379  0.2734  0.3247 -0.2033
  552MPD2    C2 8241   4.716   1.857  14.420  0.3587 -0.6556  0.1249
  552MPD2    C3 8242   0.012   1.857  14.551  0.2175  0.8588  0.8191
  552MPD2    C4 8243   4.645   1.846  14.643 -0.2727  0.4431  0.3371
  552MPD2    C5 8244   4.515   1.836  14.605  0.4141  1.0360  0.2706
  552MPD2     H 8245   0.058   1.870  14.345  1.3989  1.7002  1.5991
  552MPD2    H1 8246   4.671   1.854  14.748 -1.5915 -0.8304  0.7594
  552MPD2    H2 8247   4.387   1.775  14.442 -0.1255 -0.5643  0.9672
  552MPD2    H3 8248   4.434   1.831  14.677  0.9467 -1.1363  0.7199
  552MPD2     N 8249   0.139   1.867  14.607 -0.0024 -0.9325  0.2180
  552MPD2    H5 8250   0.138   1.861  14.708  4.4147 -1.5241  0.2267
  552MPD2    N1 8251   4.579   1.786  14.240  0.7442 -0.1401 -0.1819
  552MPD2    H7 8252   4.669   1.795  14.193  0.7196 -0.3462 -0.2681
  553TMC3    C1 8253   4.496   1.721  14.033 -0.3292 -0.1018  0.0091
  553TMC3    C2 8254   4.561   1.824  13.969 -0.1497 -0.7822 -0.5291
  553TMC3    C3 8255   4.642   1.786  13.866 -0.0999  0.2422  0.6314
  553TMC3    C4 8256   4.520   1.587  14.006 -0.5472  0.5354  0.6548
  553TMC3    C5 8257   4.602   1.554  13.906 -0.4378  0.5992  0.2479
  553TMC3    C6 8258   4.658   1.652  13.834 -0.6176  0.0100 -0.0176
  553TMC3     C 8259   4.469   1.739  14.174 -0.2665 -0.2526 -0.6895
  553TMC3     O 8260   4.370   1.684  14.222  0.6434 -0.3897  0.2186
  553TMC3     H 8261   4.541   1.928  13.992  2.6726 -0.1035 -1.1666
  553TMC3    H1 8262   4.487   1.511  14.075 -0.5772 -0.3198 -0.3073
  553TMC3    H2 8263   4.706   1.635  13.738  4.1247  2.5140  1.9107
  553TMC3    C7 8264   4.696   1.452  13.957  0.1138 -0.1207  0.0556
  553TMC3    C8 8265   4.692   1.889  13.771 -0.6940  0.3732  0.5477
  553TMC3    O1 8266   4.640   1.358  14.011  0.4601 -0.2641 -0.0021
  553TMC3    O2 8267   0.012   1.987  13.818 -0.0055  0.2488 -1.0750
  554TMC3    C1 8268   2.445   0.554  11.197 -0.4640  0.5937  0.2442
  554TMC3    C2 8269   2.363   0.466  11.135  0.2971  0.7970 -0.1706
  554TMC3    C3 8270   2.244   0.520  11.087 -0.9681  0.1201  0.6997
  554TMC3    C4 8271   2.428   0.690  11.197 -0.7757  0.3420  0.1634
  554TMC3    C5 8272   2.309   0.734  11.144 -0.5757  0.2850 -0.3835
  554TMC3    C6 8273   2.211   0.651  11.093  0.7836  0.1801  0.4215
  554TMC3     C 8274   2.577   0.504  11.214  0.3771 -0.5482  0.5981
  554TMC3     O 8275   2.669   0.565  11.168 -0.4315 -0.2701 -0.0281
  554TMC3     H 8276   2.390   0.366  11.104 -2.1249  0.6300 -1.7921
  554TMC3    H1 8277   2.506   0.755  11.234 -0.7542  1.2742 -1.4926
  554TMC3    H2 8278   2.133   0.693  11.030 -0.9443 -0.9559  1.8097
  554TMC3    C7 8279   2.316   0.855  11.067 -0.3387 -0.4243 -0.0039
  554TMC3    C8 8280   2.167   0.445  10.992 -0.9756  0.1096 -0.0792
  554TMC3    O1 8281   2.286   0.851  10.951  0.2274 -0.0396 -0.8330
  554TMC3    O2 8282   2.232   0.377  10.909 -0.3860  0.2244  0.0432
  555TMC3    C1 8283   1.139   0.602  14.928 -0.6182  0.1652 -0.1817
  555TMC3    C2 8284   1.093   0.677  15.033 -0.3089  0.4461  0.1445
  555TMC3    C3 8285   1.090   0.611  15.151  0.7181  0.0629 -0.9089
  555TMC3    C4 8286   1.164   0.468  14.929  0.2119 -0.5721  0.2836
  555TMC3    C5 8287   1.129   0.405  15.046  0.3386  0.0829 -0.1016
  555TMC3    C6 8288   1.085   0.471  15.161 -0.1905  0.7241  0.0407
  555TMC3     C 8289   1.213   0.674  14.822 -0.5257  0.1238  0.0453
  555TMC3     O 8290   1.321   0.617  14.793  0.2922  0.2618 -0.2308
  555TMC3     H 8291   1.114   0.783  15.026 -1.1638  0.6526  0.6218
  555TMC3    H1 8292   1.199   0.418  14.839  0.5184 -0.2034  0.1955
  555TMC3    H2 8293   1.069   0.425  15.258  0.6252  1.7918  0.6864
  555TMC3    C7 8294   1.139   0.264  15.072  0.6294  0.7603 -0.0488
  555TMC3    C8 8295   1.113   0.687  15.276  0.2314 -1.2874 -0.2610
  555TMC3    O1 8296   1.150   0.228  15.189  1.0360 -0.2690 -0.5663
  555TMC3    O2 8297   1.093   0.808  15.276 -0.1174 -0.1464 -0.0857
  556MPD2     C 8298   4.475   2.044  10.480 -0.2272 -0.1263 -0.8913
  556MPD2    C1 8299   4.377   1.963  10.545 -0.6685 -0.2818  1.3423
  556MPD2    C2 8300   4.301   1.879  10.462  0.3042 -0.1350  0.0144
  556MPD2    C3 8301   4.322   1.877  10.324  0.0483 -0.0852 -0.1585
  556MPD2    C4 8302   4.417   1.955  10.262 -0.2650 -0.8452  0.0027
  556MPD2    C5 8303   4.490   2.031  10.341 -0.0221 -0.4068  0.3572
  556MPD2     H 8304   4.226   1.815  10.507  0.5615 -0.8784 -0.6107
  556MPD2    H1 8305   4.436   1.970  10.156 -1.2017  2.0579  0.2463
  556MPD2    H2 8306   4.542   2.112  10.532 -0.7184  0.4760 -1.0497
  556MPD2    H3 8307   4.558   2.090  10.281  0.7259 -1.6395 -0.0116
  556MPD2     N 8308   4.236   1.789  10.251  0.2984  0.4456  0.1096
  556MPD2    H5 8309   4.171   1.736  10.308 -0.3933  0.1379 -0.9543
  556MPD2    N1 8310   4.358   1.961  10.681  0.3312 -0.0970 -0.0430
  556MPD2    H7 8311   4.272   1.914  10.709  1.0848 -0.3331  1.8660
  557TMC3    C1 8312   4.102   1.710  10.075  0.6204 -0.0796  0.7603
  557TMC3    C2 8313   4.028   1.758   9.971  0.5837  0.0352 -0.0752
  557TMC3    C3 8314   3.926   1.680   9.927 -0.1786 -0.0535 -0.0406
  557TMC3    C4 8315   4.077   1.588  10.125  0.0719  0.2916 -0.4094
  557TMC3    C5 8316   3.972   1.515  10.072 -0.4950 -0.5367  0.2092
  557TMC3    C6 8317   3.882   1.565   9.983 -0.1416  0.3479 -0.1912
  557TMC3     C 8318   4.220   1.784  10.114 -0.2946  0.5583 -0.0337
  557TMC3     O 8319   4.296   1.823  10.025  0.0981  0.1015 -0.2677
  557TMC3     H 8320   4.059   1.854   9.931  0.1011  0.5008  0.6472
  557TMC3    H1 8321   4.152   1.552  10.195  0.3844 -1.2855 -1.5747
  557TMC3    H2 8322   3.789   1.513   9.961  0.2087 -1.1873  1.8701
  557TMC3    C7 8323   3.938   1.393  10.138 -0.7341  0.0166 -0.4058
  557TMC3    C8 8324   3.860   1.728   9.808  0.4170  0.1617 -0.2000
  557TMC3    O1 8325   3.825   1.344  10.128 -0.1034 -0.0942  0.1569
  557TMC3    O2 8326   3.894   1.836   9.765  0.0202  0.7457  0.6934
  558TMC3    C1 8327   1.896   4.449  10.512  0.1083  0.0574  0.3382
  558TMC3    C2 8328   1.763   4.467  10.538  0.2945 -0.2929 -0.0113
  558TMC3    C3 8329   1.688   4.485  10.423 -0.1379  0.2093  0.0983
  558TMC3    C4 8330   1.959   4.457  10.392 -0.5139  0.7568  0.6120
  558TMC3    C5 8331   1.877   4.482  10.281 -0.1751 -0.0190 -0.1451
  558TMC3    C6 8332   1.743   4.504  10.301 -0.1673  0.0029 -0.1293
  558TMC3     C 8333   1.981   4.416  10.626 -0.1875 -0.1575 -0.1385
  558TMC3     O 8334   2.102   4.420  10.604 -0.4448  0.1527 -0.2146
  558TMC3     H 8335   1.720   4.453  10.636 -2.1556 -1.2857 -1.2115
  558TMC3    H1 8336   2.064   4.434  10.380  0.1850  3.9082  0.7065
  558TMC3    H2 8337   1.672   4.514  10.220  1.4404  3.4682 -1.1112
  558TMC3    C7 8338   1.940   4.505  10.153  0.1785 -0.2995  0.2499
  558TMC3    C8 8339   1.540   4.505  10.429  0.5215  0.6298  0.1087
  558TMC3    O1 8340   2.063   4.532  10.156 -0.0274 -0.1815 -0.4231
  558TMC3    O2 8341   1.483   4.518  10.323 -0.0050 -0.0628  0.4149
  559MPD2     C 8342   1.657   0.080  10.230 -0.0756  0.3153  0.1683
  559MPD2    C1 8343   1.623   0.108  10.362 -0.0123 -0.8357  0.1830
  559MPD2    C2 8344   1.716   0.109  10.463  0.7022 -0.0496 -0.3470
  559MPD2    C3 8345   1.848   0.090  10.436  0.5361  1.0761 -0.4362
  559MPD2    C4 8346   1.882   0.063  10.304 -0.5719 -0.3864 -0.6246
  559MPD2    C5 8347   1.786   0.058  10.200 -1.2245 -0.0722  0.1750
  559MPD2     H 8348   1.695   0.128  10.568  0.4117  1.3918 -0.6682
  559MPD2    H1 8349   1.985   0.058  10.270  0.3550  1.4135  1.8637
  559MPD2    H2 8350   1.585   0.065  10.150 -1.1119  0.1705  1.1422
  559MPD2    H3 8351   1.818   0.032  10.099 -1.9589  0.2527 -0.1390
  559MPD2     N 8352   1.938   0.104  10.544  0.0822 -0.7396 -0.5580
  559MPD2    H5 8353   1.891   0.087  10.632  1.5377 -1.7844  0.0151
  559MPD2    N1 8354   1.486   0.137  10.379  0.2137  0.4988  0.2204
  559MPD2    H7 8355   1.435   0.157  10.294  0.8830 -1.2750 -0.5926
  560TMC3    C1 8356   2.134   0.084  10.676 -0.7132  0.5039 -0.2309
  560TMC3    C2 8357   2.045   0.074  10.777 -0.3214 -0.0328  0.0668
  560TMC3    C3 8358   2.082   4.726  10.881  0.1708  0.0305  0.4171
  560TMC3    C4 8359   2.255   0.025  10.678  0.1603  0.0892  0.2816
  560TMC3    C5 8360   2.286   4.677  10.782  0.0006 -1.1557 -0.3053
  560TMC3    C6 8361   2.198   4.657  10.887 -0.2665  0.3387  0.1200
  560TMC3     C 8362   2.074   0.102  10.541 -0.4253 -0.2343 -0.0198
  560TMC3     O 8363   2.141   0.113  10.440 -0.0272  0.0338 -0.3279
  560TMC3     H 8364   1.960   0.141  10.782 -1.2995 -1.4784  2.7210
  560TMC3    H1 8365   2.323   0.037  10.595  0.3611 -0.5678  0.3498
  560TMC3    H2 8366   2.227   4.575  10.953 -0.8696  1.2424  1.5162
  560TMC3    C7 8367   2.426   4.639  10.814 -0.1999 -0.1283  0.1962
  560TMC3    C8 8368   1.985   4.711  10.982  0.2324  0.1843  0.6741
  560TMC3    O1 8369   2.437   4.536  10.882 -0.1102  0.2811 -0.0300
  560TMC3    O2 8370   1.880   0.031  10.961  0.3506 -0.2517 -0.3261
  561TMC3    C1 8371   4.423   3.954  11.232 -0.4453 -0.3424  0.3120
  561TMC3    C2 8372   4.365   3.859  11.319 -0.2543  0.4428  0.8128
  561TMC3    C3 8373   4.283   3.912  11.413  0.1427 -0.4926  0.1083
  561TMC3    C4 8374   4.384   4.080  11.219 -0.1118 -0.1378 -0.0952
  561TMC3    C5 8375   4.301   4.128  11.318  0.0882  0.2876 -0.0873
  561TMC3    C6 8376   4.248   4.045  11.410 -0.3886  1.0196 -0.4097
  561TMC3     C 8377   4.485   3.892  11.115  0.0857  1.0292 -0.6683
  561TMC3     O 8378   4.485   3.769  11.123  0.6850 -0.0292  0.0617
  561TMC3     H 8379   4.379   3.751  11.316 -0.8507  0.4318 -1.3072
  561TMC3    H1 8380   4.425   4.155  11.153  0.6475 -0.3829  0.0962
  561TMC3    H2 8381   4.183   4.083  11.488 -0.4114  1.3004 -0.5647
  561TMC3    C7 8382   4.255   4.269  11.336 -0.2049  0.1718  0.1526
  561TMC3    C8 8383   4.234   3.835  11.529  0.0306 -0.2710 -0.4259
  561TMC3    O1 8384   4.154   4.290  11.396 -0.0623 -0.6216 -0.4351
  561TMC3    O2 8385   4.268   3.715  11.518 -0.1956  0.0531  0.1416
  562TMC3    C1 8386   1.341   0.775  16.165 -0.2471  0.0264  0.2362
  562TMC3    C2 8387   1.260   0.878  16.151  0.5857  0.1331  0.2984
  562TMC3    C3 8388   1.123   0.864  16.128  0.2813 -0.3599  0.3354
  562TMC3    C4 8389   1.296   0.648  16.161  0.1340  0.5655  0.0709
  562TMC3    C5 8390   1.157   0.634  16.142 -0.1258 -0.0424 -0.3753
  562TMC3    C6 8391   1.069   0.740  16.118 -0.4286 -0.7711  0.1085
  562TMC3     C 8392   1.463   0.791  16.234 -0.1760  0.1302  0.0551
  562TMC3     O 8393   1.506   0.695  16.299  0.1068 -0.8886 -0.6007
  562TMC3     H 8394   1.301   0.978  16.155 -0.3646  0.5208  0.6275
  562TMC3    H1 8395   1.363   0.564  16.140  1.4200  1.2577  1.3908
  562TMC3    H2 8396   0.964   0.722  16.098 -1.2696  1.7535  2.2741
  562TMC3    C7 8397   1.101   0.518  16.205 -0.0677 -0.2349 -0.1269
  562TMC3    C8 8398   1.032   0.972  16.166  0.0073  0.2985 -0.3193
  562TMC3    O1 8399   0.983   0.481  16.192 -0.3083  0.1382  0.4511
  562TMC3    O2 8400   1.077   1.073  16.225  0.4342 -0.2432  0.1678
  563MPD2     C 8401   3.114   2.237  15.714 -1.0562  0.3727  0.6745
  563MPD2    C1 8402   3.145   2.218  15.847  0.0382 -0.0111  0.7129
  563MPD2    C2 8403   3.277   2.228  15.880  0.1368  0.1890 -0.3703
  563MPD2    C3 8404   3.374   2.270  15.795 -0.0538  0.6167 -0.1766
  563MPD2    C4 8405   3.345   2.287  15.667 -0.0708  0.3604  0.0038
  563MPD2    C5 8406   3.211   2.280  15.629  0.2038 -0.3590 -0.2918
  563MPD2     H 8407   3.314   2.218  15.981  0.5047 -1.0856 -0.6376
  563MPD2    H1 8408   3.412   2.334  15.596 -0.5955  0.3976 -0.4680
  563MPD2    H2 8409   3.014   2.231  15.673 -0.9603 -0.2839  0.5249
  563MPD2    H3 8410   3.190   2.297  15.524 -1.6926  0.2879  0.1947
  563MPD2     N 8411   3.501   2.296  15.863  0.0977  0.4730  0.4457
  563MPD2    H5 8412   3.496   2.289  15.964  0.3372 -0.9377  0.3617
  563MPD2    N1 8413   3.050   2.181  15.948 -0.0006  0.3243 -0.1395
  563MPD2    H7 8414   2.960   2.155  15.908  0.0406 -0.4471  0.2835
  564TMC3    C1 8415   2.972   2.104  16.152 -0.0986  0.1648  0.0663
  564TMC3    C2 8416   2.913   1.992  16.099 -0.7686  0.0943  0.5022
  564TMC3    C3 8417   2.830   1.919  16.179  0.1561  0.0610 -0.2257
  564TMC3    C4 8418   2.982   2.117  16.284 -0.1238  0.0614 -0.3335
  564TMC3    C5 8419   2.907   2.029  16.363 -1.0261  0.0788 -0.5730
  564TMC3    C6 8420   2.818   1.939  16.311 -0.2166 -0.4503  0.0922
  564TMC3     C 8421   3.070   2.179  16.082 -0.4837 -0.3974  0.5236
  564TMC3     O 8422   3.163   2.232  16.142  0.0987  0.5698  0.4415
  564TMC3     H 8423   2.911   1.971  15.993  1.3131  2.1867  0.0334
  564TMC3    H1 8424   3.047   2.185  16.337 -1.2316 -1.3663  2.8823
  564TMC3    H2 8425   2.751   1.880  16.373 -0.3953 -1.5422 -1.1427
  564TMC3    C7 8426   2.996   1.959  16.452  0.2258  0.2664  0.1301
  564TMC3    C8 8427   2.847   1.772  16.150  0.2907  0.9188 -0.0526
  564TMC3    O1 8428   3.101   2.014  16.490 -0.2419  0.3802  0.0352
  564TMC3    O2 8429   2.787   1.708  16.234 -0.4700 -0.1120 -0.4147
  565TMC3    C1 8430   3.288   3.252   9.735 -0.5904 -0.5570 -0.8930
  565TMC3    C2 8431   3.328   3.149   9.819 -0.0746 -0.6716  0.4337
  565TMC3    C3 8432   3.231   3.062   9.870  0.1968  0.3497 -0.6503
  565TMC3    C4 8433   3.155   3.256   9.697  0.5387  0.1159  0.0488
  565TMC3    C5 8434   3.063   3.165   9.749 -0.6292  0.0026  0.0157
  565TMC3    C6 8435   3.103   3.063   9.834 -0.1552 -0.6886  0.3920
  565TMC3     C 8436   3.393   3.331   9.662  0.0131  0.2196 -0.0440
  565TMC3     O 8437   3.356   3.381   9.559  0.0813  0.0290 -0.4569
  565TMC3     H 8438   3.432   3.121   9.829  0.2261  0.5594  0.7729
  565TMC3    H1 8439   3.120   3.335   9.631  1.2114 -0.8957 -1.5446
  565TMC3    H2 8440   3.027   3.015   9.894  0.0322 -0.6493  0.6607
  565TMC3    C7 8441   2.923   3.163   9.704 -0.4657  0.1358 -0.1375
  565TMC3    C8 8442   3.263   2.972   9.972 -0.0259 -0.1277  0.1982
  565TMC3    O1 8443   2.880   3.266   9.653  0.1603  0.0151  0.2017
  565TMC3    O2 8444   3.347   3.008  10.055  0.1674  0.4490 -0.2344
  566MPD2     C 8445   0.944   0.467  14.420 -0.0575  0.1105  0.3568
  566MPD2    C1 8446   0.981   0.524  14.298  0.1758  0.0409 -0.5178
  566MPD2    C2 8447   0.882   0.546  14.207 -0.6661 -0.5152 -0.5196
  566MPD2    C3 8448   0.749   0.514  14.241  0.3391  0.1457 -0.1839
  566MPD2    C4 8449   0.718   0.465  14.370 -1.0786 -0.6519  1.1705
  566MPD2    C5 8450   0.818   0.440  14.456  0.0917 -0.4585 -0.3889
  566MPD2     H 8451   0.904   0.586  14.108  0.4133  1.7254  0.6359
  566MPD2    H1 8452   0.618   0.432  14.394 -1.5308 -0.5324 -0.5867
  566MPD2    H2 8453   1.025   0.451  14.490 -1.4898 -0.1279  1.9314
  566MPD2    H3 8454   0.795   0.399  14.555  1.0316 -1.0435 -0.4155
  566MPD2     N 8455   0.647   0.507  14.140 -0.3857 -0.2582 -0.2697
  566MPD2    H5 8456   0.566   0.447  14.154 -2.1336  1.8383 -1.3322
  566MPD2    N1 8457   1.117   0.553  14.277 -0.3831  0.0938  0.1418
  566MPD2    H7 8458   1.175   0.539  14.360  1.2001  1.2247 -0.7593
  567TMC3    C1 8459   1.314   0.550  14.144  0.0025  0.0789  0.0861
  567TMC3    C2 8460   1.357   0.555  14.010  0.4204 -0.5695 -0.4161
  567TMC3    C3 8461   1.446   0.461  13.972 -0.8258 -0.5545  0.3619
  567TMC3    C4 8462   1.360   0.454  14.231  0.5610 -0.5724  0.1683
  567TMC3    C5 8463   1.423   0.346  14.181  0.2131 -0.5745 -0.2831
  567TMC3    C6 8464   1.471   0.356  14.056 -0.3220  0.1325 -0.1329
  567TMC3     C 8465   1.178   0.605  14.168 -0.1128  0.2576  0.3781
  567TMC3     O 8466   1.124   0.662  14.073 -0.7661  0.1665 -0.1402
  567TMC3     H 8467   1.320   0.631  13.943  1.6218  0.2240 -0.1845
  567TMC3    H1 8468   1.335   0.448  14.336  1.3204 -0.8604  0.3356
  567TMC3    H2 8469   1.523   0.267  14.023 -0.8594  0.0613 -0.7973
  567TMC3    C7 8470   1.350   0.225  14.211  0.7361 -0.7247 -0.4645
  567TMC3    C8 8471   1.466   0.451  13.828 -1.2279  0.5927  0.8446
  567TMC3    O1 8472   1.354   0.134  14.128  0.1399  0.4958 -0.1128
  567TMC3    O2 8473   1.449   0.557  13.767 -0.6982  0.0228 -0.0988
  568MPD2     C 8474   3.092   0.344  16.756 -1.0167  0.3581 -1.0776
  568MPD2    C1 8475   3.043   0.441  16.838  0.3384 -0.2119  0.0328
  568MPD2    C2 8476   2.991   0.562  16.785  0.5018  0.1596  0.5547
  568MPD2    C3 8477   3.002   0.590  16.649  0.4291  0.1621  0.2660
  568MPD2    C4 8478   3.044   0.487  16.564 -0.5127 -0.0619  0.0449
  568MPD2    C5 8479   3.094   0.368  16.620  0.3980  0.4368 -0.2345
  568MPD2     H 8480   2.949   0.632  16.857 -0.7977 -0.8924  0.8301
  568MPD2    H1 8481   3.041   0.492  16.456  2.8712 -3.0830 -0.2039
  568MPD2    H2 8482   3.122   0.247  16.792  1.6833  1.0703 -1.3853
  568MPD2    H3 8483   3.128   0.299  16.544  0.8340 -0.7455  1.0514
  568MPD2     N 8484   2.963   0.719  16.606 -0.0214 -0.0066 -0.5138
  568MPD2    H5 8485   2.938   0.789  16.675  1.3069 -0.2375  0.1872
  568MPD2    N1 8486   3.039   0.436  16.980 -0.2451  0.2429  0.5287
  568MPD2    H7 8487   2.986   0.506  17.032 -0.7146  0.5999 -0.4348
  569TMC3    C1 8488   2.930   0.896  16.462  0.1807 -0.6350 -0.7224
  569TMC3    C2 8489   2.871   0.963  16.564 -1.1497 -0.5995 -0.0613
  569TMC3    C3 8490   2.875   1.096  16.550  0.0513 -0.0245 -0.5980
  569TMC3    C4 8491   2.975   0.951  16.349 -0.2131 -0.3203 -1.2538
  569TMC3    C5 8492   2.948   1.083  16.329  0.8224 -0.6370  0.7123
  569TMC3    C6 8493   2.900   1.160  16.432  0.5479  0.4748 -0.1054
  569TMC3     C 8494   2.969   0.761  16.475 -0.2444  0.3888 -0.7159
  569TMC3     O 8495   3.005   0.704  16.376  0.0250 -0.0974  0.6935
  569TMC3     H 8496   2.849   0.918  16.660 -1.1154  1.1815  0.7854
  569TMC3    H1 8497   3.041   0.907  16.275 -0.3577  2.6386 -3.1116
  569TMC3    H2 8498   2.871   1.263  16.414 -1.4866 -0.2500 -1.0069
  569TMC3    C7 8499   3.010   1.147  16.211 -1.0110 -0.1639  0.4848
  569TMC3    C8 8500   2.802   1.184  16.641 -0.4785  0.5546  0.8835
  569TMC3    O1 8501   3.078   1.080  16.132  1.1649  0.0362  0.1101
  569TMC3    O2 8502   2.690   1.154  16.679 -0.6369  0.0791  0.5210
  570TMC3    C1 8503   2.460   4.403  16.061 -0.5135  0.0879  0.6226
  570TMC3    C2 8504   2.557   4.399  15.961  0.0180  0.0468  0.1007
  570TMC3    C3 8505   2.607   4.519  15.917  0.0191  0.1051  0.4396
  570TMC3    C4 8506   2.410   4.523  16.104 -0.9439 -0.6264  0.0394
  570TMC3    C5 8507   2.463   4.640  16.047  0.4034  0.2745 -0.2361
  570TMC3    C6 8508   2.564   4.641  15.957 -0.3299 -0.0414 -0.1230
  570TMC3     C 8509   2.422   4.267  16.121  0.0100 -0.1590 -0.3413
  570TMC3     O 8510   2.420   4.171  16.045  0.1248 -0.1218  0.2502
  570TMC3     H 8511   2.602   4.305  15.930  1.4050 -0.3903  3.4835
  570TMC3    H1 8512   2.349   4.517  16.194 -2.0631  1.6878 -0.5712
  570TMC3    H2 8513   2.582   4.734  15.905  1.7044 -0.6768 -0.5288
  570TMC3    C7 8514   2.467   0.018  16.138 -0.7682  0.2010 -0.3730
  570TMC3    C8 8515   2.714   4.519  15.819  0.1725  0.5320 -0.0014
  570TMC3    O1 8516   2.563   0.090  16.134 -0.2088  0.1392  0.1759
  570TMC3    O2 8517   2.780   4.619  15.817  0.2688  0.3048 -1.0810
  571MPD2     C 8518   4.560   1.531  17.529 -0.2855 -0.0635  0.9269
  571MPD2    C1 8519   4.524   1.550  17.664  0.0701  0.5891  0.0289
  571MPD2    C2 8520   4.622   1.565   0.013 -0.1044 -0.1435  0.0583
  571MPD2    C3 8521   0.023   1.571  17.722 -0.2486  0.4431  0.4243
  571MPD2    C4 8522   0.056   1.558  17.585  0.0647  0.2381 -0.2235
  571MPD2    C5 8523   4.691   1.530  17.495  0.7176  0.4842  0.2235
  571MPD2     H 8524   4.589   1.596   0.112  2.3523 -1.0240  1.1473
  571MPD2    H1 8525   0.160   1.568  17.556  0.4507 -0.4302  0.9396
  571MPD2    H2 8526   4.497   1.518  17.441  1.5242  1.2228 -0.5555
  571MPD2    H3 8527   4.723   1.512  17.393  0.3348  1.0552  0.0009
  571MPD2     N 8528   0.119   1.600   0.079  0.6179  0.1333  0.0261
  571MPD2    H5 8529   0.206   1.634   0.039  0.1057 -2.1197 -3.0155
  571MPD2    N1 8530   4.388   1.561  17.695  0.6025 -0.3077  0.5877
  571MPD2    H7 8531   4.370   1.588   0.053  0.3089 -0.7765  0.6669
  572TMC3    C1 8532   0.202   1.654   0.290 -0.2881  0.1753 -0.2731
  572TMC3    C2 8533   0.168   1.673   0.421  0.1391 -0.0449  0.0628
  572TMC3    C3 8534   0.240   1.770   0.491  0.0539 -0.1134 -0.1827
  572TMC3    C4 8535   0.312   1.713   0.229 -0.0417  0.8584 -0.2816
  572TMC3    C5 8536   0.377   1.806   0.298 -0.2195 -0.0718  0.2142
  572TMC3    C6 8537   0.340   1.843   0.426 -0.2252  1.1054  0.2174
  572TMC3     C 8538   0.097   1.599   0.211  0.6748  0.0248 -0.4961
  572TMC3     O 8539   0.004   1.545   0.271  0.5357 -0.5594 -0.2479
  572TMC3     H 8540   0.075   1.638   0.464  0.0502  1.9491  1.5251
  572TMC3    H1 8541   0.336   1.703   0.124 -1.2781  0.9918 -0.5849
  572TMC3    H2 8542   0.392   1.927   0.470 -2.4346  0.6442  3.7153
  572TMC3    C7 8543   0.430   1.916   0.225 -0.1516 -0.1859  0.2963
  572TMC3    C8 8544   0.174   1.847   0.601  0.5971 -0.2854  0.1534
  572TMC3    O1 8545   0.408   2.030   0.254 -0.0243 -0.0531  0.6086
  572TMC3    O2 8546   0.180   1.970   0.588  0.0938  0.2529  0.7118
  573MPD2     C 8547   1.012   1.827   0.338  0.2621  0.3390 -0.4029
  573MPD2    C1 8548   1.062   1.949   0.376 -0.4972 -0.3654 -0.1327
  573MPD2    C2 8549   1.186   1.984   0.327  0.0803 -0.0584 -0.0880
  573MPD2    C3 8550   1.253   1.899   0.241  0.2351 -0.4406 -1.2161
  573MPD2    C4 8551   1.215   1.769   0.221  0.6343  0.0775  0.2251
  573MPD2    C5 8552   1.092   1.738   0.271  0.0131 -1.1582 -0.4684
  573MPD2     H 8553   1.237   2.080   0.337 -0.3200  0.3326 -1.7723
  573MPD2    H1 8554   1.273   1.702   0.159  0.1621  0.8560 -1.0336
  573MPD2    H2 8555   0.909   1.800   0.357  0.4546  1.9551  2.9521
  573MPD2    H3 8556   1.059   1.638   0.245 -1.3713 -1.1129  1.1236
  573MPD2     N 8557   1.373   1.931   0.179  0.1656  0.0065 -0.1442
  573MPD2    H5 8558   1.443   1.864   0.149 -0.5968 -0.2877 -1.2456
  573MPD2    N1 8559   0.990   2.032   0.461 -0.1208 -0.4872 -0.6553
  573MPD2    H7 8560   0.896   1.997   0.468  0.3814 -0.9966  3.5471
  574TMC3    C1 8561   1.542   2.076   0.105 -0.2393 -0.6793 -0.1438
  574TMC3    C2 8562   1.572   2.094  17.707 -0.0717  0.1826  0.5621
  574TMC3    C3 8563   1.694   2.166  17.679  0.4155  0.0295  0.7814
  574TMC3    C4 8564   1.611   2.143   0.205  0.1510 -0.6678  0.1223
  574TMC3    C5 8565   1.723   2.218   0.170  0.1723  0.5532  0.2158
  574TMC3    C6 8566   1.760   2.237   0.036 -0.3511 -0.7227 -0.4932
  574TMC3     C 8567   1.407   2.061   0.146 -0.6489 -0.4865  0.2629
  574TMC3     O 8568   1.331   2.159   0.137  0.1799  0.4082  0.4364
  574TMC3     H 8569   1.518   2.042  17.629  0.2205  3.4244 -1.7852
  574TMC3    H1 8570   1.573   2.131   0.306 -1.2853 -3.6634 -0.7529
  574TMC3    H2 8571   1.842   2.306   0.017  0.6153 -1.8523 -0.4177
  574TMC3    C7 8572   1.783   2.314   0.264 -0.3539 -0.0142 -0.4058
  574TMC3    C8 8573   1.756   2.169  17.547 -0.7890 -0.4477  0.2291
  574TMC3    O1 8574   1.901   2.345   0.244  1.2264 -0.1014 -0.1547
  574TMC3    O2 8575   1.871   2.204  17.547  0.2031 -0.1155  0.3801
  575TMC3    C1 8576   3.427   2.819  10.794  0.2939  0.0789  0.0516
  575TMC3    C2 8577   3.472   2.700  10.849  0.4827 -0.3569  0.2534
  575TMC3    C3 8578   3.479   2.594  10.759 -0.3982  0.6840 -0.4615
  575TMC3    C4 8579   3.393   2.831  10.666 -0.0221 -0.0442  0.2549
  575TMC3    C5 8580   3.399   2.732  10.584 -0.1207 -0.7847  0.0969
  575TMC3    C6 8581   3.456   2.606  10.627 -0.3642  0.2766  0.1477
  575TMC3     C 8582   3.461   2.941  10.864  0.2608 -0.2622 -0.4622
  575TMC3     O 8583   3.562   2.944  10.932  0.0644 -0.3668 -0.1477
  575TMC3     H 8584   3.487   2.692  10.956  0.8733 -1.6579  0.0963
  575TMC3    H1 8585   3.368   2.931  10.633 -1.7698  0.4545  3.0675
  575TMC3    H2 8586   3.468   2.519  10.564 -0.8358  1.0572 -1.0261
  575TMC3    C7 8587   3.386   2.764  10.445 -0.0846 -0.2860  0.6993
  575TMC3    C8 8588   3.505   2.456  10.809  0.3457 -0.1336  0.3085
  575TMC3    O1 8589   3.378   2.886  10.419  0.7095  0.4895 -1.0626
  575TMC3    O2 8590   3.472   2.359  10.741  0.2123 -0.3365  0.1722
  576MPD2     C 8591   3.384   4.228  12.674 -0.0014  0.2091 -0.2597
  576MPD2    C1 8592   3.469   4.316  12.601 -0.3363  0.8122  0.1575
  576MPD2    C2 8593   3.493   4.441  12.663  0.4610 -0.4070  0.3890
  576MPD2    C3 8594   3.432   4.476  12.785 -0.0185  0.6760  0.1842
  576MPD2    C4 8595   3.364   4.377  12.853  0.6328 -0.2558  0.0216
  576MPD2    C5 8596   3.336   4.255  12.802 -0.2615 -0.7164 -0.3399
  576MPD2     H 8597   3.566   4.500  12.609 -0.5051 -0.4296 -0.9385
  576MPD2    H1 8598   3.330   4.386  12.955 -1.6314  2.6736 -0.9784
  576MPD2    H2 8599   3.350   4.132  12.635  1.3638 -0.6083  0.5396
  576MPD2    H3 8600   3.275   4.184  12.857  0.6563 -2.1960 -1.2568
  576MPD2     N 8601   3.460   4.597  12.848  0.0594  0.2723  0.0271
  576MPD2    H5 8602   3.525   4.657  12.798  1.3229  0.0016  1.3463
  576MPD2    N1 8603   3.519   4.301  12.470 -0.1667 -0.2073 -0.0610
  576MPD2    H7 8604   3.563   4.382  12.426  0.9755 -0.2059  1.1119
  577TMC3    C1 8605   3.579   4.192  12.278 -0.8312 -0.5865  0.7577
  577TMC3    C2 8606   3.636   4.076  12.234  0.1058 -0.1822 -0.4776
  577TMC3    C3 8607   3.691   4.081  12.116 -0.1168  0.5260  0.2185
  577TMC3    C4 8608   3.577   4.307  12.204 -0.3932  0.0796  0.0040
  577TMC3    C5 8609   3.633   4.305  12.081  0.0110 -1.1541  0.3827
  577TMC3    C6 8610   3.696   4.191  12.037 -0.5183 -0.2731 -0.1913
  577TMC3     C 8611   3.521   4.184  12.403  0.4217 -0.2675  0.1410
  577TMC3     O 8612   3.476   4.074  12.437 -0.0261 -0.5257  0.5160
  577TMC3     H 8613   3.648   3.992  12.302 -1.9697 -0.5300 -0.5457
  577TMC3    H1 8614   3.526   4.398  12.231 -0.7436 -0.3236  0.7062
  577TMC3    H2 8615   3.735   4.204  11.937  0.3104  0.0634  0.1811
  577TMC3    C7 8616   3.676   4.429  12.021  0.3340  0.5792 -0.8799
  577TMC3    C8 8617   3.775   3.969  12.083  0.2479 -0.0340 -0.1488
  577TMC3    O1 8618   3.586   4.512  12.001 -0.4483  0.0346  0.1838
  577TMC3    O2 8619   3.760   3.867  12.148 -0.0180 -0.2162 -0.2409
  578MPD2     C 8620   1.384   4.436   0.694  0.3731  0.1090 -0.4322
  578MPD2    C1 8621   1.504   4.372   0.667 -0.0131  0.2532 -0.1132
  578MPD2    C2 8622   1.600   4.352   0.759  0.3268 -0.2725 -0.1797
  578MPD2    C3 8623   1.576   4.398   0.886 -0.1191 -0.9461  0.0224
  578MPD2    C4 8624   1.460   4.465   0.915 -0.2575 -0.5724 -0.1187
  578MPD2    C5 8625   1.365   4.479   0.819  0.2359 -0.4654  0.1516
  578MPD2     H 8626   1.698   4.309   0.738  0.0250 -1.3689  0.6641
  578MPD2    H1 8627   1.430   4.515   1.006  0.0727 -0.8315  0.1288
  578MPD2    H2 8628   1.321   4.473   0.613  0.2267  2.4110  0.7435
  578MPD2    H3 8629   1.283   4.548   0.836  1.9287  1.8960 -1.2307
  578MPD2     N 8630   1.680   4.387   0.975 -0.0483  0.7455 -0.2141
  578MPD2    H5 8631   1.742   4.308   0.954  1.9221  2.0624  0.6429
  578MPD2    N1 8632   1.525   4.337   0.531  0.0917 -0.3898 -0.6900
  578MPD2    H7 8633   1.442   4.333   0.473 -0.1611 -0.6261 -0.3120
  579TMC3    C1 8634   1.826   4.424   1.147  0.6147  0.6040 -0.5709
  579TMC3    C2 8635   1.904   4.518   1.213 -0.4365  0.5272  0.3941
  579TMC3    C3 8636   2.017   4.484   1.271 -0.6467 -0.5792 -0.0664
  579TMC3    C4 8637   1.870   4.293   1.156  0.5045  0.0024 -0.2511
  579TMC3    C5 8638   1.990   4.263   1.218 -0.2929  0.0528  0.0899
  579TMC3    C6 8639   2.064   4.356   1.283  0.6227  0.5909 -0.4565
  579TMC3     C 8640   1.700   4.459   1.090 -0.2304  0.0647  0.5964
  579TMC3     O 8641   1.637   4.547   1.142 -0.6179  0.6424  0.1938
  579TMC3     H 8642   1.874   4.621   1.203 -0.4234  0.2762 -2.1501
  579TMC3    H1 8643   1.817   4.211   1.109  0.3811 -0.3150  0.4379
  579TMC3    H2 8644   2.154   4.330   1.338 -0.6778 -2.5342  0.2158
  579TMC3    C7 8645   2.064   4.140   1.196 -0.2093 -0.5181  0.2811
  579TMC3    C8 8646   2.082   4.594   1.342 -0.0758  0.2937 -0.8521
  579TMC3    O1 8647   2.145   4.109   1.285  0.0487 -0.1861 -0.2327
  579TMC3    O2 8648   2.006   4.683   1.387 -0.0528 -0.1235  0.5716
  580TMC3    C1 8649   1.160   3.080  11.680  0.0227  0.3705 -0.7814
  580TMC3    C2 8650   1.167   3.022  11.553 -0.5247  0.5991 -0.3794
  580TMC3    C3 8651   1.126   2.895  11.537 -0.6966  0.6995 -0.1167
  580TMC3    C4 8652   1.129   3.017  11.795 -0.4854 -0.1945  0.3833
  580TMC3    C5 8653   1.096   2.883  11.777  0.7043 -0.1065  0.4078
  580TMC3    C6 8654   1.100   2.824  11.652 -0.4670  0.3078  0.3130
  580TMC3     C 8655   1.185   3.221  11.685  0.5389 -0.0886 -0.0071
  580TMC3     O 8656   1.283   3.257  11.616  0.8884 -0.0659 -0.6024
  580TMC3     H 8657   1.187   3.090  11.470 -2.3619  1.2045 -0.3250
  580TMC3    H1 8658   1.140   3.063  11.892  1.9563 -0.8298  0.4034
  580TMC3    H2 8659   1.061   2.724  11.635 -0.5790  0.8190 -2.3470
  580TMC3    C7 8660   1.150   2.800  11.892  0.0752  0.1813 -0.3096
  580TMC3    C8 8661   1.176   2.814  11.426 -0.0208 -0.5985  0.0179
  580TMC3    O1 8662   1.167   2.858  12.000 -0.4493 -0.4391  0.0675
  580TMC3    O2 8663   1.135   2.700  11.416  0.4712 -0.4763 -0.0544
  581MPD2     C 8664   4.248   3.111  14.669 -0.7416  0.0182  0.7206
  581MPD2    C1 8665   4.226   3.179  14.789 -0.4622 -1.1143  0.5621
  581MPD2    C2 8666   4.107   3.244  14.811  0.2469 -0.9900 -0.1501
  581MPD2    C3 8667   4.008   3.243  14.719 -0.0411 -0.2309  0.6837
  581MPD2    C4 8668   4.027   3.183  14.598  0.5848 -0.1652 -0.0198
  581MPD2    C5 8669   4.143   3.109  14.576 -0.0347  0.5878  0.8430
  581MPD2     H 8670   4.089   3.284  14.910  0.8344  1.9408 -1.2228
  581MPD2    H1 8671   3.947   3.195  14.526  1.3633  0.6903 -0.7410
  581MPD2    H2 8672   4.347   3.069  14.654 -0.8120  0.4475 -0.9980
  581MPD2    H3 8673   4.160   3.072  14.476  0.2623  0.3967  0.9663
  581MPD2     N 8674   3.897   3.328  14.750 -0.0499  0.0115 -0.3957
  581MPD2    H5 8675   3.887   3.371  14.841  4.2737  1.5016 -0.6077
  581MPD2    N1 8676   4.329   3.165  14.889  0.2716 -0.4371  0.0047
  581MPD2    H7 8677   4.404   3.097  14.877 -1.2881 -2.2038  0.2372
  582TMC3    C1 8678   4.392   3.179  15.126  0.0802 -0.0756 -0.3348
  582TMC3    C2 8679   4.368   3.242  15.233 -0.0663 -0.0983 -0.1523
  582TMC3    C3 8680   4.341   3.162  15.339  0.2452  0.1622  0.4587
  582TMC3    C4 8681   4.403   3.043  15.114 -0.2045  0.1813 -0.2592
  582TMC3    C5 8682   4.347   2.969  15.219  0.3914 -0.4760 -0.3738
  582TMC3    C6 8683   4.313   3.031  15.337  0.3834  0.2147 -0.7540
  582TMC3     C 8684   4.327   3.239  15.011 -0.2420  0.5956  0.1326
  582TMC3     O 8685   4.265   3.339  15.037  0.0741  0.2066 -0.6559
  582TMC3     H 8686   4.383   3.349  15.239  0.6447 -0.0380 -3.1351
  582TMC3    H1 8687   4.414   2.992  15.019  0.4969  0.8322 -0.5312
  582TMC3    H2 8688   4.267   2.969  15.413  1.2951 -0.1982 -0.5443
  582TMC3    C7 8689   4.230   2.900  15.158  0.6311 -0.6335 -0.5684
  582TMC3    C8 8690   4.322   3.234  15.467  0.1114  0.2151  0.3951
  582TMC3    O1 8691   4.248   2.821  15.066 -0.0130 -0.2740 -0.2008
  582TMC3    O2 8692   4.279   3.353  15.471 -0.3196 -0.9115 -0.1321
  583MPD2     C 8693   4.384   0.089  16.951  0.8566 -0.0251  0.8998
  583MPD2    C1 8694   4.341   0.200  16.889  1.0036  0.9638 -0.5221
  583MPD2    C2 8695   4.299   0.301  16.974  0.5582 -0.5143 -0.0808
  583MPD2    C3 8696   4.289   0.291  17.111  0.1298  0.1036  0.2898
  583MPD2    C4 8697   4.333   0.170  17.171  1.1337  0.3764 -0.3772
  583MPD2    C5 8698   4.382   0.077  17.085 -0.1805  0.3577  0.7266
  583MPD2     H 8699   4.273   0.395  16.926 -1.7452 -1.1051  0.0147
  583MPD2    H1 8700   4.337   0.145  17.277  1.9934 -0.7946 -0.6865
  583MPD2    H2 8701   4.431   0.009  16.894  0.0387  1.1272 -1.4173
  583MPD2    H3 8702   4.420   4.722  17.133 -2.0234 -1.2305 -0.8100
  583MPD2     N 8703   4.242   0.400  17.179 -0.1698 -0.8774 -0.4962
  583MPD2    H5 8704   4.218   0.482  17.124  0.6825 -0.6003 -0.4559
  583MPD2    N1 8705   4.346   0.224  16.751  0.3826 -0.3792  0.0156
  583MPD2    H7 8706   4.302   0.310  16.721  1.0368 -0.3121 -0.7563
  584TMC3    C1 8707   4.158   0.532  17.352 -0.1766 -0.2023 -0.2489
  584TMC3    C2 8708   4.179   0.646  17.274 -0.0758  0.4516  0.1033
  584TMC3    C3 8709   4.152   0.771  17.319 -0.5042  0.2224  0.6188
  584TMC3    C4 8710   4.110   0.548  17.479  0.3993  0.0887 -0.4175
  584TMC3    C5 8711   4.085   0.676  17.520  0.1256  0.3238 -0.4428
  584TMC3    C6 8712   4.102   0.786  17.443  0.6560 -0.1894  0.3014
  584TMC3     C 8713   4.206   0.404  17.310 -1.1449  0.2432 -0.1709
  584TMC3     O 8714   4.230   0.325  17.396  0.7809  0.2797  0.3157
  584TMC3     H 8715   4.220   0.650  17.174 -0.2600  1.4725  0.0658
  584TMC3    H1 8716   4.086   0.469  17.549  1.1820 -3.5292 -4.2427
  584TMC3    H2 8717   4.092   0.885  17.484  1.2585 -0.2424  0.5830
  584TMC3    C7 8718   4.006   0.683  17.645 -0.0470 -0.2257  0.5651
  584TMC3    C8 8719   4.132   0.876  17.221  0.2923 -0.4130  0.4439
  584TMC3    O1 8720   4.033   0.595  17.727  0.3380 -0.4092 -0.0785
  584TMC3    O2 8721   4.134   0.838  17.104 -0.2644 -0.1690 -0.2752
  585MPD2     C 8722   3.339   3.811   1.006  0.4493 -0.7031 -0.5535
  585MPD2    C1 8723   3.416   3.796   0.895  0.3420 -0.9301  0.2662
  585MPD2    C2 8724   3.444   3.666   0.844  0.0267 -0.0216 -0.2171
  585MPD2    C3 8725   3.392   3.556   0.903  0.2771  0.6480 -0.4163
  585MPD2    C4 8726   3.324   3.575   1.025 -0.1236  0.4562  0.8717
  585MPD2    C5 8727   3.307   3.701   1.073  0.0641 -0.7000 -0.0133
  585MPD2     H 8728   3.511   3.659   0.760  1.3077 -0.5993  0.8464
  585MPD2    H1 8729   3.280   3.492   1.079 -0.4308  0.6412  0.9061
  585MPD2    H2 8730   3.319   3.910   1.044  1.3488 -1.4301  1.7750
  585MPD2    H3 8731   3.255   3.721   1.166 -2.2147 -2.0775 -1.0048
  585MPD2     N 8732   3.404   3.432   0.846 -0.1142  0.4443  0.0593
  585MPD2    H5 8733   3.328   3.367   0.861  1.0162 -0.8149  0.3641
  585MPD2    N1 8734   3.473   3.911   0.837  0.3700 -0.4978  0.4742
  585MPD2    H7 8735   3.426   4.000   0.851  2.1029  0.6200 -0.7458
  586TMC3    C1 8736   3.478   3.327   0.655  0.4539 -0.1356 -0.0180
  586TMC3    C2 8737   3.588   3.274   0.594 -0.2016  0.1610 -0.5099
  586TMC3    C3 8738   3.599   3.283   0.454  0.4627  0.1879  0.6079
  586TMC3    C4 8739   3.380   3.388   0.588  0.3444  0.3923 -0.1970
  586TMC3    C5 8740   3.394   3.394   0.450  0.6139 -0.6800  0.0428
  586TMC3    C6 8741   3.501   3.341   0.381  0.1404  0.2379 -0.2892
  586TMC3     C 8742   3.512   3.395   0.771 -0.2434 -0.7225  0.7090
  586TMC3     O 8743   3.628   3.433   0.793 -0.0028  0.0019 -0.0586
  586TMC3     H 8744   3.663   3.231   0.658 -1.1163  1.3747  1.3801
  586TMC3    H1 8745   3.288   3.424   0.631 -0.9678 -2.4243 -0.6477
  586TMC3    H2 8746   3.495   3.330   0.274 -0.7090  1.9377 -0.4201
  586TMC3    C7 8747   3.314   3.485   0.373  0.3088 -0.6425 -0.6277
  586TMC3    C8 8748   3.711   3.217   0.402  0.3424 -0.1984 -0.3583
  586TMC3    O1 8749   3.196   3.485   0.413  0.2899  0.6145  0.8138
  586TMC3    O2 8750   3.776   3.145   0.474 -0.0182 -0.5858  0.2832
  587TMC3    C1 8751   0.737   2.592  16.689 -0.3297 -0.3980 -0.9340
  587TMC3    C2 8752   0.817   2.707  16.672  0.0367  0.1306  0.2160
  587TMC3    C3 8753   0.928   2.700  16.587 -0.5592 -0.0104  0.5022
  587TMC3    C4 8754   0.784   2.473  16.660 -0.5511 -0.1278  0.5095
  587TMC3    C5 8755   0.908   2.472  16.589  0.6512  0.1932  0.7341
  587TMC3    C6 8756   0.982   2.579  16.552  0.4184 -0.5885  0.4830
  587TMC3     C 8757   0.610   2.616  16.755 -0.1561  0.1213  0.1123
  587TMC3     O 8758   0.590   2.725  16.795 -0.0342 -0.2714 -0.3191
  587TMC3     H 8759   0.792   2.796  16.729  0.8125 -0.0750  0.8875
  587TMC3    H1 8760   0.732   2.380  16.680  1.4036 -1.8790 -2.5542
  587TMC3    H2 8761   1.066   2.572  16.483 -0.3835  2.6058 -0.8448
  587TMC3    C7 8762   0.964   2.340  16.579  0.5858 -0.4174  0.0403
  587TMC3    C8 8763   0.949   2.807  16.493 -0.1835 -0.5676  0.4565
  587TMC3    O1 8764   1.060   2.328  16.504  0.1991 -0.1711 -0.8367
  587TMC3    O2 8765   1.031   2.801  16.405 -0.1198  0.2114  0.0095
  588TMC3    C1 8766   3.012   0.392   9.777  0.2350  0.5925  0.1223
  588TMC3    C2 8767   2.983   0.257   9.740  0.4172  0.5103  1.1981
  588TMC3    C3 8768   3.071   0.153   9.774  0.2905 -0.1461 -0.2659
  588TMC3    C4 8769   3.121   0.418   9.858  0.7386  0.2229 -0.1417
  588TMC3    C5 8770   3.201   0.304   9.895  0.3129  0.1050  0.0103
  588TMC3    C6 8771   3.185   0.181   9.845 -0.4046 -0.7418 -0.4631
  588TMC3     C 8772   2.946   0.503   9.708  0.0177  0.0068  0.3089
  588TMC3     O 8773   2.828   0.493   9.679 -0.4882  0.5210 -0.3227
  588TMC3     H 8774   2.893   0.234   9.684  0.7394 -0.5620  1.1143
  588TMC3    H1 8775   3.131   0.505   9.922 -0.6875 -0.7340  1.3783
  588TMC3    H2 8776   3.248   0.102   9.883 -0.8383 -1.4129 -1.1295
  588TMC3    C7 8777   3.318   0.332   9.974 -0.1440 -0.1413  0.0147
  588TMC3    C8 8778   3.038   0.017   9.727 -0.3282  0.0137  0.1660
  588TMC3    O1 8779   3.358   0.248  10.055  0.0801  0.4516  0.3323
  588TMC3    O2 8780   2.939   0.004   9.653 -0.0789  0.1316 -0.5159
  589TMC3    C1 8781   2.439   3.065   1.609 -0.1519 -1.0345 -0.0932
  589TMC3    C2 8782   2.530   3.097   1.704 -0.2211 -0.0424  0.0037
  589TMC3    C3 8783   2.659   3.048   1.699  0.5867  0.4084 -0.6709
  589TMC3    C4 8784   2.485   2.986   1.509  0.1298  0.2374  0.2292
  589TMC3    C5 8785   2.615   2.940   1.497  0.2988 -0.4085 -0.2194
  589TMC3    C6 8786   2.706   2.982   1.587 -0.0494  0.8643 -0.1064
  589TMC3     C 8787   2.309   3.127   1.593  0.0574 -0.3964 -0.0860
  589TMC3     O 8788   2.237   3.068   1.516  0.6181  0.5269  0.2783
  589TMC3     H 8789   2.501   3.176   1.772 -1.4421 -1.8440  1.6152
  589TMC3    H1 8790   2.420   2.963   1.425 -1.0872 -0.0461  1.2555
  589TMC3    H2 8791   2.810   2.960   1.566 -0.0975 -0.5365  1.1220
  589TMC3    C7 8792   2.639   2.815   1.437 -0.0252 -0.3072 -0.1290
  589TMC3    C8 8793   2.753   3.099   1.801 -0.1995 -0.1122  0.2795
  589TMC3    O1 8794   2.542   2.748   1.422  0.1999 -0.0478 -0.1848
  589TMC3    O2 8795   2.700   3.140   1.902 -0.8070 -0.4203 -0.3126
  590MPD2     C 8796   1.900   1.326  16.681  0.9658 -0.4773 -0.0347
  590MPD2    C1 8797   1.875   1.400  16.567 -0.3925 -0.2603 -0.4962
  590MPD2    C2 8798   1.984   1.469  16.509 -0.7012 -0.1062  0.3017
  590MPD2    C3 8799   2.115   1.446  16.553  0.2587  0.5243 -0.6788
  590MPD2    C4 8800   2.136   1.371  16.665 -0.8665 -0.1301 -0.0671
  590MPD2    C5 8801   2.025   1.305  16.723 -0.5737  0.7114 -0.1516
  590MPD2     H 8802   1.964   1.537  16.426  1.8746  1.8964  1.3137
  590MPD2    H1 8803   2.236   1.348  16.698  0.5287  3.2891 -1.8478
  590MPD2    H2 8804   1.829   1.267  16.739 -0.6569  1.5077  0.0012
  590MPD2    H3 8805   2.046   1.255  16.816 -1.0612  2.6929  1.0143
  590MPD2     N 8806   2.215   1.508  16.475 -0.0843  0.0579 -0.2070
  590MPD2    H5 8807   2.191   1.554  16.388 -0.4024 -0.5840 -0.4638
  590MPD2    N1 8808   1.735   1.389  16.519 -0.1807 -0.0007 -0.1397
  590MPD2    H7 8809   1.673   1.340  16.583  1.9122 -0.1052  1.8082
  591TMC3    C1 8810   2.425   1.553  16.388  0.0823  0.8197  0.7483
  591TMC3    C2 8811   2.520   1.477  16.330  0.5439 -0.8104  0.4133
  591TMC3    C3 8812   2.536   1.498  16.189  0.8003  0.1404  0.1679
  591TMC3    C4 8813   2.357   1.646  16.315  0.2575  0.0358 -0.4969
  591TMC3    C5 8814   2.375   1.666  16.180 -0.4437  0.6965 -0.2840
  591TMC3    C6 8815   2.458   1.580  16.116  0.2633  0.1125  0.2334
  591TMC3     C 8816   2.345   1.491  16.498 -0.1485  0.1346  0.5228
  591TMC3     O 8817   2.407   1.440  16.590  0.4042 -0.0529 -0.2206
  591TMC3     H 8818   2.592   1.411  16.376 -0.5329 -3.1700 -1.2346
  591TMC3    H1 8819   2.288   1.715  16.362  0.3883 -0.1326 -0.0600
  591TMC3    H2 8820   2.470   1.577  16.008  1.2362  0.9522  0.3253
  591TMC3    C7 8821   2.246   1.689  16.115 -0.4549  0.5152  0.0323
  591TMC3    C8 8822   2.600   1.387  16.120  0.1658  0.6084 -0.5997
  591TMC3    O1 8823   2.145   1.668  16.184  0.2465  0.4427  0.3060
  591TMC3    O2 8824   2.685   1.319  16.172 -0.1829 -0.1306  0.1053
  592MPD2     C 8825   2.440   2.774  11.256  0.0929  0.7166  0.1594
  592MPD2    C1 8826   2.461   2.814  11.382  0.1679 -0.0488 -0.0583
  592MPD2    C2 8827   2.411   2.742  11.489  0.1233  0.2313  0.1809
  592MPD2    C3 8828   2.320   2.635  11.462 -0.6514  0.0141  0.4861
  592MPD2    C4 8829   2.291   2.603  11.336  0.1236  0.5332 -0.0517
  592MPD2    C5 8830   2.363   2.665  11.235  0.2408  0.0199 -0.0856
  592MPD2     H 8831   2.430   2.758  11.595 -1.3181  1.0584  0.3215
  592MPD2    H1 8832   2.222   2.522  11.314  0.6112  0.2703 -0.6245
  592MPD2    H2 8833   2.483   2.835  11.178 -0.1733  0.0367 -0.5150
  592MPD2    H3 8834   2.346   2.633  11.133 -0.2228  0.8077 -0.2586
  592MPD2     N 8835   2.260   2.564  11.572 -0.7224  0.0581 -0.3245
  592MPD2    H5 8836   2.290   2.590  11.665 -0.6737 -1.0372 -0.0280
  592MPD2    N1 8837   2.527   2.938  11.401 -0.7937 -0.6031 -0.3754
  592MPD2    H7 8838   2.561   2.994  11.324  0.3548  1.1883  1.4517
  593TMC3    C1 8839   2.617   3.131  11.513 -0.2271  0.3097 -0.2428
  593TMC3    C2 8840   2.589   3.207  11.616  0.3045  0.0273  0.0083
  593TMC3    C3 8841   2.647   3.332  11.614  0.7316  0.4445 -0.2850
  593TMC3    C4 8842   2.704   3.161  11.414 -0.6537 -0.8592  0.3430
  593TMC3    C5 8843   2.762   3.283  11.420 -0.2240  0.7334  0.3308
  593TMC3    C6 8844   2.740   3.372  11.523 -0.4663  0.5155  0.2629
  593TMC3     C 8845   2.563   2.992  11.520 -0.1645  0.1953 -0.0293
  593TMC3     O 8846   2.532   2.951  11.634 -0.7920  0.5725 -0.3688
  593TMC3     H 8847   2.522   3.178  11.697 -0.1101 -0.6889 -0.5932
  593TMC3    H1 8848   2.713   3.100  11.325 -0.2546 -0.3758  0.0523
  593TMC3    H2 8849   2.773   3.474  11.511  1.2334 -0.2896 -2.0450
  593TMC3    C7 8850   2.875   3.314  11.332 -0.4883 -0.0292  0.2085
  593TMC3    C8 8851   2.597   3.424  11.716  0.0923 -0.4664 -0.0392
  593TMC3    O1 8852   2.909   3.430  11.321 -0.8331 -0.3878  0.2642
  593TMC3    O2 8853   2.491   3.393  11.773  0.3876 -0.3133  0.4003
  594MPD2     C 8854   1.062   1.683  14.534 -0.2330  1.0878  0.3187
  594MPD2    C1 8855   0.965   1.776  14.505  0.0951 -0.3401 -0.1115
  594MPD2    C2 8856   0.994   1.878  14.422 -0.5595  0.6457 -0.1084
  594MPD2    C3 8857   1.121   1.885  14.367  0.3930 -0.2013 -0.9005
  594MPD2    C4 8858   1.218   1.798  14.411 -0.1696  0.1293  0.6042
  594MPD2    C5 8859   1.189   1.694  14.495  0.5017  0.6093 -0.0540
  594MPD2     H 8860   0.917   1.945  14.387  0.6358  1.7919 -0.5829
  594MPD2    H1 8861   1.319   1.782  14.376  0.2176  2.3852  0.6588
  594MPD2    H2 8862   1.043   1.596  14.596 -3.4685  1.7085  0.2160
  594MPD2    H3 8863   1.261   1.616  14.517 -1.6503 -1.7097 -1.1065
  594MPD2     N 8864   1.138   1.980  14.263 -0.6893  0.3742  0.0690
  594MPD2    H5 8865   1.062   2.046  14.251 -1.1843 -0.1151  0.5218
  594MPD2    N1 8866   0.829   1.750  14.545 -0.0797 -0.1027  0.1392
  594MPD2    H7 8867   0.807   1.663  14.593  1.3022  0.3138  1.5432
  595TMC3    C1 8868   1.359   2.222  13.929 -0.0002 -0.0555 -0.7531
  595TMC3    C2 8869   1.309   2.113  13.988  0.1023  0.3684 -0.2546
  595TMC3    C3 8870   1.243   2.114  14.107 -0.3693  0.6089 -1.0418
  595TMC3    C4 8871   1.364   2.338  14.004 -0.1015  0.3986  0.9381
  595TMC3    C5 8872   1.296   2.335  14.122 -0.2467  0.3465  0.4923
  595TMC3    C6 8873   1.243   2.226  14.181  0.8563  0.2490  0.5368
  595TMC3     C 8874   1.465   2.201  13.832 -0.2613 -0.1186 -0.1421
  595TMC3     O 8875   1.453   2.121  13.741  0.6203 -0.0531  0.8336
  595TMC3     H 8876   1.315   2.020  13.932 -1.6240  0.0336  0.1005
  595TMC3    H1 8877   1.403   2.432  13.968  0.3731  0.1834  0.8803
  595TMC3    H2 8878   1.191   2.226  14.276 -1.3188  0.1581 -0.6428
  595TMC3    C7 8879   1.304   2.445  14.212  0.5107 -0.2673  0.3571
  595TMC3    C8 8880   1.245   1.990  14.177 -0.1452 -0.5381 -0.2152
  595TMC3    O1 8881   1.275   2.557  14.172  0.2493 -0.0656  0.1558
  595TMC3    O2 8882   1.340   1.920  14.152 -0.1447  0.0357  0.3255
  596MPD2     C 8883   0.359   0.262  16.897  0.5120 -1.0391 -0.7067
  596MPD2    C1 8884   0.344   0.356  16.810  0.4566 -0.0073  0.4009
  596MPD2    C2 8885   0.372   0.327  16.675  0.0046 -0.0831 -0.2616
  596MPD2    C3 8886   0.400   0.201  16.633  0.1352  0.3294 -0.7897
  596MPD2    C4 8887   0.394   0.100  16.722 -0.8883 -0.1989 -0.0182
  596MPD2    C5 8888   0.375   0.132  16.856 -0.3050 -0.1507  0.4858
  596MPD2     H 8889   0.388   0.412  16.609  0.3446  1.3182  1.6113
  596MPD2    H1 8890   0.416   4.733  16.692  3.1012  0.8125 -0.4508
  596MPD2    H2 8891   0.346   0.283  17.002 -1.1580 -1.4252 -0.8401
  596MPD2    H3 8892   0.391   0.049  16.925 -2.2839  0.7318  2.0032
  596MPD2     N 8893   0.411   0.161  16.498 -0.4213 -1.0394 -0.8810
  596MPD2    H5 8894   0.453   0.073  16.471 -0.3984 -1.3055  0.0046
  596MPD2    N1 8895   0.294   0.487  16.833  0.5422  0.0960  1.0510
  596MPD2    H7 8896   0.302   0.553  16.756  0.6394 -0.6694  0.4098
  597TMC3    C1 8897   0.184   0.662  16.956 -0.5978 -0.5251 -0.6309
  597TMC3    C2 8898   0.215   0.757  16.874  0.1666  0.3293  0.4882
  597TMC3    C3 8899   0.165   0.885  16.887  0.2036 -0.1187  0.4347
  597TMC3    C4 8900   0.107   0.689  17.070 -0.5700 -0.0939  0.4298
  597TMC3    C5 8901   0.054   0.818  17.080 -0.6064  0.3611 -0.4576
  597TMC3    C6 8902   0.085   0.914  16.995 -0.3151  0.3938 -0.4740
  597TMC3     C 8903   0.226   0.520  16.950  0.7025  0.3503 -0.0314
  597TMC3     O 8904   0.194   0.455  17.051 -0.2174 -0.3809 -0.1187
  597TMC3     H 8905   0.270   0.726  16.786 -0.2005  1.3100 -0.0750
  597TMC3    H1 8906   0.084   0.617  17.148 -1.7355  2.1220  2.1580
  597TMC3    H2 8907   0.044   1.014  17.001  1.1684  0.9916 -0.2512
  597TMC3    C7 8908   4.688   0.840  17.187  0.1711  0.0572  0.7961
  597TMC3    C8 8909   0.187   0.980  16.783 -0.8878 -0.0223 -0.2390
  597TMC3    O1 8910   4.664   0.748  17.263 -0.9068 -0.4547 -0.2578
  597TMC3    O2 8911   0.111   1.075  16.785  0.4673  0.1311 -0.3419
  598TMC3    C1 8912   2.830   1.572  15.266 -0.2134  0.2898 -0.9169
  598TMC3    C2 8913   2.736   1.477  15.242  0.4125  0.2331  0.7795
  598TMC3    C3 8914   2.712   1.451  15.114 -0.2827 -0.5170  0.2542
  598TMC3    C4 8915   2.882   1.650  15.169 -0.1882  0.7045  0.5381
  598TMC3    C5 8916   2.831   1.639  15.043  0.1339 -0.1651 -0.0088
  598TMC3    C6 8917   2.752   1.530  15.015 -0.5833 -0.1328 -0.0759
  598TMC3     C 8918   2.858   1.596  15.401  0.0679 -0.5843 -0.5194
  598TMC3     O 8919   2.768   1.583  15.489  0.2031  0.0451 -0.0483
  598TMC3     H 8920   2.691   1.418  15.322 -0.0398  0.3150  0.5795
  598TMC3    H1 8921   2.944   1.735  15.196  1.5828 -0.1837 -0.7586
  598TMC3    H2 8922   2.721   1.502  14.915 -3.7803  0.0104  0.8874
  598TMC3    C7 8923   2.886   1.707  14.927  0.1025 -0.4643  0.2473
  598TMC3    C8 8924   2.634   1.332  15.065 -0.5376  0.0744 -0.4579
  598TMC3    O1 8925   2.829   1.684  14.819 -0.0109 -0.4390 -0.5125
  598TMC3    O2 8926   2.567   1.343  14.961  0.0090  0.1283  0.4171
  599MPD2     C 8927   3.089   4.021  15.494 -0.4591 -0.0113 -0.1159
  599MPD2    C1 8928   3.174   4.042  15.598 -0.2929 -0.4274  0.1077
  599MPD2    C2 8929   3.120   4.095  15.713  0.4316  0.1273 -0.4615
  599MPD2    C3 8930   2.985   4.104  15.735  0.4523 -0.1682 -0.5777
  599MPD2    C4 8931   2.895   4.065  15.636  0.7624 -0.1108 -0.1232
  599MPD2    C5 8932   2.949   4.034  15.510 -0.0539 -0.4915  0.1425
  599MPD2     H 8933   3.189   4.112  15.795  0.5035 -1.6652 -0.1487
  599MPD2    H1 8934   2.787   4.063  15.641  0.7882  0.1583  0.4994
  599MPD2    H2 8935   3.122   3.984  15.397 -2.6181 -1.1092 -0.4313
  599MPD2    H3 8936   2.885   4.018  15.424 -2.0055 -0.6894  1.6323
  599MPD2     N 8937   2.938   4.122  15.866 -0.4639  0.0001  0.6551
  599MPD2    H5 8938   2.837   4.120  15.882 -0.1554  1.3969  2.9527
  599MPD2    N1 8939   3.309   4.009  15.569 -0.0921 -0.6283  0.3128
  599MPD2    H7 8940   3.324   3.980  15.473 -1.8181  0.1323 -0.1936
  600TMC3    C1 8941   2.943   4.198  16.092 -0.2125 -0.3951 -0.4058
  600TMC3    C2 8942   2.883   4.076  16.131  0.5553  0.2032 -0.4830
  600TMC3    C3 8943   2.884   4.043  16.262 -0.0376 -0.1699 -0.3139
  600TMC3    C4 8944   3.001   4.277  16.192  0.3441  0.5554 -0.1091
  600TMC3    C5 8945   3.009   4.231  16.319 -0.4843  0.2683 -0.3233
  600TMC3    C6 8946   2.939   4.118  16.357 -0.2156 -0.1642  0.3576
  600TMC3     C 8947   3.011   4.189  15.965 -0.5270 -0.5583 -0.6004
  600TMC3     O 8948   3.131   4.215  15.973  0.2154  0.2932 -0.6923
  600TMC3     H 8949   2.872   3.995  16.060  0.9878  0.6311 -1.0369
  600TMC3    H1 8950   3.041   4.374  16.164  0.9151 -0.1851 -1.8824
  600TMC3    H2 8951   2.944   4.089  16.461 -2.8695 -0.8247  0.3040
  600TMC3    C7 8952   3.010   4.343  16.417 -0.2488 -0.6425 -0.1695
  600TMC3    C8 8953   2.823   3.915  16.293  0.4776  0.3804 -0.3445
  600TMC3    O1 8954   2.970   4.444  16.365  0.4480  0.1136 -0.6206
  600TMC3    O2 8955   2.854   3.874  16.404  0.3578 -0.3312  0.5716
  601MPD2     C 8956   0.607   2.072  17.516  0.1124 -0.5996  0.3605
  601MPD2    C1 8957   0.515   2.127  17.595  0.9274  0.2549  0.4197
  601MPD2    C2 8958   0.487   2.073  17.717  0.4476  0.9223 -0.9918
  601MPD2    C3 8959   0.556   1.957   0.014 -0.3783 -0.3951 -1.0219
  601MPD2    C4 8960   0.651   1.901  17.675 -0.0337 -0.3457 -0.0275
  601MPD2    C5 8961   0.680   1.966  17.559 -0.2036  0.1727  0.3805
  601MPD2     H 8962   0.418   2.123   0.045  0.6714  1.0057 -0.8239
  601MPD2    H1 8963   0.698   1.807  17.701 -0.7186 -0.0975  2.1796
  601MPD2    H2 8964   0.632   2.103  17.415  1.7494 -2.0755  0.3035
  601MPD2    H3 8965   0.754   1.911  17.501 -1.8831  0.9843 -2.5089
  601MPD2     N 8966   0.523   1.881   0.130  0.1855  0.4497 -0.0800
  601MPD2    H5 8967   0.569   1.791   0.135  0.2301  0.3890 -1.3448
  601MPD2    N1 8968   0.437   2.238  17.557  0.1530 -0.0110  0.4264
  601MPD2    H7 8969   0.390   2.292  17.629  1.4053 -0.7796  1.8314
  602TMC3    C1 8970   0.349   2.399  17.420  0.2439 -0.2188 -0.4040
  602TMC3    C2 8971   0.375   2.511  17.494 -0.3394 -0.7125 -0.0400
  602TMC3    C3 8972   0.312   2.621  17.447  0.8774 -0.4645 -0.0422
  602TMC3    C4 8973   0.267   2.395  17.311  0.0846  0.3436  0.6393
  602TMC3    C5 8974   0.203   2.507  17.274 -0.2453 -0.5408 -0.0554
  602TMC3    C6 8975   0.222   2.623  17.339 -0.0674 -0.1056  0.1459
  602TMC3     C 8976   0.434   2.285  17.428  0.0402 -0.2883  0.0215
  602TMC3     O 8977   0.469   2.236  17.324 -0.3127  0.0459 -0.1661
  602TMC3     H 8978   0.450   2.514  17.571 -0.7796  0.5344  0.3324
  602TMC3    H1 8979   0.239   2.300  17.267  0.6598  0.5009 -0.0551
  602TMC3    H2 8980   0.191   2.717  17.295  0.2726 -0.3584 -0.6375
  602TMC3    C7 8981   0.086   2.497  17.183  1.0664  0.0023  0.0131
  602TMC3    C8 8982   0.304   2.732  17.537  0.2739 -0.9180  0.1659
  602TMC3    O1 8983   0.079   2.394  17.112  0.2025 -0.3041 -0.1941
  602TMC3    O2 8984   0.414   2.780  17.580  0.1180  0.3201  0.0769
  603TMC3    C1 8985   2.814   2.376  10.801 -0.5192  0.0962 -0.4253
  603TMC3    C2 8986   2.912   2.337  10.888 -0.2021  0.1418  0.0616
  603TMC3    C3 8987   3.030   2.401  10.883  0.0180 -0.2305 -0.1565
  603TMC3    C4 8988   2.843   2.460  10.695  0.6078  0.1536 -0.4014
  603TMC3    C5 8989   2.966   2.516  10.690  0.1159 -0.3307  0.1104
  603TMC3    C6 8990   3.056   2.494  10.785  0.0385  0.4173 -0.4363
  603TMC3     C 8991   2.675   2.339  10.825  0.3675  0.2329 -0.7662
  603TMC3     O 8992   2.588   2.344  10.735 -0.2313  0.5336 -0.4966
  603TMC3     H 8993   2.890   2.263  10.963 -0.8289  0.0074 -0.2577
  603TMC3    H1 8994   2.762   2.483  10.627 -0.2790  0.9222  0.8964
  603TMC3    H2 8995   3.155   2.529  10.761 -0.7168  1.4078 -2.1070
  603TMC3    C7 8996   2.998   2.620  10.598  0.4548  0.3945  0.0410
  603TMC3    C8 8997   3.128   2.386  10.986 -0.4167  0.3675 -0.4181
  603TMC3    O1 8998   3.083   2.701  10.634  0.8753  0.3988 -0.2021
  603TMC3    O2 8999   3.127   2.273  11.040  0.4115 -0.3680  0.4039
  604MPD2     C 9000   4.037   1.347  16.281 -0.4778 -0.3645 -0.5756
  604MPD2    C1 9001   4.014   1.453  16.201  0.0228  0.3533 -0.2277
  604MPD2    C2 9002   4.077   1.444  16.077 -0.2334 -0.4688 -0.4408
  604MPD2    C3 9003   4.165   1.349  16.043 -0.3388 -0.9220 -0.5593
  604MPD2    C4 9004   4.199   1.250  16.135  1.1028 -0.5620 -0.1306
  604MPD2    C5 9005   4.144   1.258  16.260 -0.8666 -0.4349 -0.0111
  604MPD2     H 9006   4.038   1.502  15.994 -0.4975  1.6181  1.1290
  604MPD2    H1 9007   4.266   1.172  16.100 -2.5340 -2.8503 -2.0205
  604MPD2    H2 9008   3.987   1.333  16.376  1.0626  0.8919  0.4194
  604MPD2    H3 9009   4.164   1.179  16.331  0.1633  0.0001  0.1726
  604MPD2     N 9010   4.218   1.357  15.913  0.0153  0.2023  0.5918
  604MPD2    H5 9011   4.180   1.437  15.863  0.5002  0.2238  0.2550
  604MPD2    N1 9012   3.915   1.546  16.239 -0.1804 -0.0378  0.0331
  604MPD2    H7 9013   3.859   1.536  16.323 -1.9643 -0.1523 -1.1709
  605TMC3    C1 9014   3.796   1.752  16.242  0.3089  0.2519 -0.2711
  605TMC3    C2 9015   3.858   1.866  16.283 -0.1485  0.1478 -0.6218
  605TMC3    C3 9016   3.810   1.934  16.400 -0.0635  0.6646 -0.2024
  605TMC3    C4 9017   3.698   1.699  16.318  0.1653 -0.0702  0.1015
  605TMC3    C5 9018   3.658   1.758  16.434  0.0817 -0.2105 -0.0977
  605TMC3    C6 9019   3.718   1.870  16.480  0.2296  0.4433 -0.2290
  605TMC3     C 9020   3.895   1.664  16.171  0.1636  0.0214  0.0153
  605TMC3     O 9021   3.948   1.712  16.070  0.2396  0.1801  0.2540
  605TMC3     H 9022   3.942   1.907  16.227  0.6079 -1.4094 -0.6313
  605TMC3    H1 9023   3.638   1.618  16.277  0.9165 -1.2845  1.3951
  605TMC3    H2 9024   3.684   1.928  16.566 -1.9806  0.1406 -0.9011
  605TMC3    C7 9025   3.516   1.780  16.458  0.7236 -0.1182  0.1784
  605TMC3    C8 9026   3.919   2.005  16.460  0.1360  0.6566 -0.1881
  605TMC3    O1 9027   3.477   1.896  16.468 -0.3923 -0.7820 -0.5616
  605TMC3    O2 9028   3.989   2.064  16.380  0.9416 -0.1162 -0.1414
  606TMC3    C1 9029   0.712   0.270  17.195  0.7365  0.0678 -0.5278
  606TMC3    C2 9030   0.727   0.272  17.332  0.9868  0.2905 -0.4142
  606TMC3    C3 9031   0.663   0.178  17.408  0.1057  0.5777  1.0038
  606TMC3    C4 9032   0.635   0.180  17.134 -0.5709  0.1281  0.1741
  606TMC3    C5 9033   0.589   0.076  17.210  0.2169  0.2839 -0.9166
  606TMC3    C6 9034   0.602   0.070  17.349 -0.2359 -0.7265 -0.2029
  606TMC3     C 9035   0.801   0.347  17.098 -0.7806 -1.0963 -0.1250
  606TMC3     O 9036   0.758   0.356  16.985 -0.5837 -0.0023  0.1525
  606TMC3     H 9037   0.787   0.348  17.381  1.5525  1.1706 -2.4816
  606TMC3    H1 9038   0.620   0.183  17.026  1.0839 -0.4857 -0.0674
  606TMC3    H2 9039   0.568   4.724  17.413  2.8018 -0.6646  1.4890
  606TMC3    C7 9040   0.566   4.680  17.144  0.7049  0.7131 -0.3068
  606TMC3    C8 9041   0.726   0.151  17.534 -1.0245  0.1302 -0.1323
  606TMC3    O1 9042   0.618   4.660  17.035 -0.6135  0.3970  0.2345
  606TMC3    O2 9043   0.841   0.183  17.543 -0.3747 -0.4372  0.5603
  607MPD2     C 9044   2.524   2.269  11.702 -0.3664 -0.0681 -0.2440
  607MPD2    C1 9045   2.566   2.390  11.740 -0.0845  0.3194 -0.5249
  607MPD2    C2 9046   2.551   2.419  11.875 -0.7811  0.6772  0.0176
  607MPD2    C3 9047   2.502   2.325  11.963  0.0240 -0.3598 -0.5310
  607MPD2    C4 9048   2.478   2.191  11.919  0.1600  0.3636  0.6196
  607MPD2    C5 9049   2.484   2.166  11.790 -0.4928  0.2121  0.2240
  607MPD2     H 9050   2.574   2.519  11.909 -2.2500  0.9745  0.1409
  607MPD2    H1 9051   2.453   2.108  11.984  0.0877 -0.0659  0.0465
  607MPD2    H2 9052   2.540   2.233  11.601  0.8351  0.9411 -0.4032
  607MPD2    H3 9053   2.457   2.065  11.762 -2.0269  0.7852 -0.3509
  607MPD2     N 9054   2.513   2.360  12.101 -0.2561 -0.3342 -0.1360
  607MPD2    H5 9055   2.570   2.443  12.113 -0.0149 -0.4596 -0.4034
  607MPD2    N1 9056   2.630   2.487  11.659  0.1448 -1.2044 -0.1942
  607MPD2    H7 9057   2.654   2.574  11.705 -1.8713 -0.7704  0.0248
  608TMC3    C1 9058   2.761   2.587  11.493 -0.4173  0.0007  0.5500
  608TMC3    C2 9059   2.854   2.630  11.586  0.1257 -1.0894 -0.4775
  608TMC3    C3 9060   2.936   2.728  11.546  0.5357 -0.1411  0.7617
  608TMC3    C4 9061   2.747   2.647  11.370 -0.0375  0.0579 -0.1889
  608TMC3    C5 9062   2.847   2.738  11.343 -0.0186  0.1741 -0.2627
  608TMC3    C6 9063   2.941   2.785  11.430  0.0908 -0.3413 -1.0658
  608TMC3     C 9064   2.670   2.476  11.524 -0.0771 -0.4684 -0.0011
  608TMC3     O 9065   2.653   2.394  11.440  0.2243 -0.2798 -0.3010
  608TMC3     H 9066   2.865   2.575  11.679  0.8285 -0.8686 -0.4261
  608TMC3    H1 9067   2.673   2.610  11.301  0.7041 -1.5333 -0.1209
  608TMC3    H2 9068   2.996   2.877  11.418  2.4310 -1.5973 -0.0171
  608TMC3    C7 9069   2.847   2.811  11.218  0.5632  0.1722 -0.3914
  608TMC3    C8 9070   3.021   2.782  11.653  0.5400  0.4266 -0.4640
  608TMC3    O1 9071   2.860   2.936  11.212  0.0725  0.0873  0.1436
  608TMC3    O2 9072   3.119   2.848  11.618  0.4546  0.4871 -0.5075
  609TMC3    C1 9073   1.333   1.083   9.129 -0.6757 -0.0503  1.0749
  609TMC3    C2 9074   1.373   1.081   8.996 -0.4391  0.4372  0.0144
  609TMC3    C3 9075   1.462   0.981   8.954 -0.0342  1.1444  0.3498
  609TMC3    C4 9076   1.385   0.993   9.215 -0.1413 -0.0476  0.0291
  609TMC3    C5 9077   1.467   0.888   9.173 -0.2014  0.8373  0.0899
  609TMC3    C6 9078   1.503   0.886   9.043  0.0625  0.3359 -0.0053
  609TMC3     C 9079   1.269   1.199   9.198  0.0050  0.3535 -0.3069
  609TMC3     O 9080   1.280   1.211   9.321  0.6349 -0.1197  0.3043
  609TMC3     H 9081   1.352   1.171   8.939 -1.9457 -1.0248 -1.7070
  609TMC3    H1 9082   1.354   0.997   9.319 -0.5362  2.0380 -0.1576
  609TMC3    H2 9083   1.585   0.830   8.999  0.8783  1.9499 -0.5783
  609TMC3    C7 9084   1.563   0.831   9.268 -0.1640 -0.2370 -0.8608
  609TMC3    C8 9085   1.494   0.974   8.809  0.1709  0.1040 -0.4935
  609TMC3    O1 9086   1.674   0.795   9.228  0.1612  0.4690 -0.7416
  609TMC3    O2 9087   1.588   0.902   8.769 -0.5744 -0.1302  0.0265
  610TMC3    C1 9088   3.126   2.748  12.650 -0.0826  0.1863 -0.7825
  610TMC3    C2 9089   3.248   2.778  12.592 -0.2317 -0.3480  0.0304
  610TMC3    C3 9090   3.363   2.762  12.662  0.1551 -0.2340  0.4234
  610TMC3    C4 9091   3.122   2.693  12.770 -0.0013  0.3209 -0.5630
  610TMC3    C5 9092   3.246   2.677  12.837 -0.2532 -0.1448 -0.7039
  610TMC3    C6 9093   3.372   2.707  12.783  0.1109 -0.9746 -1.1845
  610TMC3     C 9094   3.005   2.748  12.562 -0.0484  0.4601  0.8228
  610TMC3     O 9095   3.020   2.808  12.458  0.4963 -0.2175  0.2977
  610TMC3     H 9096   3.252   2.839  12.503  1.1341 -1.1126 -0.4335
  610TMC3    H1 9097   3.028   2.655  12.807  0.5173 -1.2831 -0.8584
  610TMC3    H2 9098   3.463   2.689  12.838  0.7931 -2.2887 -2.7235
  610TMC3    C7 9099   3.225   2.619  12.969  0.2577 -0.1728  1.1440
  610TMC3    C8 9100   3.492   2.783  12.592  0.5351 -0.4184  0.0302
  610TMC3    O1 9101   3.112   2.625  13.025  0.5601 -0.2922  0.2547
  610TMC3    O2 9102   3.591   2.805  12.665 -0.2704  0.5577  0.9866
  611MPD2     C 9103   1.693   2.655  10.193  0.6169  0.5892  0.6680
  611MPD2    C1 9104   1.784   2.561  10.143 -0.1773 -0.1643 -0.1180
  611MPD2    C2 9105   1.909   2.601  10.107  0.2027  0.3752  0.2068
  611MPD2    C3 9106   1.950   2.730  10.121 -0.4719 -0.6392  1.0669
  611MPD2    C4 9107   1.856   2.826  10.152 -0.2849  0.3708  0.2880
  611MPD2    C5 9108   1.729   2.783  10.197 -0.1487 -0.4724 -0.3105
  611MPD2     H 9109   1.984   2.530  10.076  0.0012  0.6303 -0.8727
  611MPD2    H1 9110   1.870   2.933  10.155 -0.9828  0.4300  1.1545
  611MPD2    H2 9111   1.591   2.635  10.224  0.5784  0.6126  0.5603
  611MPD2    H3 9112   1.650   2.852  10.225  1.1656  0.3838  1.2820
  611MPD2     N 9113   2.071   2.779  10.064  0.7800  0.2468  1.1505
  611MPD2    H5 9114   2.067   2.877  10.037 -0.6908  0.1113  0.8985
  611MPD2    N1 9115   1.739   2.423  10.135  0.1008  0.4368 -0.6256
  611MPD2    H7 9116   1.649   2.403  10.179 -0.1025 -0.4978 -1.4624
  612TMC3    C1 9117   2.292   2.794  10.001  0.2514  0.3208  0.2861
  612TMC3    C2 9118   2.419   2.787  10.052 -0.7688  0.4606 -0.3637
  612TMC3    C3 9119   2.515   2.868   9.986 -0.4824  0.3969 -0.5082
  612TMC3    C4 9120   2.260   2.873   9.888 -0.3831 -0.2784  0.1384
  612TMC3    C5 9121   2.355   2.960   9.847  0.1086 -0.1957  0.3472
  612TMC3    C6 9122   2.482   2.962   9.892  0.6841 -0.7703  0.0555
  612TMC3     C 9123   2.191   2.709  10.055  0.0779 -0.4820  0.5233
  612TMC3     O 9124   2.221   2.601  10.105  0.8178  0.7242  0.4711
  612TMC3     H 9125   2.457   2.731  10.137  2.3019  2.0886 -0.6615
  612TMC3    H1 9126   2.160   2.867   9.847 -0.3887  0.2108  0.0691
  612TMC3    H2 9127   2.557   3.020   9.839 -0.7789  2.5976  1.6587
  612TMC3    C7 9128   2.307   3.068   9.760  0.3651 -0.0816 -0.2940
  612TMC3    C8 9129   2.659   2.882  10.019  0.8510  0.0938 -0.1193
  612TMC3    O1 9130   2.205   3.046   9.693  0.4065 -0.3524 -0.5573
  612TMC3    O2 9131   2.723   2.978   9.974 -0.1074 -0.0106 -0.1794
  613MPD2     C 9132   1.983   0.681  16.416  0.8780 -0.0737 -0.5430
  613MPD2    C1 9133   1.910   0.584  16.361  0.5587  0.8583 -0.3452
  613MPD2    C2 9134   1.878   0.470  16.439 -0.3911 -0.3300  0.2646
  613MPD2    C3 9135   1.915   0.468  16.572  0.7320  0.2461  0.0719
  613MPD2    C4 9136   1.991   0.569  16.627  0.6030  0.1160 -0.7371
  613MPD2    C5 9137   2.025   0.670  16.547 -0.9897 -0.2745 -0.0756
  613MPD2     H 9138   1.822   0.390  16.391  0.4433 -1.8612  1.8278
  613MPD2    H1 9139   2.022   0.560  16.730  2.9592 -0.1652 -1.4603
  613MPD2    H2 9140   2.011   0.769  16.360 -0.5487  0.1907 -0.8512
  613MPD2    H3 9141   2.090   0.741  16.597 -1.2587 -0.1026  0.0299
  613MPD2     N 9142   1.872   0.361  16.650  0.6497  0.1578  0.2393
  613MPD2    H5 9143   1.926   0.328  16.729  0.0561 -0.3052  0.4531
  613MPD2    N1 9144   1.887   0.590  16.227  0.0100 -0.3378  0.2407
  613MPD2    H7 9145   1.899   0.679  16.179 -2.9937 -0.5820 -0.9536
  614TMC3    C1 9146   1.848   0.515  16.007  0.6898  0.4440 -0.0656
  614TMC3    C2 9147   1.873   0.396  15.934 -0.0571 -0.6725 -0.0121
  614TMC3    C3 9148   1.795   0.360  15.827  0.3943  0.7479 -0.0962
  614TMC3    C4 9149   1.736   0.586  15.981 -0.0249 -0.2040  0.1505
  614TMC3    C5 9150   1.667   0.552  15.863 -0.1217  0.6551 -0.6759
  614TMC3    C6 9151   1.699   0.445  15.786  0.3406 -0.3643 -0.0317
  614TMC3     C 9152   1.872   0.483  16.145 -0.3534  0.4124  0.2522
  614TMC3     O 9153   1.874   0.366  16.174 -0.4342  0.4401  0.1402
  614TMC3     H 9154   1.952   0.333  15.972  0.4819 -0.1743 -0.3138
  614TMC3    H1 9155   1.693   0.659  16.048  0.4294 -1.6506  2.0184
  614TMC3    H2 9156   1.641   0.414  15.700  0.8786  0.2082 -0.6013
  614TMC3    C7 9157   1.561   0.639  15.830 -0.3164 -0.1736  0.5629
  614TMC3    C8 9158   1.749   0.226  15.839 -0.8505 -0.0249 -1.2039
  614TMC3    O1 9159   1.549   0.744  15.888  0.4552 -0.1287  0.0867
  614TMC3    O2 9160   1.689   0.182  15.742  0.3463 -0.0825 -0.1430
  615MPD2     C 9161   1.070   1.576  15.948  0.1529 -0.1320  0.2602
  615MPD2    C1 9162   0.934   1.562  15.972 -0.2132  0.6836  0.6059
  615MPD2    C2 9163   0.848   1.550  15.866  0.2120  0.4437  0.5382
  615MPD2    C3 9164   0.896   1.554  15.734 -0.8158  0.4990 -0.2361
  615MPD2    C4 9165   1.028   1.580  15.708 -0.4067 -0.9597 -0.0961
  615MPD2    C5 9166   1.117   1.591  15.816  0.0463  0.0192 -0.4553
  615MPD2     H 9167   0.745   1.526  15.889  0.0613  0.2761 -0.2976
  615MPD2    H1 9168   1.056   1.569  15.604 -1.5963  0.4706 -0.5767
  615MPD2    H2 9169   1.143   1.565  16.027 -1.0392  0.8412  1.4733
  615MPD2    H3 9170   1.223   1.591  15.796  0.4998  0.9418  1.9870
  615MPD2     N 9171   0.805   1.541  15.624 -0.3387 -0.2290 -0.2825
  615MPD2    H5 9172   0.837   1.552  15.529  0.1098  1.0377  0.0109
  615MPD2    N1 9173   0.878   1.563  16.104  0.0940 -0.0576  0.3432
  615MPD2    H7 9174   0.779   1.580  16.113  0.6367  2.5819  1.4433
  616TMC3    C1 9175   0.876   1.577  16.340 -0.2392 -0.1246 -0.0039
  616TMC3    C2 9176   0.953   1.556  16.448 -0.7563 -0.4861  0.5251
  616TMC3    C3 9177   0.914   1.620  16.559 -0.2146 -0.1769 -0.4775
  616TMC3    C4 9178   0.780   1.674  16.331  0.3719  0.0487  0.6210
  616TMC3    C5 9179   0.742   1.736  16.451 -0.0375 -0.0091 -0.4913
  616TMC3    C6 9180   0.809   1.700  16.571  0.0847  0.8014 -0.5668
  616TMC3     C 9181   0.949   1.545  16.216 -0.3061 -0.0547  0.3273
  616TMC3     O 9182   1.067   1.507  16.230 -0.2032  0.2528 -0.2514
  616TMC3     H 9183   1.032   1.482  16.446  1.4916  1.9293 -0.9640
  616TMC3    H1 9184   0.734   1.694  16.235  1.3717  2.1089  0.5713
  616TMC3    H2 9185   0.789   1.751  16.665 -0.6612 -0.0481 -0.2639
  616TMC3    C7 9186   0.645   1.847  16.447  0.0934  0.2485 -0.0294
  616TMC3    C8 9187   0.985   1.602  16.684  0.3687 -0.3125  0.3835
  616TMC3    O1 9188   0.629   1.899  16.558 -0.1551 -0.2017  0.0059
  616TMC3    O2 9189   0.921   1.612  16.790  0.0998 -0.5741 -0.4524
  617MPD2     C 9190   3.898   0.070  13.644  0.6433 -1.2362 -0.2219
  617MPD2    C1 9191   3.940   0.014  13.761 -1.1550 -0.1994 -0.2208
  617MPD2    C2 9192   3.856   4.650  13.823 -0.1012  0.7269 -1.0207
  617MPD2    C3 9193   3.736   4.629  13.769 -0.3942  0.7827  0.7639
  617MPD2    C4 9194   3.695   4.698  13.656 -0.3317 -0.0760 -0.7100
  617MPD2    C5 9195   3.773   0.044  13.587  1.1382  0.3299 -0.1343
  617MPD2     H 9196   3.888   4.604  13.916  1.9835  0.0568 -2.0865
  617MPD2    H1 9197   3.593   4.680  13.622 -1.5033  2.2531  1.6275
  617MPD2    H2 9198   3.961   0.141  13.592 -1.5962  1.5523  0.8308
  617MPD2    H3 9199   3.755   0.095  13.493  0.3960  1.1775  0.4713
  617MPD2     N 9200   3.637   4.556  13.835 -0.8726 -0.0832 -0.4743
  617MPD2    H5 9201   3.543   4.560  13.796 -0.7252 -0.5265 -0.8829
  617MPD2    N1 9202   4.066   0.057  13.819 -0.1825 -0.0107  0.3394
  617MPD2    H7 9203   4.105   0.146  13.789  0.3442 -0.6530 -0.8837
  618TMC3    C1 9204   4.247   0.068  13.972  0.4255 -0.0554 -0.1394
  618TMC3    C2 9205   4.353   0.005  14.024 -0.0547  0.1086  0.6177
  618TMC3    C3 9206   4.456   0.069  14.089  0.2879 -0.4758  0.3146
  618TMC3    C4 9207   4.234   0.204  13.978  0.2978  0.4042  0.2173
  618TMC3    C5 9208   4.344   0.275  14.036 -1.1222 -0.1269  0.1403
  618TMC3    C6 9209   4.449   0.206  14.092  0.3546  0.5729 -0.8450
  618TMC3     C 9210   4.136   4.730  13.921  0.0028 -0.5718 -0.0145
  618TMC3     O 9211   4.128   4.611  13.944 -0.6133 -0.5644 -0.4298
  618TMC3     H 9212   4.339   4.633  14.017  0.7720 -0.0008  0.5987
  618TMC3    H1 9213   4.141   0.254  13.954  0.1340 -0.4258 -0.8879
  618TMC3    H2 9214   4.538   0.266  14.105 -1.4707  3.2139 -0.5824
  618TMC3    C7 9215   4.341   0.421  14.018  0.4420 -0.4230 -0.5927
  618TMC3    C8 9216   4.584   0.009  14.092  0.2366  0.3502  0.2188
  618TMC3    O1 9217   4.235   0.483  14.025 -0.1563 -0.0893 -0.2517
  618TMC3    O2 9218   4.680   0.067  14.142 -0.3056  0.2672 -0.3642
  619MPD2     C 9219   0.537   1.325  13.767  0.3435 -0.0951  0.3589
  619MPD2    C1 9220   0.469   1.409  13.678  0.0393  0.0894 -0.0868
  619MPD2    C2 9221   0.338   1.378  13.642 -0.3696  0.5053  0.6922
  619MPD2    C3 9222   0.276   1.269  13.697  0.4969 -0.1426 -1.0373
  619MPD2    C4 9223   0.346   1.191  13.782  0.1309 -0.3245 -0.3936
  619MPD2    C5 9224   0.475   1.219  13.818  0.0924  0.6329 -0.3813
  619MPD2     H 9225   0.286   1.441  13.571  0.8556  1.9302  1.0526
  619MPD2    H1 9226   0.297   1.103  13.823  0.5936  0.6405  2.2871
  619MPD2    H2 9227   0.641   1.340  13.793  0.4156  2.9852 -1.6916
  619MPD2    H3 9228   0.534   1.162  13.889  1.9785  1.3473 -1.3988
  619MPD2     N 9229   0.136   1.229  13.671 -0.4609  0.0173 -0.2895
  619MPD2    H5 9230   0.088   1.141  13.689  3.1664 -1.3130  2.9101
  619MPD2    N1 9231   0.526   1.523  13.615  0.0758  0.2086 -0.4992
  619MPD2    H7 9232   0.466   1.562  13.544 -0.8520 -0.4097 -0.0700
  620TMC3    C1 9233   0.635   1.728  13.617 -0.7396  0.1835 -0.5730
  620TMC3    C2 9234   0.591   1.751  13.495  0.8748  0.3906  0.2877
  620TMC3    C3 9235   0.568   1.879  13.455  0.0592  0.0911 -0.2716
  620TMC3    C4 9236   0.663   1.831  13.707  0.1558  0.0398 -0.1542
  620TMC3    C5 9237   0.628   1.959  13.672 -0.4986 -0.1112  0.0548
  620TMC3    C6 9238   0.585   1.983  13.543  0.3489 -0.3412 -0.3068
  620TMC3     C 9239   0.633   1.590  13.670 -0.1596 -0.3871 -0.2643
  620TMC3     O 9240   0.696   1.567  13.773  0.1906 -0.5475 -0.2928
  620TMC3     H 9241   0.580   1.668  13.426 -0.8240  0.5535  0.3683
  620TMC3    H1 9242   0.682   1.796  13.808  0.8299 -2.5261 -1.1799
  620TMC3    H2 9243   0.555   2.082  13.507  0.9297 -0.5218 -1.2937
  620TMC3    C7 9244   0.522   2.010  13.757  0.0708 -0.0818 -0.0781
  620TMC3    C8 9245   0.453   1.882  13.373  0.1959  0.1235 -0.2428
  620TMC3    O1 9246   0.422   2.055  13.708 -0.5360 -0.0619 -0.1277
  620TMC3    O2 9247   0.450   1.831  13.260 -0.3690 -0.4739 -0.6649
  621MPD2     C 9248   0.801   0.669  10.122 -0.2352  0.3629  0.2612
  621MPD2    C1 9249   0.804   0.786  10.200 -0.3143  0.0609  0.9537
  621MPD2    C2 9250   0.898   0.885  10.167  0.4283 -0.3189 -0.1027
  621MPD2    C3 9251   0.973   0.867  10.053  0.5462  0.2789  0.0883
  621MPD2    C4 9252   0.961   0.759   9.973  0.4911 -0.5992 -0.2565
  621MPD2    C5 9253   0.870   0.661  10.008 -0.6038  0.3427 -0.6414
  621MPD2     H 9254   0.905   0.974  10.228  1.1892 -0.5195  0.0975
  621MPD2    H1 9255   1.010   0.751   9.877 -0.3244 -1.0484 -0.6304
  621MPD2    H2 9256   0.730   0.587  10.131 -2.0176  1.7911 -0.7854
  621MPD2    H3 9257   0.856   0.566   9.956 -0.2633  0.5444 -1.1013
  621MPD2     N 9258   1.080   0.959  10.043 -0.2978  0.5208  0.1121
  621MPD2    H5 9259   1.079   1.043  10.099  0.0832  0.9403 -0.5032
  621MPD2    N1 9260   0.722   0.789  10.316  0.0685 -0.1604  0.6715
  621MPD2    H7 9261   0.705   0.877  10.364  0.5522  0.7849 -0.8860
  622TMC3    C1 9262   0.597   0.701  10.489 -0.1265  0.2723 -0.0570
  622TMC3    C2 9263   0.536   0.825  10.505  0.3099 -0.3438  0.1721
  622TMC3    C3 9264   0.430   0.826  10.595  0.2096  0.1186  1.2337
  622TMC3    C4 9265   0.554   0.589  10.553  0.7560  0.6886 -0.5515
  622TMC3    C5 9266   0.445   0.595  10.634  0.1620 -0.5657  0.3701
  622TMC3    C6 9267   0.380   0.714  10.648  0.3972  0.4086 -0.8218
  622TMC3     C 9268   0.654   0.680  10.363 -0.4437 -0.1133  0.4457
  622TMC3     O 9269   0.650   0.564  10.335 -0.1506 -0.5545 -0.1347
  622TMC3     H 9270   0.551   0.908  10.437  1.0387 -1.2647 -0.7823
  622TMC3    H1 9271   0.605   0.493  10.549 -1.5402 -0.5593  0.2089
  622TMC3    H2 9272   0.287   0.718  10.704  2.1599 -1.8035  2.2790
  622TMC3    C7 9273   0.375   0.477  10.645  0.1813  1.0630 -1.1540
  622TMC3    C8 9274   0.346   0.941  10.575  0.3951 -0.7316 -0.4888
  622TMC3    O1 9275   0.302   0.459  10.740 -0.2428 -0.3539  0.0632
  622TMC3    O2 9276   0.359   1.003  10.471 -0.3308  0.1983 -0.5670
  623MPD2     C 9277   4.262   2.168  15.706  0.5131  0.0715  0.0639
  623MPD2    C1 9278   4.221   2.251  15.811 -0.2326 -0.2519 -1.0192
  623MPD2    C2 9279   4.300   2.253  15.933 -0.2005 -0.5994  0.2113
  623MPD2    C3 9280   4.422   2.177  15.942  0.1586 -0.1839 -0.4630
  623MPD2    C4 9281   4.464   2.111  15.830 -0.5731  0.3233 -0.0231
  623MPD2    C5 9282   4.381   2.107  15.720  0.4023 -0.1463 -1.0108
  623MPD2     H 9283   4.276   2.323  16.013  1.9969 -1.5940  1.7387
  623MPD2    H1 9284   4.548   2.043  15.832  0.2150  1.1809 -2.9323
  623MPD2    H2 9285   4.212   2.157  15.611 -0.1696 -0.5865  0.4961
  623MPD2    H3 9286   4.419   2.043  15.641  1.9434  1.5005 -1.6033
  623MPD2     N 9287   4.489   2.161  16.072 -0.0383 -0.1878  0.4164
  623MPD2    H5 9288   4.442   2.193  16.156  0.4682  0.0186  0.6226
  623MPD2    N1 9289   4.103   2.327  15.791 -0.2133 -0.3684  0.3259
  623MPD2    H7 9290   4.026   2.295  15.733  0.5396  0.7641 -1.2636
  624TMC3    C1 9291   4.725   1.968  16.386  0.6128  0.0703  0.7820
  624TMC3    C2 9292   4.630   2.017  16.470  0.0711 -0.4852 -0.2814
  624TMC3    C3 9293   4.553   2.123  16.438 -0.5399  0.1594 -0.1764
  624TMC3    C4 9294   0.002   2.010  16.255  0.4436 -0.4106 -0.2117
  624TMC3    C5 9295   4.644   2.107  16.225  0.5755 -0.8143  0.1362
  624TMC3    C6 9296   4.551   2.163  16.308  0.3752 -0.1786  1.0292
  624TMC3     C 9297   0.073   1.863  16.437  0.1281 -0.2305 -0.0697
  624TMC3     O 9298   0.078   1.857  16.558  0.9930 -0.1256  0.8506
  624TMC3     H 9299   4.631   1.982  16.573 -0.9114  0.9897  0.2433
  624TMC3    H1 9300   0.085   1.980  16.192  1.5089  0.6080  0.6876
  624TMC3    H2 9301   4.507   2.258  16.282  0.3756 -0.4815 -0.0814
  624TMC3    C7 9302   4.616   2.109  16.087 -0.2609 -0.3218 -0.7657
  624TMC3    C8 9303   4.428   2.126  16.494  0.3019 -0.1144  0.5347
  624TMC3    O1 9304   4.706   2.082  16.007  0.0926 -0.4868  0.1280
  624TMC3    O2 9305   4.340   2.174  16.427  0.0596  0.5866  0.7707
  625MPD2     C 9306   0.523   2.446   0.413 -0.4159  0.4776  0.0188
  625MPD2    C1 9307   0.586   2.565   0.453 -0.4689  0.8060  0.2873
  625MPD2    C2 9308   0.720   2.583   0.444 -0.0830  1.0833  0.1384
  625MPD2    C3 9309   0.788   2.483   0.376 -0.7255  0.4709 -0.0284
  625MPD2    C4 9310   0.726   2.364   0.347 -0.2252 -0.5780 -0.9697
  625MPD2    C5 9311   0.593   2.337   0.372  0.1159  0.1962 -0.4573
  625MPD2     H 9312   0.768   2.678   0.465 -0.9457  1.2933  1.1918
  625MPD2    H1 9313   0.790   2.283   0.312  0.7015 -0.2481 -0.0457
  625MPD2    H2 9314   0.414   2.441   0.417 -0.3664 -0.8120 -0.4798
  625MPD2    H3 9315   0.535   2.245   0.367 -3.1654  2.2876 -0.3202
  625MPD2     N 9316   0.924   2.509   0.344  0.1377  0.1316  0.2871
  625MPD2    H5 9317   0.959   2.598   0.379  0.3499 -0.3632  1.3422
  625MPD2    N1 9318   0.516   2.673   0.521 -0.2220 -0.1646  0.7984
  625MPD2    H7 9319   0.571   2.738   0.575  1.7370 -0.9049 -0.3133
  626TMC3    C1 9320   0.342   2.791   0.613  0.4872  1.1194  0.1384
  626TMC3    C2 9321   0.240   2.873   0.562  0.7906 -0.2771  0.4717
  626TMC3    C3 9322   0.215   2.988   0.639  0.4764  0.2523  0.7721
  626TMC3    C4 9323   0.427   2.829   0.707 -0.1577 -0.5839 -1.0442
  626TMC3    C5 9324   0.398   2.938   0.777 -0.3374  0.3844 -0.3261
  626TMC3    C6 9325   0.298   3.020   0.744  0.1192 -0.1525  0.0266
  626TMC3     C 9326   0.380   2.682   0.529  0.5654  0.4037  0.5163
  626TMC3     O 9327   0.291   2.622   0.465 -0.3603  0.7850 -0.3029
  626TMC3     H 9328   0.188   2.857   0.468  1.0907 -1.6204  0.5232
  626TMC3    H1 9329   0.511   2.770   0.743  1.8110  2.5345 -0.4993
  626TMC3    H2 9330   0.309   3.123   0.776 -1.2188 -0.5067  1.6366
  626TMC3    C7 9331   0.502   2.987   0.871  0.7692  0.4374 -0.0197
  626TMC3    C8 9332   0.131   3.093   0.575  0.1902 -0.3487 -0.1981
  626TMC3    O1 9333   0.615   2.941   0.856  0.3674 -0.9015  0.2555
  626TMC3    O2 9334   0.161   3.209   0.597 -0.0561 -0.1108 -0.1635
  627MPD2     C 9335   3.116   3.384  14.442 -0.3516 -0.0103 -0.7655
  627MPD2    C1 9336   3.171   3.328  14.555 -0.2499 -0.0060  0.0027
  627MPD2    C2 9337   3.106   3.214  14.606  0.7747  0.2063  0.0518
  627MPD2    C3 9338   3.000   3.149  14.542 -0.0082  0.0604 -0.2778
  627MPD2    C4 9339   2.947   3.213  14.429 -0.5669  0.1491 -0.0917
  627MPD2    C5 9340   3.005   3.325  14.380 -0.3116 -0.4213 -0.2355
  627MPD2     H 9341   3.151   3.157  14.686  1.3999  1.8615  0.8828
  627MPD2    H1 9342   2.870   3.178  14.361 -0.3349  3.5679 -2.1038
  627MPD2    H2 9343   3.160   3.463  14.382  0.1116 -1.1961 -2.0018
  627MPD2    H3 9344   2.970   3.364  14.284 -1.5846  0.8728  0.7503
  627MPD2     N 9345   2.938   3.035  14.603  0.0864 -0.0507 -0.1580
  627MPD2    H5 9346   2.969   2.997  14.692 -1.7041 -0.3366  0.3495
  627MPD2    N1 9347   3.282   3.374  14.620  0.2769 -0.3404  0.6371
  627MPD2    H7 9348   3.303   3.324  14.706  0.0950  0.2380  1.0224
  628TMC3    C1 9349   3.469   3.500  14.674  0.3721 -0.1744  0.8681
  628TMC3    C2 9350   3.557   3.394  14.695  0.3544  0.4759  0.1980
  628TMC3    C3 9351   3.690   3.426  14.728 -0.1362 -0.4181 -0.2036
  628TMC3    C4 9352   3.516   3.626  14.680  0.4056 -0.9116 -0.1628
  628TMC3    C5 9353   3.646   3.655  14.700 -0.3923  0.4367  0.1931
  628TMC3    C6 9354   3.722   3.563  14.747 -0.3629  0.6401 -0.3960
  628TMC3     C 9355   3.352   3.488  14.581 -0.2766 -0.0276  0.0345
  628TMC3     O 9356   3.341   3.568  14.487  0.5872 -0.1717  0.2228
  628TMC3     H 9357   3.529   3.291  14.675  0.2012 -0.1021  3.4452
  628TMC3    H1 9358   3.453   3.703  14.638 -0.2124 -1.6711 -0.6169
  628TMC3    H2 9359   3.827   3.584  14.766 -0.5137  0.8033  0.2372
  628TMC3    C7 9360   3.699   3.795  14.706  0.3780 -0.4156  0.1629
  628TMC3    C8 9361   3.787   3.347  14.667 -0.2900 -0.2381  0.0646
  628TMC3    O1 9362   3.794   3.828  14.774  0.3967  0.0317 -0.2698
  628TMC3    O2 9363   3.758   3.299  14.558 -0.5426  0.3557  0.4302
  629MPD2     C 9364   1.454   1.591  16.895 -0.6084 -0.5089 -0.1186
  629MPD2    C1 9365   1.459   1.649  16.765  0.7973 -0.0895  0.6816
  629MPD2    C2 9366   1.349   1.639  16.681 -0.2323  0.2333  0.1370
  629MPD2    C3 9367   1.230   1.596  16.737  0.0904 -0.2433  0.2095
  629MPD2    C4 9368   1.219   1.559  16.870 -0.3347 -0.1993 -0.7415
  629MPD2    C5 9369   1.333   1.550  16.947  0.1790 -0.6166  0.4649
  629MPD2     H 9370   1.347   1.691  16.586 -0.5763  0.7076  0.4070
  629MPD2    H1 9371   1.125   1.527  16.914 -0.1041  0.3904  0.1693
  629MPD2    H2 9372   1.543   1.573  16.953  0.7894  1.2613 -1.6978
  629MPD2    H3 9373   1.328   1.514  17.049 -1.5416 -0.2372  0.5140
  629MPD2     N 9374   1.117   1.602  16.647  0.4422 -0.0897 -0.2167
  629MPD2    H5 9375   1.137   1.629  16.552 -0.5172  1.6579  0.0878
  629MPD2    N1 9376   1.586   1.695  16.721 -0.4816  0.4112  0.4298
  629MPD2    H7 9377   1.660   1.712  16.788 -0.0720  1.2798 -0.2329
  630TMC3    C1 9378   1.754   1.751  16.566 -0.2519 -0.2441  0.3737
  630TMC3    C2 9379   1.789   1.796  16.442  0.5141 -0.7282  0.2175
  630TMC3    C3 9380   1.920   1.822  16.413  0.1257  0.5471 -0.6460
  630TMC3    C4 9381   1.843   1.742  16.666 -0.3689  0.0914 -0.0187
  630TMC3    C5 9382   1.972   1.781  16.647 -0.0144 -0.1826 -0.2326
  630TMC3    C6 9383   2.010   1.825  16.524  0.2221  0.0269 -0.1153
  630TMC3     C 9384   1.615   1.750  16.597  0.3861  0.4068  0.0657
  630TMC3     O 9385   1.542   1.752  16.499  0.1336 -0.3318 -0.2815
  630TMC3     H 9386   1.711   1.802  16.368  3.1546  0.4525 -2.4829
  630TMC3    H1 9387   1.816   1.744  16.771 -1.0781  4.4736 -0.2702
  630TMC3    H2 9388   2.111   1.861  16.512  0.0737  0.5582  0.2475
  630TMC3    C7 9389   2.023   1.863  16.749 -0.4761 -0.1150 -0.0343
  630TMC3    C8 9390   1.942   1.944  16.336 -0.0589 -0.4184 -0.5488
  630TMC3    O1 9391   2.030   1.818  16.864 -0.1612 -0.0192  0.3438
  630TMC3    O2 9392   2.020   2.022  16.387 -0.7986  0.2251 -0.2009
  631MPD2     C 9393   4.654   1.957  15.392  0.1718  0.0433 -0.1393
  631MPD2    C1 9394   0.030   2.021  15.343  0.0322 -0.3062  0.0286
  631MPD2    C2 9395   0.140   1.937  15.307 -0.2632 -0.8640  0.0318
  631MPD2    C3 9396   0.133   1.799  15.337  0.1739  0.4313  0.4071
  631MPD2    C4 9397   0.018   1.741  15.395 -0.0500  0.0888 -0.3306
  631MPD2    C5 9398   4.646   1.822  15.411  0.0759 -0.0153  0.5636
  631MPD2     H 9399   0.231   1.977  15.262 -0.3198 -1.5077 -0.6556
  631MPD2    H1 9400   0.013   1.638  15.428  2.1273  0.5365  1.4390
  631MPD2    H2 9401   4.568   2.012  15.430  0.0595 -0.0785 -0.2186
  631MPD2    H3 9402   4.558   1.772  15.451  0.0838 -1.3994 -1.1561
  631MPD2     N 9403   0.254   1.721  15.318  0.1664 -0.1791 -0.1567
  631MPD2    H5 9404   0.324   1.757  15.253  1.2747 -0.4904  0.8767
  631MPD2    N1 9405   0.034   2.164  15.333 -0.2871  0.3108  0.8744
  631MPD2    H7 9406   4.687   2.207  15.375 -0.3566 -0.5883  1.6825
  632TMC3    C1 9407   0.125   2.383  15.321 -0.2839  0.3446  0.8949
  632TMC3    C2 9408   0.021   2.422  15.406 -0.7863 -0.1432  0.1231
  632TMC3    C3 9409   4.728   2.554  15.407  0.1741 -0.2277  0.1483
  632TMC3    C4 9410   0.204   2.470  15.253 -0.6506 -0.7128 -0.3728
  632TMC3    C5 9411   0.171   2.600  15.260  0.7797 -0.1231 -0.0975
  632TMC3    C6 9412   0.067   2.642  15.340  0.7009  0.5222  0.6658
  632TMC3     C 9413   0.140   2.244  15.281  0.4544  0.1282 -0.5369
  632TMC3     O 9414   0.235   2.208  15.211 -0.5016  0.4493  0.1266
  632TMC3     H 9415   4.696   2.353  15.465 -0.3556  0.1653  0.9178
  632TMC3    H1 9416   0.298   2.440  15.207 -0.5496 -2.9318  1.2695
  632TMC3    H2 9417   0.031   2.743  15.333  4.7515  1.9463  0.2143
  632TMC3    C7 9418   0.230   2.688  15.161  0.1024 -0.0351  0.5412
  632TMC3    C8 9419   4.634   2.599  15.508 -0.2173 -0.1542 -0.2419
  632TMC3    O1 9420   0.229   2.808  15.191  0.2536 -0.1819  0.1000
  632TMC3    O2 9421   4.567   2.693  15.473  0.0311 -0.3946 -0.2110
  633MPD2     C 9422   0.033   0.120  17.465  1.0935  0.6659  0.2392
  633MPD2    C1 9423   4.713   0.048  17.357  0.4144 -0.3802  0.4601
  633MPD2    C2 9424   4.690   4.646  17.376 -0.1420 -1.0053 -0.1578
  633MPD2    C3 9425   4.724   4.580  17.494  0.2924  0.2563  0.0541
  633MPD2    C4 9426   0.041   4.650  17.602 -0.1046  0.2244  0.4190
  633MPD2    C5 9427   0.070   0.051  17.580 -0.1770  0.1940  0.0391
  633MPD2     H 9428   4.669   4.585  17.289  1.3248 -2.5245  0.5617
  633MPD2    H1 9429   0.071   4.606  17.697  1.0948  1.8008  0.7608
  633MPD2    H2 9430   0.068   0.222  17.462  4.9462 -0.7525 -1.8026
  633MPD2    H3 9431   0.107   0.109  17.663 -2.8311 -1.0866  2.1090
  633MPD2     N 9432   4.697   4.442  17.520 -0.1166 -0.2519 -0.3567
  633MPD2    H5 9433   4.703   4.413  17.617 -0.8228  0.2570 -0.1604
  633MPD2    N1 9434   4.677   0.095  17.231 -0.0283 -0.6456 -0.3408
  633MPD2    H7 9435   4.663   0.032  17.153 -0.2540 -0.6896 -0.2652
  634TMC3    C1 9436   4.684   0.249  17.061 -0.3509  0.3970 -0.3160
  634TMC3    C2 9437   4.724   0.150  16.975  0.1770 -0.2833  0.7567
  634TMC3    C3 9438   0.008   0.174  16.850 -0.5322  0.8108 -0.0809
  634TMC3    C4 9439   4.643   0.372  17.015  0.1583 -0.2522 -0.1206
  634TMC3    C5 9440   4.667   0.392  16.878 -0.2087 -0.0190 -0.3346
  634TMC3    C6 9441   4.723   0.298  16.798 -0.3217  0.3180  0.0124
  634TMC3     C 9442   4.683   0.227  17.199 -0.5664 -0.4869  0.1487
  634TMC3     O 9443   4.687   0.324  17.272  0.1354  0.1416  0.2549
  634TMC3     H 9444   0.005   0.049  17.012 -1.5778 -0.5761  0.7592
  634TMC3    H1 9445   4.616   0.446  17.091  2.2186  0.4344 -0.0622
  634TMC3    H2 9446   0.003   0.317  16.692 -2.2979 -2.0920 -0.6884
  634TMC3    C7 9447   4.612   0.512  16.803  0.6676 -1.1815 -0.4781
  634TMC3    C8 9448   0.031   0.054  16.768  0.5637  0.7785 -0.5006
  634TMC3    O1 9449   4.624   0.509  16.683  0.1247 -0.7205  0.0693
  634TMC3    O2 9450   0.018   4.678  16.819 -0.0940 -0.2676  0.1100
  635TMC3    C1 9451   4.148   1.556  17.665 -0.4449 -0.0631  0.0639
  635TMC3    C2 9452   4.046   1.539  17.575  0.0818 -0.6513 -0.5596
  635TMC3    C3 9453   3.931   1.606  17.586  0.1994 -0.8367  0.4717
  635TMC3    C4 9454   4.123   1.628   0.037 -0.5473 -0.4111  0.5198
  635TMC3    C5 9455   3.999   1.692   0.046 -0.0301  0.1288  0.3753
  635TMC3    C6 9456   3.903   1.685  17.690 -0.2326  0.0223 -0.5351
  635TMC3     C 9457   4.280   1.526  17.612 -0.6715  0.2968 -0.1895
  635TMC3     O 9458   4.282   1.468  17.503  0.5527 -0.4805 -0.0648
  635TMC3     H 9459   4.060   1.485  17.482  0.1223 -2.9306  0.7629
  635TMC3    H1 9460   4.192   1.645   0.119 -1.2821  0.5240  0.9536
  635TMC3    H2 9461   3.800   1.715  17.709  0.1412  1.5903 -0.9943
  635TMC3    C7 9462   3.970   1.754   0.175  0.7642  0.1515  0.3968
  635TMC3    C8 9463   3.844   1.611  17.472  0.3269  0.1433  0.3567
  635TMC3    O1 9464   4.039   1.739   0.275 -0.1344  0.3748  0.0349
  635TMC3    O2 9465   3.857   1.522  17.390  0.4698  0.0010  0.3297
  636MPD2     C 9466   1.091   0.226  16.305  0.9045 -0.5299 -0.6348
  636MPD2    C1 9467   1.186   0.320  16.338  0.0556  1.0323  0.6683
  636MPD2    C2 9468   1.288   0.279  16.422 -0.2320  0.0610  0.1237
  636MPD2    C3 9469   1.287   0.151  16.475 -0.6550  0.0445  0.3977
  636MPD2    C4 9470   1.191   0.058  16.450 -0.4589  0.1637 -0.2982
  636MPD2    C5 9471   1.103   0.094  16.355  0.5205 -0.4597  0.7367
  636MPD2     H 9472   1.360   0.353  16.454  0.0313  0.9564 -2.4794
  636MPD2    H1 9473   1.189   4.691  16.485  0.2682  0.0776 -0.5037
  636MPD2    H2 9474   1.003   0.245  16.243 -0.7995  1.7608  2.4693
  636MPD2    H3 9475   1.031   0.024  16.313 -0.3169  0.5136  0.5501
  636MPD2     N 9476   1.401   0.120  16.550 -0.2471 -0.7296  0.0088
  636MPD2    H5 9477   1.463   0.199  16.566  0.6133 -1.4255  0.0892
  636MPD2    N1 9478   1.196   0.454  16.279  0.0210 -0.2595  0.1329
  636MPD2    H7 9479   1.284   0.503  16.288 -0.4644  0.6658 -0.2420
  637TMC3    C1 9480   1.575   0.005  16.629  0.5101  0.4444  0.4256
  637TMC3    C2 9481   1.615   0.123  16.686  0.4325  0.0353 -0.2778
  637TMC3    C3 9482   1.744   0.157  16.672  0.9097 -0.0569 -0.1902
  637TMC3    C4 9483   1.664   4.662  16.552 -0.4359  0.1489 -0.5395
  637TMC3    C5 9484   1.795   4.689  16.558 -0.5419 -0.4356 -0.4321
  637TMC3    C6 9485   1.835   0.068  16.616 -0.1478 -0.2756  0.4630
  637TMC3     C 9486   1.438   4.728  16.595 -0.8471  0.6044 -0.3202
  637TMC3     O 9487   1.382   4.616  16.573  0.3375 -0.7542 -0.1177
  637TMC3     H 9488   1.549   0.190  16.741  0.2495 -0.2656 -0.1335
  637TMC3    H1 9489   1.619   4.576  16.506  1.9645 -1.5124  0.2220
  637TMC3    H2 9490   1.941   0.090  16.617  0.0535 -1.2736  0.4993
  637TMC3    C7 9491   1.859   4.686  16.430  0.2528  0.5057  0.1875
  637TMC3    C8 9492   1.754   0.294  16.618  0.0833  0.1139  0.4872
  637TMC3    O1 9493   1.957   0.018  16.404 -0.3167  0.1197  0.0313
  637TMC3    O2 9494   1.656   0.337  16.559 -0.0696 -0.1083  0.5148
  638MPD2     C 9495   0.962   4.149  15.036 -0.2129  0.2851 -0.8958
  638MPD2    C1 9496   0.972   4.050  14.949  0.6717 -0.5342 -0.4237
  638MPD2    C2 9497   0.943   3.922  14.982  0.1196  0.8111 -0.5987
  638MPD2    C3 9498   0.903   3.888  15.112 -0.2959  0.4821  0.0674
  638MPD2    C4 9499   0.880   3.989  15.204 -0.6104  0.6532  0.1742
  638MPD2    C5 9500   0.916   4.118  15.160  0.4129  0.0570 -0.1169
  638MPD2     H 9501   0.964   3.840  14.914  2.3719 -0.5252  1.6943
  638MPD2    H1 9502   0.854   3.971  15.308 -1.7548 -2.1247 -0.5724
  638MPD2    H2 9503   0.985   4.251  15.011 -0.3413  0.2377 -1.2111
  638MPD2    H3 9504   0.922   4.205  15.225  1.7825 -1.6450  2.0360
  638MPD2     N 9505   0.908   3.755  15.144 -0.4001 -0.2737  0.0945
  638MPD2    H5 9506   0.934   3.694  15.067 -0.5214  1.1963 -1.1114
  638MPD2    N1 9507   1.012   4.073  14.812  0.2465 -0.7317  0.6671
  638MPD2    H7 9508   1.067   4.154  14.785 -1.3352 -0.3561 -1.4733
  639TMC3    C1 9509   0.848   3.554  15.219  0.4103 -0.1457 -0.4338
  639TMC3    C2 9510   0.806   3.532  15.095 -0.3632  0.0151 -0.4889
  639TMC3    C3 9511   0.845   3.415  15.038  0.3571  1.0755  0.5756
  639TMC3    C4 9512   0.935   3.468  15.271  0.1382  0.5168 -0.5831
  639TMC3    C5 9513   0.979   3.360  15.206 -0.1104 -0.1971  0.5021
  639TMC3    C6 9514   0.947   3.328  15.080  0.0550  0.7724  0.2015
  639TMC3     C 9515   0.869   3.691  15.252  0.7232  0.2482  0.7096
  639TMC3     O 9516   0.829   3.737  15.358  0.0651 -0.3405 -0.4353
  639TMC3     H 9517   0.740   3.603  15.048 -0.9308 -1.5827 -2.1247
  639TMC3    H1 9518   0.974   3.502  15.366 -1.0636  3.2525 -1.0549
  639TMC3    H2 9519   0.981   3.237  15.032  1.8394  0.2453  2.4774
  639TMC3    C7 9520   1.068   3.273  15.280  0.0488  0.0968 -0.7892
  639TMC3    C8 9521   0.781   3.384  14.916  0.0693 -0.4047 -0.1377
  639TMC3    O1 9522   1.047   3.262  15.400  0.1137 -0.4750  0.1784
  639TMC3    O2 9523   0.828   3.298  14.848 -0.1656  0.1617  0.2860
  640MPD2     C 9524   1.953   2.222   9.631  0.3983 -0.1115  0.0677
  640MPD2    C1 9525   1.821   2.188   9.600 -0.6671 -0.4297  0.2006
  640MPD2    C2 9526   1.726   2.280   9.649  0.8160  0.3346 -0.5341
  640MPD2    C3 9527   1.759   2.400   9.716  0.7417  0.7970  0.1430
  640MPD2    C4 9528   1.896   2.424   9.745  0.2751  0.2256  0.2081
  640MPD2    C5 9529   1.989   2.332   9.714 -0.1245  0.0332  0.2997
  640MPD2     H 9530   1.625   2.265   9.614  0.6562  1.8247 -0.7033
  640MPD2    H1 9531   1.929   2.515   9.793 -1.6041  1.5938 -1.1433
  640MPD2    H2 9532   2.030   2.162   9.584 -1.6521 -0.5069 -2.8473
  640MPD2    H3 9533   2.093   2.355   9.732  0.1042 -1.4524  0.9353
  640MPD2     N 9534   1.666   2.497   9.762  0.0080  0.5875 -0.3692
  640MPD2    H5 9535   1.711   2.583   9.791 -0.6553  0.9660 -0.4417
  640MPD2    N1 9536   1.788   2.071   9.525  0.3679  0.5498 -0.3233
  640MPD2    H7 9537   1.866   2.010   9.503 -0.7170 -0.9124 -0.1063
  641TMC3    C1 9538   1.666   1.889   9.452  0.4636  0.0586  0.0856
  641TMC3    C2 9539   1.751   1.803   9.517 -0.2014  0.1400 -0.3734
  641TMC3    C3 9540   1.733   1.667   9.517 -0.1052 -0.0159  0.3167
  641TMC3    C4 9541   1.564   1.838   9.378  0.4401  0.0413 -0.0578
  641TMC3    C5 9542   1.558   1.700   9.372 -0.4537 -0.3614  0.5944
  641TMC3    C6 9543   1.633   1.614   9.444  0.4607 -0.1059  0.0210
  641TMC3     C 9544   1.659   2.029   9.482 -0.0071 -0.1584 -0.1678
  641TMC3     O 9545   1.549   2.085   9.482  0.3625  0.0561 -0.0818
  641TMC3     H 9546   1.818   1.848   9.588  0.0036  0.6484 -0.8861
  641TMC3    H1 9547   1.526   1.902   9.299  1.0773  0.4755 -0.0108
  641TMC3    H2 9548   1.617   1.507   9.436 -0.8692 -0.0491  1.9565
  641TMC3    C7 9549   1.514   1.642   9.241  0.2292  0.7875  0.1133
  641TMC3    C8 9550   1.837   1.575   9.556 -0.0007 -0.7358  0.2748
  641TMC3    O1 9551   1.558   1.528   9.215  1.1459 -0.1503 -0.6435
  641TMC3    O2 9552   1.815   1.454   9.551 -0.1192 -0.6113 -0.0392
  642TMC3    C1 9553   2.525   3.366  12.346 -0.7013  0.0448 -0.6624
  642TMC3    C2 9554   2.627   3.402  12.269 -1.0042  0.0591 -0.4809
  642TMC3    C3 9555   2.646   3.330  12.157 -0.7220 -0.0889 -0.9046
  642TMC3    C4 9556   2.437   3.269  12.310 -0.3430 -0.1521 -0.3452
  642TMC3    C5 9557   2.453   3.206  12.193  0.7233  0.5565 -0.0115
  642TMC3    C6 9558   2.554   3.241  12.107 -0.9801 -0.0849  0.1558
  642TMC3     C 9559   2.506   3.447  12.468 -0.2072  0.6738  0.8316
  642TMC3     O 9560   2.607   3.467  12.536 -1.0892 -0.6223  0.2403
  642TMC3     H 9561   2.699   3.476  12.304  0.0887 -0.8497 -0.8147
  642TMC3    H1 9562   2.367   3.239  12.388  0.0194  1.7622  0.7196
  642TMC3    H2 9563   2.553   3.218  12.001  2.1556 -0.4825  0.2000
  642TMC3    C7 9564   2.360   3.097  12.155 -0.1930  0.4125 -0.3913
  642TMC3    C8 9565   2.777   3.354  12.084  0.1262 -0.2593  0.1277
  642TMC3    O1 9566   2.390   3.044  12.051  0.6018  0.1019 -0.1017
  642TMC3    O2 9567   2.844   3.454  12.108  0.6292  0.3658  0.1564
  643TMC3    C1 9568   1.741   2.914   0.383  0.4902  0.4879  0.4301
  643TMC3    C2 9569   1.678   2.984   0.294 -0.5145  0.1521 -0.0763
  643TMC3    C3 9570   1.638   2.924   0.174 -0.4869 -0.4901  0.4163
  643TMC3    C4 9571   1.797   2.788   0.350 -0.0922  0.2700 -0.1405
  643TMC3    C5 9572   1.769   2.742   0.222 -0.3293 -0.4882 -0.3135
  643TMC3    C6 9573   1.688   2.804   0.139  0.1448 -0.1952 -0.6407
  643TMC3     C 9574   1.778   2.970   0.510 -0.2753  0.1294  0.2667
  643TMC3     O 9575   1.716   3.068   0.545 -0.0527  0.0545  0.2172
  643TMC3     H 9576   1.656   3.087   0.320 -0.1995  0.2431 -0.1700
  643TMC3    H1 9577   1.854   2.722   0.414 -0.1160 -0.6802 -1.1072
  643TMC3    H2 9578   1.656   2.750   0.051 -3.3548  0.0762  0.4702
  643TMC3    C7 9579   1.893   2.710   0.148  0.2352 -0.1295  0.0660
  643TMC3    C8 9580   1.625   3.002   0.050 -0.0233  0.0720 -0.5300
  643TMC3    O1 9581   1.984   2.653   0.207  0.5231 -0.6150 -0.0444
  643TMC3    O2 9582   1.625   2.941  17.687 -0.1839  0.0919 -0.3850
  644MPD2     C 9583   1.275   2.508   9.463  0.2961  0.1350  0.0252
  644MPD2    C1 9584   1.364   2.609   9.449  0.7102  0.2783  0.3533
  644MPD2    C2 9585   1.325   2.735   9.484  0.3666 -1.0653  0.0275
  644MPD2    C3 9586   1.202   2.755   9.545  0.4514  0.1229  0.3737
  644MPD2    C4 9587   1.117   2.650   9.558  0.0386 -0.6619  0.3608
  644MPD2    C5 9588   1.149   2.524   9.516  0.3392  0.2520 -0.4009
  644MPD2     H 9589   1.398   2.813   9.467 -1.6450  0.9458  0.6075
  644MPD2    H1 9590   1.021   2.659   9.607 -0.9173 -0.6263 -1.4925
  644MPD2    H2 9591   1.303   2.412   9.422  1.9873 -0.3625  2.3652
  644MPD2    H3 9592   1.085   2.439   9.539  0.0908  0.1957 -1.3377
  644MPD2     N 9593   1.178   2.885   9.598 -0.5723  0.1628 -0.2490
  644MPD2    H5 9594   1.255   2.951   9.594  1.9418 -2.6930  0.4603
  644MPD2    N1 9595   1.495   2.578   9.401 -0.2694  0.9887  0.3682
  644MPD2    H7 9596   1.503   2.477   9.390 -1.1430  1.0224 -0.6620
  645TMC3    C1 9597   1.100   3.053   9.744  0.2084  0.6742  0.6490
  645TMC3    C2 9598   1.226   3.094   9.755  0.2654 -0.1611  0.0760
  645TMC3    C3 9599   1.237   3.219   9.822 -0.5179  0.2067  0.3807
  645TMC3    C4 9600   0.991   3.106   9.797  0.3178  0.3529  0.8222
  645TMC3    C5 9601   1.011   3.223   9.865  0.2458 -0.3546  0.4938
  645TMC3    C6 9602   1.128   3.293   9.864 -0.4499 -1.0192  0.2199
  645TMC3     C 9603   1.075   2.922   9.680 -0.0765  0.2626 -0.2261
  645TMC3     O 9604   0.968   2.872   9.704 -0.3410 -0.2673  0.6644
  645TMC3     H 9605   1.318   3.044   9.728  0.4000 -0.4466  1.0455
  645TMC3    H1 9606   0.894   3.060   9.787  1.6534 -2.6801  1.8450
  645TMC3    H2 9607   1.122   3.392   9.909 -0.8968 -1.3873  0.9654
  645TMC3    C7 9608   0.888   3.289   9.912 -0.5107  0.4156  0.0306
  645TMC3    C8 9609   1.363   3.294   9.789  0.3135 -0.2895 -0.5315
  645TMC3    O1 9610   0.888   3.410   9.931  0.3268 -0.6735  0.0329
  645TMC3    O2 9611   1.427   3.236   9.703 -0.4586 -0.1143  0.0137
  646MPD2     C 9612   0.984   2.465  14.371  0.7364 -0.2285 -0.2395
  646MPD2    C1 9613   0.962   2.556  14.469  0.0711 -0.4350 -0.0934
  646MPD2    C2 9614   0.891   2.670  14.446 -0.2968 -0.1333 -0.1545
  646MPD2    C3 9615   0.839   2.702  14.313  0.5095  0.2222  0.6334
  646MPD2    C4 9616   0.855   2.602  14.218 -0.1248 -0.0897 -0.7882
  646MPD2    C5 9617   0.929   2.488  14.245 -0.2401  0.3293  0.0934
  646MPD2     H 9618   0.879   2.751  14.518  0.7359 -1.0281  1.0320
  646MPD2    H1 9619   0.815   2.615  14.119 -0.6846  0.4735 -0.4925
  646MPD2    H2 9620   1.039   2.374  14.393 -0.2542 -0.4059  1.5571
  646MPD2    H3 9621   0.942   2.420  14.162 -0.0460 -1.3718  1.5026
  646MPD2     N 9622   0.767   2.823  14.304 -0.0666  0.5392  0.0766
  646MPD2    H5 9623   0.772   2.881  14.388 -0.3303 -0.0934  0.5286
  646MPD2    N1 9624   1.007   2.518  14.596  0.5485  0.0948 -0.0181
  646MPD2    H7 9625   1.058   2.430  14.597  1.2850  0.5339  0.4869
  647TMC3    C1 9626   1.051   2.513  14.826  0.6445 -0.3376 -0.1788
  647TMC3    C2 9627   1.004   2.528  14.957 -0.3680 -0.2785 -0.2397
  647TMC3    C3 9628   1.075   2.465  15.055 -0.1134  0.3016 -0.9310
  647TMC3    C4 9629   1.177   2.464  14.797  0.1627  0.6612 -0.5185
  647TMC3    C5 9630   1.246   2.411  14.902  0.4906 -0.4656  0.3377
  647TMC3    C6 9631   1.205   2.413  15.036  0.6267  0.4061 -0.3062
  647TMC3     C 9632   0.969   2.567  14.717  0.0529 -0.4672 -0.1754
  647TMC3     O 9633   0.884   2.645  14.750  0.2388  0.4970  0.5926
  647TMC3     H 9634   0.903   2.554  14.988 -1.9088 -1.5612 -4.0562
  647TMC3    H1 9635   1.221   2.471  14.698  0.7628  2.2329 -0.1319
  647TMC3    H2 9636   1.274   2.374  15.111  1.3002  1.0159 -0.6063
  647TMC3    C7 9637   1.359   2.325  14.869  0.3121 -0.0335 -0.0800
  647TMC3    C8 9638   0.993   2.396  15.149  0.8200  0.2583 -0.0396
  647TMC3    O1 9639   1.438   2.305  14.956  0.4621  0.3237  0.0186
  647TMC3    O2 9640   0.894   2.445  15.196  1.0289 -0.0301 -0.1503
  648TMC3    C1 9641   0.392   0.173  16.263 -0.6619 -0.5493 -0.0242
  648TMC3    C2 9642   0.520   0.119  16.236  0.1325  0.2193 -0.4870
  648TMC3    C3 9643   0.554   0.082  16.110 -0.2725  0.3987 -0.5069
  648TMC3    C4 9644   0.297   0.189  16.166 -0.2231  0.4971 -0.2454
  648TMC3    C5 9645   0.344   0.176  16.035 -0.3674  0.2658 -0.0199
  648TMC3    C6 9646   0.463   0.116  16.006  0.3369  1.2754 -0.2400
  648TMC3     C 9647   0.362   0.236  16.395  0.3988  0.0192 -0.0490
  648TMC3     O 9648   0.267   0.311  16.399 -0.2244 -0.1348 -0.4766
  648TMC3     H 9649   0.595   0.096  16.311  0.2887  0.7242 -0.4884
  648TMC3    H1 9650   0.199   0.229  16.192 -0.7989 -0.2927 -1.1600
  648TMC3    H2 9651   0.501   0.124  15.905  0.5480  1.1097 -0.1742
  648TMC3    C7 9652   0.283   0.266  15.934  0.1154  0.1118  0.0988
  648TMC3    C8 9653   0.690   0.065  16.075 -0.4713 -0.1773  0.0393
  648TMC3    O1 9654   0.288   0.224  15.817 -0.0779  0.6930 -0.8379
  648TMC3    O2 9655   0.773   0.133  16.137 -0.4430 -0.3338 -0.7930
  649TMC3    C1 9656   3.327   0.787  13.266  0.6858  1.3505  0.3764
  649TMC3    C2 9657   3.427   0.858  13.318  0.4139  0.9677 -0.3434
  649TMC3    C3 9658   3.475   0.839  13.448 -0.4310 -0.7780 -0.8021
  649TMC3    C4 9659   3.276   0.680  13.333  0.3732  0.4959  0.6081
  649TMC3    C5 9660   3.331   0.661  13.458 -0.2453  0.3350 -0.0926
  649TMC3    C6 9661   3.434   0.724  13.515  0.2140 -0.6187 -0.7640
  649TMC3     C 9662   3.290   0.816  13.130 -0.1248 -0.1258  0.2145
  649TMC3     O 9663   3.348   0.915  13.080 -0.1646  0.0844 -0.2629
  649TMC3     H 9664   3.469   0.944  13.266  0.8435  0.3552 -1.0218
  649TMC3    H1 9665   3.199   0.618  13.290  0.1782  1.4760 -0.4636
  649TMC3    H2 9666   3.467   0.705  13.617  1.8013  1.3713 -0.8899
  649TMC3    C7 9667   3.265   0.559  13.538  0.3529 -0.4983  0.0959
  649TMC3    C8 9668   3.572   0.929  13.500  0.1823  0.4208  0.4995
  649TMC3    O1 9669   3.196   0.475  13.477 -0.6166  0.4014 -0.5739
  649TMC3    O2 9670   3.610   1.012  13.420 -0.2800 -0.4823  0.0114
  650TMC3    C1 9671   1.506   2.474  12.734  0.4412 -0.0600  1.0290
  650TMC3    C2 9672   1.468   2.601  12.766 -0.7232  0.6744 -0.4277
  650TMC3    C3 9673   1.428   2.684  12.664  0.3069  0.3994  0.1200
  650TMC3    C4 9674   1.508   2.435  12.596 -0.1925 -0.4999 -0.7977
  650TMC3    C5 9675   1.463   2.520  12.494 -0.0668 -0.1118 -0.5276
  650TMC3    C6 9676   1.434   2.652  12.529 -0.0660 -0.4440  0.4200
  650TMC3     C 9677   1.530   2.381  12.842 -0.1030 -0.1362 -0.1895
  650TMC3     O 9678   1.480   2.401  12.954  0.1498  0.1047  0.6489
  650TMC3     H 9679   1.452   2.640  12.866  0.0741  0.7901 -0.3498
  650TMC3    H1 9680   1.535   2.332  12.574  0.7825 -0.7881  1.7742
  650TMC3    H2 9681   1.422   2.732  12.457  1.0291 -0.1713  0.5365
  650TMC3    C7 9682   1.483   2.473  12.363 -0.7103  0.8617 -0.4413
  650TMC3    C8 9683   1.444   2.827  12.688  0.0938 -0.4070  0.0623
  650TMC3    O1 9684   1.534   2.363  12.357  0.8601  0.2813 -0.5050
  650TMC3    O2 9685   1.512   2.888  12.606 -0.2476 -0.3601 -0.1427
  651MPD2     C 9686   0.464   0.103  10.596 -0.3861  0.4668  0.4625
  651MPD2    C1 9687   0.507   0.150  10.720 -0.0446 -0.5389  0.9988
  651MPD2    C2 9688   0.644   0.175  10.723 -0.1925  0.1821  0.4033
  651MPD2    C3 9689   0.731   0.140  10.620  0.4670  0.5532  0.7127
  651MPD2    C4 9690   0.686   0.070  10.512  0.9279  0.2704 -0.0720
  651MPD2    C5 9691   0.551   0.069  10.499  0.0603  0.1681  0.0424
  651MPD2     H 9692   0.676   0.241  10.803  0.5401 -0.3088  0.5119
  651MPD2    H1 9693   0.742   0.040  10.425 -0.5917  1.3755 -1.4345
  651MPD2    H2 9694   0.358   0.095  10.576 -0.2321  2.1129 -1.1561
  651MPD2    H3 9695   0.513   0.036  10.403  1.8666 -1.9219  0.0562
  651MPD2     N 9696   0.871   0.167  10.633 -0.1484 -0.3552  0.0296
  651MPD2    H5 9697   0.900   0.215  10.717  2.0175 -0.3830 -0.6937
  651MPD2    N1 9698   0.424   0.179  10.834  0.3430 -1.0432  0.7023
  651MPD2    H7 9699   0.465   0.223  10.915  0.0904  1.7338 -0.6802
  652TMC3    C1 9700   1.305   0.236  10.486 -0.1864  0.2353 -0.2334
  652TMC3    C2 9701   1.198   0.157  10.496  0.3556  0.0578  0.2733
  652TMC3    C3 9702   1.084   0.201  10.568  0.7240 -0.4076 -0.0896
  652TMC3    C4 9703   1.306   0.358  10.543  0.2153  0.6480 -0.2307
  652TMC3    C5 9704   1.192   0.397  10.609  0.3410 -0.1722  0.8770
  652TMC3    C6 9705   1.080   0.324  10.621  0.7129  0.6334 -0.1725
  652TMC3     C 9706   1.432   0.168  10.502 -0.0772 -0.2830  1.0074
  652TMC3     O 9707   1.480   0.188  10.609  0.4264  0.0251  0.2183
  652TMC3     H 9708   1.212   0.052  10.471  1.8829  0.6155 -1.2511
  652TMC3    H1 9709   1.401   0.410  10.541  0.1747  0.7045 -1.0399
  652TMC3    H2 9710   0.991   0.361  10.671  0.0977 -2.8508  1.3397
  652TMC3    C7 9711   1.216   0.489  10.718 -0.0626  0.2620  0.3615
  652TMC3    C8 9712   0.965   0.128  10.545  0.4084 -0.4142 -0.4685
  652TMC3    O1 9713   1.163   0.461  10.823  0.2119  0.1607  0.5100
  652TMC3    O2 9714   0.973   0.049  10.455 -0.1143 -0.4089  0.4396
  653MPD2     C 9715   4.522   0.257   0.152  0.0413 -0.1445  0.0934
  653MPD2    C1 9716   4.446   0.331   0.066  0.3956 -0.5182  0.3642
  653MPD2    C2 9717   4.400   0.275  17.689 -0.3550  0.2120 -0.0334
  653MPD2    C3 9718   4.409   0.140  17.670 -0.2814 -0.3700 -0.0696
  653MPD2    C4 9719   4.491   0.058   0.013 -0.1811  0.0011  0.3964
  653MPD2    C5 9720   4.548   0.125   0.119 -0.0614 -0.9300 -0.6692
  653MPD2     H 9721   4.334   0.334  17.626  0.4738  1.9495  0.7160
  653MPD2    H1 9722   4.515   4.688   0.002 -0.1015 -0.4238  4.3645
  653MPD2    H2 9723   4.583   0.304   0.230 -0.1081 -1.7271  1.1591
  653MPD2    H3 9724   4.611   0.069   0.187 -0.6611 -0.2159  0.4750
  653MPD2     N 9725   4.335   0.085  17.562 -0.0732 -0.4027  0.2745
  653MPD2    H5 9726   4.276   0.156  17.518  0.3034  0.2592  0.8510
  653MPD2    N1 9727   4.419   0.468   0.087  0.0428  0.7853  0.3668
  653MPD2    H7 9728   4.365   0.514   0.015 -0.9422 -0.0749  0.5645
  654TMC3    C1 9729   4.214   4.666  17.429 -0.7380  0.1731  0.0435
  654TMC3    C2 9730   4.101   0.006  17.447 -0.8056 -0.3042  0.3146
  654TMC3    C3 9731   3.980   4.688  17.404 -0.2139  0.4252 -0.5402
  654TMC3    C4 9732   4.208   4.537  17.395 -0.6127 -0.8409  0.5896
  654TMC3    C5 9733   4.086   4.482  17.355  0.2197 -0.1031 -0.2133
  654TMC3    C6 9734   3.969   4.556  17.357  0.2000 -0.9088 -0.0444
  654TMC3     C 9735   4.323   4.693  17.515 -0.1673  0.2455  0.0124
  654TMC3     O 9736   4.385   4.598  17.560  0.1866 -0.4358  0.8404
  654TMC3     H 9737   4.110   0.109  17.479  1.2634 -0.3605 -0.0359
  654TMC3    H1 9738   4.298   4.476  17.392 -0.8590 -1.0901 -1.8501
  654TMC3    H2 9739   3.873   4.512  17.334 -0.1148  0.1225 -0.7034
  654TMC3    C7 9740   4.082   4.338  17.330  0.1570  0.5432  0.0788
  654TMC3    C8 9741   3.856   0.037  17.411  0.4189  0.8672 -0.4499
  654TMC3    O1 9742   3.995   4.301  17.250 -0.1398 -0.4462  0.0224
  654TMC3    O2 9743   3.759   0.005  17.348  0.1488 -0.1440 -0.3090
  655MPD2     C 9744   0.815   0.173  15.619  0.0476 -0.3951 -0.4032
  655MPD2    C1 9745   0.724   0.266  15.560  0.8774  0.3216  0.0803
  655MPD2    C2 9746   0.720   0.275  15.423 -0.4794 -0.2048 -0.1923
  655MPD2    C3 9747   0.793   0.190  15.339 -0.7141  0.4218 -0.0825
  655MPD2    C4 9748   0.870   0.099  15.402 -0.3965  0.1545 -0.0007
  655MPD2    C5 9749   0.880   0.088  15.535 -0.6377  0.3115 -0.2064
  655MPD2     H 9750   0.652   0.347  15.377 -0.3453  0.2768  0.3661
  655MPD2    H1 9751   0.917   0.022  15.342 -2.8051 -1.4067  0.1079
  655MPD2    H2 9752   0.826   0.160  15.726  1.3873 -2.4064 -0.7836
  655MPD2    H3 9753   0.941   0.011  15.580 -0.7177  0.2335 -0.2316
  655MPD2     N 9754   0.779   0.184  15.203  0.6291 -0.0735  0.1668
  655MPD2    H5 9755   0.821   0.100  15.163  1.4374 -0.0272  0.9233
  655MPD2    N1 9756   0.646   0.359  15.639 -0.1852  0.6905  0.0761
  655MPD2    H7 9757   0.578   0.412  15.586  0.4730 -0.5728 -2.0176
  656TMC3    C1 9758   0.582   0.498  15.818 -0.6922 -0.1849  0.9087
  656TMC3    C2 9759   0.547   0.504  15.952 -0.4617 -0.6797  0.2761
  656TMC3    C3 9760   0.466   0.607  15.988 -0.5125 -0.4425  0.1028
  656TMC3    C4 9761   0.542   0.595  15.729  0.4046  0.4115  0.0686
  656TMC3    C5 9762   0.459   0.695  15.776  0.1467  0.1649 -0.4770
  656TMC3    C6 9763   0.424   0.708  15.909 -0.5607  0.2907 -0.0846
  656TMC3     C 9764   0.661   0.381  15.775  0.2283  0.0172  0.4672
  656TMC3     O 9765   0.720   0.317  15.860 -0.1046  0.1608 -0.3504
  656TMC3     H 9766   0.571   0.422  16.019 -1.9656 -1.2634  0.1100
  656TMC3    H1 9767   0.567   0.593  15.623 -1.7865 -1.3389 -0.4301
  656TMC3    H2 9768   0.348   0.782  15.931 -0.0151  0.5739  0.8236
  656TMC3    C7 9769   0.415   0.776  15.666 -0.3393 -0.9364 -0.0702
  656TMC3    C8 9770   0.394   0.583  16.118 -0.0886 -0.5962 -0.9703
  656TMC3    O1 9771   0.486   0.790  15.564 -0.3504 -0.3272  0.9145
  656TMC3    O2 9772   0.427   0.484  16.185  0.0617 -0.1616  0.5581
  657TMC3    C1 9773   4.478   4.521  14.521  0.1720 -0.1176  0.3256
  657TMC3    C2 9774   4.498   4.576  14.646  0.4120 -0.6135 -0.8303
  657TMC3    C3 9775   4.416   4.681  14.687  0.3536 -0.1865 -0.0224
  657TMC3    C4 9776   4.390   4.578  14.429 -0.5163  0.1843  0.8567
  657TMC3    C5 9777   4.313   4.679  14.479 -0.2291 -0.1615  0.6000
  657TMC3    C6 9778   4.315   4.722  14.607 -0.6743 -0.3763  1.3749
  657TMC3     C 9779   4.557   4.408  14.477  0.4634 -0.2741 -0.5117
  657TMC3     O 9780   4.552   4.381  14.358  0.5473  0.1210 -0.3470
  657TMC3     H 9781   4.585   4.541  14.701  2.5830  1.3814 -3.0396
  657TMC3    H1 9782   4.373   4.534  14.332 -1.6033 -1.3558  1.7362
  657TMC3    H2 9783   4.251   0.068  14.639 -0.0146  0.2143  1.2132
  657TMC3    C7 9784   4.204   4.715  14.385  0.7677 -0.5396  0.2381
  657TMC3    C8 9785   4.436   0.021  14.811  0.2009  0.4229 -0.6269
  657TMC3    O1 9786   4.174   4.640  14.297  0.1840  0.0661  0.8585
  657TMC3    O2 9787   4.361   0.118  14.833 -0.0535  0.1649 -0.0507
  658MPD2     C 9788   0.984   4.679  14.438  0.2958 -0.0680  0.3686
  658MPD2    C1 9789   0.999   0.060  14.505 -0.0841  0.0928 -0.0633
  658MPD2    C2 9790   1.095   0.150  14.461 -0.3230 -0.3583 -0.1681
  658MPD2    C3 9791   1.179   0.127  14.353 -0.2691 -0.1821  0.2204
  658MPD2    C4 9792   1.168   0.005  14.293 -0.0875 -0.0915  0.1152
  658MPD2    C5 9793   1.067   4.654  14.335  0.0929  0.0110  0.1759
  658MPD2     H 9794   1.106   0.242  14.518 -0.5735  0.1469 -0.9178
  658MPD2    H1 9795   1.223   4.695  14.212  0.2651  1.0472 -0.2726
  658MPD2    H2 9796   0.904   4.609  14.459  0.9656 -0.8588  0.2748
  658MPD2    H3 9797   1.058   4.557  14.287 -0.9706 -0.4897  1.4171
  658MPD2     N 9798   1.258   0.234  14.311  0.2100 -0.2538  0.0674
  658MPD2    H5 9799   1.260   0.312  14.375  0.6519 -0.8312  0.7644
  658MPD2    N1 9800   0.904   0.087  14.605 -0.2571  0.1638  0.1726
  658MPD2    H7 9801   0.827   0.025  14.624 -1.1355  1.0785 -0.3845
  659TMC3    C1 9802   0.798   0.192  14.779 -0.0242  0.1899  0.0813
  659TMC3    C2 9803   0.820   0.212  14.911 -0.0882  0.5210  0.0510
  659TMC3    C3 9804   0.702   0.225  14.988  0.3346 -0.0918 -0.3870
  659TMC3    C4 9805   0.674   0.222  14.720 -0.7277 -0.3389 -0.1078
  659TMC3    C5 9806   0.564   0.254  14.800  0.7989  0.4481 -0.5195
  659TMC3    C6 9807   0.580   0.255  14.939 -0.0744 -0.0455 -0.5728
  659TMC3     C 9808   0.920   0.192  14.697  0.0721 -0.1397 -0.2538
  659TMC3     O 9809   1.012   0.271  14.722  0.7675 -0.3610  0.6181
  659TMC3     H 9810   0.920   0.190  14.947 -0.1381  0.1738 -0.0248
  659TMC3    H1 9811   0.669   0.222  14.611 -1.6182 -0.2455 -0.0642
  659TMC3    H2 9812   0.495   0.273  15.004  0.5789  2.6055 -0.4687
  659TMC3    C7 9813   0.436   0.280  14.747 -0.5012 -0.8132  0.3187
  659TMC3    C8 9814   0.710   0.268  15.125  0.3192  0.0436  0.0112
  659TMC3    O1 9815   0.361   0.347  14.812  0.1531  0.5867 -0.1694
  659TMC3    O2 9816   0.653   0.370  15.155  0.7874  0.0232 -0.4916
  660MPD2     C 9817   3.483   3.580  12.537  0.0824  0.6130 -0.7101
  660MPD2    C1 9818   3.374   3.661  12.561 -0.6456 -0.1179  0.0139
  660MPD2    C2 9819   3.299   3.646  12.680 -0.7437  0.8415 -0.1349
  660MPD2    C3 9820   3.341   3.556  12.773  0.3161  0.3528 -0.5417
  660MPD2    C4 9821   3.464   3.487  12.749  0.0539  0.7814  0.5773
  660MPD2    C5 9822   3.537   3.500  12.633  0.2031 -0.3029 -0.1667
  660MPD2     H 9823   3.195   3.675  12.687 -1.7032 -2.2977 -1.2089
  660MPD2    H1 9824   3.498   3.423  12.830  0.7826 -2.1635 -2.0256
  660MPD2    H2 9825   3.546   3.601  12.452  0.8294  1.5052  0.0612
  660MPD2    H3 9826   3.627   3.440  12.621  0.8332  0.4480  0.8266
  660MPD2     N 9827   3.279   3.533  12.894 -0.4021 -1.2208 -0.0405
  660MPD2    H5 9828   3.333   3.479  12.961  1.2907  2.2029  1.3522
  660MPD2    N1 9829   3.327   3.752  12.457  0.6747  0.0216 -0.4640
  660MPD2    H7 9830   3.369   3.737  12.366 -0.0995  1.4951 -1.0600
  661TMC3    C1 9831   3.205   3.909  12.336  0.2533 -0.2028  0.6855
  661TMC3    C2 9832   3.304   3.909  12.241  0.0497 -0.5885 -0.9845
  661TMC3    C3 9833   3.269   3.945  12.110 -0.1010  0.4797  0.5554
  661TMC3    C4 9834   3.073   3.930  12.309 -0.1479  0.4177  0.0222
  661TMC3    C5 9835   3.047   3.960  12.178 -0.3853  0.0242 -0.1423
  661TMC3    C6 9836   3.135   3.967  12.077 -0.6808 -0.3477  0.0476
  661TMC3     C 9837   3.225   3.840  12.462  0.2326  0.1572 -0.6061
  661TMC3     O 9838   3.163   3.885  12.556  0.7811  0.4354  0.1052
  661TMC3     H 9839   3.409   3.901  12.265 -0.2145  0.5275  0.6206
  661TMC3    H1 9840   3.010   3.938  12.396 -1.2945 -2.0183 -0.5865
  661TMC3    H2 9841   3.104   3.994  11.976  1.8155 -0.2998 -0.7177
  661TMC3    C7 9842   2.907   3.944  12.136  0.1979  0.1774 -0.3562
  661TMC3    C8 9843   3.378   3.954  12.014 -0.0406  0.6784  0.1705
  661TMC3    O1 9844   2.823   3.997  12.204  0.0291  0.0394  0.1045
  661TMC3    O2 9845   3.468   3.871  12.023 -0.0234 -0.1465 -0.2062
  662MPD2     C 9846   3.955   3.076  17.699  0.5249  0.6400  0.6764
  662MPD2    C1 9847   3.914   3.002   0.066 -0.3677  0.8893 -0.5145
  662MPD2    C2 9848   3.852   3.060   0.173 -0.0481 -0.1038  0.4794
  662MPD2    C3 9849   3.821   3.196   0.168 -0.2167 -0.2541 -0.1668
  662MPD2    C4 9850   3.858   3.266   0.056 -0.3853 -0.4045  0.2144
  662MPD2    C5 9851   3.924   3.213  17.694 -0.0437  0.3392  0.4500
  662MPD2     H 9852   3.825   2.998   0.258 -1.4082  1.1881  0.9939
  662MPD2    H1 9853   3.825   3.369   0.047 -0.4893 -0.5424 -0.9865
  662MPD2    H2 9854   4.019   3.030  17.624 -0.5285 -0.7439  0.6165
  662MPD2    H3 9855   3.956   3.277  17.611  0.3528  1.4560  1.4602
  662MPD2     N 9856   3.735   3.255   0.267  0.1092  0.4941 -0.3260
  662MPD2    H5 9857   3.696   3.344   0.240 -0.3776 -0.1260 -1.6720
  662MPD2    N1 9858   3.945   2.863   0.081  0.1373  0.2357 -0.1700
  662MPD2    H7 9859   3.920   2.815   0.167 -1.1343 -2.6455 -2.1198
  663TMC3    C1 9860   4.018   2.642   0.034 -0.2255  1.0084 -0.0466
  663TMC3    C2 9861   4.062   2.611   0.154 -0.1814 -0.3486  1.0063
  663TMC3    C3 9862   4.112   2.486   0.166 -0.3535  0.5984  0.2017
  663TMC3    C4 9863   4.000   2.550  17.672 -0.1511 -0.2631  0.3655
  663TMC3    C5 9864   4.026   2.420  17.703 -0.0702  0.3628 -0.8912
  663TMC3    C6 9865   4.101   2.389   0.072 -0.1383  0.4169 -0.4014
  663TMC3     C 9866   3.999   2.777  17.729  0.2175 -0.3872 -0.0448
  663TMC3     O 9867   4.031   2.798  17.614  0.8799  0.4093  0.0638
  663TMC3     H 9868   4.093   2.688   0.224 -1.8062 -0.9389  2.3894
  663TMC3    H1 9869   3.971   2.582  17.573  0.7120  0.8522  0.4702
  663TMC3    H2 9870   4.123   2.284   0.088  0.2684  0.7355  1.1376
  663TMC3    C7 9871   3.997   2.325  17.599  0.0346  0.1388 -0.1443
  663TMC3    C8 9872   4.097   2.423   0.296  0.3637  0.0246  0.7194
  663TMC3    O1 9873   4.056   2.219  17.601  0.0007  0.6399 -0.4036
  663TMC3    O2 9874   4.179   2.340   0.336  0.3582  0.2374  0.7879
  664MPD2     C 9875   1.899   1.866   0.074  0.3564  0.3608 -0.2214
  664MPD2    C1 9876   1.991   1.966   0.101  0.5766 -0.2269  0.0927
  664MPD2    C2 9877   2.009   2.019   0.231  0.0576  0.2671 -0.4489
  664MPD2    C3 9878   1.908   1.989   0.324 -0.5021 -0.0541 -0.1547
  664MPD2    C4 9879   1.814   1.891   0.293  0.2842  0.7568 -0.1632
  664MPD2    C5 9880   1.815   1.829   0.176 -0.1315 -1.1995  0.4639
  664MPD2     H 9881   2.078   2.094   0.267 -0.6001  0.3138  0.7224
  664MPD2    H1 9882   1.740   1.863   0.366  1.3392 -0.6653  0.3501
  664MPD2    H2 9883   1.883   1.821  17.717 -2.1795  0.1763  0.3072
  664MPD2    H3 9884   1.745   1.748   0.162 -1.5111 -0.0232  0.5576
  664MPD2     N 9885   1.923   2.062   0.441 -0.4252 -0.0345  0.3662
  664MPD2    H5 9886   2.010   2.110   0.460 -0.5815 -0.6082  2.5551
  664MPD2    N1 9887   2.075   2.029   0.001  0.1708  0.1690 -0.2172
  664MPD2    H7 9888   2.136   2.104   0.034 -1.6035  0.9803  1.2476
  665TMC3    C1 9889   1.853   2.151   0.647 -0.4763 -0.0458  0.1400
  665TMC3    C2 9890   1.742   2.195   0.710 -0.5462  0.0143 -0.1533
  665TMC3    C3 9891   1.766   2.253   0.834 -0.1087  0.4170  1.1138
  665TMC3    C4 9892   1.978   2.165   0.688 -0.7196  0.1955 -0.2762
  665TMC3    C5 9893   1.999   2.235   0.809 -0.7724  0.0682 -0.4217
  665TMC3    C6 9894   1.893   2.285   0.877  0.7376  0.4516  0.0942
  665TMC3     C 9895   1.830   2.060   0.533  0.2452  0.1782 -0.1486
  665TMC3     O 9896   1.717   2.018   0.522  0.0111  0.3827  0.0538
  665TMC3     H 9897   1.651   2.191   0.652  0.0366  1.7174 -1.1909
  665TMC3    H1 9898   2.064   2.120   0.640 -0.1605 -0.4454  1.3496
  665TMC3    H2 9899   1.897   2.335   0.973 -0.2506  1.7706 -0.5564
  665TMC3    C7 9900   2.131   2.264   0.848  0.7013 -0.9173  0.0472
  665TMC3    C8 9901   1.653   2.269   0.926 -0.0976 -0.1182  0.3026
  665TMC3    O1 9902   2.218   2.255   0.761 -0.1235 -0.4172 -0.8083
  665TMC3    O2 9903   1.670   2.307   1.041  0.0040  0.3068 -0.1390
  666TMC3    C1 9904   1.290   1.032   9.970 -0.4961 -0.0485 -0.2988
  666TMC3    C2 9905   1.421   0.991   9.948 -0.7838 -0.1033 -0.5905
  666TMC3    C3 9906   1.514   1.088   9.929 -0.2719  0.2901 -0.3829
  666TMC3    C4 9907   1.249   1.157   9.975 -0.7469 -0.3752 -0.1983
  666TMC3    C5 9908   1.342   1.257   9.967 -0.7509  0.1252  0.2782
  666TMC3    C6 9909   1.472   1.220   9.932 -0.2451  0.2001  0.0702
  666TMC3     C 9910   1.194   0.933   9.964  0.0911 -0.1531 -0.3987
  666TMC3     O 9911   1.227   0.830   9.908 -0.5552  0.0585  0.0504
  666TMC3     H 9912   1.449   0.888   9.962 -1.0278 -0.0173  0.5607
  666TMC3    H1 9913   1.145   1.179  10.000 -1.0163 -2.8097  0.8196
  666TMC3    H2 9914   1.550   1.295   9.943  1.7832 -1.8641 -0.2326
  666TMC3    C7 9915   1.307   1.396   9.980  0.1372  0.7754  0.3412
  666TMC3    C8 9916   1.626   1.068  10.020  0.2888  1.0810 -0.3456
  666TMC3    O1 9917   1.211   1.417  10.053  0.5454 -0.2232 -0.1036
  666TMC3    O2 9918   1.608   0.995  10.117 -0.0263  0.1878  0.3272
  667MPD2     C 9919   2.150   1.582  14.623  0.0119  0.1360  0.4101
  667MPD2    C1 9920   2.225   1.489  14.699  0.3378 -0.0087  0.0198
  667MPD2    C2 9921   2.213   1.349  14.677 -0.0939  0.3587 -0.2685
  667MPD2    C3 9922   2.138   1.299  14.574  0.3791  0.0534  0.3014
  667MPD2    C4 9923   2.080   1.387  14.490 -0.2977  0.8247 -0.3918
  667MPD2    C5 9924   2.080   1.522  14.521  0.1465 -0.7138 -0.2342
  667MPD2     H 9925   2.275   1.286  14.739 -1.7528 -0.9452  0.0566
  667MPD2    H1 9926   2.033   1.347  14.400 -2.1882 -1.5117  1.6104
  667MPD2    H2 9927   2.157   1.689  14.631  0.0592  0.0667  1.2987
  667MPD2    H3 9928   2.028   1.593  14.458  0.4676  0.1722  0.5019
  667MPD2     N 9929   2.151   1.171  14.521  0.2230 -0.4064 -0.0641
  667MPD2    H5 9930   2.107   1.162  14.430 -2.1387 -2.3608  1.2776
  667MPD2    N1 9931   2.288   1.529  14.820  0.1633 -0.5864  0.3183
  667MPD2    H7 9932   2.328   1.461  14.883  2.2105 -0.2373 -0.6125
  668TMC3    C1 9933   2.370   1.654  14.984 -0.3719 -0.1581 -0.5391
  668TMC3    C2 9934   2.457   1.751  15.015  0.5386  0.7688  0.4475
  668TMC3    C3 9935   2.510   1.758  15.144 -0.1712  0.2407  0.5359
  668TMC3    C4 9936   2.338   1.553  15.076 -0.2046 -0.4952  0.1320
  668TMC3    C5 9937   2.402   1.552  15.196  0.6434 -0.2620  0.0592
  668TMC3    C6 9938   2.492   1.652  15.232  0.2202 -0.1974  0.4472
  668TMC3     C 9939   2.310   1.660  14.858 -0.3241  0.1644  0.3196
  668TMC3     O 9940   2.292   1.768  14.801 -0.4591 -0.1468  0.0370
  668TMC3     H 9941   2.486   1.818  14.935  0.6298 -1.0058 -1.0070
  668TMC3    H1 9942   2.259   1.481  15.060 -0.5420 -0.3346  1.0454
  668TMC3    H2 9943   2.544   1.659  15.327  2.9224  1.7775 -1.1598
  668TMC3    C7 9944   2.359   1.464  15.303 -0.0237  0.1866  0.0062
  668TMC3    C8 9945   2.593   1.861  15.190  0.4002 -0.0336 -0.0736
  668TMC3    O1 9946   2.451   1.442  15.378  0.6949  0.3120 -0.2066
  668TMC3    O2 9947   2.614   1.874  15.312 -0.2751  0.4936  0.5405
  669TMC3    C1 9948   0.480   1.672  14.756 -0.3319  0.1213  0.1849
  669TMC3    C2 9949   0.366   1.747  14.727 -0.6383 -0.3885 -1.1529
  669TMC3    C3 9950   0.374   1.845  14.628 -0.1631 -0.1335 -0.9256
  669TMC3    C4 9951   0.599   1.689  14.692 -0.2188 -0.1689 -0.5533
  669TMC3    C5 9952   0.601   1.791  14.592  0.0501  0.2063 -0.6316
  669TMC3    C6 9953   0.487   1.869  14.557 -0.1262  0.5152 -0.5050
  669TMC3     C 9954   0.463   1.558  14.850  0.4719 -0.2118  0.1109
  669TMC3     O 9955   0.362   1.572  14.921 -0.5386  0.1481  0.3081
  669TMC3     H 9956   0.272   1.708  14.764  0.1412 -1.4760 -0.3061
  669TMC3    H1 9957   0.692   1.642  14.724 -1.2912 -1.5500  0.4956
  669TMC3    H2 9958   0.500   1.954  14.491 -1.2387  0.8844 -0.2423
  669TMC3    C7 9959   0.729   1.839  14.543  0.3157  0.6327 -0.3310
  669TMC3    C8 9960   0.257   1.868  14.541  0.6126  0.3805 -0.5059
  669TMC3    O1 9961   0.724   1.956  14.502  0.1820  0.3011 -0.2183
  669TMC3    O2 9962   0.282   1.888  14.417 -0.1538 -0.2765 -0.7294
  670MPD2     C 9963   4.016   4.447  13.433  0.0783  0.4645 -0.8913
  670MPD2    C1 9964   4.091   4.452  13.547 -0.0426 -0.3912  0.5682
  670MPD2    C2 9965   4.041   4.403  13.665 -0.7648  0.4702  0.6931
  670MPD2    C3 9966   3.924   4.327  13.662  0.2082 -0.1131  0.4336
  670MPD2    C4 9967   3.864   4.308  13.538  0.9557  0.4415 -0.0506
  670MPD2    C5 9968   3.896   4.381  13.433 -0.0870 -0.0309  0.0027
  670MPD2     H 9969   4.090   4.420  13.761  0.3155 -0.0910  0.2418
  670MPD2    H1 9970   3.777   4.245  13.522  0.6893  0.4437  1.4054
  670MPD2    H2 9971   4.051   4.485  13.338 -0.1278 -0.4796 -1.3498
  670MPD2    H3 9972   3.828   4.383  13.348 -0.8137 -4.0974  0.4839
  670MPD2     N 9973   3.878   4.260  13.779 -0.0531 -1.1223 -0.2506
  670MPD2    H5 9974   3.937   4.273  13.860 -0.0516  2.5642 -0.8238
  670MPD2    N1 9975   4.231   4.490  13.540  0.1431 -0.1356  0.6933
  670MPD2    H7 9976   4.280   4.477  13.629  0.9138  2.9746  0.6990
  671TMC3    C1 9977   3.739   4.103  13.910  0.6895 -0.3601 -0.4415
  671TMC3    C2 9978   3.807   4.125  14.031  0.5959  1.2656 -0.0251
  671TMC3    C3 9979   3.754   4.077  14.148 -0.2725 -0.0171 -0.5411
  671TMC3    C4 9980   3.633   4.009  13.904 -0.4520  0.0497  0.4833
  671TMC3    C5 9981   3.579   3.976  14.023 -0.0205 -0.7555 -0.6914
  671TMC3    C6 9982   3.639   4.004  14.143 -0.0806  0.0247 -0.2649
  671TMC3     C 9983   3.764   4.179  13.788 -0.2993 -0.1729  0.1569
  671TMC3     O 9984   3.675   4.161  13.702 -0.4995 -0.0177  0.7790
  671TMC3     H 9985   3.870   4.213  14.041  0.4254  1.6498 -2.2603
  671TMC3    H1 9986   3.587   3.979  13.810  0.6310  0.3271 -0.1377
  671TMC3    H2 9987   3.617   3.945  14.231 -2.4060 -0.4958 -1.1962
  671TMC3    C7 9988   3.478   3.874  14.018  0.1822  0.1461  0.2302
  671TMC3    C8 9989   3.828   4.051  14.267  1.1918 -0.1172 -0.0778
  671TMC3    O1 9990   3.465   3.822  13.909 -0.3491  0.2110  0.0265
  671TMC3    O2 9991   3.880   4.155  14.312  0.3534  0.3406 -0.7346
  672MPD2     C 9992   4.248   0.215   0.357 -0.2961 -0.0028  0.0785
  672MPD2    C1 9993   4.260   0.095   0.418  0.2400 -0.4334 -0.3508
  672MPD2    C2 9994   4.243   0.086   0.550  0.0116  0.1604  0.1892
  672MPD2    C3 9995   4.194   0.193   0.625  0.7305 -0.2984  0.0786
  672MPD2    C4 9996   4.182   0.316   0.566  1.1212  0.1831 -0.4491
  672MPD2    C5 9997   4.209   0.328   0.433 -0.7101 -0.0237 -0.1185
  672MPD2     H 9998   4.255   4.719   0.586  0.2042 -0.6482 -2.1735
  672MPD2    H1 9999   4.141   0.394   0.629  1.6140  0.3706 -0.3581
  672MPD2    H210000   4.259   0.225   0.250 -0.4543 -0.0563  0.0585
  672MPD2    H310001   4.180   0.416   0.376 -0.2354  0.9450  1.1254
  672MPD2     N10002   4.140   0.172   0.753 -0.6583 -0.1541  0.4500
  672MPD2    H510003   4.095   0.256   0.787 -1.0083  0.4592 -1.4913
  672MPD2    N110004   4.278   4.704   0.354 -0.2251  0.3304  0.8068
  672MPD2    H710005   4.295   4.620   0.408 -1.0285 -1.4470 -1.7338
  673TMC3    C110006   4.230   4.535   0.221  0.0684 -0.3730 -0.3398
  673TMC3    C210007   4.356   4.480   0.243 -0.6274  0.4049  0.4156
  673TMC3    C310008   4.385   4.401   0.347  0.3483 -0.6346 -1.1339
  673TMC3    C410009   4.128   4.497   0.307 -0.7515  0.0882  0.3708
  673TMC3    C510010   4.164   4.415   0.416  0.0422 -0.9364 -0.3433
  673TMC3    C610011   4.293   4.370   0.443 -0.5422  0.2812  0.1620
  673TMC3     C10012   4.236   4.676   0.219  0.0971 -0.3715 -0.0539
  673TMC3     O10013   4.168   0.004   0.141  0.5474 -0.0008  0.1968
  673TMC3     H10014   4.448   4.506   0.192 -0.7289 -0.0463  0.0028
  673TMC3    H110015   4.032   4.540   0.280 -0.3861  0.9805  0.4849
  673TMC3    H210016   4.292   4.292   0.518  0.0773  0.5820  0.4866
  673TMC3    C710017   4.073   4.391   0.531 -0.9665  0.5575 -0.0799
  673TMC3    C810018   4.512   4.334   0.355  0.3419  0.1015 -0.3899
  673TMC3    O110019   4.079   4.292   0.602 -0.2065 -0.0937  0.3913
  673TMC3    O210020   4.584   4.335   0.255 -0.3281 -0.0536  0.6499
  674MPD2     C10021   4.314   4.068   0.274  0.0571  0.1908  0.2631
  674MPD2    C110022   4.300   4.026   0.401  0.5364  0.3080 -0.2180
  674MPD2    C210023   4.164   4.020   0.447  0.1745  0.9477 -0.6369
  674MPD2    C310024   4.060   4.070   0.382  0.3808  0.0852 -1.0107
  674MPD2    C410025   4.076   4.111   0.250  0.1436  0.7780  0.1459
  674MPD2    C510026   4.204   4.114   0.206  0.1521  1.1031 -0.6566
  674MPD2     H10027   4.145   3.980   0.546 -0.2008  0.1644 -1.0216
  674MPD2    H110028   3.998   4.148   0.185 -0.7845  0.0980  0.8759
  674MPD2    H210029   4.411   4.066   0.225 -0.9627  1.5903 -1.8053
  674MPD2    H310030   4.227   4.152   0.107  0.5865  0.2134 -0.8901
  674MPD2     N10031   3.938   4.073   0.448 -0.4987  0.4500  0.1709
  674MPD2    H510032   3.934   4.022   0.535  1.3171  0.5289  0.3047
  674MPD2    N110033   4.409   3.978   0.480  0.6169  0.3563  0.0062
  674MPD2    H710034   4.503   3.977   0.441  0.5059 -0.7150 -0.2244
  675TMC3    C110035   4.548   3.904   0.655 -0.6082 -0.6364  0.9986
  675TMC3    C210036   4.568   3.897   0.788  0.6047  1.0305  0.0800
  675TMC3    C310037   4.695   3.882   0.831  0.3240 -0.0284 -0.0907
  675TMC3    C410038   4.650   3.890   0.565 -0.2455 -0.2456  0.1466
  675TMC3    C510039   0.046   3.880   0.612  0.1660  0.0998  0.1442
  675TMC3    C610040   0.066   3.875   0.746 -0.1430 -0.4633  0.6312
  675TMC3     C10041   4.411   3.935   0.611  0.0335  0.4684 -0.1090
  675TMC3     O10042   4.323   3.916   0.692 -0.0304 -0.3119 -0.0923
  675TMC3     H10043   4.475   3.900   0.845 -0.1740  0.2410 -1.1520
  675TMC3    H110044   4.633   3.884   0.458 -1.1757 -0.3146  0.3010
  675TMC3    H210045   0.164   3.844   0.782 -0.3458 -0.0625  1.5305
  675TMC3    C710046   0.145   3.867   0.512 -0.6629 -0.0465  0.4365
  675TMC3    C810047   4.725   3.860   0.969 -0.3476 -0.1551  0.5361
  675TMC3    O110048   0.113   3.870   0.393 -0.2643  0.2182  0.3410
  675TMC3    O210049   0.095   3.803   0.997 -0.4745 -0.2612  0.4119
  676MPD2     C10050   2.025   1.902  11.037  0.1816  0.1179 -0.6910
  676MPD2    C110051   1.906   1.857  11.092  0.3670 -0.1675 -0.0238
  676MPD2    C210052   1.805   1.803  11.006  0.3251 -0.2179  0.1877
  676MPD2    C310053   1.822   1.800  10.868 -0.1006  0.0383 -0.4672
  676MPD2    C410054   1.935   1.853  10.818 -0.2597  0.2027 -0.1499
  676MPD2    C510055   2.038   1.890  10.899  0.8636 -0.1689 -0.2194
  676MPD2     H10056   1.716   1.759  11.048  0.5411  0.1373  1.0027
  676MPD2    H110057   1.958   1.847  10.712  0.1906  1.4152 -0.1229
  676MPD2    H210058   2.109   1.933  11.099 -1.4357  0.9884  1.0368
  676MPD2    H310059   2.136   1.914  10.859  0.3202 -0.5438 -1.8080
  676MPD2     N10060   1.727   1.751  10.780 -0.4180 -0.0297 -0.2539
  676MPD2    H510061   1.747   1.752  10.681 -1.0426 -0.0302 -0.3804
  676MPD2    N110062   1.885   1.851  11.239 -0.4466 -0.4355  0.0236
  676MPD2    H710063   1.793   1.816  11.265 -0.3950 -1.0588 -0.6263
  677TMC3    C110064   1.911   1.908  11.457 -0.5038  0.0291  1.0429
  677TMC3    C210065   1.868   1.787  11.513  0.2246  0.2228  0.0101
  677TMC3    C310066   1.774   1.804  11.611 -0.0121  0.1967 -0.5510
  677TMC3    C410067   1.887   2.025  11.519 -0.0339 -0.3214  0.4742
  677TMC3    C510068   1.790   2.028  11.623  0.1298 -0.5759 -0.3643
  677TMC3    C610069   1.733   1.918  11.673 -0.7233  0.5705 -0.0024
  677TMC3     C10070   1.967   1.914  11.329  0.0434 -0.9661 -0.5331
  677TMC3     O10071   2.067   1.986  11.318 -0.3079  0.0359 -0.8052
  677TMC3     H10072   1.903   1.697  11.462 -2.5796 -0.1905 -1.1858
  677TMC3    H110073   1.935   2.108  11.470  2.1212 -1.8999 -0.0601
  677TMC3    H210074   1.675   1.923  11.765 -0.7737  2.6933 -0.1467
  677TMC3    C710075   1.777   2.151  11.698 -0.1849  0.3949  0.3273
  677TMC3    C810076   1.741   1.682  11.684  0.2405 -0.4224  0.8841
  677TMC3    O110077   1.743   2.157  11.813  0.1934 -0.3042 -0.3992
  677TMC3    O210078   1.736   1.579  11.618 -0.6668  0.4146 -0.6539
  678MPD2     C10079   3.204   3.284   1.956 -0.6879  0.2674 -0.3937
  678MPD2    C110080   3.218   3.212   1.834  0.0387 -0.3899 -0.2075
  678MPD2    C210081   3.114   3.166   1.766 -0.3341 -0.1190  0.3826
  678MPD2    C310082   2.987   3.167   1.825 -0.9564 -0.2936  0.0490
  678MPD2    C410083   2.978   3.223   1.959 -0.5247 -0.5995 -0.5115
  678MPD2    C510084   3.084   3.285   2.017 -0.0124 -0.1299 -0.0655
  678MPD2     H10085   3.127   3.124   1.667  0.5899 -0.9949  0.8814
  678MPD2    H110086   2.890   3.225   2.023  0.7915  1.8662  1.2093
  678MPD2    H210087   3.279   3.347   2.004 -2.4409  1.7751  0.3587
  678MPD2    H310088   3.068   3.336   2.111  0.5708 -1.0299  0.5181
  678MPD2     N10089   2.881   3.110   1.756 -0.2673 -0.2872 -0.3040
  678MPD2    H510090   2.901   3.073   1.663  1.6721 -1.7565  0.7147
  678MPD2    N110091   3.338   3.206   1.758  0.1328 -0.0990  0.6169
  678MPD2    H710092   3.336   3.158   1.669  4.3415  0.1199  0.4023
  679TMC3    C110093   3.785   3.168   1.669  0.3328  1.2972 -0.4031
  679TMC3    C210094   3.681   3.176   1.763  0.1482 -0.6493  0.4217
  679TMC3    C310095   3.570   3.238   1.717 -0.1935 -0.8065 -0.2574
  679TMC3    C410096   3.781   3.198   1.533  0.0331  0.1722  0.1138
  679TMC3    C510097   3.659   3.240   1.495 -0.3785  0.2153 -0.2463
  679TMC3    C610098   3.560   3.276   1.587 -0.1513 -0.2142 -0.3436
  679TMC3     C10099   3.860   3.046   1.696  0.1554 -0.4244 -0.2834
  679TMC3     O10100   3.786   2.955   1.729 -0.1000 -0.7810 -0.4303
  679TMC3     H10101   3.677   3.128   1.860 -0.4309 -0.5962  0.4271
  679TMC3    H110102   3.862   3.172   1.465 -1.5538 -2.4592 -0.7714
  679TMC3    H210103   3.469   3.317   1.542 -0.9664 -0.7075  0.8602
  679TMC3    C710104   3.630   3.240   1.351  0.4284  0.4783  0.7016
  679TMC3    C810105   3.457   3.248   1.813 -0.1087 -0.2981  0.5680
  679TMC3    O110106   3.514   3.240   1.312 -0.0005 -0.3711  0.1154
  679TMC3    O210107   3.485   3.274   1.930  0.2501 -0.7427 -0.4079
  680MPD2     C10108   3.106   1.321  14.120 -0.2213 -0.3231  0.5793
  680MPD2    C110109   3.174   1.263  14.221 -0.4020 -0.2198  0.0489
  680MPD2    C210110   3.296   1.323  14.258  0.0205 -0.0568  0.4751
  680MPD2    C310111   3.343   1.434  14.195  0.7697  0.3526  0.5995
  680MPD2    C410112   3.257   1.507  14.118 -0.8584  0.1444 -0.7162
  680MPD2    C510113   3.145   1.444  14.076 -0.8847  0.2147  0.5890
  680MPD2     H10114   3.353   1.271  14.334 -1.8672  1.2832  2.8220
  680MPD2    H110115   3.281   1.606  14.079  2.5402 -0.6516 -0.6051
  680MPD2    H210116   3.020   1.278  14.069  2.0526 -0.4993 -3.1249
  680MPD2    H310117   3.087   1.494  13.999  0.7946 -1.8458 -2.0042
  680MPD2     N10118   3.464   1.502  14.231  0.4165  0.3973 -0.2553
  680MPD2    H510119   3.481   1.589  14.181  1.9960 -0.8168 -1.8134
  680MPD2    N110120   3.135   1.137  14.272  0.1517 -0.4401  0.5310
  680MPD2    H710121   3.203   1.092  14.332  1.1100  1.7959  1.1378
  681TMC3    C110122   3.033   0.934  14.328  0.2207  0.6242  0.0594
  681TMC3    C210123   3.102   0.932  14.441 -0.4741 -0.0300 -0.0578
  681TMC3    C310124   3.141   0.808  14.493  0.8107 -0.7126  0.3082
  681TMC3    C410125   3.007   0.818  14.265 -0.0821 -0.5770 -0.3289
  681TMC3    C510126   3.026   0.699  14.325  0.2774  0.2071 -0.6896
  681TMC3    C610127   3.095   0.699  14.440  0.4587  0.3079 -0.3352
  681TMC3     C10128   3.021   1.061  14.252 -0.8075 -0.1382  0.2399
  681TMC3     O10129   2.942   1.072  14.164  0.4044 -0.1661 -0.0800
  681TMC3     H10130   3.095   1.029  14.490  1.9097 -0.5815  1.4019
  681TMC3    H110131   2.959   0.830  14.169 -1.1037 -0.0544  0.2431
  681TMC3    H210132   3.135   0.604  14.475  0.4917  0.0969 -0.9364
  681TMC3    C710133   3.052   0.586  14.244 -0.1282  0.5639  0.0379
  681TMC3    C810134   3.163   0.796  14.632  0.2282 -0.1119  0.3327
  681TMC3    O110135   3.045   0.477  14.302 -0.1462 -0.5239  0.1582
  681TMC3    O210136   3.121   0.700  14.696 -0.5700 -0.4759 -0.0184
  682MPD2     C10137   0.893   2.614  10.424 -0.3750  0.3655 -0.9123
  682MPD2    C110138   0.826   2.494  10.452  0.6405  0.3309  0.6313
  682MPD2    C210139   0.739   2.493  10.555  0.0734 -0.4188 -0.1069
  682MPD2    C310140   0.718   2.601  10.635 -0.0895 -0.2611 -0.0187
  682MPD2    C410141   0.792   2.720  10.618  0.2142 -0.2204 -0.2048
  682MPD2    C510142   0.882   2.721  10.512  0.4295  0.0875 -1.4658
  682MPD2     H10143   0.682   2.402  10.571 -0.9116  0.3624  0.8002
  682MPD2    H110144   0.788   2.810  10.678 -0.4015 -0.2486 -0.2087
  682MPD2    H210145   0.959   2.625  10.339 -0.2852  0.0638 -0.8801
  682MPD2    H310146   0.926   2.819  10.494 -0.5305  0.7507 -0.2845
  682MPD2     N10147   0.618   2.596  10.738 -0.4268  0.1565  0.7186
  682MPD2    H510148   0.606   2.681  10.791  1.9748  0.1555  1.2370
  682MPD2    N110149   0.837   2.379  10.366 -0.2567  0.2075  0.8726
  682MPD2    H710150   0.759   2.320  10.389 -0.2967  0.0050  0.2227
  683TMC3    C110151   0.462   2.584  11.110 -0.1041 -0.1130 -0.5252
  683TMC3    C210152   0.367   2.496  11.150  0.2386  0.1097  0.3106
  683TMC3    C310153   0.319   2.416  11.050 -0.0846  1.0551 -0.3502
  683TMC3    C410154   0.511   2.593  10.985 -0.4224 -0.1294  0.0404
  683TMC3    C510155   0.454   2.526  10.885  0.3603  0.1010  0.4553
  683TMC3    C610156   0.355   2.438  10.919 -0.6634 -0.2463 -0.5214
  683TMC3     C10157   0.518   2.667  11.215 -0.2230  0.0837 -0.3348
  683TMC3     O10158   0.447   2.688  11.315  0.0533  0.5443 -0.0494
  683TMC3     H10159   0.339   2.490  11.255 -0.4922  2.8027  0.2898
  683TMC3    H110160   0.595   2.656  10.961 -0.9979  0.3900 -0.5911
  683TMC3    H210161   0.298   2.393  10.838 -0.6024  1.5744 -1.5776
  683TMC3    C710162   0.522   2.502  10.760 -0.2912  0.1415  0.1103
  683TMC3    C810163   0.241   2.294  11.074 -0.4052 -0.3851  0.0602
  683TMC3    O110164   0.500   2.399  10.697  0.0623  0.0438 -0.5723
  683TMC3    O210165   0.184   2.248  10.976 -0.0857 -0.7468 -0.2968
  684MPD2     C10166   3.507   2.558  16.426  0.3230  0.3204 -0.8725
  684MPD2    C110167   3.592   2.630  16.348  0.0492  0.3731 -0.4855
  684MPD2    C210168   3.603   2.768  16.371  0.5654  0.9462 -0.1086
  684MPD2    C310169   3.536   2.826  16.472 -0.0625 -0.1062  0.2725
  684MPD2    C410170   3.457   2.748  16.552  0.3234 -0.2932 -0.6046
  684MPD2    C510171   3.440   2.617  16.535  0.1542 -0.3180  0.6743
  684MPD2     H10172   3.674   2.822  16.311 -0.5357  1.4645 -0.9471
  684MPD2    H110173   3.409   2.788  16.641 -0.8606  0.4337 -1.5610
  684MPD2    H210174   3.490   2.452  16.409  0.8268  0.0718  0.2074
  684MPD2    H310175   3.372   2.568  16.604  1.2294 -2.0264  0.5259
  684MPD2     N10176   3.556   2.957  16.481  0.4798 -0.3720  0.3663
  684MPD2    H510177   3.603   3.001  16.402  0.8877  0.6557  1.1738
  684MPD2    N110178   3.660   2.557  16.252  0.0440 -0.0152  0.3749
  684MPD2    H710179   3.624   2.464  16.233 -1.2323  0.4000  0.7633
  685TMC3    C110180   3.779   2.512  16.055 -0.1009 -0.5152  0.3770
  685TMC3    C210181   3.677   2.451  15.990 -0.2127 -0.4645 -1.0241
  685TMC3    C310182   3.713   2.381  15.883 -0.9247  0.1578 -0.2630
  685TMC3    C410183   3.908   2.519  16.006 -0.0684  0.4785  0.8765
  685TMC3    C510184   3.933   2.438  15.904  0.1084 -0.3080 -0.2372
  685TMC3    C610185   3.839   2.354  15.845  0.4043  0.4182 -0.3230
  685TMC3     C10186   3.753   2.602  16.164  0.2948  0.1237 -0.0334
  685TMC3     O10187   3.815   2.707  16.158  0.1348 -0.2635 -0.2804
  685TMC3     H10188   3.575   2.484  16.003  0.6493  1.3590  1.1194
  685TMC3    H110189   3.981   2.587  16.048 -0.0105  0.3910  0.9180
  685TMC3    H210190   3.859   2.283  15.765  0.6007  1.0955 -0.8747
  685TMC3    C710191   4.075   2.432  15.868 -0.0739  0.0619  0.4812
  685TMC3    C810192   3.617   2.319  15.797 -0.0842 -0.0214 -0.2200
  685TMC3    O110193   4.146   2.497  15.942  0.6431 -0.1575  0.5824
  685TMC3    O210194   3.636   2.299  15.677 -0.6478 -0.6524 -0.9313
  686MPD2     C10195   0.529   2.092  15.214  0.0270 -0.4841 -0.4801
  686MPD2    C110196   0.542   1.990  15.312  0.4026 -0.1743  0.5059
  686MPD2    C210197   0.621   1.875  15.293 -0.3722  0.6858  0.7171
  686MPD2    C310198   0.668   1.849  15.160  0.5732 -0.4251 -0.6110
  686MPD2    C410199   0.663   1.950  15.065 -0.3614 -0.4616  1.2926
  686MPD2    C510200   0.618   2.075  15.107  0.8825  0.7156  0.2145
  686MPD2     H10201   0.647   1.807  15.372 -1.7725 -3.2433 -2.2038
  686MPD2    H110202   0.704   1.943  14.965 -0.1280 -0.6118  1.3997
  686MPD2    H210203   0.479   2.187  15.220 -1.1328 -1.0432 -1.3299
  686MPD2    H310204   0.629   2.154  15.034  0.2995 -0.4009 -1.0787
  686MPD2     N10205   0.725   1.728  15.120  0.0123 -0.3454  0.0056
  686MPD2    H510206   0.772   1.732  15.030 -2.2114  0.4585 -1.1208
  686MPD2    N110207   0.479   2.009  15.435  0.0466  0.9834 -0.4867
  686MPD2    H710208   0.415   2.087  15.439  0.4000  1.1494  1.5724
  687TMC3    C110209   0.635   1.583  15.282 -0.6765  0.7726 -0.2766
  687TMC3    C210210   0.499   1.605  15.272  0.1825 -0.2058 -0.2277
  687TMC3    C310211   0.420   1.570  15.385 -0.1692  0.4996 -0.4138
  687TMC3    C410212   0.691   1.531  15.397  0.7382  0.1245  0.0064
  687TMC3    C510213   0.610   1.499  15.504  0.3525  0.2096  0.0610
  687TMC3    C610214   0.476   1.531  15.500  0.4981  0.4002  0.6112
  687TMC3     C10215   0.723   1.604  15.173 -0.4546 -0.2011  0.0493
  687TMC3     O10216   0.782   1.506  15.135  0.2249  0.9185  0.1995
  687TMC3     H10217   0.452   1.627  15.177  0.9521 -1.6145 -0.9314
  687TMC3    H110218   0.792   1.493  15.388  0.5509 -0.6640  1.1900
  687TMC3    H210219   0.423   1.513  15.593 -1.0344 -0.3506 -0.4253
  687TMC3    C710220   0.670   1.514  15.635  0.6124 -0.5689 -0.6180
  687TMC3    C810221   0.278   1.604  15.387  0.5336 -0.4424  0.0163
  687TMC3    O110222   0.590   1.511  15.733 -0.1557 -0.1618 -0.8862
  687TMC3    O210223   0.208   1.550  15.472 -0.6105  0.4172  0.4658
  688MPD2     C10224   4.388   1.139  17.493  0.0107 -0.3662  0.0394
  688MPD2    C110225   4.423   1.006  17.503 -0.5550  0.8059  0.1212
  688MPD2    C210226   4.491   0.947  17.393  0.5301 -0.2772  0.6893
  688MPD2    C310227   4.555   1.024  17.297  0.9462  0.5895  0.4436
  688MPD2    C410228   4.526   1.158  17.298 -0.6410  0.4004  0.6825
  688MPD2    C510229   4.443   1.209  17.393  0.2200  0.5106 -0.2965
  688MPD2     H10230   4.512   0.840  17.399 -0.9746 -0.7155 -1.4752
  688MPD2    H110231   4.558   1.221  17.216 -1.4142 -1.4665 -1.0367
  688MPD2    H210232   4.331   1.187  17.571  2.0897  1.0630  0.6747
  688MPD2    H310233   4.414   1.314  17.385 -1.5690  0.1422  1.3105
  688MPD2     N10234   4.644   0.974  17.196 -0.2786  0.0308  0.0364
  688MPD2    H510235   4.669   1.034  17.118 -0.1238  1.2751  1.0542
  688MPD2    N110236   4.385   0.924  17.614 -0.2543  0.0381 -0.1847
  688MPD2    H710237   4.414   0.827  17.615 -1.3185 -0.2599  1.3808
  689TMC3    C110238   4.286   0.848   0.078  0.1178 -0.3202  0.1900
  689TMC3    C210239   4.190   0.875   0.170 -0.3001 -1.0395  0.2742
  689TMC3    C310240   4.167   0.784   0.268  0.2485  0.2989  0.1512
  689TMC3    C410241   4.366   0.733   0.092  0.3066  0.3935 -0.1470
  689TMC3    C510242   4.343   0.650   0.203  0.1266 -0.1316  0.3299
  689TMC3    C610243   4.235   0.670   0.285 -0.0748  0.4408  0.3043
  689TMC3     C10244   4.317   0.955  17.727 -0.1098 -0.3657 -0.1353
  689TMC3     O10245   4.274   1.069   0.019  0.5572 -0.2254  0.4308
  689TMC3     H10246   4.113   0.943   0.135  1.9692  0.9378 -0.8795
  689TMC3    H110247   4.462   0.727   0.043 -0.4857 -0.3578 -1.6062
  689TMC3    H210248   4.205   0.595   0.357 -1.8333 -0.2545 -1.1467
  689TMC3    C710249   4.418   0.528   0.210 -0.6180 -0.2014 -0.1240
  689TMC3    C810250   4.081   0.820   0.379 -0.6579  0.1179  0.0576
  689TMC3    O110251   4.451   0.479   0.317  0.5540  0.1776  0.1709
  689TMC3    O210252   4.046   0.728   0.447  0.2665  0.4819  0.3503
  690MPD2     C10253   2.114   2.775  15.921 -0.4108 -0.6934 -0.2050
  690MPD2    C110254   2.120   2.672  15.829  0.1336  0.1587  0.7498
  690MPD2    C210255   2.240   2.652  15.763  0.7906  0.6856  0.2018
  690MPD2    C310256   2.354   2.727  15.789 -0.4176 -0.2074  0.4722
  690MPD2    C410257   2.352   2.825  15.889  0.6133 -0.1600 -0.4827
  690MPD2    C510258   2.231   2.841  15.957  0.0354 -0.1434  0.1164
  690MPD2     H10259   2.251   2.567  15.697 -1.4473  0.7557 -0.2866
  690MPD2    H110260   2.428   2.895  15.921 -0.8204  0.7462  0.9682
  690MPD2    H210261   2.020   2.802  15.967  0.5012  1.2376  0.5019
  690MPD2    H310262   2.234   2.909  16.041  2.1190  0.6646 -0.6160
  690MPD2     N10263   2.470   2.703  15.711  0.3008  0.1008  0.6459
  690MPD2    H510264   2.474   2.628  15.643  1.3202  0.7929 -0.0634
  690MPD2    N110265   2.010   2.588  15.799  0.6227  0.0084 -0.1265
  690MPD2    H710266   2.028   2.507  15.740 -2.6496 -0.8298  0.0326
  691TMC3    C110267   1.786   2.513  15.784  1.0869 -0.3737 -0.4496
  691TMC3    C210268   1.648   2.525  15.819 -0.1394 -0.6476 -0.0862
  691TMC3    C310269   1.564   2.440  15.756 -0.4947 -0.9865  0.1170
  691TMC3    C410270   1.835   2.415  15.695  0.1014 -0.4071 -0.5795
  691TMC3    C510271   1.739   2.329  15.644 -0.4497  0.6876  0.1745
  691TMC3    C610272   1.608   2.327  15.684  0.1301 -0.5103 -0.3278
  691TMC3     C10273   1.882   2.598  15.840  0.1078  0.3594  0.3426
  691TMC3     O10274   1.839   2.667  15.931 -0.0360 -0.1307  0.5010
  691TMC3     H10275   1.610   2.608  15.877  0.3301  0.7403 -1.7587
  691TMC3    H110276   1.941   2.399  15.682 -0.2083 -1.2051 -2.0732
  691TMC3    H210277   1.532   2.257  15.652  0.8573 -0.8281 -1.3122
  691TMC3    C710278   1.791   2.203  15.573  0.0903  0.0905 -0.3008
  691TMC3    C810279   1.423   2.442  15.785  0.3889  0.0977 -0.2698
  691TMC3    O110280   1.916   2.204  15.572 -0.8710  0.2464 -0.5584
  691TMC3    O210281   1.359   2.342  15.788 -0.1714  0.3177  0.5178
  692TMC3    C110282   3.538   4.000  15.605 -0.0561 -0.6570 -0.0085
  692TMC3    C210283   3.645   4.069  15.662 -0.0809 -0.1368 -0.6780
  692TMC3    C310284   3.752   4.002  15.725  0.4567 -0.4511  0.8734
  692TMC3    C410285   3.543   3.859  15.610  0.0368  0.5344 -0.4449
  692TMC3    C510286   3.645   3.799  15.675  0.2849  0.8713  0.1487
  692TMC3    C610287   3.741   3.870  15.744 -0.0378  0.5146  0.1546
  692TMC3     C10288   3.411   4.053  15.648  1.3457  0.2891 -0.5844
  692TMC3     O10289   3.412   4.109  15.758  0.2439 -0.6409 -0.8884
  692TMC3     H10290   3.630   4.177  15.666  0.9930  0.0047 -0.5220
  692TMC3    H110291   3.463   3.795  15.572 -2.9201  3.5676  0.7000
  692TMC3    H210292   3.830   3.819  15.781 -0.1308 -0.2199 -0.6267
  692TMC3    C710293   3.621   3.659  15.688  0.7755 -0.2378  0.8142
  692TMC3    C810294   3.785   4.074  15.847  0.8899  0.5509 -0.6065
  692TMC3    O110295   3.561   3.600  15.600 -0.1822 -0.6657 -0.1940
  692TMC3    O210296   3.813   4.192  15.839  0.2161  0.5422  0.5363
  693MPD2     C10297   3.096   1.550  10.378 -0.2642  0.0554  0.3555
  693MPD2    C110298   3.028   1.436  10.417  0.2867 -0.7012  0.4172
  693MPD2    C210299   3.108   1.333  10.475 -0.5862 -0.1006 -0.2763
  693MPD2    C310300   3.244   1.342  10.479 -0.2792  0.2995  0.5671
  693MPD2    C410301   3.302   1.447  10.424  0.0879  0.0074 -1.1476
  693MPD2    C510302   3.234   1.544  10.360  0.4178 -0.6838 -0.3194
  693MPD2     H10303   3.063   1.247  10.523  0.2716  0.1110  0.9130
  693MPD2    H110304   3.409   1.442  10.412  0.2057  1.7211 -0.8774
  693MPD2    H210305   3.047   1.635  10.332 -1.0199 -0.2257  0.6456
  693MPD2    H310306   3.285   1.622  10.305  2.0346 -1.2957  0.3057
  693MPD2     N10307   3.334   1.251  10.543 -0.6957  0.1631  0.4787
  693MPD2    H510308   3.433   1.274  10.532 -1.4677  3.5184  0.6440
  693MPD2    N110309   2.888   1.434  10.406 -0.1481 -0.3830 -0.5395
  693MPD2    H710310   2.830   1.517  10.409 -0.6469 -0.6950 -1.5886
  694TMC3    C110311   2.677   1.321  10.412  0.2524  0.5874 -0.0703
  694TMC3    C210312   2.622   1.208  10.361  0.6608 -0.4592  0.2525
  694TMC3    C310313   2.501   1.168  10.411 -0.4107 -0.0946 -0.2414
  694TMC3    C410314   2.622   1.396  10.511 -0.6051  0.6928 -0.1608
  694TMC3    C510315   2.505   1.355  10.564  0.2070 -0.0330 -0.7616
  694TMC3    C610316   2.444   1.239  10.516 -0.1649  0.1755  1.0407
  694TMC3     C10317   2.820   1.314  10.397  0.1953  0.0157  0.0684
  694TMC3     O10318   2.872   1.208  10.362  0.5236  0.6764  0.3040
  694TMC3     H10319   2.640   1.177  10.258  0.6507 -2.2142  0.7743
  694TMC3    H110320   2.678   1.479  10.552  1.8308 -0.7264 -0.6412
  694TMC3    H210321   2.339   1.223  10.538 -0.7688  3.2882  0.3672
  694TMC3    C710322   2.483   1.382  10.704 -0.6618 -0.0925 -0.0641
  694TMC3    C810323   2.439   1.045  10.362 -0.5951  0.2366 -0.0073
  694TMC3    O110324   2.491   1.489  10.758 -0.4607  0.2340 -0.1941
  694TMC3    O210325   2.322   1.040  10.394  0.5993  0.1918 -0.2896
  695MPD2     C10326   3.823   2.974  13.849  0.3166  0.0513  0.2832
  695MPD2    C110327   3.813   3.109  13.893 -0.2242 -0.5151 -0.4155
  695MPD2    C210328   3.705   3.185  13.865 -0.6458 -0.1220 -0.9201
  695MPD2    C310329   3.594   3.127  13.803  0.1718 -0.4205  0.1093
  695MPD2    C410330   3.604   2.993  13.771  0.5288 -0.4101 -0.5875
  695MPD2    C510331   3.715   2.920  13.790  0.1479  0.0335 -0.5694
  695MPD2     H10332   3.695   3.284  13.909 -1.8157 -0.4127 -0.5471
  695MPD2    H110333   3.524   2.944  13.717  0.9205 -0.0231 -1.5241
  695MPD2    H210334   3.912   2.919  13.876  0.4297 -0.0128 -0.2270
  695MPD2    H310335   3.725   2.814  13.767 -1.8706 -1.1478  3.9095
  695MPD2     N10336   3.475   3.200  13.782  0.2622  0.4855 -0.2486
  695MPD2    H510337   3.471   3.300  13.801 -2.4712  0.0033  1.7150
  695MPD2    N110338   3.911   3.170  13.974  0.0537 -0.2332  0.3319
  695MPD2    H710339   3.893   3.264  14.009 -0.9331 -0.3700  0.1911
  696TMC3    C110340   3.250   3.245  13.727 -0.2057 -0.0142  0.3281
  696TMC3    C210341   3.146   3.266  13.824  0.1394  0.2496 -0.2781
  696TMC3    C310342   3.066   3.377  13.817 -0.8114  0.5288  0.4953
  696TMC3    C410343   3.280   3.337  13.630  0.0912  0.7561  0.1760
  696TMC3    C510344   3.209   3.456  13.639  0.6947 -1.3564 -0.3927
  696TMC3    C610345   3.106   3.474  13.730 -0.0325  0.1657 -0.7022
  696TMC3     C10346   3.351   3.140  13.763 -0.3290  0.0023 -0.2477
  696TMC3     O10347   3.296   3.030  13.780 -0.5867 -0.3420 -0.1507
  696TMC3     H10348   3.102   3.187  13.883  2.2563 -0.0736  0.8582
  696TMC3    H110349   3.357   3.321  13.555  0.9771  0.0261  1.2379
  696TMC3    H210350   3.053   3.568  13.734  0.7569  0.5337  1.3054
  696TMC3    C710351   3.256   3.565  13.550  0.1334 -0.2561 -0.3374
  696TMC3    C810352   3.039   3.430  13.950 -0.1352  0.1584  0.0179
  696TMC3    O110353   3.327   3.533  13.454 -0.3683  0.0030 -0.5782
  696TMC3    O210354   2.932   3.411  14.015  0.2207  0.2300 -0.6285
  697MPD2     C10355   3.553   0.517  15.590  0.3117  0.4607  0.9457
  697MPD2    C110356   3.449   0.459  15.517 -0.2898  0.2741  0.6421
  697MPD2    C210357   3.372   0.553  15.445 -0.3120  0.1139  0.3450
  697MPD2    C310358   3.389   0.692  15.449 -0.0579 -0.3865  0.3779
  697MPD2    C410359   3.486   0.742  15.533  0.2694 -0.0769 -0.1609
  697MPD2    C510360   3.568   0.655  15.594  0.4610  0.9555 -0.1312
  697MPD2     H10361   3.291   0.515  15.384 -0.7461 -0.8488  1.5144
  697MPD2    H110362   3.512   0.847  15.536  0.8464 -0.2623  1.2682
  697MPD2    H210363   3.625   0.451  15.638 -0.0570 -1.8183 -1.6695
  697MPD2    H310364   3.644   0.694  15.660  0.6799 -0.2264  0.3238
  697MPD2     N10365   3.295   0.771  15.387 -0.3117  0.1036 -0.6492
  697MPD2    H510366   3.229   0.719  15.329 -0.0479 -0.7445 -0.1845
  697MPD2    N110367   3.430   0.324  15.507 -0.3889 -0.1112  0.2196
  697MPD2    H710368   3.377   0.292  15.427 -0.3747  1.8101 -0.5573
  698TMC3    C110369   3.153   0.965  15.353  0.6370  0.8062  0.1005
  698TMC3    C210370   3.150   1.099  15.320 -0.3189  0.2582  0.5358
  698TMC3    C310371   3.056   1.154  15.233  0.1998 -0.0903  0.2963
  698TMC3    C410372   3.066   0.880  15.300  0.2192 -0.0959  0.0492
  698TMC3    C510373   2.969   0.938  15.223 -0.5949  0.1274 -0.8537
  698TMC3    C610374   2.956   1.068  15.193 -0.1508  0.5455 -0.1737
  698TMC3     C10375   3.279   0.912  15.406 -0.2614  0.0414  0.0610
  698TMC3     O10376   3.345   0.986  15.475  0.3796  0.1125 -0.5356
  698TMC3     H10377   3.204   1.164  15.388 -0.7220  1.4879 -0.3126
  698TMC3    H110378   3.047   0.779  15.332  0.4938 -0.3181 -0.4866
  698TMC3    H210379   2.884   1.108  15.123 -0.1678 -0.1943 -0.5851
  698TMC3    C710380   2.903   0.857  15.120 -0.0379  0.2158  0.1283
  698TMC3    C810381   3.071   1.284  15.170  0.3111  0.6573  0.3554
  698TMC3    O110382   2.881   0.905  15.011 -0.4018  0.0885 -0.1311
  698TMC3    O210383   2.985   1.313  15.081 -0.6540 -0.7671 -0.1647
  699TMC3    C110384   3.121   3.533  13.073 -0.5516  0.0031 -0.0051
  699TMC3    C210385   3.177   3.418  13.116 -0.0650 -1.3851 -0.0664
  699TMC3    C310386   3.146   3.369  13.238  0.3273  0.0385  0.0654
  699TMC3    C410387   3.020   3.594  13.142 -0.7395 -0.7547 -0.0212
  699TMC3    C510388   2.978   3.531  13.260 -0.0605  0.5355  0.2781
  699TMC3    C610389   3.038   3.417  13.307  0.0763  0.1793  0.8754
  699TMC3     C10390   3.164   3.590  12.943 -0.3522  0.3538 -0.1256
  699TMC3     O10391   3.086   3.664  12.885 -0.0401  0.1465  0.3538
  699TMC3     H10392   3.250   3.358  13.062  0.8425 -1.2886  1.0525
  699TMC3    H110393   2.977   3.689  13.114  0.6063 -0.4299 -1.0303
  699TMC3    H210394   3.007   3.373  13.401 -2.0180  0.3727  0.2640
  699TMC3    C710395   2.844   3.544  13.304  0.1503 -0.5203  0.1366
  699TMC3    C810396   3.189   3.237  13.278 -0.6331  0.4721  0.4030
  699TMC3    O110397   2.821   3.515  13.422 -0.2359  0.1336  0.5726
  699TMC3    O210398   3.110   3.181  13.354 -0.1330 -0.6187 -0.2583
  700TMC3    C110399   2.046   1.129  17.478 -0.4153 -0.2799 -0.1157
  700TMC3    C210400   2.085   1.001  17.450  0.4004  0.5586 -0.7139
  700TMC3    C310401   2.195   0.950  17.522  0.1877 -0.2397 -0.4347
  700TMC3    C410402   2.102   1.203  17.573  0.6415  0.2071  0.1794
  700TMC3    C510403   2.200   1.153  17.639 -0.1031  0.2139  0.1068
  700TMC3    C610404   2.252   1.025  17.623  0.4203  0.8225  0.2513
  700TMC3     C10405   1.978   1.191  17.366  1.2448  0.1735 -0.8872
  700TMC3     O10406   1.892   1.124  17.308  0.3010 -0.3137  0.0594
  700TMC3     H10407   2.029   0.948  17.374  0.7019 -1.6230  0.5873
  700TMC3    H110408   2.073   1.307  17.561 -0.6891  0.2170  3.3145
  700TMC3    H210409   2.341   0.997  17.677 -1.0296 -0.3536  2.0075
  700TMC3    C710410   2.268   1.248  17.715  1.0644 -0.1078  0.5282
  700TMC3    C810411   2.233   0.813  17.507  0.1940 -0.3894  0.0189
  700TMC3    O110412   2.390   1.233  17.731  0.3540 -0.6185  0.0221
  700TMC3    O210413   2.138   0.757  17.452  0.3166  0.6124 -0.1774
  701TMC3    C110414   2.616   4.733  15.448 -0.0283  0.6205 -0.3099
  701TMC3    C210415   2.617   4.702  15.317  0.4461 -0.1256  0.2459
  701TMC3    C310416   2.740   4.698  15.252  0.2657 -0.4530 -1.0184
  701TMC3    C410417   2.720   0.050  15.516  0.2321  0.0440  0.1409
  701TMC3    C510418   2.840   0.062  15.450 -0.3160 -0.2122 -0.2624
  701TMC3    C610419   2.854   0.025  15.315 -0.0494 -0.0897  0.3388
  701TMC3     C10420   2.487   4.705  15.516  0.0943 -0.5587 -0.0775
  701TMC3     O10421   2.442   4.596  15.482  0.1907  0.3724  0.0771
  701TMC3     H10422   2.525   4.681  15.264  0.1614 -0.9298  1.0489
  701TMC3    H110423   2.709   0.090  15.616 -0.5883 -1.0199  0.4782
  701TMC3    H210424   2.949   0.038  15.264 -0.7480 -4.5920 -2.0902
  701TMC3    C710425   2.936   0.152  15.507 -0.7710 -0.2322 -0.7167
  701TMC3    C810426   2.755   4.641  15.116  0.3809 -0.3823 -1.0800
  701TMC3    O110427   2.996   0.218  15.426  0.3432  0.0119 -0.4499
  701TMC3    O210428   2.865   4.656  15.064 -0.0971  0.2759  0.1135
  702MPD2     C10429   1.816   1.472  10.141 -0.4821 -0.7288 -0.6668
  702MPD2    C110430   1.712   1.539  10.192 -0.1516  0.2620  0.1213
  702MPD2    C210431   1.658   1.649  10.124  0.4408  0.1570 -0.2979
  702MPD2    C310432   1.724   1.704  10.013 -0.4030 -0.0914 -0.3153
  702MPD2    C410433   1.825   1.627   9.961  0.2865 -0.2651 -0.2951
  702MPD2    C510434   1.868   1.512  10.023  0.2757 -0.1278 -0.1049
  702MPD2     H10435   1.570   1.702  10.159 -0.2924 -0.7665 -0.7319
  702MPD2    H110436   1.877   1.663   9.873  0.4577 -0.7244 -0.3766
  702MPD2    H210437   1.856   1.393  10.205 -0.2131  0.8592  1.1275
  702MPD2    H310438   1.953   1.463   9.978  0.2067 -0.1437 -0.2168
  702MPD2     N10439   1.678   1.827   9.966  0.1164  0.4196  0.4857
  702MPD2    H510440   1.596   1.854  10.019 -0.4869  2.2341 -1.3794
  702MPD2    N110441   1.661   1.498  10.319 -0.4478 -0.7609  0.9573
  702MPD2    H710442   1.714   1.428  10.370  0.1828 -0.5375  0.6096
  703TMC3    C110443   1.698   2.042   9.902 -0.5899  0.5523 -0.2494
  703TMC3    C210444   1.567   2.039   9.946 -0.2311 -0.0719  0.2018
  703TMC3    C310445   1.527   2.119  10.046 -0.0687  0.4403  0.8580
  703TMC3    C410446   1.787   2.121   9.959 -1.0557 -0.1836  0.2529
  703TMC3    C510447   1.746   2.206  10.063 -0.0425  0.0038  0.6802
  703TMC3    C610448   1.614   2.204  10.104 -0.4621 -0.3953  0.7280
  703TMC3     C10449   1.748   1.909   9.879  0.6713 -0.1756  0.0191
  703TMC3     O10450   1.858   1.892   9.828  0.1133 -0.0178  0.3905
  703TMC3     H10451   1.492   1.976   9.899  0.5358 -0.9443  0.1362
  703TMC3    H110452   1.893   2.117   9.935 -1.2062 -2.1759 -0.0434
  703TMC3    H210453   1.594   2.245  10.203 -0.7023  1.9854 -0.3059
  703TMC3    C710454   1.815   2.328  10.075 -0.0981  0.2391  0.5227
  703TMC3    C810455   1.426   2.056  10.129 -0.1768  0.2214 -0.0208
  703TMC3    O110456   1.929   2.332  10.023 -0.9712 -0.2203 -0.3159
  703TMC3    O210457   1.427   1.936  10.122 -0.0244 -0.4164  0.3137
  704TMC3    C110458   0.063   0.469  12.406  0.0628 -0.1077  0.0168
  704TMC3    C210459   0.119   0.442  12.283 -0.2615  0.3414 -0.6057
  704TMC3    C310460   0.254   0.416  12.268  0.1576  0.6720  0.0830
  704TMC3    C410461   0.149   0.488  12.513 -0.0857  0.4534 -0.1241
  704TMC3    C510462   0.282   0.467  12.492  1.2356 -1.0179  0.0052
  704TMC3    C610463   0.339   0.426  12.370 -0.1583 -0.2113  0.8383
  704TMC3     C10464   4.685   0.394  12.439  0.1894  0.4299  0.1281
  704TMC3     O10465   4.608   0.436  12.518  0.4643 -0.4014 -0.2412
  704TMC3     H10466   0.061   0.428  12.192  0.4270  1.5988 -1.2347
  704TMC3    H110467   0.098   0.524  12.601 -0.1567 -0.6647  0.2962
  704TMC3    H210468   0.446   0.411  12.369 -0.1022  0.4179 -1.8491
  704TMC3    C710469   0.376   0.516  12.599 -0.3748  0.3368 -0.0967
  704TMC3    C810470   0.300   0.359  12.141 -0.2380 -0.2206  0.3449
  704TMC3    O110471   0.471   0.582  12.560 -0.1970  0.6948  0.2808
  704TMC3    O210472   0.217   0.299  12.074  0.1234 -0.1213  0.1236
  705MPD2     C10473   4.075   3.932  16.668 -0.4049 -0.0782  0.4967
  705MPD2    C110474   4.017   3.817  16.628  0.0037  0.3531  0.6566
  705MPD2    C210475   3.931   3.752  16.719  0.0611 -0.0829  0.5505
  705MPD2    C310476   3.906   3.813  16.841 -0.1991 -0.4895 -0.2228
  705MPD2    C410477   3.974   3.932  16.876  0.3261 -0.2419 -0.2251
  705MPD2    C510478   4.064   3.987  16.792  0.1053 -0.2649  0.2674
  705MPD2     H10479   3.868   3.672  16.681  3.1912 -2.4626  0.3808
  705MPD2    H110480   3.972   3.970  16.978  1.9753 -1.2447  0.1855
  705MPD2    H210481   4.147   3.982  16.604  1.0016 -0.7309  1.5505
  705MPD2    H310482   4.118   4.079  16.809  0.4103 -0.5119  0.6143
  705MPD2     N10483   3.804   3.765  16.925 -0.2439 -0.2512 -0.1384
  705MPD2    H510484   3.805   3.804  17.019 -1.7616 -1.1367  0.2345
  705MPD2    N110485   4.045   3.774  16.497  0.9041 -0.0850  0.0847
  705MPD2    H710486   4.106   3.834  16.443 -1.1672  0.2124 -1.8938
  706TMC3    C110487   4.033   3.529  16.100  0.4560 -0.4038  0.3215
  706TMC3    C210488   4.059   3.645  16.025 -0.3438  0.2443 -0.3969
  706TMC3    C310489   4.051   3.762  16.098 -0.9627 -0.5327 -0.4326
  706TMC3    C410490   4.014   3.527  16.236  0.0077 -0.1149 -0.2991
  706TMC3    C510491   4.019   3.655  16.300 -0.5993  0.3249 -0.0578
  706TMC3    C610492   4.025   3.772  16.233 -0.1887  0.5058 -0.5017
  706TMC3     C10493   4.073   3.394  16.058  0.0242  0.1364  0.1651
  706TMC3     O10494   4.099   3.314  16.146  0.3649 -0.3060  0.0436
  706TMC3     H10495   4.082   3.650  15.919  0.1982 -2.0657 -0.3935
  706TMC3    H110496   4.004   3.441  16.301  0.9003  0.3565  0.4616
  706TMC3    H210497   3.986   3.866  16.271 -3.9998 -0.2507 -2.5892
  706TMC3    C710498   3.997   3.656  16.443  0.0449 -0.1683 -0.2170
  706TMC3    C810499   4.062   3.883  16.025 -0.0273  0.1929  0.2416
  706TMC3    O110500   3.948   3.559  16.501  0.3908  0.0131 -0.0855
  706TMC3    O210501   4.029   3.873  15.910  0.0285 -0.1837 -0.1313
  707TMC3    C110502   0.262   2.038   1.308  0.3198 -0.4438 -0.0623
  707TMC3    C210503   0.311   2.121   1.405  0.0995 -0.8329 -0.2051
  707TMC3    C310504   0.233   2.168   1.499 -0.6563 -1.0349  0.3150
  707TMC3    C410505   0.130   1.997   1.304 -0.0642 -0.3984  0.4316
  707TMC3    C510506   0.046   2.041   1.399  0.0691 -1.1996 -0.3121
  707TMC3    C610507   0.100   2.123   1.502  0.4954 -0.3160 -0.1500
  707TMC3     C10508   0.335   2.042   1.184  0.2221 -0.2357 -0.0046
  707TMC3     O10509   0.391   2.149   1.158  0.2877  0.1755  0.5283
  707TMC3     H10510   0.418   2.138   1.401 -0.2952  1.2337 -1.8553
  707TMC3    H110511   0.094   1.926   1.230  0.2140 -0.9507  0.8214
  707TMC3    H210512   0.039   2.156   1.585  0.6918 -0.0197 -0.1235
  707TMC3    C710513   4.682   1.948   1.448  0.1344 -0.5842 -0.4865
  707TMC3    C810514   0.281   2.263   1.600  0.6859  0.1668  0.4792
  707TMC3    O110515   4.661   1.845   1.382 -0.1463  0.3367 -0.4174
  707TMC3    O210516   0.194   2.319   1.661  0.3868 -0.1638  0.2065
  708MPD2     C10517   1.958   1.796  13.534  0.3412 -0.1742 -0.1975
  708MPD2    C110518   1.897   1.676  13.580  0.1806 -0.2215  0.3366
  708MPD2    C210519   1.968   1.582  13.655  0.3039  0.4760 -0.1704
  708MPD2    C310520   2.103   1.604  13.680 -0.7857 -0.6112 -0.7773
  708MPD2    C410521   2.162   1.721  13.628 -0.1019  0.3387 -0.1941
  708MPD2    C510522   2.096   1.803  13.540  0.5909  0.3275  0.5086
  708MPD2     H10523   1.909   1.506  13.706 -0.9278  1.1877 -0.5234
  708MPD2    H110524   2.268   1.737  13.644 -0.2506  1.3457 -0.2239
  708MPD2    H210525   1.907   1.869  13.472 -1.3860 -1.2158 -0.0215
  708MPD2    H310526   2.146   1.886  13.493  0.1949  0.0162 -0.4823
  708MPD2     N10527   2.178   1.513  13.754 -0.5189 -0.2328 -0.3221
  708MPD2    H510528   2.278   1.517  13.769 -0.1894 -3.9657 -1.5678
  708MPD2    N110529   1.761   1.644  13.564  0.2212 -0.3195 -0.0516
  708MPD2    H710530   1.734   1.554  13.601 -0.4346  0.5751  1.6875
  709TMC3    C110531   1.545   1.645  13.504 -0.9916  1.0863 -0.3502
  709TMC3    C210532   1.513   1.593  13.383  0.4338  0.2108  0.2314
  709TMC3    C310533   1.481   1.462  13.385  0.1050  0.1079 -0.1349
  709TMC3    C410534   1.539   1.568  13.624 -0.1425 -0.1566  0.2315
  709TMC3    C510535   1.494   1.441  13.619  0.4602  0.1380  0.1433
  709TMC3    C610536   1.481   1.389  13.495 -0.9352 -0.1508  0.1454
  709TMC3     C10537   1.671   1.718  13.498 -0.3702 -0.3938 -0.2818
  709TMC3     O10538   1.696   1.805  13.417 -0.3157 -0.2339 -0.4127
  709TMC3     H10539   1.523   1.657  13.296  2.1143 -0.3719  0.0000
  709TMC3    H110540   1.567   1.610  13.719  1.3011  0.0506 -0.2819
  709TMC3    H210541   1.494   1.282  13.484 -1.3564 -0.1843 -0.0329
  709TMC3    C710542   1.592   1.375  13.705 -0.4368  0.5538 -0.1892
  709TMC3    C810543   1.509   1.382  13.268 -0.0251 -1.2739  0.0692
  709TMC3    O110544   1.707   1.364  13.664 -0.3312  0.0679 -0.9167
  709TMC3    O210545   1.431   1.289  13.245  0.2198 -0.8013  0.2989
  710TMC3    C110546   3.234   2.801   0.714 -0.1090 -0.3360  0.1517
  710TMC3    C210547   3.307   2.709   0.643  0.0636  0.4187 -0.3036
  710TMC3    C310548   3.440   2.694   0.681 -0.4650  0.3117  0.1541
  710TMC3    C410549   3.289   2.872   0.821  0.1070 -0.3050 -0.1869
  710TMC3    C510550   3.426   2.854   0.849 -0.7630 -0.0219  0.4261
  710TMC3    C610551   3.497   2.769   0.774 -0.7009  0.0440  0.3153
  710TMC3     C10552   3.109   2.834   0.657 -0.2989  0.5052 -0.2129
  710TMC3     O10553   3.075   2.803   0.542 -0.0569 -0.1897 -0.0360
  710TMC3     H10554   3.258   2.653   0.564 -0.8726 -0.2672  0.7673
  710TMC3    H110555   3.232   2.947   0.875 -2.2467 -2.1723 -0.0716
  710TMC3    H210556   3.605   2.768   0.778 -0.6805 -1.4476 -0.6412
  710TMC3    C710557   3.489   2.954   0.923  0.4568  0.5142 -0.1178
  710TMC3    C810558   3.536   2.623   0.603 -0.0876 -0.0043 -0.1554
  710TMC3    O110559   3.416   3.020   0.993 -0.4472  0.1055 -0.2786
  710TMC3    O210560   3.516   2.626   0.483 -0.7391  0.3968  0.4553
  711TMC3    C110561   3.010   4.271  14.639  0.4339  0.8399 -0.1122
  711TMC3    C210562   3.032   4.349  14.750 -0.1602  0.2433 -0.2515
  711TMC3    C310563   3.166   4.353  14.795  0.6131 -0.9596  0.2301
  711TMC3    C410564   3.109   4.210  14.569  0.1783 -1.0955  0.0252
  711TMC3    C510565   3.230   4.201  14.623  0.4230 -0.1431  0.2181
  711TMC3    C610566   3.268   4.286  14.728  0.1271  0.2333  0.1550
  711TMC3     C10567   2.903   4.178  14.661 -0.0185 -0.5622 -0.3025
  711TMC3     O10568   2.858   4.111  14.571 -0.2002  0.0506 -0.2386
  711TMC3     H10569   2.949   4.397  14.802 -0.9559  0.1722 -1.4716
  711TMC3    H110570   3.080   4.168  14.473 -2.7511  0.1294  0.3520
  711TMC3    H210571   3.371   4.288  14.759  0.4617 -0.1421 -0.9364
  711TMC3    C710572   3.258   4.068  14.675 -0.5441 -0.0533 -0.4521
  711TMC3    C810573   3.166   4.337  14.933  0.1467 -0.5487  0.5358
  711TMC3    O110574   3.351   4.065  14.753 -0.0693 -0.0901 -0.1544
  711TMC3    O210575   3.062   4.319  14.985  0.3990 -0.1421 -0.3228
  712MPD2     C10576   4.444   0.455  13.601  0.0570  0.3080  0.3477
  712MPD2    C110577   4.348   0.548  13.632  0.2312 -0.7336 -0.3855
  712MPD2    C210578   4.386   0.677  13.631 -0.4114 -0.0650 -0.3758
  712MPD2    C310579   4.510   0.723  13.590 -0.2385 -0.1782  0.4324
  712MPD2    C410580   4.602   0.631  13.561 -0.1493  0.2494  0.1527
  712MPD2    C510581   4.568   0.498  13.568  0.7158  0.2745 -0.4398
  712MPD2     H10582   4.304   0.738  13.667 -0.4173  0.1839 -0.8028
  712MPD2    H110583   4.698   0.676  13.539  0.2700 -1.4868 -1.5392
  712MPD2    H210584   4.424   0.349  13.605  1.8513  0.0545  2.2888
  712MPD2    H310585   4.645   0.432  13.531  0.3043 -0.3976 -0.1015
  712MPD2     N10586   4.533   0.860  13.559 -0.6642 -0.7067  0.0912
  712MPD2    H510587   4.611   0.881  13.497 -0.8145  0.1785  0.2060
  712MPD2    N110588   4.213   0.518  13.668 -0.4214 -0.2900 -0.2090
  712MPD2    H710589   4.154   0.598  13.690  0.4366 -0.2210  1.8642
  713TMC3    C110590   4.495   1.087  13.542 -0.2185 -0.7577 -0.2312
  713TMC3    C210591   4.619   1.132  13.590 -0.8153 -0.3735  0.1789
  713TMC3    C310592   4.643   1.264  13.619  0.0677  0.5616  0.9566
  713TMC3    C410593   4.405   1.189  13.536  0.3898  0.4441  0.1073
  713TMC3    C510594   4.429   1.320  13.574 -0.2119 -0.6536  0.1797
  713TMC3    C610595   4.551   1.366  13.609 -0.0482  0.0411  0.3194
  713TMC3     C10596   4.449   0.962  13.598 -0.1354  0.2381 -0.3789
  713TMC3     O10597   4.346   0.960  13.669 -0.4485 -0.1060  0.1412
  713TMC3     H10598   4.690   1.056  13.624 -0.0956  0.3649  0.3190
  713TMC3    H110599   4.303   1.161  13.511  1.2105 -2.9629  0.5442
  713TMC3    H210600   4.562   1.465  13.651  0.8010 -0.2235  0.7280
  713TMC3    C710601   4.341   1.344  13.681  0.6813  0.5055  0.0024
  713TMC3    C810602   0.044   1.315  13.631 -0.1562  0.4412 -0.0650
  713TMC3    O110603   4.387   1.308  13.790  0.5537  0.3317  0.0336
  713TMC3    O210604   0.052   1.439  13.626  0.2446  0.3065 -0.3764
  714MPD2     C10605   1.694   4.075   1.365  0.6304  0.6658  0.0452
  714MPD2    C110606   1.736   3.939   1.345  0.7414  0.0013  0.1970
  714MPD2    C210607   1.661   3.860   1.254 -0.2467  0.0997  0.3041
  714MPD2    C310608   1.563   3.924   1.173  0.3843 -0.2923 -0.1287
  714MPD2    C410609   1.536   4.059   1.184  0.4439  0.1778  0.2317
  714MPD2    C510610   1.596   4.137   1.279  0.7089 -0.0633  0.5029
  714MPD2     H10611   1.682   3.755   1.240 -1.6401 -0.2524  0.8060
  714MPD2    H110612   1.457   4.100   1.123 -0.3310 -1.8407 -0.1021
  714MPD2    H210613   1.755   4.137   1.429  1.9261 -0.9828  0.3993
  714MPD2    H310614   1.552   4.235   1.293 -0.6508 -1.0490  3.1868
  714MPD2     N10615   1.509   3.847   1.072  0.1551 -0.1300 -0.0673
  714MPD2    H510616   1.503   3.746   1.083 -1.9800 -0.0239 -0.3032
  714MPD2    N110617   1.855   3.891   1.399  0.6971  0.2547  0.0212
  714MPD2    H710618   1.913   3.951   1.456 -2.3114  2.1957  0.9771
  715TMC3    C110619   2.037   3.757   1.452  0.4350  0.5148  0.3441
  715TMC3    C210620   2.105   3.643   1.419 -0.3727  0.7739  0.5558
  715TMC3    C310621   2.239   3.638   1.447  0.4943 -0.0932 -0.0136
  715TMC3    C410622   2.100   3.869   1.514 -0.6583  0.7130 -0.2678
  715TMC3    C510623   2.233   3.851   1.542 -0.6676  0.0517 -0.7358
  715TMC3    C610624   2.305   3.737   1.504 -0.4221  0.7051 -0.1326
  715TMC3     C10625   1.905   3.765   1.386  0.7082 -0.0259 -0.0775
  715TMC3     O10626   1.860   3.661   1.336  0.3069  0.1362 -0.3966
  715TMC3     H10627   2.051   3.568   1.362 -1.7060  1.2128  1.2454
  715TMC3    H110628   2.056   3.965   1.540  2.3718  2.4811 -1.6633
  715TMC3    H210629   2.413   3.737   1.504 -0.4122  0.0104  2.0328
  715TMC3    C710630   2.314   3.958   1.595  0.1749  0.2757 -0.1523
  715TMC3    C810631   2.314   3.523   1.390  0.1933 -0.2292  0.5676
  715TMC3    O110632   2.433   3.937   1.602 -0.3813  0.9166  0.3349
  715TMC3    O210633   2.253   3.463   1.303 -0.5471  0.1863 -0.0658
  716MPD2     C10634   2.145   1.644   9.747 -0.2451 -0.7992  0.4784
  716MPD2    C110635   2.054   1.567   9.668  0.0710 -0.3474 -0.1014
  716MPD2    C210636   2.087   1.434   9.647 -0.7298  0.2934 -0.0695
  716MPD2    C310637   2.194   1.369   9.702 -0.8765 -0.8858 -0.1390
  716MPD2    C410638   2.284   1.440   9.786  0.2843  0.2646 -0.1335
  716MPD2    C510639   2.250   1.575   9.798  0.4390 -0.4522 -0.7813
  716MPD2     H10640   2.013   1.366   9.605  0.0087  1.0145 -2.5440
  716MPD2    H110641   2.373   1.390   9.822  1.5741  1.4638 -1.6769
  716MPD2    H210642   2.133   1.751   9.756  0.7588 -0.6433 -0.0282
  716MPD2    H310643   2.314   1.631   9.867 -0.7375  0.7405 -0.6451
  716MPD2     N10644   2.202   1.234   9.663  0.4231 -0.0372  0.3498
  716MPD2    H510645   2.130   1.207   9.597 -1.7834  3.5926  1.2612
  716MPD2    N110646   1.943   1.636   9.619 -0.1914  0.2263 -0.3318
  716MPD2    H710647   1.953   1.737   9.619  0.8806  0.1073  1.4423
  717TMC3    C110648   2.291   1.020   9.654  0.6807 -0.6143  0.4160
  717TMC3    C210649   2.164   0.968   9.658 -0.6716 -0.5121  0.6493
  717TMC3    C310650   2.143   0.861   9.574 -0.7131  0.0297 -0.0234
  717TMC3    C410651   2.395   0.955   9.586 -0.6364 -0.2752  0.3372
  717TMC3    C510652   2.364   0.843   9.517 -0.9302  0.7079 -0.7038
  717TMC3    C610653   2.238   0.794   9.506 -0.5486  0.0360  0.2399
  717TMC3     C10654   2.299   1.153   9.714  0.0324 -0.2799  0.3021
  717TMC3     O10655   2.400   1.178   9.775 -0.1814 -0.0462 -0.1769
  717TMC3     H10656   2.081   1.021   9.703 -1.6784  0.2461 -2.0916
  717TMC3    H110657   2.496   0.994   9.584 -1.0788  0.8318 -0.2067
  717TMC3    H210658   2.201   0.723   9.432 -0.9934  0.2482  0.2615
  717TMC3    C710659   2.472   0.792   9.437  0.2849  0.4835  0.5393
  717TMC3    C810660   2.004   0.822   9.548 -0.2026 -0.3939 -0.2754
  717TMC3    O110661   2.576   0.850   9.431  0.5289 -0.2916 -0.5001
  717TMC3    O210662   1.985   0.752   9.448  0.0074 -0.3793 -0.3307
  718MPD2     C10663   1.539   0.173  12.787 -0.6719 -0.1811  0.0363
  718MPD2    C110664   1.443   0.229  12.699 -0.0410  0.7099  0.0156
  718MPD2    C210665   1.320   0.261  12.751 -0.4352  0.9528 -0.9934
  718MPD2    C310666   1.280   0.242  12.883 -0.1943 -0.2978  0.2993
  718MPD2    C410667   1.373   0.182  12.967  0.0386  0.5002 -0.1879
  718MPD2    C510668   1.494   0.145  12.917  0.7783 -0.7507  0.1874
  718MPD2     H10669   1.250   0.303  12.680 -2.8031 -0.7347  0.3533
  718MPD2    H110670   1.350   0.178  13.073  1.8186 -1.2250  0.1352
  718MPD2    H210671   1.644   0.162  12.765 -0.6959 -0.7975  0.2207
  718MPD2    H310672   1.566   0.106  12.989 -2.4106 -2.4254  2.4403
  718MPD2     N10673   1.147   0.268  12.913  0.5008 -0.4216 -0.1081
  718MPD2    H510674   1.093   0.302  12.834  1.2583  1.8486  0.3731
  718MPD2    N110675   1.477   0.254  12.571 -0.2383  0.2456  0.1122
  718MPD2    H710676   1.576   0.254  12.546 -0.2270  1.6024  0.1170
  719TMC3    C110677   1.429   0.292  12.336 -0.6708 -0.0737  0.7217
  719TMC3    C210678   1.330   0.263  12.247 -0.3207 -0.1415  0.1555
  719TMC3    C310679   1.271   0.358  12.169  0.1112  0.2430 -0.1138
  719TMC3    C410680   1.478   0.422  12.339  0.5718 -0.1356  0.4304
  719TMC3    C510681   1.410   0.511  12.267  0.4853  0.5594 -0.7966
  719TMC3    C610682   1.307   0.489  12.179  0.6137  0.2151  0.5481
  719TMC3     C10683   1.386   0.259  12.469 -0.2189  0.1348  0.2218
  719TMC3     O10684   1.264   0.250  12.479 -0.1696 -0.0624 -0.6993
  719TMC3     H10685   1.303   0.159  12.257  1.1805 -0.5322  0.1852
  719TMC3    H110686   1.553   0.445  12.414  0.3392 -0.5751  0.8035
  719TMC3    H210687   1.259   0.573  12.129 -0.2768 -1.7478 -1.9046
  719TMC3    C710688   1.479   0.638  12.254 -1.1063  0.4103  0.4920
  719TMC3    C810689   1.128   0.343  12.159  0.3703 -0.6340  0.0040
  719TMC3    O110690   1.474   0.684  12.143 -0.0537  0.1279  0.7603
  719TMC3    O210691   1.075   0.365  12.054 -0.2386  0.5722  0.7439
  720MPD2     C10692   4.248   2.555  14.022 -0.2524  0.1295 -0.2595
  720MPD2    C110693   4.340   2.603  13.933  0.4235  0.0665  0.5975
  720MPD2    C210694   4.474   2.602  13.961  0.9693 -0.0398  0.5397
  720MPD2    C310695   4.520   2.558  14.086 -0.7079  0.7463 -0.6424
  720MPD2    C410696   4.423   2.521  14.179 -0.4031  0.4602 -1.3154
  720MPD2    C510697   4.295   2.510  14.146 -0.1118  0.1297  1.0394
  720MPD2     H10698   4.547   2.640  13.891 -0.9601  1.1642 -0.8044
  720MPD2    H110699   4.443   2.476  14.275 -0.6442  3.1841  0.0051
  720MPD2    H210700   4.141   2.552  14.005 -0.5839  0.1622  1.8061
  720MPD2    H310701   4.230   2.469  14.222  0.4966 -0.2339  1.3607
  720MPD2     N10702   4.657   2.565  14.119  0.5611  0.4310 -0.0297
  720MPD2    H510703   4.722   2.596  14.048  0.0283 -0.4827 -0.9220
  720MPD2    N110704   4.301   2.645  13.807 -0.2049 -0.0329  0.8256
  720MPD2    H710705   4.376   2.659  13.740 -0.2485  2.3775  1.2457
  721TMC3    C110706   0.114   2.514  14.253  0.0595  0.1191 -0.2763
  721TMC3    C210707   0.180   2.542  14.370  0.5646  0.1083  0.0244
  721TMC3    C310708   0.313   2.572  14.351  0.1446 -0.2638  0.0918
  721TMC3    C410709   0.180   2.484  14.138 -0.5220 -0.2225  0.3876
  721TMC3    C510710   0.314   2.512  14.128 -0.2590  0.4842  0.6720
  721TMC3    C610711   0.384   2.570  14.232 -0.4138 -1.0626  0.0964
  721TMC3     C10712   4.703   2.547  14.246  0.4795  0.2062 -0.3160
  721TMC3     O10713   4.642   2.533  14.355 -0.1542  0.6123 -0.0967
  721TMC3     H10714   0.134   2.580  14.461  0.0112  0.7673 -0.5244
  721TMC3    H110715   0.125   2.452  14.051 -0.4368 -0.7244  0.5185
  721TMC3    H210716   0.488   2.600  14.230 -0.8666  0.3884 -1.6101
  721TMC3    C710717   0.371   2.482  14.001 -0.5594 -0.3455  0.1662
  721TMC3    C810718   0.385   2.645  14.452  0.0689  0.6246 -0.4178
  721TMC3    O110719   0.309   2.408  13.926 -0.0168 -0.4265  0.4157
  721TMC3    O210720   0.473   2.716  14.405 -0.4931 -0.3834 -0.2735
  722MPD2     C10721   3.074   0.883  13.528  0.7351 -0.2048  0.4806
  722MPD2    C110722   3.111   0.973  13.428  0.4458 -0.1892 -0.3121
  722MPD2    C210723   3.060   0.956  13.302 -0.2743  1.5039  0.0828
  722MPD2    C310724   2.966   0.863  13.276 -0.3016  0.1526 -0.3103
  722MPD2    C410725   2.946   0.761  13.370 -0.6013 -0.0881 -0.2160
  722MPD2    C510726   3.005   0.774  13.491  0.6163 -0.0189 -0.4042
  722MPD2     H10727   3.082   1.029  13.224  0.9567  0.8104 -0.2156
  722MPD2    H110728   2.876   0.679  13.362 -0.6467 -0.2062  1.3804
  722MPD2    H210729   3.102   0.892  13.632  0.5689  1.8133  0.3416
  722MPD2    H310730   2.983   0.692  13.559 -2.2976  1.1571  0.0579
  722MPD2     N10731   2.901   0.863  13.153  0.5551  0.3950 -0.0869
  722MPD2    H510732   2.909   0.947  13.096  1.1912 -0.5221 -1.3468
  722MPD2    N110733   3.190   1.086  13.447  0.2505  0.4283  0.3955
  722MPD2    H710734   3.208   1.142  13.364  1.7668 -0.6418  0.0184
  723TMC3    C110735   2.745   0.792  12.992  0.8251 -0.1465  0.9121
  723TMC3    C210736   2.683   0.682  12.939  0.5313  0.0691 -0.2799
  723TMC3    C310737   2.590   0.713  12.849  0.1176  0.2485  0.2449
  723TMC3    C410738   2.727   0.922  12.946 -0.3213 -0.5473 -0.2262
  723TMC3    C510739   2.635   0.946  12.849  0.4184  0.7632 -0.5900
  723TMC3    C610740   2.565   0.838  12.804  0.0739  0.4810  0.8965
  723TMC3     C10741   2.833   0.759  13.100  0.3160 -0.4425  0.7617
  723TMC3     O10742   2.813   0.651  13.146  0.1993 -0.3411 -0.3220
  723TMC3     H10743   2.702   0.588  12.989  0.1717  0.3504  0.3874
  723TMC3    H110744   2.771   1.005  13.000  0.9904 -0.4757 -1.4099
  723TMC3    H210745   2.479   0.851  12.740 -2.0028 -1.3271  3.2961
  723TMC3    C710746   2.634   1.056  12.749 -0.1101  0.1607  0.5659
  723TMC3    C810747   2.587   0.623  12.737  0.0720 -0.0818 -0.1279
  723TMC3    O110748   2.610   1.027  12.630 -0.1185 -0.1744  0.7523
  723TMC3    O210749   2.596   0.504  12.763  0.2346 -0.0619 -0.6313
  724TMC3    C110750   3.424   3.645   9.918  0.1101  0.0301  0.3688
  724TMC3    C210751   3.371   3.673   9.795  0.3588 -0.7677 -0.6082
  724TMC3    C310752   3.436   3.758   9.717 -0.5262 -0.1813 -0.2536
  724TMC3    C410753   3.545   3.687   9.956  0.2522 -0.7146 -0.2121
  724TMC3    C510754   3.605   3.778   9.879 -0.0428  0.6868 -0.2763
  724TMC3    C610755   3.548   3.814   9.759 -0.8233 -0.4267  0.5313
  724TMC3     C10756   3.371   3.547  10.003 -0.2273 -0.9856 -0.4754
  724TMC3     O10757   3.453   3.476  10.056  0.2026  0.5412 -0.3026
  724TMC3     H10758   3.266   3.657   9.771  0.1376 -0.1583 -0.0382
  724TMC3    H110759   3.576   3.662  10.057 -1.2671 -1.5571  0.0482
  724TMC3    H210760   3.605   3.884   9.699  0.2043 -1.0521  0.7763
  724TMC3    C710761   3.721   3.844   9.927 -0.2946 -0.3368 -0.5346
  724TMC3    C810762   3.358   3.801   9.602  0.6143  0.0937  0.2889
  724TMC3    O110763   3.762   3.936   9.864  0.2768  0.0065 -0.4551
  724TMC3    O210764   3.278   3.725   9.548 -0.3310  0.0087 -0.1022
  725TMC3    C110765   0.415   2.916  13.144  0.3150  0.4119 -0.7625
  725TMC3    C210766   0.295   2.974  13.104 -0.0671  0.1519 -0.0639
  725TMC3    C310767   0.184   2.900  13.097  0.5789  0.1511 -0.1711
  725TMC3    C410768   0.422   2.790  13.186  1.3409  0.1035 -0.0116
  725TMC3    C510769   0.307   2.715  13.172  0.4478  0.5937 -0.0719
  725TMC3    C610770   0.192   2.769  13.125 -0.1008 -0.2056  0.0149
  725TMC3     C10771   0.528   3.004  13.150  0.0968  0.5457 -1.1365
  725TMC3     O10772   0.499   3.122  13.159 -0.1468 -0.3154  0.0130
  725TMC3     H10773   0.294   3.073  13.060 -0.2915  0.0092 -0.3840
  725TMC3    H110774   0.512   2.742  13.222  1.1755 -0.9145 -0.9428
  725TMC3    H210775   0.108   2.701  13.116 -0.8534  0.8792 -1.1231
  725TMC3    C710776   0.316   2.573  13.165  0.3067  0.6744  0.6992
  725TMC3    C810777   0.078   2.942  13.008  0.5437  0.4256 -0.0361
  725TMC3    O110778   0.231   2.516  13.093 -0.1854  0.2352  0.0138
  725TMC3    O210779   0.099   3.045  12.945 -0.0538  0.2626  0.1004
  726MPD2     C10780   3.181   3.764  10.553  0.0701 -0.3206  0.1643
  726MPD2    C110781   3.048   3.800  10.520  0.0361 -1.0060  0.6726
  726MPD2    C210782   2.942   3.761  10.602  0.9769 -0.1100  0.4521
  726MPD2    C310783   2.968   3.692  10.720  0.2292 -0.2473 -0.0321
  726MPD2    C410784   3.094   3.653  10.757 -0.0007  0.5269 -0.0627
  726MPD2    C510785   3.196   3.699  10.674  0.4328 -0.1576 -0.2946
  726MPD2     H10786   2.840   3.781  10.569  2.7310  2.2341 -3.5245
  726MPD2    H110787   3.112   3.590  10.843  0.8815  2.5242  1.2003
  726MPD2    H210788   3.266   3.791  10.492 -0.9104 -0.2445 -1.1667
  726MPD2    H310789   3.296   3.686  10.714 -0.2899 -1.0669  1.2157
  726MPD2     N10790   2.856   3.667  10.805  0.0467  0.1406  0.3805
  726MPD2    H510791   2.769   3.699  10.762  0.6158 -0.2263 -1.0620
  726MPD2    N110792   3.017   3.885  10.414 -0.0701  0.2876 -0.0390
  726MPD2    H710793   2.920   3.897  10.386  0.6608  0.7307 -2.3936
  727TMC3    C110794   3.045   4.059  10.258  0.5109 -0.1813 -0.0978
  727TMC3    C210795   3.097   4.189  10.255 -0.3017  0.9761  0.3293
  727TMC3    C310796   3.054   4.272  10.155 -0.3569 -0.8747  0.0317
  727TMC3    C410797   2.952   4.011  10.171  0.0954  0.9105 -0.4302
  727TMC3    C510798   2.925   4.099  10.067 -0.9311 -0.3010 -0.1824
  727TMC3    C610799   2.968   4.228  10.058  0.4336  0.2500 -0.2638
  727TMC3     C10800   3.109   3.969  10.353  0.8007  0.0901  0.2017
  727TMC3     O10801   3.208   4.011  10.409  0.4837  0.5930 -0.4152
  727TMC3     H10802   3.154   4.235  10.335 -0.8406  0.2376  1.1483
  727TMC3    H110803   2.916   3.909  10.178  0.4012  0.5783 -3.8714
  727TMC3    H210804   2.939   4.292   9.976 -2.8497  0.4680  1.0882
  727TMC3    C710805   2.850   4.041   9.950  0.0860 -0.2343 -0.1944
  727TMC3    C810806   3.080   4.413  10.179  0.4456  0.3213  0.8006
  727TMC3    O110807   2.856   3.915   9.941  0.1356 -0.0753  0.3971
  727TMC3    O210808   3.160   4.442  10.269  0.1287 -0.1832 -0.4529
  728TMC3    C110809   2.646   2.763  15.579 -0.2590  0.2758  0.3227
  728TMC3    C210810   2.764   2.824  15.567 -0.0762 -0.2613  0.8052
  728TMC3    C310811   2.829   2.838  15.446  0.1374  0.5396 -0.0220
  728TMC3    C410812   2.581   2.715  15.471 -0.2405  0.6716  0.2146
  728TMC3    C510813   2.648   2.720  15.348  0.0360 -0.2157 -0.2862
  728TMC3    C610814   2.770   2.785  15.333 -0.5724 -0.2154  0.0673
  728TMC3     C10815   2.578   2.785  15.705 -0.5373  0.7409 -0.2143
  728TMC3     O10816   2.606   2.887  15.768  0.0842  0.4014 -0.4677
  728TMC3     H10817   2.826   2.843  15.654  1.2736  0.1515 -0.2585
  728TMC3    H110818   2.479   2.679  15.477  0.5400 -2.0259 -2.4246
  728TMC3    H210819   2.806   2.797  15.232 -1.3848 -5.2576 -0.8101
  728TMC3    C710820   2.559   2.693  15.233  0.9150  0.1275  0.2461
  728TMC3    C810821   2.931   2.951  15.435 -0.0862  0.3167 -0.1663
  728TMC3    O110822   2.480   2.604  15.240 -0.8048 -0.1651  0.4634
  728TMC3    O210823   2.966   3.001  15.541  0.4164 -0.5877  0.2561
  729MPD2     C10824   4.621   3.635  16.817  0.1713 -0.1280 -0.7127
  729MPD2    C110825   4.648   3.766  16.812  0.7829  0.5048 -0.5369
  729MPD2    C210826   4.634   3.836  16.929  0.0360  0.0209  0.5700
  729MPD2    C310827   4.603   3.771  17.048 -0.5336  0.7521 -0.1296
  729MPD2    C410828   4.589   3.633  17.056  0.5524  0.9315  0.2692
  729MPD2    C510829   4.598   3.565  16.936 -0.4351  0.2968 -0.0836
  729MPD2     H10830   4.667   3.939  16.932 -2.0913  0.6892  1.1963
  729MPD2    H110831   4.550   3.576  17.139  1.3549 -1.8507 -1.2924
  729MPD2    H210832   4.640   3.587  16.722 -3.9262  1.5160 -2.3350
  729MPD2    H310833   4.593   3.457  16.928  0.7280  0.1412  1.3175
  729MPD2     N10834   4.594   3.836  17.174 -0.1016  0.1828 -0.3402
  729MPD2    H510835   4.585   3.771  17.251 -1.0199  2.0566  1.1498
  729MPD2    N110836   4.691   3.816  16.681  0.3252  0.2369  0.5252
  729MPD2    H710837   4.711   3.749  16.607 -1.6616  1.5352 -1.2167
  730TMC3    C110838   4.649   4.013  17.333 -0.5956 -0.1232  0.0433
  730TMC3    C210839   0.027   3.969  17.391 -0.0105  0.0789 -0.2039
  730TMC3    C310840   0.107   4.058  17.460 -0.7057 -0.0795  0.2758
  730TMC3    C410841   4.601   4.134  17.361  0.6440  0.0570  0.0907
  730TMC3    C510842   4.667   4.215  17.456  0.2380 -0.4551 -0.0362
  730TMC3    C610843   0.058   4.180  17.499  0.0869  0.0376 -0.3842
  730TMC3     C10844   4.610   3.972  17.196  0.0929 -0.1852 -0.0463
  730TMC3     O10845   4.621   4.061  17.116  0.0307 -0.4472  0.3387
  730TMC3     H10846   0.078   3.888  17.341  1.8379 -0.4555  2.5366
  730TMC3    H110847   4.508   4.168  17.316  0.4388  1.0158  1.2185
  730TMC3    H210848   0.116   4.243  17.566 -1.3198  1.0783 -0.1570
  730TMC3    C710849   4.645   4.359  17.425 -0.4982  0.4282  0.0178
  730TMC3    C810850   0.222   4.077  17.381 -0.2089  0.0705  0.5914
  730TMC3    O110851   4.613   4.366  17.305 -0.3856 -0.5764  0.1747
  730TMC3    O210852   0.285   3.979  17.340 -1.1729 -0.5353  0.4136
  731MPD2     C10853   3.844   2.135  12.491  0.1732  0.4421 -0.6123
  731MPD2    C110854   3.981   2.142  12.477 -0.2860 -0.1117 -0.6222
  731MPD2    C210855   4.059   2.149  12.592 -0.5418  0.3189 -0.2328
  731MPD2    C310856   3.999   2.138  12.717 -0.1141  0.5464  0.3337
  731MPD2    C410857   3.865   2.135  12.726  0.5264  0.3538  0.1326
  731MPD2    C510858   3.786   2.139  12.614 -0.4830 -0.3327 -0.4278
  731MPD2     H10859   4.167   2.143  12.586 -0.6436 -0.5938 -1.1251
  731MPD2    H110860   3.815   2.130  12.822 -0.9356 -1.0102 -0.7068
  731MPD2    H210861   3.773   2.122  12.410 -0.2662  2.2068 -0.5006
  731MPD2    H310862   3.684   2.116  12.641 -0.5775  0.4638 -0.1077
  731MPD2     N10863   4.083   2.101  12.826 -0.4791 -0.5771  0.2776
  731MPD2    H510864   4.179   2.080  12.800  0.3715  1.3338  1.9398
  731MPD2    N110865   4.039   2.156  12.346  0.6407 -0.2121 -0.2308
  731MPD2    H710866   3.970   2.165  12.272  0.0235 -1.7043  0.1522
  732TMC3    C110867   4.198   2.126  12.180  0.6289  0.1093  0.6340
  732TMC3    C210868   4.092   2.098  12.097  0.4618 -0.0829 -0.2244
  732TMC3    C310869   4.120   2.083  11.964 -0.3003  0.6107 -0.0249
  732TMC3    C410870   4.329   2.148  12.132 -0.7341 -0.0282  0.1761
  732TMC3    C510871   4.355   2.116  12.003 -0.1260 -0.0166  0.4937
  732TMC3    C610872   4.252   2.083  11.919  0.4829 -0.6265 -0.4563
  732TMC3     C10873   4.172   2.129  12.321 -1.3074 -0.3095  0.1119
  732TMC3     O10874   4.261   2.088  12.393 -0.5363 -0.2081 -0.5301
  732TMC3     H10875   3.993   2.068  12.128  0.0703  1.0583 -0.3506
  732TMC3    H110876   4.400   2.200  12.195 -0.3670  0.7675 -0.9161
  732TMC3    H210877   4.277   2.050  11.818  0.1119  0.3685 -0.8646
  732TMC3    C710878   4.493   2.114  11.956 -0.4429  0.0395  0.3822
  732TMC3    C810879   4.029   2.029  11.864 -0.2974 -0.5219 -0.4140
  732TMC3    O110880   4.503   2.130  11.835 -0.2947 -0.7795  0.5061
  732TMC3    O210881   4.064   2.000  11.748  0.0133 -0.3025 -0.2557
  733TMC3    C110882   0.730   0.308  13.099  0.1833  0.1622  0.1259
  733TMC3    C210883   0.860   0.292  13.126  0.8153  1.0579  0.0607
  733TMC3    C310884   0.937   0.250  13.010  0.1208 -0.7105  0.8220
  733TMC3    C410885   0.671   0.298  12.976 -0.4002 -0.9760  0.5949
  733TMC3    C510886   0.750   0.276  12.869 -0.1401  0.1088  0.8696
  733TMC3    C610887   0.880   0.246  12.887 -0.2325 -0.5316  0.0366
  733TMC3     C10888   0.646   0.331  13.213 -0.7370 -0.3449  0.6411
  733TMC3     O10889   0.676   0.285  13.322 -0.2449 -0.1581  0.1317
  733TMC3     H10890   0.903   0.298  13.225 -1.0605 -0.0175  0.9515
  733TMC3    H110891   0.566   0.308  12.953  0.3611  1.5053 -1.8259
  733TMC3    H210892   0.936   0.192  12.812 -1.1395  0.0074 -1.0138
  733TMC3    C710893   0.687   0.264  12.739  0.1384  0.3742  0.1193
  733TMC3    C810894   1.079   0.242  13.029  0.9953 -0.2197  0.6102
  733TMC3    O110895   0.570   0.228  12.723  0.1531 -0.2106 -0.5270
  733TMC3    O210896   1.128   0.217  13.139 -0.9931 -0.4246  0.3449
  734MPD2     C10897   3.097   2.762  12.153 -0.0225  0.2267  0.4854
  734MPD2    C110898   2.966   2.723  12.137 -0.3670 -0.2984 -0.2785
  734MPD2    C210899   2.917   2.733  12.009  0.0853 -0.1757 -0.4440
  734MPD2    C310900   3.003   2.777  11.906  0.0036  0.5494  0.7515
  734MPD2    C410901   3.129   2.820  11.929 -0.5523 -0.1564 -0.1475
  734MPD2    C510902   3.175   2.810  12.056 -0.3689  0.0826  0.4011
  734MPD2     H10903   2.819   2.692  11.984 -0.2943 -0.1546  1.0317
  734MPD2    H110904   3.195   2.861  11.853 -0.0319  0.6996  0.7601
  734MPD2    H210905   3.143   2.749  12.250  1.0746 -2.9693 -0.4649
  734MPD2    H310906   3.274   2.849  12.076  0.7508 -1.2485 -2.5874
  734MPD2     N10907   2.954   2.772  11.775 -0.4774  0.0345  0.4720
  734MPD2    H510908   2.857   2.742  11.767 -0.8402  1.5291 -0.8047
  734MPD2    N110909   2.899   2.655  12.240  0.1651  0.4019  0.2224
  734MPD2    H710910   2.942   2.659  12.332 -0.6514  0.8064  0.5816
  735TMC3    C110911   2.768   2.494  12.337 -0.6232 -0.7120  0.3753
  735TMC3    C210912   2.636   2.444  12.317 -0.3219 -0.3331  0.8685
  735TMC3    C310913   2.618   2.309  12.300 -0.5165  0.1707  0.5633
  735TMC3    C410914   2.876   2.407  12.344 -0.8268 -0.1348  0.0983
  735TMC3    C510915   2.850   2.270  12.338  0.5052 -0.1201 -0.1208
  735TMC3    C610916   2.724   2.219  12.313  0.2339 -0.6432  0.2113
  735TMC3     C10917   2.782   2.584  12.224 -0.3226  0.0802 -0.0742
  735TMC3     O10918   2.702   2.570  12.131 -0.3481 -0.7292 -0.0134
  735TMC3     H10919   2.559   2.513  12.286  1.1038  0.2640 -1.3340
  735TMC3    H110920   2.978   2.442  12.358 -1.4682  1.3852  0.9872
  735TMC3    H210921   2.697   2.120  12.277 -0.8670  0.5941 -2.3934
  735TMC3    C710922   2.964   2.192  12.294  0.2022  0.1667  0.4276
  735TMC3    C810923   2.516   2.268  12.204  0.0767 -0.0646 -0.1358
  735TMC3    O110924   3.067   2.248  12.261  0.1203  0.0628 -0.1465
  735TMC3    O210925   2.472   2.154  12.216  0.5984  0.5744  0.7236
  736MPD2     C10926   2.937   1.839  12.182 -0.5414 -0.1755 -0.2918
  736MPD2    C110927   2.983   1.969  12.191  0.1055  0.1251  0.6372
  736MPD2    C210928   3.083   2.008  12.098 -0.2268  0.2721 -0.3449
  736MPD2    C310929   3.123   1.924  12.002 -0.5792 -0.4622 -0.5397
  736MPD2    C410930   3.066   1.797  11.992  0.4844  0.0708 -0.6115
  736MPD2    C510931   2.977   1.755  12.080  0.8010  0.5951 -0.0462
  736MPD2     H10932   3.128   2.107  12.100 -1.1615  0.6688  1.4307
  736MPD2    H110933   3.097   1.735  11.909  1.1461  0.2488 -0.4947
  736MPD2    H210934   2.864   1.799  12.252 -1.3618 -0.1850 -1.1521
  736MPD2    H310935   2.914   1.667  12.087  0.9999  0.3530 -1.3804
  736MPD2     N10936   3.221   1.956  11.904  0.3528  0.5022 -0.1291
  736MPD2    H510937   3.229   1.895  11.823  2.1128  0.8436 -0.2106
  736MPD2    N110938   2.926   2.065  12.276 -0.1788  0.4889 -0.4820
  736MPD2    H710939   2.849   2.032  12.333  3.6726 -2.0068  3.2648
  737TMC3    C110940   3.384   2.073  11.782  0.1855 -0.1858  0.1398
  737TMC3    C210941   3.426   2.195  11.737  0.8430 -0.3587 -1.0956
  737TMC3    C310942   3.477   2.201  11.612  0.0791  0.5316 -0.2273
  737TMC3    C410943   3.424   1.954  11.723 -0.3557 -0.0780  0.3303
  737TMC3    C510944   3.498   1.970  11.604  0.0107  0.0991  0.1875
  737TMC3    C610945   3.517   2.089  11.540  0.5464 -0.1960 -0.9891
  737TMC3     C10946   3.302   2.076  11.894 -0.2768 -0.7107  0.0163
  737TMC3     O10947   3.304   2.169  11.976 -0.0798 -0.1306  0.4270
  737TMC3     H10948   3.386   2.289  11.775 -0.3163 -1.0924 -0.4916
  737TMC3    H110949   3.424   1.858  11.773 -2.2421  0.8031  2.0050
  737TMC3    H210950   3.573   2.105  11.449  1.1156 -0.6699 -0.7214
  737TMC3    C710951   3.554   1.851  11.546 -0.7058 -0.0987 -0.4565
  737TMC3    C810952   3.483   2.330  11.545  0.3032  0.8567 -0.7346
  737TMC3    O110953   3.504   1.740  11.564 -0.5183  0.1369 -0.0214
  737TMC3    O210954   3.487   2.428  11.621  0.2763  0.1693  0.0653
  738MPD2     C10955   3.212   1.490  15.022 -0.0916  0.0594 -0.2566
  738MPD2    C110956   3.242   1.458  15.149  0.4559 -0.4009  0.6089
  738MPD2    C210957   3.335   1.538  15.218 -0.1630 -0.2929 -0.3361
  738MPD2    C310958   3.391   1.647  15.154  1.0656 -0.5164 -0.6964
  738MPD2    C410959   3.356   1.686  15.028 -0.4488 -0.0758  0.0917
  738MPD2    C510960   3.270   1.603  14.959  0.1002  0.2523  0.5123
  738MPD2     H10961   3.357   1.514  15.322  2.4724 -0.7634 -1.0004
  738MPD2    H110962   3.414   1.765  14.981 -1.9816 -0.3771 -2.3043
  738MPD2    H210963   3.150   1.433  14.953  0.6353 -1.9087  0.7250
  738MPD2    H310964   3.240   1.630  14.859  0.4928  0.8644  0.5582
  738MPD2     N10965   3.495   1.724  15.203 -0.0006  0.7306  0.6605
  738MPD2    H510966   3.523   1.795  15.135 -0.8530 -0.0842 -0.5347
  738MPD2    N110967   3.183   1.352  15.219  0.1156 -0.1256 -0.2325
  738MPD2    H710968   3.236   1.324  15.301 -3.4269  1.0810  2.4482
  739TMC3    C110969   3.685   1.772  15.317  0.2552 -0.0999  0.4169
  739TMC3    C210970   3.751   1.766  15.192 -0.1237 -0.7809  0.1387
  739TMC3    C310971   3.867   1.833  15.189 -0.0729 -0.5634 -0.4049
  739TMC3    C410972   3.745   1.819  15.429 -0.4958  0.1178  0.1839
  739TMC3    C510973   3.872   1.861  15.424  0.1630  0.4675 -0.3604
  739TMC3    C610974   3.938   1.873  15.305  0.1511 -0.0955 -0.2263
  739TMC3     C10975   3.557   1.713  15.323  0.5102  0.0730  0.8780
  739TMC3     O10976   3.533   1.647  15.424  0.0351 -0.6808  0.2311
  739TMC3     H10977   3.703   1.724  15.105  2.0571 -0.3199 -1.2698
  739TMC3    H110978   3.691   1.800  15.521  1.0116 -0.0785  1.0383
  739TMC3    H210979   4.038   1.914  15.309  0.4730 -0.7289 -1.8287
  739TMC3    C710980   3.950   1.871  15.541 -0.3589 -0.6038 -0.1824
  739TMC3    C810981   3.936   1.797  15.068  0.9790  0.6329  0.6814
  739TMC3    O110982   3.898   1.896  15.648 -0.0374  0.4312  0.6194
  739TMC3    O210983   3.921   1.687  15.016 -0.9275  0.4116 -0.5110
  740TMC3    C110984   4.171   2.835  14.322 -0.5501  0.4177  0.2154
  740TMC3    C210985   4.242   2.794  14.429  0.6805  0.6430 -0.0478
  740TMC3    C310986   4.371   2.802  14.430 -0.4656 -0.4364  0.1593
  740TMC3    C410987   4.242   2.893  14.221 -0.1325 -0.7418 -0.3503
  740TMC3    C510988   4.377   2.880  14.218 -0.1129  0.8262 -0.2978
  740TMC3    C610989   4.450   2.838  14.325 -0.4698 -0.1498  0.6023
  740TMC3     C10990   4.032   2.870  14.331 -0.7485 -0.8735  0.1225
  740TMC3     O10991   3.987   2.956  14.253 -1.0396 -0.4250  0.2044
  740TMC3     H10992   4.197   2.803  14.527  0.7752  1.6147 -0.0981
  740TMC3    H110993   4.191   2.917  14.129 -1.2088  1.7092  0.8781
  740TMC3    H210994   4.557   2.822  14.328 -0.0420  2.7841  1.0103
  740TMC3    C710995   4.459   2.899  14.099  0.3481  0.6050 -0.0798
  740TMC3    C810996   4.435   2.799  14.560 -0.3961  0.5866  0.4735
  740TMC3    O110997   4.577   2.924  14.118 -0.1102  0.3816 -0.5314
  740TMC3    O210998   4.391   2.723  14.640  0.2424 -0.4163 -0.1317
  741TMC3    C110999   3.787   2.059  14.586 -0.0862  0.6258  0.2657
  741TMC3    C211000   3.687   1.990  14.516  0.0471 -0.9538  0.0264
  741TMC3    C311001   3.606   1.912  14.597  0.1851 -0.3386  0.3520
  741TMC3    C411002   3.799   2.059  14.721  0.2399  0.2376 -0.1385
  741TMC3    C511003   3.707   1.991  14.796 -0.2964  0.3881 -0.0840
  741TMC3    C611004   3.609   1.921  14.732  0.5468 -0.0868  0.3306
  741TMC3     C11005   3.901   2.107  14.501 -0.2802  0.4579 -0.8613
  741TMC3     O11006   3.899   2.067  14.388  0.1948  0.3209 -0.0804
  741TMC3     H11007   3.668   1.992  14.409  0.0776  1.3013  0.0707
  741TMC3    H111008   3.888   2.097  14.771  0.8365  0.4421 -1.3553
  741TMC3    H211009   3.518   1.891  14.784 -0.0417  1.0690 -0.0314
  741TMC3    C711010   3.680   2.007  14.938  0.2742 -0.2172 -0.9396
  741TMC3    C811011   3.506   1.821  14.534  0.3378 -0.1002 -0.3146
  741TMC3    O111012   3.608   1.927  14.997  0.3804 -0.6098  0.0564
  741TMC3    O211013   3.464   1.862  14.430  0.3191  0.2453 -0.2169
  742TMC3    C111014   3.931   0.537  15.394  0.1338 -0.2627 -0.0744
  742TMC3    C211015   3.838   0.511  15.298  0.1702 -0.8404  0.3604
  742TMC3    C311016   3.845   0.594  15.186 -0.3009 -0.0299 -0.2153
  742TMC3    C411017   4.025   0.644  15.386 -0.3815 -0.2876  0.1184
  742TMC3    C511018   4.042   0.698  15.259  0.8780 -0.7268  0.5505
  742TMC3    C611019   3.950   0.675  15.159  0.3587  0.0941  0.1493
  742TMC3     C11020   3.938   0.456  15.515 -0.2037  0.7742 -0.3685
  742TMC3     O11021   3.994   0.499  15.613 -0.1480 -0.1357 -0.3105
  742TMC3     H11022   3.753   0.447  15.317 -1.5036  1.0665 -0.6777
  742TMC3    H111023   4.077   0.673  15.476  0.4583 -0.1378 -0.4189
  742TMC3    H211024   3.954   0.742  15.074 -3.2406  0.9033  0.6294
  742TMC3    C711025   4.171   0.758  15.216  0.0621  0.0654  0.1127
  742TMC3    C811026   3.739   0.576  15.089 -0.1405  0.7817  0.1538
  742TMC3    O111027   4.197   0.745  15.099 -0.3059  0.5224 -0.9118
  742TMC3    O211028   3.676   0.469  15.092  0.4788 -0.1219 -0.0010
  743MPD2     C11029   1.215   2.856   2.000 -0.3552  0.0954  0.4420
  743MPD2    C111030   1.294   2.831   1.891  0.1041 -0.8395 -0.2398
  743MPD2    C211031   1.428   2.837   1.906 -0.6089 -0.4557 -0.4164
  743MPD2    C311032   1.485   2.854   2.033  1.0490 -0.4240  0.2589
  743MPD2    C411033   1.402   2.880   2.141 -0.0855 -0.2332 -0.5152
  743MPD2    C511034   1.268   2.885   2.121 -0.1174 -0.3992 -0.4098
  743MPD2     H11035   1.498   2.822   1.826  1.1109  0.6472  0.8868
  743MPD2    H111036   1.437   2.887   2.243 -0.5146  1.7526 -0.5128
  743MPD2    H211037   1.107   2.868   1.989 -0.5030 -1.1681  0.5068
  743MPD2    H311038   1.210   2.900   2.212 -0.6405 -0.7436 -0.6907
  743MPD2     N11039   1.621   2.820   2.058 -0.1533 -0.3605  0.2035
  743MPD2    H511040   1.679   2.789   1.980  1.1424 -1.7329  1.7057
  743MPD2    N111041   1.224   2.800   1.771  0.2984  0.9135  0.0264
  743MPD2    H711042   1.124   2.791   1.786  0.3226 -1.9542 -1.4849
  744TMC3    C111043   1.198   2.712   1.546 -0.3045  0.2914 -0.5353
  744TMC3    C211044   1.072   2.675   1.577 -0.4173  0.7196 -0.5569
  744TMC3    C311045   1.006   2.577   1.502 -0.6753  0.4580  0.4362
  744TMC3    C411046   1.258   2.660   1.431  0.6555 -0.9685  0.3003
  744TMC3    C511047   1.194   2.565   1.360  0.1750 -0.4044 -0.5738
  744TMC3    C611048   1.071   2.519   1.393  0.0794 -0.3043 -0.4139
  744TMC3     C11049   1.286   2.764   1.657  0.4129  0.2423 -0.0588
  744TMC3     O11050   1.406   2.742   1.644  0.6782 -0.0519 -0.7190
  744TMC3     H11051   1.019   2.718   1.662 -1.2557  0.0619 -0.7452
  744TMC3    H111052   1.359   2.696   1.412  0.1548  0.9134  1.2530
  744TMC3    H211053   1.026   2.434   1.343  2.8782 -1.5262 -0.8313
  744TMC3    C711054   1.264   2.503   1.253  0.2624  0.4977 -0.2616
  744TMC3    C811055   0.867   2.548   1.527 -0.2154 -0.3984  0.4675
  744TMC3    O111056   1.387   2.511   1.257 -0.4834 -0.6517 -0.0299
  744TMC3    O211057   0.817   2.495   1.430  0.2228  1.0514 -0.5405
  745TMC3    C111058   4.015   0.402  13.690 -0.4302  0.3603 -0.0653
  745TMC3    C211059   3.964   0.453  13.809  0.5834  0.1318  0.0215
  745TMC3    C311060   3.842   0.516  13.801 -0.0094 -0.6242 -0.4675
  745TMC3    C411061   3.962   0.438  13.570  0.4562 -0.4250 -0.3631
  745TMC3    C511062   3.842   0.503  13.567 -0.2029 -0.4432 -0.5698
  745TMC3    C611063   3.780   0.545  13.679 -0.5765 -0.9241 -0.3364
  745TMC3     C11064   4.158   0.397  13.681  0.6406  0.2347 -0.3962
  745TMC3     O11065   4.211   0.290  13.653 -0.2011 -0.2927  0.4094
  745TMC3     H11066   4.005   0.415  13.902 -1.1977  1.4267  1.3177
  745TMC3    H111067   4.004   0.405  13.476 -1.0499 -2.9763 -0.1252
  745TMC3    H211068   3.692   0.606  13.668 -1.4191 -2.2240 -0.8803
  745TMC3    C711069   3.836   0.608  13.461  0.0211 -1.1162  0.0135
  745TMC3    C811070   3.803   0.588  13.920 -0.8673  0.6201 -0.8140
  745TMC3    O111071   3.725   0.643  13.426 -1.0994 -0.5003 -0.7022
  745TMC3    O211072   3.684   0.628  13.926 -0.2736 -0.5642 -0.3579
  746TMC3    C111073   1.544   1.608  10.721 -0.0303  0.3479  0.8095
  746TMC3    C211074   1.592   1.580  10.597  0.4414 -0.0725  0.3269
  746TMC3    C311075   1.522   1.505  10.503  0.2301 -0.5253  0.4240
  746TMC3    C411076   1.408   1.582  10.745  0.7076  0.4331 -0.6309
  746TMC3    C511077   1.337   1.510  10.653 -0.4526 -0.3892  0.1653
  746TMC3    C611078   1.383   1.478  10.526 -0.1682 -0.3803 -0.1054
  746TMC3     C11079   1.608   1.694  10.819 -0.1216  0.7203  0.2052
  746TMC3     O11080   1.539   1.720  10.918  0.3156 -0.3417  0.8597
  746TMC3     H11081   1.698   1.599  10.578  0.2498  2.3261  1.6553
  746TMC3    H111082   1.358   1.617  10.834  2.2020  0.2052  0.3039
  746TMC3    H211083   1.317   1.415  10.468  0.4459 -1.7964  0.7187
  746TMC3    C711084   1.199   1.497  10.683  0.2751 -0.6494  0.5973
  746TMC3    C811085   1.548   1.547  10.373  0.1746  0.7285 -0.1146
  746TMC3    O111086   1.141   1.389  10.657  0.5132  0.1219  0.0305
  746TMC3    O211087   1.456   1.604  10.315 -0.0471 -0.2853  0.9926
  747TMC3    C111088   4.370   2.019  10.910 -0.2092  0.1853 -0.2400
  747TMC3    C211089   4.277   1.923  10.940 -0.1146 -0.8209  0.4051
  747TMC3    C311090   4.236   1.912  11.073  0.5461  0.0222  0.0200
  747TMC3    C411091   4.423   2.107  11.005  0.4635  0.5498  0.4810
  747TMC3    C511092   4.381   2.089  11.134 -0.0692  0.2074  0.2035
  747TMC3    C611093   4.275   2.002  11.170  0.4583  0.6123  0.0673
  747TMC3     C11094   4.422   2.031  10.776  1.1511 -0.2311 -0.5018
  747TMC3     O11095   4.527   2.091  10.754  0.0095  0.2704  0.1658
  747TMC3     H11096   4.246   1.846  10.870 -1.8203 -0.4383  0.7329
  747TMC3    H111097   4.515   2.158  10.978  0.6376 -0.1804 -0.3348
  747TMC3    H211098   4.239   1.991  11.272  2.5181 -0.5912  0.6713
  747TMC3    C711099   4.445   2.166  11.240 -0.0038 -0.2010 -0.0056
  747TMC3    C811100   4.126   1.824  11.092 -0.3468  0.4833 -0.5675
  747TMC3    O111101   4.430   2.126  11.355  0.1356 -0.3250 -1.0603
  747TMC3    O211102   4.115   1.735  11.007 -0.4422 -0.0001 -0.2122
  748MPD2     C11103   0.729   3.078   1.985 -0.1036 -0.0840 -0.8854
  748MPD2    C111104   0.785   3.030   1.870  0.5614  0.4366 -0.4018
  748MPD2    C211105   0.913   3.071   1.845  0.2949 -0.6238  0.3245
  748MPD2    C311106   0.993   3.128   1.944  0.0901  0.3684 -0.2731
  748MPD2    C411107   0.939   3.163   2.064 -0.6559 -0.3278  0.5200
  748MPD2    C511108   0.806   3.135   2.076 -0.2473 -0.2244 -0.2857
  748MPD2     H11109   0.956   3.051   1.747  1.6693  1.9249  0.4169
  748MPD2    H111110   0.984   3.206   2.152  0.2865  0.1245 -0.1757
  748MPD2    H211111   0.626   3.056   2.010  0.9257 -2.9440  0.8330
  748MPD2    H311112   0.762   3.188   2.160 -0.9243  0.3445 -1.0017
  748MPD2     N11113   1.124   3.150   1.913 -0.5236  0.0048 -0.3680
  748MPD2    H511114   1.150   3.109   1.824 -0.7526  1.6285 -1.1805
  748MPD2    N111115   0.695   2.975   1.776  0.6024  0.3887  0.8242
  748MPD2    H711116   0.599   2.973   1.809  0.9662 -1.7987  1.8116
  749TMC3    C111117   1.352   3.225   1.929  0.2801 -0.4491 -0.1653
  749TMC3    C211118   1.449   3.252   2.019 -0.7192  0.7293 -0.2698
  749TMC3    C311119   1.571   3.280   1.971  0.7827  0.0359  0.3884
  749TMC3    C411120   1.361   3.260   1.791  0.7545 -0.1997 -0.0438
  749TMC3    C511121   1.485   3.302   1.750 -0.3532  0.3206  0.8812
  749TMC3    C611122   1.592   3.310   1.841 -0.1869 -0.3139 -0.0019
  749TMC3     C11123   1.221   3.202   1.995 -0.0505 -0.4089  0.0880
  749TMC3     O11124   1.207   3.238   2.111 -0.0218  0.4067 -0.0500
  749TMC3     H11125   1.444   3.209   2.119  1.2670 -0.6082 -0.7433
  749TMC3    H111126   1.278   3.254   1.721 -0.2284  0.2245  1.0947
  749TMC3    H211127   1.692   3.324   1.801  0.0179 -2.7527 -0.3692
  749TMC3    C711128   1.511   3.288   1.604 -0.0248 -0.8409 -0.4455
  749TMC3    C811129   1.676   3.219   2.049 -0.2675 -0.3467  0.8301
  749TMC3    O111130   1.600   3.347   1.548  0.0627  0.6392 -0.3089
  749TMC3    O211131   1.665   3.240   2.166 -0.3974 -0.1615 -0.1384
  750MPD2     C11132   1.947   3.986  11.296  0.1863 -0.4186  0.4114
  750MPD2    C111133   1.840   3.914  11.310  0.0129  0.0380 -0.0023
  750MPD2    C211134   1.809   3.819  11.220 -0.5050  0.0745 -0.4146
  750MPD2    C311135   1.897   3.792  11.114  0.2777  0.3258  0.1022
  750MPD2    C411136   2.008   3.865  11.093 -0.2994  0.0214 -0.1762
  750MPD2    C511137   2.033   3.956  11.187  0.3901 -0.0859 -0.0060
  750MPD2     H11138   1.713   3.769  11.224 -0.1816 -0.3454  1.9869
  750MPD2    H111139   2.082   3.838  11.019  1.4244  0.0238  1.5351
  750MPD2    H211140   1.993   4.061  11.358 -2.6693  1.1245  0.6504
  750MPD2    H311141   2.127   4.007  11.170 -0.9417  2.1788 -0.5114
  750MPD2     N11142   1.850   3.699  11.014 -0.2811 -1.3098 -0.5793
  750MPD2    H511143   1.893   3.705  10.923 -0.4641  0.4378 -0.5464
  750MPD2    N111144   1.755   3.954  11.420  0.2941 -0.6299  0.3091
  750MPD2    H711145   1.778   4.034  11.479 -1.2231  0.5842 -0.7655
  751TMC3    C111146   1.735   3.510  10.930 -0.0914  0.3867 -0.0974
  751TMC3    C211147   1.682   3.388  10.951 -0.2412 -0.4629  0.1407
  751TMC3    C311148   1.652   3.303  10.841 -0.0744 -0.5169  0.5766
  751TMC3    C411149   1.769   3.553  10.806 -0.7383 -0.7117 -1.0389
  751TMC3    C511150   1.756   3.461  10.698  0.7852 -0.0031 -0.3371
  751TMC3    C611151   1.691   3.341  10.714  0.2582 -1.0142 -0.1301
  751TMC3     C11152   1.759   3.600  11.043 -0.1694 -0.3062  0.3504
  751TMC3     O11153   1.709   3.556  11.148  0.5716 -0.2910  0.0820
  751TMC3     H11154   1.660   3.349  11.049 -0.6093 -0.8877 -0.1106
  751TMC3    H111155   1.822   3.644  10.782  1.6607 -1.4616  1.3818
  751TMC3    H211156   1.681   3.276  10.628 -1.2074  2.4265 -2.5750
  751TMC3    C711157   1.825   3.501  10.581 -0.4312 -0.2195 -0.5673
  751TMC3    C811158   1.532   3.227  10.844  0.0909  0.1290 -0.2300
  751TMC3    O111159   1.847   3.615  10.549  0.9285 -0.0287  0.2055
  751TMC3    O211160   1.507   3.155  10.747 -0.3437  0.7943  0.1762
  752TMC3    C111161   0.524   3.340  17.068 -0.0495 -0.1992  0.7913
  752TMC3    C211162   0.541   3.206  17.101  0.0191 -0.2353  0.2870
  752TMC3    C311163   0.522   3.174  17.229 -0.1801  0.4490 -0.4478
  752TMC3    C411164   0.476   3.432  17.156 -0.0060  0.7494 -0.3347
  752TMC3    C511165   0.462   3.390  17.282  0.4199  0.5046 -0.2339
  752TMC3    C611166   0.474   3.260  17.326  0.0374 -0.1347 -0.1742
  752TMC3     C11167   0.568   3.373  16.932  0.6040  0.9965 -0.3216
  752TMC3     O11168   0.601   3.279  16.860  0.1210 -0.3423 -0.0963
  752TMC3     H11169   0.589   3.141  17.030 -0.1615  1.6214 -1.5369
  752TMC3    H111170   0.450   3.533  17.127  1.2669  1.2541  0.2827
  752TMC3    H211171   0.456   3.231  17.429 -0.6208  3.5415  0.7309
  752TMC3    C711172   0.424   3.500  17.378  0.1251  0.5252 -0.2026
  752TMC3    C811173   0.574   3.047  17.276  0.4067 -1.1804  0.8673
  752TMC3    O111174   0.444   3.617  17.345  0.6299  0.2620 -0.1374
  752TMC3    O211175   0.600   3.051  17.398 -0.5985 -0.7561 -0.0626
  753TMC3    C111176   2.634   0.238  13.369  0.6219 -0.0274 -0.2779
  753TMC3    C211177   2.594   0.183  13.490 -0.6789  0.7879 -0.0728
  753TMC3    C311178   2.614   0.048  13.499  0.5540 -0.6174  0.9377
  753TMC3    C411179   2.673   0.158  13.267 -0.1950  0.2733 -0.0638
  753TMC3    C511180   2.676   0.023  13.280  0.6337 -0.0071  0.4233
  753TMC3    C611181   2.644   4.701  13.397  0.0519  0.6679  0.6562
  753TMC3     C11182   2.600   0.374  13.336 -0.2100 -0.5180  0.0669
  753TMC3     O11183   2.597   0.402  13.213  0.5360  0.3387 -0.2385
  753TMC3     H11184   2.558   0.248  13.568  0.6268  1.8098 -0.3265
  753TMC3    H111185   2.712   0.192  13.171  0.0514 -0.1658 -0.1218
  753TMC3    H211186   2.642   4.594  13.412  0.3134  0.7444  1.2314
  753TMC3    C711187   2.662   4.679  13.160 -0.0149 -0.2638 -0.1077
  753TMC3    C811188   2.610   4.726  13.633 -0.1550  0.7373 -0.3861
  753TMC3    O111189   2.666   0.001  13.058  0.8326  0.6416 -0.7258
  753TMC3    O211190   2.591   4.603  13.646 -0.1164 -0.0327 -0.5305
  754MPD2     C11191   1.593   3.940  12.986 -0.4202 -0.0479 -0.1475
  754MPD2    C111192   1.570   3.824  13.060 -0.1337 -0.0047 -0.4602
  754MPD2    C211193   1.448   3.788  13.106 -0.3656  0.5996 -0.0421
  754MPD2    C311194   1.340   3.867  13.080 -0.4260  0.3192  0.0077
  754MPD2    C411195   1.356   3.974  12.997 -0.2151 -0.2429  0.1447
  754MPD2    C511196   1.483   4.007  12.948 -0.4462 -0.3424 -0.2984
  754MPD2     H11197   1.444   3.697  13.164 -0.1840  0.9570  0.5308
  754MPD2    H111198   1.269   4.031  12.966 -0.7030 -1.2292 -0.2903
  754MPD2    H211199   1.694   3.971  12.962 -0.2792 -0.3961 -0.0094
  754MPD2    H311200   1.499   4.094  12.885 -1.0184  0.8345  1.1920
  754MPD2     N11201   1.211   3.843  13.133  0.0642 -1.0043  0.1205
  754MPD2    H511202   1.132   3.887  13.086  0.7516  1.4271  1.2251
  754MPD2    N111203   1.670   3.727  13.092  1.3483 -0.3181 -0.0026
  754MPD2    H711204   1.646   3.650  13.154  0.9654 -0.0286  0.2071
  755MPD2     C11205   0.511   4.355  13.225 -0.1138  0.0362  0.1501
  755MPD2    C111206   0.452   4.229  13.230  0.2699 -0.3932 -0.0787
  755MPD2    C211207   0.531   4.118  13.237  0.0642  0.2135  0.6519
  755MPD2    C311208   0.670   4.130  13.247  0.0288  0.0412 -0.6419
  755MPD2    C411209   0.727   4.257  13.232  0.4613  0.0523  0.5835
  755MPD2    C511210   0.645   4.366  13.222  0.4717 -0.7171  0.7633
  755MPD2     H11211   0.475   4.026  13.243 -2.2326  1.4945 -1.1829
  755MPD2    H111212   0.834   4.270  13.246  1.3229 -3.3432 -2.8002
  755MPD2    H211213   0.445   4.440  13.239  1.9537  1.7295 -0.3674
  755MPD2    H311214   0.693   4.463  13.232 -0.7475 -0.0310 -0.0361
  755MPD2     N11215   0.758   4.022  13.269 -0.1948  0.5133  0.3676
  755MPD2    H511216   0.858   4.037  13.263 -0.0852 -0.4293 -0.3116
  755MPD2    N111217   0.320   4.208  13.241 -0.2942 -0.0898  0.4790
  755MPD2    H711218   0.296   4.115  13.275  0.3381 -0.4266  0.0060
  756MPD2     C11219   2.000   4.545   9.860 -0.1643  0.4029 -0.0519
  756MPD2    C111220   1.890   4.496   9.913 -0.1972 -0.1332 -0.0104
  756MPD2    C211221   1.784   4.465   9.823 -0.0779 -0.2808 -0.8961
  756MPD2    C311222   1.788   4.500   9.692 -0.3036  0.1297 -0.4210
  756MPD2    C411223   1.910   4.534   9.640 -0.1254 -0.5459 -0.2936
  756MPD2    C511224   2.013   4.555   9.726 -0.0921  0.1324 -0.4395
  756MPD2     H11225   1.690   4.425   9.860  1.2947 -2.0399  0.6494
  756MPD2    H111226   1.927   4.565   9.538  0.9588 -1.7533 -0.4762
  756MPD2    H211227   2.082   4.559   9.930  0.7373 -1.1675 -0.7933
  756MPD2    H311228   2.107   4.591   9.685  0.1923 -1.3696 -1.1196
  756MPD2     N11229   1.674   4.480   9.617  0.1553 -0.3664 -0.2096
  756MPD2    H511230   1.586   4.463   9.665  0.3651 -0.0543  0.2776
  756MPD2    N111231   1.857   4.481  10.049  0.4010 -0.0729  0.0764
  756MPD2    H711232   1.769   4.436  10.073  0.1755 -0.3235 -1.2250
  757MPD2     C11233   1.002   3.992   9.818  0.1007 -0.2953  0.1324
  757MPD2    C111234   1.131   4.019   9.864 -0.7511 -0.1139 -0.2202
  757MPD2    C211235   1.208   4.114   9.794 -0.4230 -0.2452  0.3485
  757MPD2    C311236   1.160   4.167   9.671 -0.3650  0.0283 -0.6285
  757MPD2    C411237   1.032   4.139   9.631 -0.2730  0.5281  0.7391
  757MPD2    C511238   0.953   4.058   9.707 -0.3811  0.3437  0.5930
  757MPD2     H11239   1.304   4.146   9.832 -0.3441  2.1993 -1.8916
  757MPD2    H111240   0.989   4.185   9.543 -2.0030  0.0369  1.3318
  757MPD2    H211241   0.938   3.923   9.871 -1.1884  0.7524 -0.0586
  757MPD2    H311242   0.853   4.037   9.672  0.0198 -1.9054  0.7847
  757MPD2     N11243   1.241   4.251   9.600  0.6812  0.5954 -0.4039
  757MPD2    H511244   1.335   4.256   9.637  0.5907  1.9655 -0.3706
  757MPD2    N111245   1.164   3.944   9.980  0.4358  0.0627  0.3343
  757MPD2    H711246   1.114   3.857   9.998  0.6105 -0.8006 -3.5305
  758MPD2     C11247   1.425   3.492  15.709  0.1860 -0.3574  0.1038
  758MPD2    C111248   1.445   3.411  15.817 -0.5169 -0.3140  0.2351
  758MPD2    C211249   1.469   3.466  15.941  0.4927 -0.2285 -0.2608
  758MPD2    C311250   1.469   3.602  15.956  0.8096  0.1136  0.1509
  758MPD2    C411251   1.429   3.676  15.850 -1.3590 -0.4875  0.9768
  758MPD2    C511252   1.406   3.628  15.727  0.6673 -0.3080  0.1453
  758MPD2     H11253   1.485   3.414  16.034 -2.2196  0.9439  0.8551
  758MPD2    H111254   1.421   3.783  15.863  1.4057 -0.1668  0.0708
  758MPD2    H211255   1.414   3.453  15.608 -1.1149 -2.1201  0.9310
  758MPD2    H311256   1.383   3.695  15.645  0.0415  0.8156  1.2283
  758MPD2     N11257   1.490   3.655  16.083  0.2809  0.4072 -0.8709
  758MPD2    H511258   1.441   3.742  16.104 -1.8210 -0.9896  0.0002
  758MPD2    N111259   1.443   3.277  15.802 -0.1695  1.1405 -0.2808
  758MPD2    H711260   1.443   3.252  15.704  2.2408 -3.4940  0.8755
  759MPD2     C11261   0.291   1.975  10.085  0.6359 -0.7858 -0.2466
  759MPD2    C111262   0.302   1.839  10.074 -0.6455  0.0808  0.0534
  759MPD2    C211263   0.415   1.781  10.013  0.6172  0.3133  0.0850
  759MPD2    C311264   0.519   1.865   9.972 -0.4454  0.9219 -0.1538
  759MPD2    C411265   0.509   2.004   9.988  0.1553 -0.2159 -0.1346
  759MPD2    C511266   0.394   2.057  10.040 -0.1771  0.5630 -0.3432
  759MPD2     H11267   0.424   1.676   9.990  1.0982  0.2727  0.4421
  759MPD2    H111268   0.590   2.072   9.962  1.0709 -0.4671  2.0380
  759MPD2    H211269   0.204   2.019  10.131  0.1616 -2.7589  0.7107
  759MPD2    H311270   0.376   2.163  10.054 -0.8246  0.5288 -0.9117
  759MPD2     N11271   0.626   1.798   9.916  0.5520  0.2446 -0.1031
  759MPD2    H511272   0.620   1.697   9.906 -1.3707  0.2187  1.3631
  759MPD2    N111273   0.208   1.754  10.116 -0.2142  0.4202  0.0974
  759MPD2    H711274   0.225   1.655  10.099 -0.5109  0.3169  0.4049
  760MPD2     C11275   0.084   3.736  11.937  0.2108 -0.2348 -0.0036
  760MPD2    C111276   0.037   3.717  12.068 -0.3471 -0.4321 -0.4183
  760MPD2    C211277   0.033   3.581  12.116  0.0641 -0.1741 -0.0669
  760MPD2    C311278   0.050   3.469  12.028 -0.2383 -0.3496 -0.3014
  760MPD2    C411279   0.092   3.496  11.895  0.2145 -0.3682  0.8234
  760MPD2    C511280   0.100   3.627  11.855  0.0486  0.2949  0.0220
  760MPD2     H11281   0.003   3.569  12.219 -0.4325  0.7600 -0.1015
  760MPD2    H111282   0.115   3.422  11.819 -1.0367 -0.2897  0.3744
  760MPD2    H211283   0.089   3.835  11.891 -1.5738 -0.2253 -0.1638
  760MPD2    H311284   0.138   3.644  11.755 -0.1184 -1.6689 -0.3734
  760MPD2     N11285   0.048   3.334  12.070 -1.0267 -0.2178  0.1501
  760MPD2    H511286   0.077   3.263  12.004  0.1253 -0.4144  0.8567
  760MPD2    N111287   0.009   3.837  12.145  0.4702 -0.1124  0.0116
  760MPD2    H711288   0.031   3.925  12.100  0.3380  0.0706  0.3053
  761MPD2     C11289   1.055   3.129  11.014  0.2629  0.1714  1.1092
  761MPD2    C111290   1.145   3.048  10.941 -0.3228  1.1800  0.1494
  761MPD2    C211291   1.266   3.102  10.913 -0.2327  0.2632  0.4814
  761MPD2    C311292   1.310   3.230  10.958 -0.0702  1.1055 -0.2912
  761MPD2    C411293   1.216   3.309  11.025 -0.0663 -0.1542  0.1985
  761MPD2    C511294   1.085   3.255  11.056  0.1604 -0.2857  0.2173
  761MPD2     H11295   1.338   3.046  10.854 -0.4121 -0.3057  0.8039
  761MPD2    H111296   1.238   3.409  11.060 -0.2285 -0.6690  1.7390
  761MPD2    H211297   0.958   3.084  11.033 -0.1753  0.7392  0.2167
  761MPD2    H311298   1.025   3.308  11.130 -2.3020 -0.8234 -1.3838
  761MPD2     N11299   1.439   3.286  10.928  0.1276  0.1765 -0.3863
  761MPD2    H511300   1.449   3.380  10.965 -1.0185  0.0244  0.3046
  761MPD2    N111301   1.100   2.918  10.892  0.2399 -0.4239 -0.1383
  761MPD2    H711302   1.009   2.887  10.926 -0.2287 -0.0738 -1.0980
  762MPD2     C11303   1.077   2.062  10.497  0.4020  0.3175  0.4297
  762MPD2    C111304   1.133   2.185  10.487  0.2739  0.4137 -0.0372
  762MPD2    C211305   1.223   2.214  10.384 -0.2326  0.0290 -0.1256
  762MPD2    C311306   1.268   2.115  10.304 -0.1450 -0.2661  0.2348
  762MPD2    C411307   1.224   1.985  10.324  0.4636 -0.2908  0.0990
  762MPD2    C511308   1.111   1.967  10.403  0.3262 -0.0055 -0.2923
  762MPD2     H11309   1.255   2.316  10.365 -0.2497 -0.0429 -0.5473
  762MPD2    H111310   1.259   1.902  10.264  2.1586  0.1512  0.4515
  762MPD2    H211311   1.016   2.035  10.583  0.1098 -1.9038 -0.4723
  762MPD2    H311312   1.070   1.868  10.418 -2.7008  1.1282 -0.9897
  762MPD2     N11313   1.362   2.141  10.214  0.1349  0.1782 -0.0685
  762MPD2    H511314   1.389   2.237  10.199 -0.2295  0.0471 -1.5843
  762MPD2    N111315   1.104   2.285  10.586  0.0733 -0.0786 -0.5086
  762MPD2    H711316   1.044   2.251  10.661  1.8739 -2.1905 -0.0273
  763MPD2     C11317   3.200   3.062  16.438  0.6433  0.5165  0.1056
  763MPD2    C111318   3.225   3.160  16.337  0.1119  0.4719 -0.0146
  763MPD2    C211319   3.253   3.291  16.387 -0.0861  0.6245 -0.2167
  763MPD2    C311320   3.252   3.324  16.518 -0.5774 -0.0466  0.2495
  763MPD2    C411321   3.201   3.229  16.615 -0.3173  0.0669 -0.7243
  763MPD2    C511322   3.188   3.099  16.570  0.3947 -0.9579 -0.6816
  763MPD2     H11323   3.280   3.367  16.315 -0.4920  1.6366  0.7079
  763MPD2    H111324   3.205   3.254  16.720 -0.0160 -0.9937 -0.4852
  763MPD2    H211325   3.198   2.957  16.408  0.7218  0.3796  0.5797
  763MPD2    H311326   3.164   3.016  16.635 -2.1659 -0.8545 -1.4789
  763MPD2     N11327   3.304   3.444  16.565  0.1849  0.2416 -0.3929
  763MPD2    H511328   3.296   3.473  16.663  1.6224 -0.4246 -0.0862
  763MPD2    N111329   3.219   3.132  16.200 -0.0138  0.0337 -0.5376
  763MPD2    H711330   3.234   3.210  16.136  1.9073 -0.1999 -0.3688
  764MPD2     C11331   1.492   0.078  17.153 -0.4659  0.0191  0.5540
  764MPD2    C111332   1.365   0.102  17.195  0.2291 -0.5253 -0.4002
  764MPD2    C211333   1.328   0.068  17.322 -0.1465  0.6089  0.2376
  764MPD2    C311334   1.411   0.006  17.409  0.0966 -0.2194 -0.1989
  764MPD2    C411335   1.544   4.725  17.368 -0.8750 -0.3942  0.1381
  764MPD2    C511336   1.583   0.032  17.242 -0.7527  0.8339  0.3504
  764MPD2     H11337   1.225   0.078  17.353 -0.5447  0.0438 -0.9128
  764MPD2    H111338   1.628   4.688  17.426  1.3087  2.1769 -1.4309
  764MPD2    H211339   1.525   0.087  17.050 -1.4911 -0.6393  0.1733
  764MPD2    H311340   1.687   0.025  17.213 -1.5224  2.0924 -2.7141
  764MPD2     N11341   1.356   4.691  17.530  0.2717 -0.1486  0.4642
  764MPD2    H511342   1.258   4.711  17.545  0.6981  0.8082  2.0011
  764MPD2    N111343   1.264   0.150  17.107 -0.5790 -0.0703 -0.2432
  764MPD2    H711344   1.169   0.162  17.140 -0.1643  2.2771  0.0471
  765MPD2     C11345   0.999   2.711  15.879 -0.8994 -0.2790 -0.4985
  765MPD2    C111346   1.080   2.793  15.811 -0.0442 -0.5380 -0.3515
  765MPD2    C211347   1.207   2.751  15.777  0.0346 -0.7581  0.8818
  765MPD2    C311348   1.246   2.620  15.805  0.0415  0.0202 -0.0453
  765MPD2    C411349   1.167   2.536  15.884 -0.1266 -0.2012 -0.0537
  765MPD2    C511350   1.043   2.587  15.920  0.2237  0.0663  0.0831
  765MPD2     H11351   1.281   2.822  15.742  0.5385 -2.2314 -1.0208
  765MPD2    H111352   1.195   2.439  15.924 -0.3101 -0.7666 -1.2965
  765MPD2    H211353   0.905   2.747  15.919 -2.1039 -4.0557  0.0331
  765MPD2    H311354   0.978   2.535  15.989  1.8235 -2.5608 -0.3730
  765MPD2     N11355   1.381   2.574  15.784  0.1854  0.0693  0.0825
  765MPD2    H511356   1.455   2.642  15.766  0.1831  0.4408  1.4758
  765MPD2    N111357   1.027   2.920  15.776  0.5089 -0.6593 -0.8513
  765MPD2    H711358   0.933   2.942  15.809  0.7446  0.0004 -0.6285
  766MPD2     C11359   0.551   3.201  15.314  0.6168 -0.0859  0.2531
  766MPD2    C111360   0.683   3.161  15.338 -0.5804 -0.1282 -0.2596
  766MPD2    C211361   0.755   3.090  15.234  0.4697 -0.0934 -0.0943
  766MPD2    C311362   0.691   3.049  15.116 -0.3680  0.3729  0.6938
  766MPD2    C411363   0.558   3.087  15.096  0.2955 -0.7365  0.8694
  766MPD2    C511364   0.493   3.165  15.194 -0.5471 -0.4013  0.2365
  766MPD2     H11365   0.857   3.064  15.262  0.5483 -0.5896 -0.8544
  766MPD2    H111366   0.502   3.088  15.003  0.2433 -2.2631  0.8981
  766MPD2    H211367   0.492   3.261  15.382 -2.4610 -1.9730 -0.7332
  766MPD2    H311368   0.394   3.200  15.167 -0.1510 -0.2738 -1.0405
  766MPD2     N11369   0.757   2.998  15.008 -0.0381  0.2201  0.0007
  766MPD2    H511370   0.717   3.011  14.916 -0.1684 -1.0597 -0.1301
  766MPD2    N111371   0.756   3.180  15.457  0.1537  0.0983 -0.0326
  766MPD2    H711372   0.849   3.143  15.444 -1.2214 -3.0757 -0.6552
  767MPD2     C11373   0.413   3.382  14.915 -0.3107  0.1654 -0.2054
  767MPD2    C111374   0.545   3.355  14.859  0.2921 -0.2285 -0.1833
  767MPD2    C211375   0.559   3.285  14.740  0.2870 -0.1353 -0.8813
  767MPD2    C311376   0.445   3.234  14.677  0.1785  0.0014  0.7880
  767MPD2    C411377   0.319   3.246  14.736  1.0625  0.0674 -0.1467
  767MPD2    C511378   0.306   3.321  14.851  0.2350 -0.2514  0.5507
  767MPD2     H11379   0.659   3.266  14.701  1.3063  0.1548  1.5823
  767MPD2    H111380   0.227   3.196  14.709 -1.5222  2.4356  4.2111
  767MPD2    H211381   0.396   3.444  15.002  2.2509  1.0759 -0.3648
  767MPD2    H311382   0.209   3.334  14.896 -0.2108 -1.1599 -0.1457
  767MPD2     N11383   0.472   3.170  14.551  0.3513  0.1641 -0.8644
  767MPD2    H511384   0.562   3.145  14.511  1.4362  1.4906  0.7572
  767MPD2    N111385   0.649   3.404  14.930  0.2104  0.3051 -0.4772
  767MPD2    H711386   0.622   3.461  15.009 -2.8109 -1.6568 -0.1074
  768MPD2     C11387   1.020   0.930  10.534 -0.5832  0.3470 -0.1032
  768MPD2    C111388   0.997   1.012  10.647  0.5216 -0.6452 -0.5360
  768MPD2    C211389   1.100   1.045  10.729 -0.0102  0.7999 -0.5380
  768MPD2    C311390   1.235   1.000  10.701 -0.7612 -0.6637 -0.1269
  768MPD2    C411391   1.254   0.926  10.586  0.3608  0.2647  0.1774
  768MPD2    C511392   1.150   0.884  10.509 -0.5994  0.1861 -0.1354
  768MPD2     H11393   1.080   1.105  10.817 -0.2999 -0.9006  0.5533
  768MPD2    H111394   1.355   0.897  10.559  0.2773  2.0039 -1.9749
  768MPD2    H211395   0.946   0.900  10.461  0.8986 -1.2482 -0.9341
  768MPD2    H311396   1.171   0.831  10.416  1.7041 -1.0662  1.0928
  768MPD2     N11397   1.343   1.030  10.781  0.1843 -0.7002  0.4792
  768MPD2    H511398   1.437   1.005  10.751 -0.9435 -0.0139 -3.5850
  768MPD2    N111399   0.869   1.070  10.686 -0.4707  0.1459 -0.2002
  768MPD2    H711400   0.869   1.126  10.771 -0.9429 -0.5465  0.2513
  769MPD2     C11401   2.573   4.358  14.724 -0.4117  0.3437  0.3026
  769MPD2    C111402   2.505   4.314  14.839 -0.2951 -0.2300  0.4612
  769MPD2    C211403   2.542   4.378  14.966 -1.1111  0.1334  0.3943
  769MPD2    C311404   2.625   4.491  14.967 -0.4721  0.3018  0.4100
  769MPD2    C411405   2.694   4.520  14.856 -0.2824  0.4035 -0.0706
  769MPD2    C511406   2.670   4.457  14.740  0.2940  0.9173  0.2590
  769MPD2     H11407   2.494   4.344  15.058 -2.2660 -1.4733 -0.7955
  769MPD2    H111408   2.762   4.605  14.861  3.9220 -2.8624 -1.7088
  769MPD2    H211409   2.540   4.319  14.628 -0.5433 -1.9091  1.2495
  769MPD2    H311410   2.715   4.498  14.650  0.4294 -0.9393 -0.5261
  769MPD2     N11411   2.646   4.556  15.090  0.2577  0.2958 -0.6060
  769MPD2    H511412   2.596   4.527  15.174 -0.6556  2.0970 -0.5279
  769MPD2    N111413   2.418   4.206  14.827 -0.1683  0.5781 -0.3486
  769MPD2    H711414   2.420   4.164  14.735 -4.3352 -0.9422  0.2464
  770MPD2     C11415   2.290   3.145  15.065 -0.2207  0.4219  0.3636
  770MPD2    C111416   2.178   3.176  14.997 -0.3869 -0.3044 -0.1509
  770MPD2    C211417   2.150   3.312  14.963 -0.0734  0.2934  0.2612
  770MPD2    C311418   2.240   3.414  14.992 -0.2852  0.3706 -0.1958
  770MPD2    C411419   2.353   3.377  15.063 -0.1530 -0.1636 -0.3281
  770MPD2    C511420   2.379   3.241  15.088 -0.3056  0.1612  0.7871
  770MPD2     H11421   2.057   3.335  14.913 -1.4040  0.9551  2.9941
  770MPD2    H111422   2.435   3.442  15.092 -0.9750  0.0703  1.4976
  770MPD2    H211423   2.314   3.043  15.091 -0.9426  0.3172  0.6199
  770MPD2    H311424   2.468   3.219  15.146  0.9048 -0.9308 -1.4813
  770MPD2     N11425   2.215   3.547  14.953 -0.0079  0.3636 -0.1104
  770MPD2    H511426   2.150   3.552  14.875 -1.9393 -0.6664  1.4327
  770MPD2    N111427   2.088   3.073  14.963 -0.3480 -0.5836 -0.0262
  770MPD2    H711428   2.113   2.976  14.982 -1.1795 -0.9564 -0.8639
  771MPD2     C11429   3.165   1.999  13.636  0.2456 -0.3618  0.0029
  771MPD2    C111430   3.105   2.114  13.594  0.0386 -0.7080 -0.8724
  771MPD2    C211431   3.022   2.109  13.482 -0.5768 -0.1414  0.0432
  771MPD2    C311432   2.999   1.988  13.419  0.1014 -0.2209 -0.3653
  771MPD2    C411433   3.064   1.874  13.462 -0.1553 -0.8566  0.2779
  771MPD2    C511434   3.148   1.882  13.567 -0.0749  0.4505  0.0865
  771MPD2     H11435   2.964   2.196  13.454  1.4179  0.8957 -0.8639
  771MPD2    H111436   3.063   1.770  13.431 -2.6342 -1.1382  1.2855
  771MPD2    H211437   3.237   1.997  13.718  2.8043  0.2489 -2.2237
  771MPD2    H311438   3.209   1.796  13.592 -1.5929 -1.4208 -2.5985
  771MPD2     N11439   2.912   1.994  13.312 -0.1522 -0.0738  0.5322
  771MPD2    H511440   2.870   2.082  13.283  0.1262  0.0569  0.5190
  771MPD2    N111441   3.127   2.245  13.652 -0.2121  0.1227 -0.1034
  771MPD2    H711442   3.079   2.317  13.600 -0.2550 -0.2551 -0.5840
  772MPD2     C11443   2.747   2.794  13.519 -0.2613 -0.4727  0.2164
  772MPD2    C111444   2.776   2.746  13.646 -0.4880  0.7514  0.5656
  772MPD2    C211445   2.683   2.749  13.748 -0.0908  0.2477 -0.2462
  772MPD2    C311446   2.548   2.769  13.709  0.2640  0.3658 -0.1007
  772MPD2    C411447   2.517   2.825  13.583 -0.3604  0.1020  0.2536
  772MPD2    C511448   2.619   2.833  13.489 -0.9583 -0.2722  0.0110
  772MPD2     H11449   2.704   2.733  13.853 -0.1571 -1.3672 -0.4730
  772MPD2    H111450   2.415   2.852  13.558 -0.5240  0.0633  0.8644
  772MPD2    H211451   2.821   2.804  13.440 -1.1516 -0.6695 -0.6489
  772MPD2    H311452   2.592   2.856  13.387  1.6714 -0.2508 -0.6662
  772MPD2     N11453   2.438   2.742  13.795 -0.0326 -0.3597 -0.0485
  772MPD2    H511454   2.345   2.758  13.756 -0.1699  1.6161  1.1319
  772MPD2    N111455   2.911   2.715  13.667 -0.4586  0.3376  0.5074
  772MPD2    H711456   2.976   2.734  13.592  0.0752  1.2916  1.2099
  773MPD2     C11457   2.110   3.982   0.257  0.1700  0.2322  0.2462
  773MPD2    C111458   2.000   3.900   0.274  0.0758  0.7173  0.4730
  773MPD2    C211459   1.994   3.810   0.383 -1.1099  0.0158 -0.8182
  773MPD2    C311460   2.092   3.809   0.480  0.4859  0.2010 -0.1127
  773MPD2    C411461   2.198   3.892   0.470 -0.2151 -0.3530 -0.2341
  773MPD2    C511462   2.209   3.972   0.353  0.4983  0.5318  0.1238
  773MPD2     H11463   1.905   3.750   0.398 -1.3820  0.7335  0.3825
  773MPD2    H111464   2.285   3.879   0.533 -0.3736  1.1133  0.2968
  773MPD2    H211465   2.121   4.047   0.171 -0.1808 -0.7017 -0.5007
  773MPD2    H311466   2.294   4.036   0.334  0.9515 -0.7384 -2.1585
  773MPD2     N11467   2.065   3.720   0.586  0.6909 -0.1221  0.2960
  773MPD2    H511468   1.985   3.661   0.567  1.1960 -1.3770  2.1723
  773MPD2    N111469   1.885   3.899   0.181  0.0591 -0.3641 -0.2834
  773MPD2    H711470   1.815   3.825   0.188 -0.3256  0.0586  0.3892
  774MPD2     C11471   1.457   2.861  13.170 -0.5573  0.4943 -0.4119
  774MPD2    C111472   1.429   2.949  13.276  0.8300 -0.8397 -0.9608
  774MPD2    C211473   1.492   3.072  13.272  0.4807 -0.5268 -0.7227
  774MPD2    C311474   1.587   3.105  13.173  0.0651 -0.8003  0.0332
  774MPD2    C411475   1.623   3.004  13.081  0.2119  0.1203  0.5964
  774MPD2    C511476   1.557   2.886  13.079 -0.1450 -0.0223  0.0370
  774MPD2     H11477   1.474   3.151  13.344 -0.1845  1.0184 -2.5859
  774MPD2    H111478   1.696   3.016  13.002 -1.0701 -0.2545 -0.6388
  774MPD2    H211479   1.406   2.766  13.170 -1.7790  1.1442  0.8939
  774MPD2    H311480   1.587   2.807  13.012 -0.6143 -0.6088  0.5137
  774MPD2     N11481   1.648   3.225  13.184 -0.3461  0.8317 -0.2752
  774MPD2    H511482   1.626   3.292  13.258  0.2477  0.0597  0.5957
  774MPD2    N111483   1.335   2.922  13.380 -0.1011  0.3240  0.0227
  774MPD2    H711484   1.299   2.827  13.385  0.4036  0.0783 -1.1475
  775MPD2     C11485   2.726   4.364  15.489 -0.0841 -0.4628  0.8927
  775MPD2    C111486   2.781   4.431  15.598  0.0097 -0.5863  0.0670
  775MPD2    C211487   2.898   4.492  15.587  0.1261  0.2963 -0.1389
  775MPD2    C311488   2.967   4.491  15.469  0.3357  0.4775 -0.5860
  775MPD2    C411489   2.914   4.427  15.362 -0.2031  0.2951 -0.5145
  775MPD2    C511490   2.789   4.370  15.367 -0.0921  0.5655 -0.0229
  775MPD2     H11491   2.934   4.543  15.676  1.2052  1.3362 -1.1854
  775MPD2    H111492   2.958   4.416  15.263 -0.5898 -1.3506 -0.5051
  775MPD2    H211493   2.628   4.322  15.507 -0.6596 -0.2125 -1.8197
  775MPD2    H311494   2.742   4.327  15.278  0.1623 -1.2599  0.7231
  775MPD2     N11495   3.095   4.545  15.450 -0.2173  0.0004  1.2962
  775MPD2    H511496   3.130   4.540  15.355 -2.3789  2.0259  0.4050
  775MPD2    N111497   2.707   4.425  15.722  0.4827 -0.0337  0.3116
  775MPD2    H711498   2.623   4.368  15.725  1.2321 -1.3346 -3.7943
  776MPD2     C11499   1.193   4.510  11.585  0.1130  0.1961  0.8116
  776MPD2    C111500   1.323   4.488  11.611  0.1941 -0.3503 -0.3066
  776MPD2    C211501   1.414   4.594  11.614 -0.8338  0.2428  0.5942
  776MPD2    C311502   1.365   4.724  11.586  0.0725 -0.0845  0.5266
  776MPD2    C411503   1.241   0.008  11.541  0.3122  0.4104 -1.2709
  776MPD2    C511504   1.154   4.637  11.548 -0.1194 -0.0338  0.1656
  776MPD2     H11505   1.520   4.582  11.634 -0.4940  1.8104 -0.2734
  776MPD2    H111506   1.200   0.106  11.520  1.0196  1.1054  0.5675
  776MPD2    H211507   1.126   4.425  11.596  0.4758 -0.5063 -2.2175
  776MPD2    H311508   1.050   4.658  11.528  0.1843  0.2508 -1.0745
  776MPD2     N11509   1.450   0.101  11.563 -0.5189 -0.5136  0.1477
  776MPD2    H511510   1.397   0.183  11.535  1.6577  0.2618 -1.6315
  776MPD2    N111511   1.367   4.357  11.621 -0.0299 -0.1685 -1.1164
  776MPD2    H711512   1.299   4.282  11.609  0.1180 -0.1199 -2.2322
  777MPD2     C11513   2.477   2.501   1.152  0.6494  0.0696  0.4255
  777MPD2    C111514   2.364   2.473   1.229 -0.0791  0.0784  0.7562
  777MPD2    C211515   2.258   2.409   1.165 -0.2312  0.4882  0.2227
  777MPD2    C311516   2.260   2.366   1.035  0.0602  0.1518 -0.1999
  777MPD2    C411517   2.372   2.391   0.965  0.2205  0.9376 -0.1751
  777MPD2    C511518   2.479   2.457   1.022  0.2661 -0.1194 -0.2447
  777MPD2     H11519   2.169   2.379   1.219 -1.3232  0.8481 -1.3662
  777MPD2    H111520   2.383   2.356   0.863 -0.1765 -1.3695  0.5983
  777MPD2    H211521   2.566   2.550   1.188  1.7339 -1.3938 -0.2388
  777MPD2    H311522   2.562   2.481   0.956 -0.0799  1.9384  0.0490
  777MPD2     N11523   2.142   2.304   0.981 -0.1362 -0.0399  0.4863
  777MPD2    H511524   2.061   2.305   1.042  0.7448  0.7814  1.6342
  777MPD2    N111525   2.361   2.535   1.357 -0.2462  0.0338 -0.5792
  777MPD2    H711526   2.442   2.589   1.383 -0.8536  1.3992 -1.5537
  778MPD2     C11527   2.842   2.028  15.204 -0.0974 -0.9619 -0.4002
  778MPD2    C111528   2.764   2.014  15.093  0.3398 -0.2332  0.1720
  778MPD2    C211529   2.817   2.072  14.981  0.4412  0.7128  0.1017
  778MPD2    C311530   2.919   2.167  14.972 -1.0795  0.4762  0.1557
  778MPD2    C411531   2.992   2.183  15.090  0.1858  0.7187  0.2518
  778MPD2    C511532   2.948   2.117  15.204  0.6726  0.7016  0.1120
  778MPD2     H11533   2.761   2.051  14.891  1.6788  0.8218 -0.6943
  778MPD2    H111534   3.066   2.262  15.099 -1.4850  2.4901 -1.2781
  778MPD2    H211535   2.813   1.985  15.299  2.7569 -2.0009  0.0081
  778MPD2    H311536   3.000   2.128  15.298 -0.4047  1.8952  0.5506
  778MPD2     N11537   2.953   2.237  14.852  0.3566  0.3491 -0.0937
  778MPD2    H511538   2.902   2.213  14.768  0.8968  3.0894 -1.2202
  778MPD2    N111539   2.655   1.925  15.082 -0.4390 -0.5207 -1.0221
  778MPD2    H711540   2.614   1.913  14.990  0.4755 -2.2630 -1.1943
  779MPD2     C11541   2.532   0.975  13.990 -0.5665  0.6847 -0.8847
  779MPD2    C111542   2.581   0.981  14.122  0.5519  0.0319  0.1354
  779MPD2    C211543   2.631   1.099  14.166  0.0496 -0.1807  0.3883
  779MPD2    C311544   2.634   1.216  14.089 -0.8293 -0.5364  0.1847
  779MPD2    C411545   2.583   1.207  13.958 -0.1230 -0.6332 -0.4014
  779MPD2    C511546   2.534   1.089  13.914 -0.9767  0.7249 -0.1027
  779MPD2     H11547   2.651   1.112  14.272  3.0276 -1.7821  0.0261
  779MPD2    H111548   2.579   1.291  13.889 -0.6258  0.1429  0.5650
  779MPD2    H211549   2.503   0.880  13.949 -0.8201  0.8711 -1.1365
  779MPD2    H311550   2.501   1.075  13.811 -0.1086  0.0893 -0.3042
  779MPD2     N11551   2.677   1.337  14.156  0.4174 -0.4113  0.0914
  779MPD2    H511552   2.701   1.335  14.254  1.6281 -0.3381 -0.1970
  779MPD2    N111553   2.599   0.858  14.192 -0.9208 -0.7781 -0.1133
  779MPD2    H711554   2.566   0.776  14.142 -0.8031  0.0666 -1.5745
  780MPD2     C11555   1.902   1.152   0.734  0.7536  0.1782 -0.4467
  780MPD2    C111556   1.933   1.088   0.620 -0.0610  0.2169  0.8261
  780MPD2    C211557   2.040   1.131   0.541  0.4232 -0.0015 -0.3027
  780MPD2    C311558   2.112   1.248   0.565 -0.0365 -0.2263  0.2293
  780MPD2    C411559   2.082   1.306   0.691 -0.2791  0.4060 -0.1047
  780MPD2    C511560   1.978   1.262   0.773 -0.8852  0.5996 -1.4935
  780MPD2     H11561   2.076   1.065   0.463 -0.3880  1.0761 -1.5855
  780MPD2    H111562   2.147   1.376   0.742 -0.7007  1.9730 -1.7235
  780MPD2    H211563   1.819   1.128   0.800  1.3587 -2.8762 -0.7888
  780MPD2    H311564   1.967   1.302   0.873  0.2051 -0.0035 -1.1374
  780MPD2     N11565   2.227   1.281   0.487  0.9899 -0.7027 -0.2539
  780MPD2    H511566   2.249   1.210   0.419  0.7787  0.7124 -1.7961
  780MPD2    N111567   1.860   0.972   0.588 -0.1895  0.0371  0.0334
  780MPD2    H711568   1.779   0.951   0.646 -0.9739  0.8885 -0.7527
  781MPD2     C11569   3.952   2.428  12.029 -0.8161  0.3005 -0.1542
  781MPD2    C111570   4.038   2.457  12.135  0.8616 -0.0106  0.1810
  781MPD2    C211571   4.180   2.457  12.114 -0.5162 -0.5350  0.0233
  781MPD2    C311572   4.227   2.435  11.987  0.8967  0.0521  0.6053
  781MPD2    C411573   4.140   2.404  11.891  0.6266  0.1806  0.0823
  781MPD2    C511574   4.003   2.397  11.908 -0.3629  0.9367 -0.4675
  781MPD2     H11575   4.245   2.482  12.197  1.3906  0.6790 -1.8296
  781MPD2    H111576   4.173   2.385  11.790  1.4611 -1.3233  0.6395
  781MPD2    H211577   3.845   2.420  12.039 -0.7606 -2.1489 -1.4874
  781MPD2    H311578   3.934   2.374  11.828 -0.0400 -0.8759 -0.2082
  781MPD2     N11579   4.363   2.438  11.952  0.2143  0.6180 -0.8667
  781MPD2    H511580   4.376   2.427  11.852  0.3571  0.1702 -0.8007
  781MPD2    N111581   3.984   2.477  12.267 -0.0704 -0.1417 -1.2023
  781MPD2    H711582   4.045   2.518  12.337 -0.8554  1.4220 -1.4411
  782MPD2     C11583   2.113   4.017  10.606  0.1497 -0.9056  0.2991
  782MPD2    C111584   2.213   3.937  10.559 -0.5379 -0.2498 -0.5418
  782MPD2    C211585   2.304   3.884  10.651 -0.2452 -0.4632 -0.2075
  782MPD2    C311586   2.296   3.914  10.782 -0.1674  1.2212 -0.1130
  782MPD2    C411587   2.194   3.988  10.827  0.1397  0.0943 -0.2749
  782MPD2    C511588   2.096   4.031  10.744  0.1706  0.0227 -0.5008
  782MPD2     H11589   2.382   3.832  10.598 -1.3305  0.3575 -2.6130
  782MPD2    H111590   2.170   4.015  10.929 -1.9565  0.3927 -0.8630
  782MPD2    H211591   2.039   4.066  10.544 -0.9877  1.2453  3.3643
  782MPD2    H311592   2.008   4.086  10.776  0.3351 -0.9619  1.6465
  782MPD2     N11593   2.385   3.845  10.866 -0.1288  0.0198 -0.5970
  782MPD2    H511594   2.449   3.784  10.817  0.6233 -0.2275  0.6926
  782MPD2    N111595   2.247   3.908  10.422 -0.7023 -0.4599 -0.2216
  782MPD2    H711596   2.329   3.848  10.414 -0.1131 -0.0453  2.6597
  783MPD2     C11597   1.923   3.260  10.327  0.5799 -0.2500 -0.2059
  783MPD2    C111598   1.922   3.382  10.382  0.0760  0.3539 -0.3285
  783MPD2    C211599   1.959   3.490  10.313  0.3930  0.4153 -0.2133
  783MPD2    C311600   2.017   3.487  10.190 -0.1179  0.4014  0.1340
  783MPD2    C411601   2.032   3.360  10.138 -0.7116  0.6568 -0.7057
  783MPD2    C511602   1.988   3.251  10.209 -0.2861  0.2475  0.2369
  783MPD2     H11603   1.957   3.592  10.352  1.0211  1.3629 -2.6670
  783MPD2    H111604   2.071   3.355  10.037  0.8257 -0.4538 -0.0583
  783MPD2    H211605   1.887   3.170  10.375  1.6625 -0.1445  0.8194
  783MPD2    H311606   1.977   3.153  10.164 -2.4852  1.2209 -1.3576
  783MPD2     N11607   2.052   3.613  10.142  1.1315  0.9152 -0.2009
  783MPD2    H511608   2.018   3.700  10.180  2.3863  1.4556 -0.3348
  783MPD2    N111609   1.860   3.387  10.508  0.4305  0.6960  0.2330
  783MPD2    H711610   1.833   3.293  10.538  0.3672  1.3912  2.3169
  784MPD2     C11611   0.182   4.215   0.655 -0.6036  0.0975  0.2510
  784MPD2    C111612   0.066   4.228   0.735 -0.3510  0.1759  0.6515
  784MPD2    C211613   4.677   4.250   0.669 -0.4902 -0.4308 -0.0949
  784MPD2    C311614   4.668   4.270   0.532 -0.4585 -0.5888 -0.1221
  784MPD2    C411615   0.051   4.262   0.454  0.0955  0.8305  0.2827
  784MPD2    C511616   0.169   4.219   0.516  0.4204  0.7744 -0.2943
  784MPD2     H11617   4.591   4.262   0.735  1.4768 -0.4559  2.4837
  784MPD2    H111618   0.047   4.271   0.346 -1.3248  0.5695  0.3048
  784MPD2    H211619   0.283   4.201   0.691 -0.7338  1.3524  1.0878
  784MPD2    H311620   0.247   4.191   0.447  1.1326  0.6247  0.5733
  784MPD2     N11621   4.542   4.305   0.483 -0.3880 -0.1134  0.4275
  784MPD2    H511622   4.475   4.338   0.552 -0.4022 -0.3830  0.5412
  784MPD2    N111623   0.067   4.221   0.877 -0.3289 -0.3310  0.3749
  784MPD2    H711624   4.712   4.229   0.921 -0.0557 -0.6107  0.9779
  785MPD2     C11625   4.416   2.892  11.139  0.1094  0.3044  0.3557
  785MPD2    C111626   4.348   2.914  11.022  0.3618  0.8728 -0.8399
  785MPD2    C211627   4.338   2.809  10.934  0.1200  0.4359 -0.5163
  785MPD2    C311628   4.371   2.681  10.961 -0.1670 -0.3914  0.5679
  785MPD2    C411629   4.439   2.657  11.071 -1.1379  0.0665 -0.0831
  785MPD2    C511630   4.459   2.759  11.162 -0.2398  0.3038 -0.2997
  785MPD2     H11631   4.283   2.829  10.842 -0.6868  0.3503 -0.0533
  785MPD2    H111632   4.486   2.561  11.085 -0.1660  0.8039  1.7419
  785MPD2    H211633   4.431   2.964  11.218  0.5695  0.7111 -0.0976
  785MPD2    H311634   4.509   2.746  11.257 -1.5401  1.3839  0.5348
  785MPD2     N11635   4.328   2.578  10.877 -0.4626 -0.3197 -0.5215
  785MPD2    H511636   4.267   2.607  10.801  0.7799  1.5882 -0.8056
  785MPD2    N111637   4.307   3.042  10.977 -0.2420 -0.8016  0.1601
  785MPD2    H711638   4.282   3.040  10.878  0.3466 -1.0398  0.0169
  786MPD2     C11639   3.563   0.644  14.613 -0.2824  0.3949  0.3403
  786MPD2    C111640   3.583   0.528  14.683 -0.1289 -0.9371  0.3634
  786MPD2    C211641   3.633   0.534  14.812  0.2804  0.2423 -0.3387
  786MPD2    C311642   3.662   0.656  14.870  0.3487 -0.6248  0.4481
  786MPD2    C411643   3.624   0.769  14.794  0.5876  0.3220 -0.6877
  786MPD2    C511644   3.575   0.764  14.673  0.2514 -0.6154 -0.4426
  786MPD2     H11645   3.664   0.439  14.854 -0.4524  0.4191  0.5853
  786MPD2    H111646   3.635   0.868  14.836 -0.4360  1.5335 -3.2624
  786MPD2    H211647   3.535   0.642  14.508  0.7929  2.5889  0.0220
  786MPD2    H311648   3.554   0.857  14.621  0.4207  0.3860  1.2751
  786MPD2     N11649   3.729   0.677  14.992 -0.3965 -0.0794  0.0784
  786MPD2    H511650   3.767   0.769  15.014  0.1252 -0.4325  0.6559
  786MPD2    N111651   3.551   0.404  14.633 -0.2971 -0.4732  0.0465
  786MPD2    H711652   3.568   0.327  14.697  0.6759 -1.2105 -1.0961
  787MPD2     C11653   3.982   4.735  14.792 -1.1062 -0.4738 -0.2967
  787MPD2    C111654   3.943   4.680  14.675  0.1291 -0.9597 -0.3774
  787MPD2    C211655   3.985   4.555  14.640  0.1959 -0.0709  0.3825
  787MPD2    C311656   4.075   4.484  14.729  0.5330 -0.1172 -0.1287
  787MPD2    C411657   4.121   4.556  14.839 -0.9550  0.1202  0.5469
  787MPD2    C511658   4.077   4.678  14.872  0.1915  0.9248  0.2638
  787MPD2     H11659   3.976   4.514  14.541  0.7955 -1.2205  0.8010
  787MPD2    H111660   4.204   4.533  14.905 -1.3425 -0.9368  0.6574
  787MPD2    H211661   3.930   0.090  14.822  0.1086  0.3567 -0.6608
  787MPD2    H311662   4.106   4.721  14.967  1.1751  0.8109  0.0118
  787MPD2     N11663   4.127   4.358  14.698 -0.7476 -0.2179  0.3055
  787MPD2    H511664   4.115   4.316  14.607 -0.7513  1.9707 -0.7107
  787MPD2    N111665   3.845   0.018  14.597 -0.0146  0.4785 -0.5405
  787MPD2    H711666   3.820   0.110  14.631 -1.0430  0.2552 -0.6821
  788MPD2     C11667   1.326   3.006   0.592  0.4127 -0.3077 -0.6212
  788MPD2    C111668   1.328   2.978   0.454 -0.3701  0.4637 -0.3894
  788MPD2    C211669   1.316   3.089   0.369  0.7178  0.2691  0.3598
  788MPD2    C311670   1.291   3.216   0.417  0.7306 -0.2972 -0.5649
  788MPD2    C411671   1.288   3.242   0.552 -0.6205  0.1012  0.2768
  788MPD2    C511672   1.309   3.138   0.640  0.0648  0.6051  0.2712
  788MPD2     H11673   1.310   3.057   0.265 -1.3158  0.0801  0.5350
  788MPD2    H111674   1.285   3.341   0.596  1.8763  1.1472 -1.9152
  788MPD2    H211675   1.338   2.934   0.672 -1.4446  0.7842  0.6638
  788MPD2    H311676   1.301   3.157   0.747  0.5456 -1.1726  0.6356
  788MPD2     N11677   1.277   3.326   0.329  0.5552 -0.3621 -1.1275
  788MPD2    H511678   1.260   3.416   0.373 -0.9949 -1.0860 -0.2611
  788MPD2    N111679   1.335   2.850   0.396  0.0932 -0.4076  0.1589
  788MPD2    H711680   1.330   2.836   0.296  0.2949 -0.2082  0.1218
  789MPD2     C11681   0.918   3.081  16.370  0.2400 -0.8025 -0.1774
  789MPD2    C111682   0.822   3.015  16.445  0.3028  0.2250 -0.5603
  789MPD2    C211683   0.694   3.059  16.467 -0.3072  0.8627 -0.2790
  789MPD2    C311684   0.648   3.172  16.409 -1.0091  0.0685 -0.2107
  789MPD2    C411685   0.739   3.246  16.332 -0.4289  0.3764  0.2458
  789MPD2    C511686   0.873   3.203  16.328  0.1658  0.1049 -0.2182
  789MPD2     H11687   0.630   2.986  16.515  0.8581 -0.9424 -1.4966
  789MPD2    H111688   0.711   3.341  16.289  0.5763 -0.4057 -2.1847
  789MPD2    H211689   1.018   3.045  16.348  0.4442 -0.0945 -0.4275
  789MPD2    H311690   0.946   3.266  16.279  0.8729  0.2897  1.0730
  789MPD2     N11691   0.521   3.226  16.441 -0.1017  0.0829 -0.3000
  789MPD2    H511692   0.496   3.311  16.391  0.8498  1.0863  0.9175
  789MPD2    N111693   0.844   2.894  16.509  0.2195 -0.4347 -0.4290
  789MPD2    H711694   0.774   2.845  16.563  2.2865 -0.8517  1.8927
  790MPD2     C11695   2.283   4.549  13.426  0.2423 -0.2129 -0.5669
  790MPD2    C111696   2.216   4.431  13.439 -0.1203  0.2621 -0.1470
  790MPD2    C211697   2.157   4.377  13.327 -0.2621  0.2943  0.0480
  790MPD2    C311698   2.197   4.421  13.202  0.7059  1.4361 -0.5061
  790MPD2    C411699   2.280   4.527  13.187  0.1822  0.0891 -0.3776
  790MPD2    C511700   2.316   4.593  13.303 -0.8541  0.1972  0.1584
  790MPD2     H11701   2.078   4.305  13.344  0.7006 -0.9244 -0.5305
  790MPD2    H111702   2.303   4.574  13.092 -0.3767  2.0812  0.4784
  790MPD2    H211703   2.312   4.608  13.512  2.2164 -1.4515 -0.3669
  790MPD2    H311704   2.374   4.683  13.287  1.1021 -0.6197  2.6782
  790MPD2     N11705   2.143   4.378  13.074 -0.1558  0.0451  0.0427
  790MPD2    H511706   2.173   4.434  12.995 -1.0271  0.4154 -0.0270
  790MPD2    N111707   2.187   4.381  13.568  0.2515 -0.2682 -0.6171
  790MPD2    H711708   2.213   4.420  13.658  0.9518 -1.0589 -0.4785
  791MPD2     C11709   1.447   4.623  12.623 -0.1305 -0.3735 -0.2824
  791MPD2    C111710   1.478   4.508  12.692  0.1101  0.2214  0.2340
  791MPD2    C211711   1.372   4.424  12.718  0.6715  0.0212 -0.2805
  791MPD2    C311712   1.241   4.462  12.696  0.6431 -0.5061  0.2568
  791MPD2    C411713   1.216   4.585  12.641 -0.4079  0.0781  1.4187
  791MPD2    C511714   1.320   4.657  12.589  0.3563  0.6210  0.9241
  791MPD2     H11715   1.390   4.321  12.748  2.9734  0.9554  1.5022
  791MPD2    H111716   1.119   4.633  12.633 -0.0175  0.7800  0.8804
  791MPD2    H211717   1.527   4.690  12.595 -2.1516  2.0820 -0.1734
  791MPD2    H311718   1.307   0.023  12.552  2.3335 -0.4870 -2.8465
  791MPD2     N11719   1.138   4.380  12.746 -0.0575  0.3221  0.2964
  791MPD2    H511720   1.162   4.286  12.778 -1.6010  0.3359  1.4780
  791MPD2    N111721   1.615   4.481  12.717  0.2161 -0.2891 -0.4602
  791MPD2    H711722   1.686   4.543  12.679  1.3634 -0.6731  1.0609
  792MPD2     C11723   2.024   4.555  11.306  0.1189  0.0964  0.1172
  792MPD2    C111724   1.955   4.609  11.201 -0.0468  0.2315  0.1864
  792MPD2    C211725   1.817   4.609  11.208 -0.4083  0.1564  0.0088
  792MPD2    C311726   1.747   4.555  11.317  0.5230 -0.2297  0.1754
  792MPD2    C411727   1.817   4.488  11.414  0.2744  1.1218  0.1023
  792MPD2    C511728   1.956   4.488  11.409 -0.2268 -0.3487 -0.1101
  792MPD2     H11729   1.763   4.649  11.123  0.5350  1.6685  0.1313
  792MPD2    H111730   1.769   4.438  11.498 -0.3388 -0.2383 -1.0625
  792MPD2    H211731   2.132   4.542  11.298 -0.1802 -1.7092 -1.2451
  792MPD2    H311732   2.017   4.439  11.484  0.9765 -2.8885 -2.7613
  792MPD2     N11733   1.606   4.546  11.326 -0.4014  0.2447 -0.3826
  792MPD2    H511734   1.567   4.509  11.412  0.2063  0.9486  0.2027
  792MPD2    N111735   2.036   4.646  11.092 -0.7008 -0.3658 -0.7593
  792MPD2    H711736   2.137   4.634  11.088 -0.7880 -0.6800 -2.0632
  793MPD2     C11737   1.249   4.503  10.520  1.1488  0.1730  0.5546
  793MPD2    C111738   1.361   4.529  10.602 -0.1609 -0.3830 -0.3012
  793MPD2    C211739   1.341   4.555  10.734  0.6583  0.1079 -0.9040
  793MPD2    C311740   1.219   4.553  10.789  0.6457 -0.1044 -0.7268
  793MPD2    C411741   1.109   4.531  10.709 -0.4871  0.0085 -0.4364
  793MPD2    C511742   1.128   4.496  10.578 -1.0257  0.4504  0.1311
  793MPD2     H11743   1.425   4.580  10.797 -1.3621 -1.9722  2.6414
  793MPD2    H111744   1.012   4.531  10.757 -0.0055  0.7933  0.5544
  793MPD2    H211745   1.253   4.481  10.414 -1.5088  0.0802  0.4632
  793MPD2    H311746   1.039   4.469  10.522 -1.9789  3.0624  0.3793
  793MPD2     N11747   1.219   4.581  10.927 -0.2790 -0.4034 -0.1024
  793MPD2    H511748   1.313   4.586  10.965 -0.4723  1.7928  0.0553
  793MPD2    N111749   1.496   4.513  10.558  0.4908  0.6774 -0.0588
  793MPD2    H711750   1.562   4.526  10.634 -1.5299  0.4567  1.7370
  794MPD2     C11751   1.433   4.339  17.313 -0.3307  0.6573  0.5128
  794MPD2    C111752   1.489   4.215  17.272  0.2437  0.4239  0.0339
  794MPD2    C211753   1.494   4.180  17.135  0.7247  0.0094 -0.5524
  794MPD2    C311754   1.440   4.265  17.041 -0.1783 -0.3812 -0.4553
  794MPD2    C411755   1.391   4.380  17.082 -0.1822 -0.0252 -0.5163
  794MPD2    C511756   1.381   4.416  17.214  0.6400  0.4169  0.9053
  794MPD2     H11757   1.533   4.085  17.100  0.1804 -1.0621  1.7451
  794MPD2    H111758   1.357   4.455  17.012 -0.3759 -1.9334 -2.4858
  794MPD2    H211759   1.420   4.378  17.414  3.5313  1.4368  0.6947
  794MPD2    H311760   1.334   4.511  17.234  0.1802  0.3971 -0.0706
  794MPD2     N11761   1.421   4.232  16.907  0.1431  0.7852  0.4428
  794MPD2    H511762   1.362   4.299  16.859  1.3457  1.5635  0.0730
  794MPD2    N111763   1.540   4.127  17.367  0.3008  0.0784  0.1659
  794MPD2    H711764   1.585   4.040  17.341 -1.1920  0.1078 -2.5321
  795MPD2     C11765   3.864   1.403  13.858  0.1645 -0.5714  0.4040
  795MPD2    C111766   3.842   1.405  13.718  0.3938  0.8835 -0.7600
  795MPD2    C211767   3.963   1.397  13.640 -0.0690 -0.2984  0.8577
  795MPD2    C311768   4.089   1.377  13.705  0.0997  0.1783 -0.0383
  795MPD2    C411769   4.098   1.387  13.842  0.3129  0.5011  0.0824
  795MPD2    C511770   3.985   1.389  13.913 -0.1065  0.3514  0.1424
  795MPD2     H11771   3.946   1.386  13.534  1.0596 -0.2427  0.6686
  795MPD2    H111772   4.190   1.382  13.898  0.9553 -0.4507 -1.0627
  795MPD2    H211773   3.777   1.394  13.922  0.8312 -2.4476  1.0607
  795MPD2    H311774   3.992   1.394  14.021  0.0518 -0.0906  0.1536
  795MPD2     N11775   4.211   1.368  13.633  0.5978 -0.2113  0.5918
  795MPD2    H511776   4.208   1.365  13.532  2.4031  0.1418  0.5204
  795MPD2    N111777   3.718   1.417  13.656 -0.2132  0.0941 -0.3368
  795MPD2    H711778   3.719   1.424  13.555 -1.2698  1.6959 -0.2310
  796MPD2     C11779   3.612   3.232  15.969 -0.9647 -0.2080  0.8112
  796MPD2    C111780   3.634   3.335  16.058 -0.0135  0.0799  0.5967
  796MPD2    C211781   3.654   3.459  15.998  0.4920 -0.7669  0.7627
  796MPD2    C311782   3.641   3.482  15.861  1.1722  0.2227 -0.5685
  796MPD2    C411783   3.611   3.376  15.775  0.0405 -0.6310  0.2262
  796MPD2    C511784   3.603   3.252  15.837 -0.4460  0.1549  0.1030
  796MPD2     H11785   3.682   3.537  16.067 -0.6882  0.0581  0.3100
  796MPD2    H111786   3.584   3.383  15.671 -0.0704 -1.0658  0.2263
  796MPD2    H211787   3.588   3.131  16.000 -2.2238  0.0661  0.7205
  796MPD2    H311788   3.573   3.166  15.779 -1.0627  0.7981 -0.5282
  796MPD2     N11789   3.645   3.617  15.816  0.0978 -0.4123 -0.0483
  796MPD2    H511790   3.677   3.685  15.884  0.5810 -1.0539  0.3685
  796MPD2    N111791   3.648   3.299  16.193 -0.0427 -0.6501  0.6619
  796MPD2    H711792   3.643   3.203  16.223 -1.3020 -1.0665 -0.9200
  797MPD2     C11793   4.543   2.521  17.060 -0.2724 -1.3256  0.5887
  797MPD2    C111794   4.590   2.582  17.174  0.7457  0.6853 -0.0862
  797MPD2    C211795   4.504   2.663  17.247  0.4679 -0.2544  0.2974
  797MPD2    C311796   4.377   2.690  17.201  0.3521 -0.6609 -0.3316
  797MPD2    C411797   4.333   2.622  17.088 -0.3290  0.2575 -0.6833
  797MPD2    C511798   4.418   2.545  17.011  0.1339 -0.1066 -0.4834
  797MPD2     H11799   4.545   2.718  17.331  0.8736  2.2387 -1.5094
  797MPD2    H111800   4.228   2.632  17.064  0.4656  1.4355 -3.6132
  797MPD2    H211801   4.606   2.459  16.997  0.5548 -1.1765  1.2617
  797MPD2    H311802   4.383   2.492  16.924  1.0189 -1.6833  0.1329
  797MPD2     N11803   4.291   2.779  17.265  0.1620  0.7389  0.1636
  797MPD2    H511804   4.200   2.806  17.227  0.2429 -0.4811 -0.8817
  797MPD2    N111805   4.721   2.577  17.227  0.1372  0.1018 -0.0090
  797MPD2    H711806   0.001   2.630  17.311  1.4048 -1.7509  0.9291
  798MPD2     C11807   4.728   3.106  17.708  0.4960  0.3193 -0.4051
  798MPD2    C111808   4.658   3.024  17.630  0.1059  0.0683 -0.2646
  798MPD2    C211809   4.722   2.914  17.583  0.2846  0.1527  0.1057
  798MPD2    C311810   0.122   2.896  17.599  0.5482  0.2621 -0.1253
  798MPD2    C411811   0.198   2.983  17.665  0.5166  0.1392 -0.2342
  798MPD2    C511812   0.130   3.087  17.724 -0.0868  0.3861 -0.1332
  798MPD2     H11813   4.667   2.849  17.515  1.9244 -0.3162 -0.7866
  798MPD2    H111814   0.301   2.960  17.689  0.3314 -1.1824 -0.7148
  798MPD2    H211815   4.694   3.202   0.005 -2.7546 -1.9664  2.5436
  798MPD2    H311816   0.196   3.158   0.033 -1.3223  2.2783 -1.2524
  798MPD2     N11817   0.172   2.776  17.550  0.2897  0.1889 -0.1828
  798MPD2    H511818   0.093   2.726  17.510  1.0393 -1.0960 -0.0376
  798MPD2    N111819   4.527   3.044  17.585  0.2973  0.3025  0.0051
  798MPD2    H711820   4.481   2.977  17.524 -1.3697  0.3669  1.1811
  799MPD2     C11821   3.755   4.091  14.651 -0.6151  0.4779 -0.6639
  799MPD2    C111822   3.657   4.016  14.598  0.0222  0.2464 -0.7413
  799MPD2    C211823   3.577   4.072  14.501 -0.2074 -0.2442  0.3082
  799MPD2    C311824   3.597   4.205  14.458 -0.1917  0.2693 -0.2428
  799MPD2    C411825   3.685   4.283  14.522  0.8198 -0.3293 -0.1437
  799MPD2    C511826   3.770   4.227  14.615 -0.4278  0.6580 -0.1829
  799MPD2     H11827   3.515   4.004  14.444  0.8734 -0.7687 -0.2409
  799MPD2    H111828   3.695   4.385  14.487 -2.3034  0.4634  1.3073
  799MPD2    H211829   3.836   4.048  14.710 -1.5376 -0.8140 -0.3462
  799MPD2    H311830   3.847   4.280  14.669  0.1144 -0.9487  0.6228
  799MPD2     N11831   3.529   4.278  14.353  0.3315 -0.2312  0.7514
  799MPD2    H511832   3.554   4.375  14.337 -1.7928 -0.0899 -1.7254
  799MPD2    N111833   3.634   3.878  14.623 -0.3096 -0.4295 -0.1664
  799MPD2    H711834   3.561   3.836  14.567 -1.9961 -0.4233  2.0373
  800MPD2     C11835   3.952   0.838  14.337  0.5787 -0.6592 -0.3026
  800MPD2    C111836   4.060   0.807  14.264 -0.3043  0.1006 -0.2913
  800MPD2    C211837   4.044   0.730  14.149 -0.5545  0.2693 -0.1122
  800MPD2    C311838   3.917   0.692  14.118  0.6540 -0.1165 -0.7972
  800MPD2    C411839   3.808   0.719  14.199  0.1860  0.1145  0.4592
  800MPD2    C511840   3.823   0.796  14.307 -0.6202 -0.2468 -0.3769
  800MPD2     H11841   4.125   0.700  14.084  0.4249  0.5080  1.0027
  800MPD2    H111842   3.712   0.677  14.171 -0.5813  0.4548  2.5901
  800MPD2    H211843   3.962   0.896  14.428 -2.2777 -1.9902  0.8533
  800MPD2    H311844   3.741   0.821  14.374  0.8394  1.0942  0.9092
  800MPD2     N11845   3.911   0.623  13.998  0.2118  0.4586  0.1027
  800MPD2    H511846   3.996   0.600  13.948  0.6142 -0.9845  1.4478
  800MPD2    N111847   4.182   0.856  14.320 -0.3723  0.2835 -0.0813
  800MPD2    H711848   4.181   0.921  14.398  0.8483  0.3725 -0.1286
  801MPD2     C11849   4.397   1.435  14.666  0.1556 -0.5135 -0.1820
  801MPD2    C111850   4.327   1.317  14.655  0.2773  0.8660 -0.2204
  801MPD2    C211851   4.208   1.317  14.733  0.1393  0.1725 -0.7585
  801MPD2    C311852   4.158   1.424  14.799  0.0169 -0.1672 -0.3660
  801MPD2    C411853   4.239   1.535  14.807 -0.0324 -0.2000 -0.2038
  801MPD2    C511854   4.357   1.544  14.737  0.3460  0.5157 -0.1439
  801MPD2     H11855   4.142   1.232  14.720 -0.1316  0.2525  0.0717
  801MPD2    H111856   4.221   1.623  14.868 -1.7697 -0.3238 -0.5398
  801MPD2    H211857   4.491   1.446  14.613  0.6041  0.0667  0.7256
  801MPD2    H311858   4.427   1.625  14.753 -0.1344  0.2803  2.9949
  801MPD2     N11859   4.050   1.424  14.888  0.6658 -0.0387 -0.2660
  801MPD2    H511860   4.046   1.506  14.949 -1.0104 -1.4532  1.5212
  801MPD2    N111861   4.370   1.205  14.579 -0.2129 -0.3792 -0.9194
  801MPD2    H711862   4.306   1.127  14.565 -0.0301 -0.3223 -2.0740
  802MPD2     C11863   3.901   1.357   0.150 -0.0308  0.7579 -0.0427
  802MPD2    C111864   3.777   1.398   0.107  0.5131  0.1621 -0.1302
  802MPD2    C211865   3.742   1.360  17.714 -0.3347  0.0925  0.2589
  802MPD2    C311866   3.822   1.279  17.643  0.0414  0.5038 -0.9034
  802MPD2    C411867   3.944   1.239  17.688  0.2624 -0.2409 -0.6991
  802MPD2    C511868   3.988   1.284   0.071 -0.9131 -1.1661  0.6742
  802MPD2     H11869   3.649   1.394  17.670 -0.8494  0.2368  1.4538
  802MPD2    H111870   4.010   1.177  17.630  1.0052 -1.5766  1.5746
  802MPD2    H211871   3.942   1.375   0.249 -2.3965 -1.8403  1.4122
  802MPD2    H311872   4.082   1.248   0.112 -0.6843 -1.5001 -0.1486
  802MPD2     N11873   3.771   1.230  17.519 -0.1717 -0.5726  0.0691
  802MPD2    H511874   3.696   1.289  17.485  1.2017  0.2855 -1.4328
  802MPD2    N111875   3.693   1.488   0.173  0.4319 -0.1359 -0.2304
  802MPD2    H711876   3.611   1.525   0.126 -0.6468 -1.0527  0.9404
  803MPD2     C11877   4.667   4.300  11.832  0.6690 -0.8083  0.5993
  803MPD2    C111878   0.015   4.406  11.878  1.1492  0.4629 -0.8125
  803MPD2    C211879   0.005   4.452  12.006  0.3380  0.0953 -0.1646
  803MPD2    C311880   4.637   4.395  12.087 -0.0938 -0.4869 -0.5839
  803MPD2    C411881   4.546   4.303  12.038  0.4009 -0.9016  0.0766
  803MPD2    C511882   4.564   4.251  11.911  0.0780  0.1956 -0.3799
  803MPD2     H11883   0.070   4.524  12.056  2.1389 -2.4485  1.1611
  803MPD2    H111884   4.462   4.265  12.094 -0.2965  0.0875 -0.3104
  803MPD2    H211885   4.664   4.269  11.728 -0.3081  1.8385 -0.1540
  803MPD2    H311886   4.489   4.183  11.872  1.6425 -2.3913  1.1207
  803MPD2     N11887   4.619   4.424  12.223  0.2680 -0.0515  0.1058
  803MPD2    H511888   4.549   4.378  12.281  1.2394 -1.8173 -0.1436
  803MPD2    N111889   0.119   4.462  11.792  0.3748  0.1025  0.4009
  803MPD2    H711890   0.174   4.538  11.830  1.4373 -0.3414 -0.2404
  804MPD2     C11891   4.055   1.103  17.068 -0.1881 -0.1561 -0.0471
  804MPD2    C111892   4.100   1.115  17.198 -0.5709 -0.5575  0.0204
  804MPD2    C211893   4.140   1.243  17.247 -0.2205  0.5427  0.5201
  804MPD2    C311894   4.137   1.355  17.165 -0.3358  0.0629 -0.1205
  804MPD2    C411895   4.079   1.338  17.041  0.7059  0.2569 -0.0877
  804MPD2    C511896   4.038   1.219  16.995  0.1495 -0.1688 -0.7570
  804MPD2     H11897   4.190   1.251  17.343 -2.0060  0.0622  1.4866
  804MPD2    H111898   4.066   1.423  16.975  0.8859 -0.7432 -1.4252
  804MPD2    H211899   4.029   1.012  17.015  0.0862 -0.6162  0.6065
  804MPD2    H311900   4.008   1.225  16.891  1.3740 -0.3364 -1.1221
  804MPD2     N11901   4.197   1.472  17.209  0.0122  0.4855  0.1843
  804MPD2    H511902   4.225   1.471  17.306  0.6948 -0.0132 -0.0172
  804MPD2    N111903   4.128   1.002  17.273 -0.2245 -0.0915  0.6576
  804MPD2    H711904   4.144   1.011  17.373  0.3329 -1.0306  0.6590
  805MPD2     C11905   3.236   4.293  15.216  0.1935  1.1218 -1.0244
  805MPD2    C111906   3.332   4.332  15.125 -0.2163 -0.4547 -0.3860
  805MPD2    C211907   3.461   4.352  15.169  0.4785  0.2278  0.1245
  805MPD2    C311908   3.491   4.351  15.304 -0.5477  0.2694  0.6943
  805MPD2    C411909   3.394   4.322  15.395  0.4458 -0.8630  0.3183
  805MPD2    C511910   3.265   4.290  15.352 -0.0643  0.0619  0.2159
  805MPD2     H11911   3.537   4.388  15.101 -0.7091  0.2599 -1.1809
  805MPD2    H111912   3.409   4.331  15.502  2.3324 -0.5411  0.0302
  805MPD2    H211913   3.132   4.269  15.199  0.2456  0.1857  0.0030
  805MPD2    H311914   3.200   4.260  15.433  0.1644  0.4298  0.5415
  805MPD2     N11915   3.625   4.387  15.329 -0.2280  0.2605  0.3519
  805MPD2    H511916   3.684   4.385  15.246 -0.8999 -0.0546 -0.1212
  805MPD2    N111917   3.293   4.340  14.987 -0.0578  0.0309  0.0845
  805MPD2    H711918   3.373   4.346  14.925  0.3819  2.1530  0.8682
  806MPD2     C11919   4.595   3.883   1.475  0.0631  0.2984 -0.7012
  806MPD2    C111920   4.700   3.829   1.410  0.2759  0.3764 -0.0268
  806MPD2    C211921   4.709   3.837   1.272  0.4927  0.0854  0.7406
  806MPD2    C311922   4.612   3.896   1.191  0.2493 -0.0164 -0.2239
  806MPD2    C411923   4.496   3.943   1.259 -0.1481  0.7491  0.3627
  806MPD2    C511924   4.499   3.945   1.400 -0.2231 -0.5783  0.0671
  806MPD2     H11925   0.067   3.799   1.231 -0.2049 -1.2170  0.3533
  806MPD2    H111926   4.431   4.017   1.212 -0.4271  0.4395  0.2637
  806MPD2    H211927   4.600   3.881   1.583 -4.7712  1.5635 -0.4514
  806MPD2    H311928   4.412   3.994   1.442  0.5069  0.2838  0.5730
  806MPD2     N11929   4.623   3.910   1.052 -0.6901 -0.2921 -0.5673
  806MPD2    H511930   4.555   3.969   1.007 -0.5005  0.2358 -0.1670
  806MPD2    N111931   0.058   3.769   1.495 -0.3029  0.1168  0.4765
  806MPD2    H711932   0.020   3.747   1.587  1.2101 -1.2157  0.7775
  807MPD2     C11933   0.227   3.606   2.188  0.2495  0.7361 -0.8869
  807MPD2    C111934   0.135   3.620   2.091  0.4659 -0.1115 -0.0623
  807MPD2    C211935   4.731   3.634   2.120  0.4408 -0.3115  0.0081
  807MPD2    C311936   4.692   3.631   2.249  0.7052  0.2516  0.0146
  807MPD2    C411937   0.047   3.639   2.348  0.0634  0.1937 -0.1651
  807MPD2    C511938   0.180   3.625   2.316  0.2456  0.5805  0.3731
  807MPD2     H11939   4.671   3.613   2.032  0.7831  0.0754 -0.3192
  807MPD2    H111940   0.024   3.625   2.454  1.9215  0.6151  0.2814
  807MPD2    H211941   0.330   3.580   2.170  0.9967  1.7429  1.8786
  807MPD2    H311942   0.251   3.616   2.397  1.5304  1.4665 -0.6407
  807MPD2     N11943   4.556   3.606   2.278 -0.0262  0.5084  0.4065
  807MPD2    H511944   4.488   3.602   2.203 -1.0822 -0.6885  1.4081
  807MPD2    N111945   0.174   3.608   1.953 -0.4206 -0.2812  0.6757
  807MPD2    H711946   0.107   3.638   1.883 -2.2038 -2.2479  1.5555
  808MPD2     C11947   3.703   0.219   9.921  0.9804  0.0784 -0.1935
  808MPD2    C111948   3.705   0.266   9.794  0.2503  0.2805  0.4490
  808MPD2    C211949   3.787   0.378   9.765 -0.6360 -0.2630  0.2353
  808MPD2    C311950   3.861   0.434   9.870 -1.2146 -0.1620 -0.5572
  808MPD2    C411951   3.874   0.375   9.991 -0.6760 -0.2258  0.0388
  808MPD2    C511952   3.782   0.277  10.014 -0.1537 -0.1538  0.4524
  808MPD2     H11953   3.782   0.433   9.672  2.1454  1.1667  0.9304
  808MPD2    H111954   3.947   0.405  10.065 -1.0758  1.5130 -0.2704
  808MPD2    H211955   3.618   0.167   9.963  2.1603 -1.1628  0.6188
  808MPD2    H311956   3.772   0.253  10.119  2.8079  0.4163  0.8597
  808MPD2     N11957   3.940   0.543   9.845 -0.2940  0.1049  0.0264
  808MPD2    H511958   4.017   0.564   9.908 -0.0186 -0.5241 -0.0996
  808MPD2    N111959   3.623   0.216   9.692 -0.5802  0.2847 -0.0861
  808MPD2    H711960   3.647   0.257   9.602 -0.8605 -1.3615 -0.9202
  809MPD2     C11961   0.126   0.671   9.485  0.1491  0.2811 -0.6878
  809MPD2    C111962   0.068   0.600   9.587  0.0226 -0.4902 -0.3904
  809MPD2    C211963   4.676   0.624   9.625 -0.2218 -0.0254  0.1711
  809MPD2    C311964   4.604   0.727   9.580 -0.4568  0.2593 -0.1104
  809MPD2    C411965   4.656   0.794   9.475 -0.6089 -0.5111  0.1890
  809MPD2    C511966   0.048   0.770   9.429 -0.9421 -0.5375 -0.1115
  809MPD2     H11967   4.635   0.569   9.709  0.7510 -0.6539  0.2411
  809MPD2    H111968   4.595   0.869   9.425  1.6466 -0.0812 -1.9671
  809MPD2    H211969   0.225   0.657   9.443  0.1583 -1.1711 -0.1572
  809MPD2    H311970   0.076   0.816   9.335  3.8100 -4.3637 -0.6007
  809MPD2     N11971   4.476   0.772   9.619  0.8917 -0.2282 -0.2591
  809MPD2    H511972   4.435   0.846   9.562  0.8134  1.3556  1.8437
  809MPD2    N111973   0.140   0.499   9.649  0.0091 -0.4493  0.2501
  809MPD2    H711974   0.098   0.457   9.731  0.8363 -0.4504  0.6644
  810MPD2     C11975   3.862   4.329  10.580 -0.1556 -0.1372  0.9728
  810MPD2    C111976   3.780   4.356  10.471 -0.5247 -0.0302 -0.4363
  810MPD2    C211977   3.717   4.477  10.466  0.6569 -0.1806 -0.6487
  810MPD2    C311978   3.735   4.576  10.554 -0.1193  0.2528  0.2162
  810MPD2    C411979   3.823   4.548  10.656 -0.1138  0.8360 -0.3112
  810MPD2    C511980   3.879   4.424  10.679 -0.2251  0.3373 -0.3880
  810MPD2     H11981   3.654   4.494  10.379  0.3363 -2.0380 -0.7856
  810MPD2    H111982   3.843   4.619  10.736  0.1701 -1.9981  2.1469
  810MPD2    H211983   3.909   4.233  10.599  0.5573  0.3752  1.8161
  810MPD2    H311984   3.931   4.399  10.771 -1.1185 -2.7005 -0.7130
  810MPD2     N11985   3.671   4.699  10.544 -0.5521  0.3628  0.9251
  810MPD2    H511986   3.689   0.033  10.616  1.2755 -0.9439  1.7172
  810MPD2    N111987   3.759   4.264  10.361  0.6002 -0.0297  0.0070
  810MPD2    H711988   3.772   4.166  10.383 -0.7900  0.1955  1.7928
  811MPD2     C11989   3.137   4.251   9.711 -0.3618 -0.1789  0.2653
  811MPD2    C111990   3.217   4.302   9.808  1.4361 -0.1115 -0.2247
  811MPD2    C211991   3.206   4.441   9.833 -0.0165  0.3015 -0.2768
  811MPD2    C311992   3.114   4.523   9.762 -0.0657 -0.0734  0.2624
  811MPD2    C411993   3.039   4.463   9.665 -0.4813 -0.0770 -0.3134
  811MPD2    C511994   3.049   4.332   9.642  0.1367 -0.5248 -0.5634
  811MPD2     H11995   3.269   4.494   9.904 -2.1878 -0.8501  2.5366
  811MPD2    H111996   2.969   4.516   9.602  0.3555  0.0821 -1.1124
  811MPD2    H211997   3.139   4.149   9.675  1.3292 -0.0324 -0.0726
  811MPD2    H311998   2.991   4.284   9.564 -1.4208  1.4599 -0.6394
  811MPD2     N11999   3.107   4.658   9.793 -0.4751 -0.0874  0.7387
  811MPD2    H512000   3.163   4.687   9.873 -0.4611  0.5919  0.4883
  811MPD2    N112001   3.305   4.215   9.877  0.9184  0.3468 -0.3151
  811MPD2    H712002   3.299   4.116   9.854  0.3978  0.3325 -0.1128
  812MPD2     C12003   2.340   4.091  11.977  0.7410 -0.0892  0.2787
  812MPD2    C112004   2.463   4.158  11.969 -0.4900  0.5132  0.6007
  812MPD2    C212005   2.542   4.151  12.078  0.2814 -0.4303 -0.3816
  812MPD2    C312006   2.500   4.092  12.192  0.0472  0.3091 -0.7006
  812MPD2    C412007   2.367   4.055  12.210 -0.3003 -0.9407  0.7343
  812MPD2    C512008   2.286   4.059  12.097  0.1948 -0.1848  0.2251
  812MPD2     H12009   2.644   4.188  12.070  0.3469 -0.1794  1.6308
  812MPD2    H112010   2.329   4.014  12.303  1.7958 -2.7613  0.7732
  812MPD2    H212011   2.273   4.092  11.892  0.5403 -0.2524  0.4356
  812MPD2    H312012   2.189   4.012  12.107 -0.1428  1.0028  2.5564
  812MPD2     N12013   2.587   4.091  12.301 -0.7374 -0.5789  0.2108
  812MPD2    H512014   2.680   4.124  12.281 -0.4709 -1.6596 -0.3409
  812MPD2    N112015   2.489   4.214  11.840  0.1133 -0.0583 -0.1000
  812MPD2    H712016   2.419   4.202  11.767  2.8685 -1.8132 -2.4572
  813MPD2     C12017   1.496   1.431  12.618 -0.0911  0.2355 -0.2382
  813MPD2    C112018   1.548   1.555  12.622  0.4915 -0.1198 -0.4902
  813MPD2    C212019   1.502   1.638  12.718  0.7626 -0.2224  0.2570
  813MPD2    C312020   1.395   1.607  12.797 -0.1530 -1.0021 -0.7553
  813MPD2    C412021   1.340   1.482  12.788 -0.4306  0.0808  0.8969
  813MPD2    C512022   1.396   1.391  12.702  0.3135  0.2370  0.2944
  813MPD2     H12023   1.549   1.734  12.734  0.6907 -0.1464  0.0202
  813MPD2    H112024   1.264   1.451  12.859 -0.0402 -1.1942  0.7668
  813MPD2    H212025   1.537   1.355  12.552  2.2616  0.6541  0.7538
  813MPD2    H312026   1.359   1.289  12.703  0.2196  0.2703  0.1551
  813MPD2     N12027   1.358   1.703  12.891 -0.0818  0.2920 -0.2778
  813MPD2    H512028   1.398   1.795  12.872  0.7739 -0.2826 -1.1981
  813MPD2    N112029   1.661   1.580  12.542  0.5258 -0.7911 -0.5633
  813MPD2    H712030   1.693   1.499  12.490  0.9452 -0.1685 -1.2838
  814MPD2     C12031   2.054   2.704  12.272  0.4754 -0.0822 -0.8562
  814MPD2    C112032   2.131   2.728  12.159 -0.0084 -0.0408  0.3381
  814MPD2    C212033   2.198   2.849  12.141  0.2685  0.4387 -0.7345
  814MPD2    C312034   2.194   2.937  12.248  0.0725 -0.8611  0.5712
  814MPD2    C412035   2.126   2.920  12.361 -0.0360  0.0037  0.1779
  814MPD2    C512036   2.057   2.803  12.372 -0.0959 -0.4651  0.4938
  814MPD2     H12037   2.266   2.870  12.058  0.6290 -3.2179 -1.3504
  814MPD2    H112038   2.123   3.006  12.427 -0.3688 -1.5968  2.2408
  814MPD2    H212039   2.000   2.613  12.294 -1.5730  0.2882 -4.3335
  814MPD2    H312040   1.998   2.782  12.461  0.9526  1.3730  1.6215
  814MPD2     N12041   2.259   3.067  12.243  0.1510 -0.9371 -0.2110
  814MPD2    H512042   2.237   3.136  12.314 -1.2795 -1.2782 -0.3265
  814MPD2    N112043   2.155   2.629  12.061 -0.3366  0.0742 -0.0098
  814MPD2    H712044   2.209   2.659  11.980 -0.9466  0.5066 -0.2560
  815MPD2     C12045   2.782   0.971  11.891 -0.3085 -0.2682 -0.1527
  815MPD2    C112046   2.711   1.013  11.773  0.4236 -0.3507 -0.0135
  815MPD2    C212047   2.576   1.064  11.780 -0.5922 -0.5107  0.2711
  815MPD2    C312048   2.513   1.059  11.901 -0.8192 -0.3721 -0.6610
  815MPD2    C412049   2.579   1.009  12.010  0.0334 -0.2227 -0.5524
  815MPD2    C512050   2.708   0.968  12.008  0.5032 -0.2482  0.2697
  815MPD2     H12051   2.529   1.091  11.686 -1.3333 -1.0253  0.5020
  815MPD2    H112052   2.537   1.016  12.109 -0.1890 -1.7454 -0.5457
  815MPD2    H212053   2.884   0.935  11.886 -0.2282  0.3966 -3.4871
  815MPD2    H312054   2.749   0.926  12.099  1.6806 -0.4580 -0.3668
  815MPD2     N12055   2.377   1.099  11.910 -0.5567  0.7448 -0.4395
  815MPD2    H512056   2.339   1.158  11.837 -1.9389 -0.5383 -0.7594
  815MPD2    N112057   2.776   0.996  11.653  0.0275  0.3424 -0.3451
  815MPD2    H712058   2.870   0.959  11.657 -0.0122  0.1980 -0.7222
  816MPD2     C12059   2.343   0.544  17.493  0.4061 -0.4309  0.4832
  816MPD2    C112060   2.417   0.656  17.500  0.3185 -0.0954 -0.4889
  816MPD2    C212061   2.557   0.641  17.505 -0.4010 -0.5050  0.4003
  816MPD2    C312062   2.619   0.516  17.483 -0.1257  0.0735 -0.4296
  816MPD2    C412063   2.538   0.404  17.475  0.3633 -0.0711 -0.0388
  816MPD2    C512064   2.402   0.420  17.481 -0.5726  0.2224  0.1082
  816MPD2     H12065   2.624   0.723  17.530 -3.5669  1.6178  1.8111
  816MPD2    H112066   2.577   0.305  17.459  0.3166 -0.0482 -0.2911
  816MPD2    H212067   2.235   0.549  17.502  0.1478 -2.1770 -1.7487
  816MPD2    H312068   2.341   0.330  17.475 -0.0366 -0.2130  1.1070
  816MPD2     N12069   2.760   0.505  17.458 -0.2880 -0.0209 -0.1827
  816MPD2    H512070   2.813   0.592  17.454  3.1250 -2.0735  0.2273
  816MPD2    N112071   2.363   0.782  17.537  0.0511 -0.0340  0.3948
  816MPD2    H712072   2.422   0.858  17.569 -1.4906  1.3524 -0.0231
  817MPD2     C12073   2.501   2.456   9.701  0.1093 -0.1444 -0.2573
  817MPD2    C112074   2.493   2.406   9.569  0.5122 -0.2001  0.1321
  817MPD2    C212075   2.389   2.439   9.489 -0.2185  0.1488 -0.2334
  817MPD2    C312076   2.297   2.533   9.535 -0.4348 -0.0688 -0.5178
  817MPD2    C412077   2.318   2.604   9.655  0.3007  0.9685 -0.0859
  817MPD2    C512078   2.417   2.560   9.738 -0.3955 -0.4612 -0.2233
  817MPD2     H12079   2.379   2.398   9.389  0.0600  0.3647 -0.3492
  817MPD2    H112080   2.261   2.693   9.682  0.1132  1.2438 -1.3669
  817MPD2    H212081   2.583   2.436   9.769 -1.3600 -0.4760  1.4206
  817MPD2    H312082   2.449   2.616   9.824  0.3032  0.0760 -0.8310
  817MPD2     N12083   2.185   2.552   9.458 -0.2380 -0.2244 -0.0320
  817MPD2    H512084   2.189   2.501   9.370  3.4512  0.7308 -0.3832
  817MPD2    N112085   2.579   2.305   9.520 -0.2674  0.3844 -0.3595
  817MPD2    H712086   2.576   2.284   9.421 -2.1599 -1.3700  0.0857
  818MPD2     C12087   1.252   1.864   9.765 -0.2953 -0.2947  0.6637
  818MPD2    C112088   1.190   1.809   9.874  0.4130  0.0428  0.1782
  818MPD2    C212089   1.223   1.679   9.916 -0.1603 -0.3105 -0.3608
  818MPD2    C312090   1.319   1.605   9.855  0.3256 -0.1952  0.6087
  818MPD2    C412091   1.390   1.667   9.745  0.2108  0.4381  0.6545
  818MPD2    C512092   1.347   1.791   9.698  0.1810  0.2578 -0.7426
  818MPD2     H12093   1.174   1.643  10.006 -0.5988 -0.2604 -0.5833
  818MPD2    H112094   1.478   1.617   9.705  0.6356  0.2750  1.7891
  818MPD2    H212095   1.218   1.956   9.717 -1.8803 -0.5511  1.2744
  818MPD2    H312096   1.390   1.830   9.606  3.2270 -0.5462  0.3242
  818MPD2     N12097   1.366   1.476   9.892  0.5533 -0.3827  0.5067
  818MPD2    H512098   1.436   1.429   9.836  1.8145 -1.0588  2.6367
  818MPD2    N112099   1.097   1.882   9.964 -0.4233 -0.1378  0.4515
  818MPD2    H712100   1.072   1.830  10.048  1.1584 -2.4936 -0.5471
  819MPD2     C12101   3.865   4.009  15.368 -0.7296 -0.0071  0.2780
  819MPD2    C112102   3.872   3.868  15.392  0.1891 -0.4521  0.1761
  819MPD2    C212103   3.970   3.823  15.479 -0.9650 -0.8396  0.2162
  819MPD2    C312104   4.062   3.909  15.535  0.0363  0.1358 -0.3458
  819MPD2    C412105   4.051   4.044  15.519 -0.3685  0.4048  0.0088
  819MPD2    C512106   3.957   4.086  15.428 -0.2034  0.7429 -0.3578
  819MPD2     H12107   3.998   3.719  15.486  1.6299 -0.1848 -0.3533
  819MPD2    H112108   4.125   4.115  15.555 -0.0997  0.3317 -0.3990
  819MPD2    H212109   3.796   4.049  15.295 -1.6305 -2.4655 -0.2464
  819MPD2    H312110   3.960   4.193  15.412 -0.5558  0.8867  0.4947
  819MPD2     N12111   4.161   3.850  15.614  0.0563  0.1820 -0.2904
  819MPD2    H512112   4.166   3.749  15.612  0.6628  0.1707  2.5590
  819MPD2    N112113   3.788   3.783  15.315 -0.9133 -0.4707  0.8735
  819MPD2    H712114   3.730   3.830  15.246 -0.9679  0.4697  1.5536
  820MPD2     C12115   3.044   3.776  14.670  0.2107  0.9221  0.2317
  820MPD2    C112116   3.154   3.855  14.698  0.8517  1.1402 -0.6904
  820MPD2    C212117   3.245   3.802  14.786  0.4995  0.3693 -0.2255
  820MPD2    C312118   3.223   3.689  14.860  0.6799 -0.0729  0.3774
  820MPD2    C412119   3.107   3.626  14.845 -0.5031 -0.6283 -0.6641
  820MPD2    C512120   3.011   3.672  14.754 -0.1947 -0.4108  0.5644
  820MPD2     H12121   3.344   3.846  14.793  0.3810  0.2310  2.4970
  820MPD2    H112122   3.087   3.533  14.898  0.1425 -0.6412 -0.4510
  820MPD2    H212123   2.970   3.807  14.597  2.1617 -0.5115 -2.3265
  820MPD2    H312124   2.917   3.620  14.742 -0.7893  0.7039  0.4273
  820MPD2     N12125   3.312   3.641  14.959  0.4809 -0.5790 -0.1308
  820MPD2    H512126   3.290   3.551  15.002  0.7506 -0.7597 -0.3765
  820MPD2    N112127   3.163   3.977  14.641  0.5244 -0.1502 -0.3039
  820MPD2    H712128   3.092   4.007  14.576  0.1998 -0.1124  0.0690
  821MPD2     C12129   3.904   0.859  13.328  0.0586  0.3934  0.0946
  821MPD2    C112130   3.999   0.772  13.370 -0.6821  0.4299 -0.4230
  821MPD2    C212131   4.129   0.793  13.346 -0.2702 -0.4325  0.0817
  821MPD2    C312132   4.175   0.898  13.268  0.8502 -0.4793  0.1440
  821MPD2    C412133   4.083   0.991  13.233 -0.8338 -0.5363 -0.6084
  821MPD2    C512134   3.947   0.972  13.267  0.4568 -0.2804  0.2596
  821MPD2     H12135   4.199   0.719  13.381 -1.9225 -1.3914  1.3343
  821MPD2    H112136   4.106   1.077  13.172 -0.9601 -1.8906 -2.5516
  821MPD2    H212137   3.799   0.847  13.352  0.5223  0.2351  2.0913
  821MPD2    H312138   3.883   1.052  13.232  1.2478 -0.0162 -0.5979
  821MPD2     N12139   4.309   0.920  13.230 -0.1555  0.1171 -0.4956
  821MPD2    H512140   4.333   1.009  13.189 -1.3777  1.3244  1.4043
  821MPD2    N112141   3.964   0.657  13.437 -0.2297 -0.2781 -0.3206
  821MPD2    H712142   4.048   0.605  13.459 -1.3581 -2.3658 -0.8910
  822MPD2     C12143   0.134   0.464  15.768 -0.0982  0.7631  0.4623
  822MPD2    C112144   0.129   0.452  15.908  0.5298 -0.0561 -0.5252
  822MPD2    C212145   0.051   0.545  15.974 -0.8699 -0.2471 -0.3751
  822MPD2    C312146   4.720   0.651  15.914 -0.7272 -0.5643  0.6647
  822MPD2    C412147   4.723   0.658  15.781  0.5839 -0.8299 -0.6639
  822MPD2    C512148   0.053   0.560  15.704  0.2362  0.3380  0.2971
  822MPD2     H12149   0.040   0.538  16.082  0.5590  0.4568 -0.1781
  822MPD2    H112150   4.683   0.745  15.730  2.2021  1.1651  1.5228
  822MPD2    H212151   0.201   0.400  15.711 -1.4503  0.3595 -0.6588
  822MPD2    H312152   0.041   0.571  15.597  1.3549  1.5777  0.2997
  822MPD2     N12153   4.670   0.750  15.997  0.3015  0.0256  0.2835
  822MPD2    H512154   4.679   0.728  16.096  0.6836 -1.2941 -0.0467
  822MPD2    N112155   0.204   0.363  15.988 -0.2039 -0.0832 -0.4389
  822MPD2    H712156   0.173   0.359  16.085 -1.1567 -3.2809 -0.8787
  823MPD2     C12157   4.401   0.979  16.770 -0.1786  0.0807  0.2446
  823MPD2    C112158   4.451   0.894  16.676  0.1566  0.1592  0.5245
  823MPD2    C212159   4.495   0.769  16.714  0.1299 -0.2679 -0.1910
  823MPD2    C312160   4.482   0.720  16.849 -0.4624 -0.0779 -0.0760
  823MPD2    C412161   4.422   0.810  16.944  0.3261 -0.6505  0.2667
  823MPD2    C512162   4.388   0.929  16.899  0.5840 -0.1227  0.3556
  823MPD2     H12163   4.529   0.703  16.634 -0.9981 -0.2924 -0.6451
  823MPD2    H112164   4.413   0.781  17.048 -1.4318 -1.3833 -0.0780
  823MPD2    H212165   4.365   1.080  16.751  2.2126  1.0415  0.7758
  823MPD2    H312166   4.337   0.991  16.972 -1.8993 -1.6313 -0.1082
  823MPD2     N12167   4.546   0.601  16.885  0.4249  0.2222 -0.0077
  823MPD2    H512168   4.527   0.574  16.981  0.2591 -1.3773 -0.4858
  823MPD2    N112169   4.472   0.956  16.550 -0.1100 -0.7421 -0.4711
  823MPD2    H712170   4.470   1.057  16.550  2.7483 -0.6747  1.4303
  824MPD2     C12171   0.954   4.665  16.041  0.2485  0.2966  0.4792
  824MPD2    C112172   0.846   4.652  15.956 -0.0371 -0.0343 -1.3812
  824MPD2    C212173   0.860   4.569  15.851  0.1145  0.3352 -0.2043
  824MPD2    C312174   0.976   4.494  15.825 -0.8324  0.7044 -0.3479
  824MPD2    C412175   1.084   4.510  15.913 -0.2494 -1.0007 -0.2758
  824MPD2    C512176   1.067   4.593  16.025 -0.3976 -0.0068  0.2230
  824MPD2     H12177   0.768   4.561  15.795 -0.1183 -0.8310  0.3470
  824MPD2    H112178   1.175   4.452  15.908 -0.5925 -1.5303 -0.4651
  824MPD2    H212179   0.954   4.733  16.125  2.4807 -0.7462  1.3050
  824MPD2    H312180   1.155   4.605  16.088  2.5305 -2.2114 -3.4361
  824MPD2     N12181   0.972   4.425  15.703 -0.0563 -0.4262  0.3467
  824MPD2    H512182   0.891   4.436  15.644 -0.2504  1.6185  0.9761
  824MPD2    N112183   0.719   4.708  15.975  0.6678  0.2376 -0.7053
  824MPD2    H712184   0.644   4.681  15.912 -0.4217 -1.0744  1.1821
  825MPD2     C12185   1.188   4.523  14.885 -0.1726 -0.1232 -0.1183
  825MPD2    C112186   1.170   4.570  15.014  1.0105 -0.4648  0.8512
  825MPD2    C212187   1.162   4.704  15.045  0.5912 -0.0609  0.5046
  825MPD2    C312188   1.173   0.055  14.941 -1.0193 -0.0585 -0.3085
  825MPD2    C412189   1.191   0.009  14.812 -0.1735  0.0223 -0.4040
  825MPD2    C512190   1.205   4.612  14.783 -0.3236 -1.4166 -0.2107
  825MPD2     H12191   1.142   0.013  15.141  1.8428  2.0623 -0.2274
  825MPD2    H112192   1.210   0.069  14.724  1.3153 -0.3545 -0.3521
  825MPD2    H212193   1.192   4.416  14.865 -3.1455 -0.3770  0.6294
  825MPD2    H312194   1.224   4.590  14.679  2.1217  0.9726 -0.2493
  825MPD2     N12195   1.164   0.196  14.954 -0.1267 -0.3363  0.3249
  825MPD2    H512196   1.172   0.252  14.869  1.6943  0.3235  0.9237
  825MPD2    N112197   1.147   4.471  15.115 -0.0046 -0.4949 -0.6443
  825MPD2    H712198   1.147   4.376  15.081  1.2904 -0.6064 -0.3407
  826MPD2     C12199   0.940   4.467  13.931 -0.4467 -0.4148  0.1149
  826MPD2    C112200   0.923   4.511  13.803  0.2976  0.6578  0.0222
  826MPD2    C212201   0.865   4.631  13.778 -0.5294 -0.0349  0.1045
  826MPD2    C312202   0.826   4.709  13.884 -0.8781  0.3299 -0.1378
  826MPD2    C412203   0.837   4.663  14.007 -0.2272 -0.0503  0.5976
  826MPD2    C512204   0.893   4.545  14.033 -0.3022 -0.1726  0.9717
  826MPD2     H12205   0.858   4.666  13.676 -1.0122  0.8840  0.4569
  826MPD2    H112206   0.793   4.713  14.093 -2.7167 -1.6384  0.2406
  826MPD2    H212207   0.977   4.366  13.945 -0.3383 -0.0336  2.4525
  826MPD2    H312208   0.889   4.507  14.135 -0.2196 -1.3127  0.5481
  826MPD2     N12209   0.767   0.102  13.872  0.0133  0.9596  0.1676
  826MPD2    H512210   0.719   0.125  13.959  2.3028 -1.8413  2.1585
  826MPD2    N112211   0.968   4.427  13.696  0.0263  0.1903 -0.3609
  826MPD2    H712212   1.012   4.339  13.722  2.3367  1.1000 -1.2361
  827MPD2     C12213   1.786   0.433   9.606  0.3539  0.8206 -0.1632
  827MPD2    C112214   1.709   0.445   9.719  0.0073  0.7641  0.3965
  827MPD2    C212215   1.572   0.429   9.704 -0.0340 -0.0808 -0.2518
  827MPD2    C312216   1.513   0.423   9.575 -0.2856  0.0833 -0.4652
  827MPD2    C412217   1.593   0.427   9.465 -0.2723  0.1729  0.1360
  827MPD2    C512218   1.733   0.430   9.485 -0.1521 -0.2394 -0.2817
  827MPD2     H12219   1.503   0.424   9.787  0.8717  2.1180  0.6349
  827MPD2    H112220   1.557   0.421   9.363  0.6613 -1.0024 -0.1302
  827MPD2    H212221   1.893   0.447   9.613  0.3346  1.5376 -1.2638
  827MPD2    H312222   1.804   0.432   9.404 -0.6705 -0.4984 -0.7454
  827MPD2     N12223   1.371   0.410   9.566  0.2410 -0.4136  0.6339
  827MPD2    H512224   1.311   0.404   9.647 -0.4345  0.1752  0.1747
  827MPD2    N112225   1.774   0.459   9.849 -0.9878 -0.2968 -0.0682
  827MPD2    H712226   1.875   0.463   9.841 -0.9739 -1.3090 -0.3612
  828MPD2     C12227   0.448   0.796  12.252 -0.0102  0.9226  0.0042
  828MPD2    C112228   0.330   0.770  12.178  0.5927 -0.7121  0.6469
  828MPD2    C212229   0.330   0.714  12.050  0.3352 -0.7478  0.3932
  828MPD2    C312230   0.460   0.689  11.993 -1.1394  0.2290  0.3818
  828MPD2    C412231   0.576   0.715  12.065  0.0287  0.2240  0.1282
  828MPD2    C512232   0.563   0.771  12.191  0.2465  0.3710 -0.9311
  828MPD2     H12233   0.237   0.698  11.996  2.0203 -0.5039 -2.5684
  828MPD2    H112234   0.675   0.704  12.024 -0.2488 -0.4691 -0.3516
  828MPD2    H212235   0.446   0.846  12.348  0.6735  0.8584  0.0573
  828MPD2    H312236   0.654   0.800  12.243 -0.5455  0.6599  0.3107
  828MPD2     N12237   0.485   0.623  11.871  0.4419  0.2176 -0.4655
  828MPD2    H512238   0.582   0.613  11.841  0.8192  0.2612  0.7459
  828MPD2    N112239   0.204   0.807  12.230 -0.0692 -0.5829 -0.6227
  828MPD2    H712240   0.119   0.797  12.176  0.1335 -0.1228 -1.0242
  829MPD2     C12241   4.053   1.232  12.016  0.1541 -0.6844 -0.7115
  829MPD2    C112242   4.174   1.237  11.955 -0.2112  0.5524 -0.0234
  829MPD2    C212243   4.284   1.189  12.031 -0.4897 -0.4353 -0.2328
  829MPD2    C312244   4.276   1.136  12.161  0.9104 -0.1734  0.1770
  829MPD2    C412245   4.153   1.143  12.222 -0.9879  0.5790  0.2253
  829MPD2    C512246   4.049   1.194  12.148 -0.0434 -0.2642  0.2750
  829MPD2     H12247   4.377   1.176  11.977 -0.6285  1.3971 -0.9122
  829MPD2    H112248   4.134   1.105  12.322  1.0926  1.2546  0.8756
  829MPD2    H212249   3.966   1.266  11.961 -0.6312 -0.6163  0.5883
  829MPD2    H312250   3.949   1.187  12.189  0.2982  0.9454  1.3174
  829MPD2     N12251   4.367   1.063  12.232  0.6594 -0.4082 -0.9140
  829MPD2    H512252   4.329   1.024  12.318  0.9616  0.2837 -0.4675
  829MPD2    N112253   4.174   1.284  11.822 -0.1675 -0.6949 -0.0660
  829MPD2    H712254   4.084   1.290  11.774  0.2665 -1.2469 -0.9679
  830MPD2     C12255   0.165   3.621  15.781  0.3828 -0.2430  0.0546
  830MPD2    C112256   0.075   3.631  15.676  0.0464 -0.9785 -0.7088
  830MPD2    C212257   0.125   3.666  15.555  0.0828  0.6949 -0.6195
  830MPD2    C312258   0.245   3.739  15.546  0.7567  0.6168 -0.8052
  830MPD2    C412259   0.332   3.726  15.656 -0.5546  0.7102 -0.2268
  830MPD2    C512260   0.289   3.667  15.770  0.1216 -0.0464 -0.0676
  830MPD2     H12261   0.063   3.663  15.466  1.3163  3.3153 -1.5969
  830MPD2    H112262   0.431   3.771  15.661 -1.0598  1.6510  1.6526
  830MPD2    H212263   0.135   3.599  15.883  2.2860  0.0272  0.6727
  830MPD2    H312264   0.358   3.669  15.853  0.0743  1.2841 -0.0599
  830MPD2     N12265   0.287   3.817  15.433  0.3012 -0.2166  0.0937
  830MPD2    H512266   0.381   3.854  15.446  0.6128 -1.2654  0.8179
  830MPD2    N112267   4.680   3.586  15.713  0.5353 -0.3787 -0.6995
  830MPD2    H712268   4.665   3.577  15.813  0.6600 -0.0300 -0.6479
  831MPD2     C12269   0.210   0.796  16.340  0.0005 -0.4011 -0.5365
  831MPD2    C112270   0.237   0.678  16.272 -0.2376 -0.7346 -0.2363
  831MPD2    C212271   0.159   0.565  16.300  0.0695  0.6882  0.2225
  831MPD2    C312272   0.055   0.562  16.392  0.4482 -0.3298  0.3351
  831MPD2    C412273   0.040   0.679  16.468  0.1139  0.2384  0.7349
  831MPD2    C512274   0.115   0.790  16.439 -0.5974  0.3662 -0.2523
  831MPD2     H12275   0.174   0.475  16.242  2.1933  1.1640 -0.0047
  831MPD2    H112276   4.712   0.685  16.556  0.4990  1.9428  0.9030
  831MPD2    H212277   0.285   0.873  16.330 -2.7968  2.2211 -0.9609
  831MPD2    H312278   0.096   0.873  16.506 -2.8785  1.3385 -2.1031
  831MPD2     N12279   4.689   0.466  16.411  0.5285 -0.1031 -0.0357
  831MPD2    H512280   4.631   0.494  16.489 -0.5998 -2.7763  0.1167
  831MPD2    N112281   0.324   0.693  16.162 -0.0734 -0.1478 -0.5334
  831MPD2    H712282   0.357   0.784  16.132 -0.4930  0.5291  1.0379
  832MPD2     C12283   3.133   1.955  17.241 -0.3832  0.0952  0.3330
  832MPD2    C112284   3.044   2.062  17.236 -0.0937  0.0101 -0.5532
  832MPD2    C212285   2.923   2.046  17.174 -0.7332 -0.1367  0.2671
  832MPD2    C312286   2.881   1.919  17.135  0.1457  0.2488  0.2236
  832MPD2    C412287   2.964   1.812  17.157  0.5562  0.0678 -0.2081
  832MPD2    C512288   3.092   1.829  17.208 -0.8155 -0.0539 -0.5339
  832MPD2     H12289   2.847   2.123  17.186 -0.1291  0.4346  0.4572
  832MPD2    H112290   2.924   1.718  17.120  1.5426 -0.8806  1.1387
  832MPD2    H212291   3.234   1.970  17.279  0.0797  1.0534 -1.2822
  832MPD2    H312292   3.155   1.745  17.234 -0.1913  0.9723  1.2579
  832MPD2     N12293   2.752   1.889  17.070  0.2021  0.2282  0.8453
  832MPD2    H512294   2.717   1.794  17.066  1.4649 -0.1701 -0.5846
  832MPD2    N112295   3.091   2.190  17.277  0.1482  0.1772  0.5398
  832MPD2    H712296   3.187   2.193  17.308  0.4393 -0.0311 -0.3690
  833MPD2     C12297   0.286   2.909  12.314 -0.1302 -0.5741 -0.5659
  833MPD2    C112298   0.297   3.049  12.297  0.3640  0.2592 -0.2189
  833MPD2    C212299   0.325   3.091  12.170  0.1742 -0.0246  0.3008
  833MPD2    C312300   0.344   3.007  12.067 -0.2219 -0.3139 -0.2301
  833MPD2    C412301   0.333   2.865  12.080 -0.1512 -0.4867  0.0102
  833MPD2    C512302   0.317   2.818  12.208 -0.1584 -0.3341 -0.3053
  833MPD2     H12303   0.325   3.199  12.156  0.1137 -0.1030 -0.3215
  833MPD2    H112304   0.349   2.797  11.997  1.7364  0.7101 -0.6077
  833MPD2    H212305   0.274   2.863  12.412  1.7952  0.7008  0.2817
  833MPD2    H312306   0.316   2.711  12.223 -4.4894  0.2195  3.4154
  833MPD2     N12307   0.364   3.052  11.933  0.4857  0.1794 -0.4886
  833MPD2    H512308   0.418   2.994  11.870  1.0053  1.0938 -0.8720
  833MPD2    N112309   0.270   3.150  12.392 -0.2573  0.2670 -0.2826
  833MPD2    H712310   0.303   3.244  12.372  0.0971 -0.1395 -1.5610
  834MPD2     C12311   0.845   2.853  11.204 -0.5301 -0.1137 -0.3154
  834MPD2    C112312   0.712   2.830  11.253  0.0987 -0.3292 -0.6883
  834MPD2    C212313   0.667   2.899  11.361 -0.7071 -0.2480  0.1846
  834MPD2    C312314   0.734   3.006  11.415  0.4068  0.0601  0.2025
  834MPD2    C412315   0.855   3.032  11.355  0.5650  0.8067 -0.5313
  834MPD2    C512316   0.909   2.962  11.254 -0.3850 -0.0245  0.5402
  834MPD2     H12317   0.568   2.887  11.403 -0.5579 -0.1383  0.5586
  834MPD2    H112318   0.907   3.117  11.397  1.5916 -0.2575  0.3440
  834MPD2    H212319   0.894   2.790  11.131  2.2912  0.9143  0.7079
  834MPD2    H312320   1.011   2.986  11.226  0.0895 -2.7454 -0.0027
  834MPD2     N12321   0.684   3.074  11.531 -0.2503 -0.1307  0.0278
  834MPD2    H512322   0.599   3.035  11.571  1.3955 -0.6127  3.1186
  834MPD2    N112323   0.639   2.720  11.190 -0.3161 -0.3979  0.9605
  834MPD2    H712324   0.690   2.673  11.115  1.7280  1.6146  1.0761
  835MPD2     C12325   0.759   0.948  11.079 -0.4449  0.2808 -0.1053
  835MPD2    C112326   0.733   1.022  11.191 -0.2668 -0.2095  0.1068
  835MPD2    C212327   0.805   1.013  11.306 -0.4550  0.2215 -0.8775
  835MPD2    C312328   0.900   0.906  11.313 -0.7481 -0.0188 -0.1994
  835MPD2    C412329   0.926   0.830  11.198 -0.8351 -0.8279 -0.6751
  835MPD2    C512330   0.866   0.860  11.075  0.0736  0.1102 -0.7867
  835MPD2     H12331   0.770   1.073  11.389 -0.3604  0.0470 -0.7095
  835MPD2    H112332   1.005   0.756  11.198  0.3056  0.4114  0.4486
  835MPD2    H212333   0.713   0.958  10.981 -0.1953  1.6462 -0.0899
  835MPD2    H312334   0.902   0.802  10.991 -0.8369 -0.8562 -0.5106
  835MPD2     N12335   0.972   0.872  11.432  0.4745  0.5500  0.2253
  835MPD2    H512336   1.045   0.801  11.428  1.2191  1.2231  1.9316
  835MPD2    N112337   0.622   1.108  11.198  0.3978  0.0646 -0.2731
  835MPD2    H712338   0.616   1.164  11.283  3.3114  0.0363 -0.0478
  836MPD2     C12339   0.936   1.052  12.267 -0.1562 -0.7392  0.0883
  836MPD2    C112340   0.882   1.042  12.139 -0.2527  0.1481 -0.4278
  836MPD2    C212341   0.754   1.088  12.127  0.3954 -0.1728 -0.0171
  836MPD2    C312342   0.679   1.138  12.231  0.0705  0.0791 -0.2932
  836MPD2    C412343   0.739   1.151  12.358 -0.2817  0.2707  0.0505
  836MPD2    C512344   0.871   1.112  12.371 -0.3283 -0.4390 -0.2215
  836MPD2     H12345   0.716   1.078  12.026 -1.4635 -0.5005  0.7225
  836MPD2    H112346   0.686   1.186  12.446 -0.4843  0.2822 -0.0745
  836MPD2    H212347   1.041   1.029  12.278 -0.1666 -1.2843 -1.0101
  836MPD2    H312348   0.920   1.129  12.467 -0.2404 -3.9888  0.3558
  836MPD2     N12349   0.544   1.186  12.218  0.2372  0.4381  0.6362
  836MPD2    H512350   0.508   1.227  12.303 -1.4194  0.6510 -0.1637
  836MPD2    N112351   0.949   0.986  12.031 -0.3144  0.4018 -0.2827
  836MPD2    H712352   0.891   0.988  11.947  0.8632 -0.3120 -1.1209
  837MPD2     C12353   3.546   0.484  10.106 -0.0292 -0.0374  0.2799
  837MPD2    C112354   3.480   0.518   9.987 -0.1328 -0.9282 -0.2298
  837MPD2    C212355   3.499   0.653   9.950  0.4265 -0.0168 -0.1647
  837MPD2    C312356   3.565   0.750  10.020  0.3469 -0.4028 -0.6063
  837MPD2    C412357   3.626   0.714  10.136 -0.0791 -0.1861 -0.1983
  837MPD2    C512358   3.627   0.576  10.166 -0.1605 -0.6480  0.0788
  837MPD2     H12359   3.432   0.684   9.870  1.2316  1.9991 -0.0470
  837MPD2    H112360   3.700   0.773  10.188 -0.9966  1.1633 -0.4167
  837MPD2    H212361   3.544   0.388  10.156 -2.7695  1.1697  2.5011
  837MPD2    H312362   3.682   0.548  10.254 -0.4473 -1.3338  0.0439
  837MPD2     N12363   3.559   0.873   9.960 -0.6898 -0.3206 -0.5400
  837MPD2    H512364   3.503   0.871   9.875 -0.0675  3.4078 -1.0430
  837MPD2    N112365   3.374   0.447   9.928 -0.2109  0.6570 -0.1531
  837MPD2    H712366   3.332   0.487   9.845 -0.8239  3.3093  1.4509
  838MPD2     C12367   1.444   2.699  11.017  0.0635 -0.7757  0.2333
  838MPD2    C112368   1.503   2.807  11.080  0.0854 -0.3810  0.3268
  838MPD2    C212369   1.436   2.880  11.184  0.3229 -0.6441  0.4616
  838MPD2    C312370   1.323   2.819  11.230  0.6723 -0.4533 -0.1228
  838MPD2    C412371   1.261   2.719  11.153 -0.1839  0.0480 -1.2380
  838MPD2    C512372   1.321   2.656  11.053  0.6362 -0.1319  0.1565
  838MPD2     H12373   1.486   2.963  11.234 -0.2183  0.5791 -1.0007
  838MPD2    H112374   1.158   2.694  11.174  0.4220 -0.4509  1.1514
  838MPD2    H212375   1.479   2.643  10.931 -0.2573 -3.0410  1.5843
  838MPD2    H312376   1.273   2.570  11.006 -2.7156  1.7337  0.1259
  838MPD2     N12377   1.262   2.883  11.344  1.0150 -1.0362  0.1999
  838MPD2    H512378   1.313   2.965  11.373  0.4107 -0.8232  0.6736
  838MPD2    N112379   1.640   2.826  11.044 -0.6349  0.0311 -0.6493
  838MPD2    H712380   1.685   2.761  10.980  1.8447  1.8075 -0.7289
  839MPD2     C12381   1.788   2.455  11.746  0.3287  0.6639 -0.0607
  839MPD2    C112382   1.804   2.389  11.625 -0.2930 -0.5045  0.2271
  839MPD2    C212383   1.826   2.461  11.509 -0.8332  0.3343 -0.0939
  839MPD2    C312384   1.865   2.592  11.528  0.2204  0.0486  0.0989
  839MPD2    C412385   1.845   2.662  11.640  0.3634 -0.4656  0.0751
  839MPD2    C512386   1.799   2.592  11.748  0.5790 -0.1799  0.2573
  839MPD2     H12387   1.837   2.409  11.415  1.0474 -1.3210  1.0589
  839MPD2    H112388   1.849   2.769  11.658 -0.2874 -0.5662  0.8316
  839MPD2    H212389   1.751   2.404  11.834 -2.0743 -0.6462 -1.7995
  839MPD2    H312390   1.771   2.653  11.834 -1.7483  0.9453 -1.2937
  839MPD2     N12391   1.916   2.670  11.420  0.4532  0.4467  0.2445
  839MPD2    H512392   1.924   2.770  11.432 -2.9010  0.9331 -1.8001
  839MPD2    N112393   1.794   2.254  11.608 -0.5182 -0.2381  0.1803
  839MPD2    H712394   1.799   2.228  11.510 -2.3351 -0.4885  0.1456
  840MPD2     C12395   2.458   0.555  10.236  0.0028 -0.3133  0.1097
  840MPD2    C112396   2.349   0.636  10.242  0.8479 -0.1638  0.1340
  840MPD2    C212397   2.378   0.772  10.258 -0.1402  0.7036  0.5997
  840MPD2    C312398   2.504   0.821  10.276 -0.2952 -0.3777 -0.7323
  840MPD2    C412399   2.614   0.735  10.269  0.4061  0.5906 -0.5425
  840MPD2    C512400   2.589   0.604  10.250 -0.1853 -0.2528  0.2983
  840MPD2     H12401   2.294   0.841  10.256 -0.0528  0.8751  2.3991
  840MPD2    H112402   2.715   0.775  10.267  0.0057  1.6098 -0.0444
  840MPD2    H212403   2.452   0.448  10.215  1.7026 -0.3389 -0.2138
  840MPD2    H312404   2.675   0.538  10.254 -0.0236  0.0302  1.6007
  840MPD2     N12405   2.533   0.957  10.321  0.4812 -0.9523 -0.0805
  840MPD2    H512406   2.629   0.988  10.323  0.7973 -1.8666 -0.8509
  840MPD2    N112407   2.224   0.581  10.215 -0.3837  0.5377  0.1850
  840MPD2    H712408   2.227   0.480  10.221  1.8222  0.7471  2.7664
  841MPD2     C12409   1.582   0.431  14.475 -0.2212  0.3782  1.1266
  841MPD2    C112410   1.697   0.362  14.456  0.4660 -0.2645 -1.1148
  841MPD2    C212411   1.806   0.433  14.427 -0.5784 -0.0192 -0.5744
  841MPD2    C312412   1.811   0.571  14.422  0.0724  0.2860  0.0844
  841MPD2    C412413   1.700   0.643  14.458 -0.1203 -0.4875 -0.1586
  841MPD2    C512414   1.589   0.567  14.482 -0.1606 -0.9060 -0.1137
  841MPD2     H12415   1.900   0.387  14.399  1.4494  2.7807  1.6011
  841MPD2    H112416   1.694   0.751  14.469 -1.6480 -0.7134  1.1493
  841MPD2    H212417   1.485   0.389  14.501 -0.1536 -1.1742 -1.1453
  841MPD2    H312418   1.496   0.621  14.493  0.2148  0.2137 -2.4961
  841MPD2     N12419   1.932   0.635  14.376  0.0346 -0.0460  0.0077
  841MPD2    H512420   2.003   0.570  14.346 -1.9116 -1.8994 -0.5233
  841MPD2    N112421   1.697   0.223  14.447  0.0146 -0.1442  0.3347
  841MPD2    H712422   1.780   0.169  14.430 -0.4409 -0.9746  0.7518
  842MPD2     C12423   2.176   2.199  16.692 -0.5635  0.2470 -0.4550
  842MPD2    C112424   2.139   2.090  16.766  0.2837  0.3513 -0.1768
  842MPD2    C212425   2.176   2.089  16.901 -0.3901 -0.3762  0.5736
  842MPD2    C312426   2.269   2.178  16.958  0.3925  0.0991  0.4735
  842MPD2    C412427   2.311   2.281  16.878 -0.6583  0.1874  0.2914
  842MPD2    C512428   2.258   2.299  16.750 -0.2585  0.5151 -0.1561
  842MPD2     H12429   2.144   2.004  16.959 -1.7035  0.5399  1.1986
  842MPD2    H112430   2.376   2.352  16.929  0.0146 -2.0154  2.5341
  842MPD2    H212431   2.141   2.211  16.590  0.6376 -2.0094 -1.1325
  842MPD2    H312432   2.285   2.389  16.698  0.3421  1.1445  1.2336
  842MPD2     N12433   2.313   2.175  17.099  0.4496  0.0003  0.4891
  842MPD2    H512434   2.378   2.244  17.134  1.4850 -0.2708 -0.8804
  842MPD2    N112435   2.062   1.985  16.705 -0.4556  0.0059  0.3155
  842MPD2    H712436   2.034   2.004  16.609 -0.7620 -0.8704  0.2255
  843MPD2     C12437   4.433   2.678   0.335 -0.2426 -0.8326  1.0363
  843MPD2    C112438   4.535   2.588   0.342  0.6771  0.2944 -0.7785
  843MPD2    C212439   4.654   2.623   0.281  0.4792 -0.0035 -0.2248
  843MPD2    C312440   4.669   2.747   0.219  0.1660 -0.4960  0.1571
  843MPD2    C412441   4.567   2.835   0.216 -0.5575 -0.0269  0.7080
  843MPD2    C512442   4.450   2.799   0.272 -0.4781 -0.0517 -0.0343
  843MPD2     H12443   0.010   2.566   0.291 -0.4486 -1.5712 -0.7293
  843MPD2    H112444   4.581   2.930   0.167  3.1410  0.7279  3.2637
  843MPD2    H212445   4.336   2.652   0.375 -1.2314  1.9598  0.4634
  843MPD2    H312446   4.380   2.881   0.279  0.4396  0.6011  1.3589
  843MPD2     N12447   0.064   2.798   0.193 -0.2962  0.2239  0.8181
  843MPD2    H512448   0.071   2.896   0.168 -0.3458 -0.2734 -1.1614
  843MPD2    N112449   4.505   2.460   0.400  0.2765 -0.2100 -0.4435
  843MPD2    H712450   4.408   2.447   0.429  0.3186  2.8020  1.0527
  844MPD2     C12451   2.701   1.453  16.702  0.1636 -0.2609 -0.1704
  844MPD2    C112452   2.830   1.421  16.700 -0.9490  0.0018  0.0082
  844MPD2    C212453   2.921   1.518  16.730 -0.0719 -0.0014 -0.5384
  844MPD2    C312454   2.886   1.641  16.762  0.3102 -0.2228  0.1119
  844MPD2    C412455   2.749   1.677  16.751  0.1884  0.2766 -0.2442
  844MPD2    C512456   2.652   1.581  16.722  0.7889 -0.2739  0.2875
  844MPD2     H12457   3.026   1.493  16.741 -0.5321 -1.8395 -0.2613
  844MPD2    H112458   2.715   1.779  16.763  0.9028  0.8647 -3.0892
  844MPD2    H212459   2.634   1.377  16.662  0.0015  0.0054 -0.4076
  844MPD2    H312460   2.548   1.611  16.715  1.1995  0.1594 -3.6305
  844MPD2     N12461   2.995   1.731  16.797  0.1047  0.3240 -0.6317
  844MPD2    H512462   3.089   1.693  16.793  0.0813  0.1246  0.6464
  844MPD2    N112463   2.876   1.296  16.656  0.1010 -0.2931 -0.1874
  844MPD2    H712464   2.975   1.278  16.645  0.2675 -0.2770  1.1918
  845MPD2     C12465   3.247   2.715  16.927  0.0412 -0.3633  1.0234
  845MPD2    C112466   3.119   2.666  16.930 -0.7931 -0.1358  1.1427
  845MPD2    C212467   3.104   2.531  16.923  0.6451 -0.1641 -0.4695
  845MPD2    C312468   3.219   2.450  16.927 -0.2259 -0.2127  0.3300
  845MPD2    C412469   3.341   2.496  16.919 -0.1278  0.3467  0.6134
  845MPD2    C512470   3.358   2.635  16.928  0.0699  0.5599 -0.3159
  845MPD2     H12471   3.008   2.482  16.916 -0.1158  1.1537  1.0153
  845MPD2    H112472   3.432   2.437  16.906  1.1956  2.4725  0.1649
  845MPD2    H212473   3.261   2.823  16.930 -3.1418  0.0975 -0.6777
  845MPD2    H312474   3.455   2.681  16.936  0.3031  0.1201 -0.6216
  845MPD2     N12475   3.202   2.311  16.911  0.3377 -0.0410 -0.7207
  845MPD2    H512476   3.115   2.275  16.873 -1.2194  3.6062 -0.5876
  845MPD2    N112477   3.008   2.759  16.944  0.6193  0.2519  0.6721
  845MPD2    H712478   3.034   2.857  16.944  1.2567  0.0912 -1.1009
  846MPD2     C12479   4.550   2.934  13.600 -0.5953  0.2349  0.2101
  846MPD2    C112480   4.417   2.974  13.615 -0.5446 -0.1610  0.2898
  846MPD2    C212481   4.364   2.975  13.747  0.4183 -0.0307  0.3532
  846MPD2    C312482   4.440   2.932  13.855 -0.3046 -0.4637  1.1187
  846MPD2    C412483   4.568   2.889  13.834 -0.2988 -0.2048 -0.1172
  846MPD2    C512484   4.623   2.887  13.707 -0.0221 -0.0615  0.1237
  846MPD2     H12485   4.267   3.015  13.771  0.8953  1.2745  0.0966
  846MPD2    H112486   4.623   2.834  13.909 -3.3889  0.4297  2.6027
  846MPD2    H212487   4.594   2.921  13.502 -0.1420 -0.9365  0.5680
  846MPD2    H312488   4.710   2.826  13.691 -0.9494 -0.9876 -1.3651
  846MPD2     N12489   4.383   2.924  13.984 -0.1553  0.1260  0.0385
  846MPD2    H512490   4.282   2.923  13.982 -0.1591 -1.3854  0.6266
  846MPD2    N112491   4.345   3.018  13.507  0.0648 -0.0505 -0.1788
  846MPD2    H712492   4.279   3.091  13.532  1.2992  1.0503 -0.0737
  847MPD2     C12493   0.346   3.585  13.882  0.5777 -0.3419  0.5400
  847MPD2    C112494   0.347   3.709  13.944 -0.0004 -0.0772  0.0849
  847MPD2    C212495   0.378   3.722  14.075 -0.4742 -0.3345 -0.1091
  847MPD2    C312496   0.422   3.611  14.153 -0.1810  0.2338  0.1727
  847MPD2    C412497   0.409   3.485  14.095 -0.2811 -0.4510 -0.2571
  847MPD2    C512498   0.377   3.477  13.961 -1.6486 -0.2544 -0.0988
  847MPD2     H12499   0.373   3.818  14.124 -2.3190 -1.3195  1.6599
  847MPD2    H112500   0.439   3.393  14.143  1.5510 -0.1658 -0.8432
  847MPD2    H212501   0.307   3.578  13.781 -2.0894 -0.0004  1.5397
  847MPD2    H312502   0.369   3.380  13.913 -2.3254  0.0276 -0.5673
  847MPD2     N12503   0.482   3.642  14.279 -0.0650  0.1270  0.4652
  847MPD2    H512504   0.494   3.740  14.299 -0.0396 -0.0480  1.3159
  847MPD2    N112505   0.291   3.821  13.878 -0.1543  0.4358 -0.0407
  847MPD2    H712506   0.306   3.908  13.928  0.0431 -0.4377  1.4271
  848MPD2     C12507   2.432   2.000  16.344 -0.0745 -0.1202  0.1335
  848MPD2    C112508   2.422   2.090  16.451 -0.3097 -0.1579  0.5667
  848MPD2    C212509   2.412   2.223  16.414  0.4155 -0.1935 -0.6587
  848MPD2    C312510   2.403   2.267  16.283  0.3662  0.3544  0.5824
  848MPD2    C412511   2.413   2.178  16.179 -0.6133 -0.1147 -0.0752
  848MPD2    C512512   2.434   2.047  16.218 -0.1461  0.2002  0.2649
  848MPD2     H12513   2.417   2.299  16.491  0.6699  0.9352 -1.8056
  848MPD2    H112514   2.412   2.190  16.072 -1.5236  1.8045  0.1582
  848MPD2    H212515   2.430   1.893  16.362  1.2496 -0.3554 -1.1609
  848MPD2    H312516   2.451   1.964  16.149 -0.1450  0.6520 -0.2799
  848MPD2     N12517   2.384   2.404  16.252  0.3360  0.1935  0.2174
  848MPD2    H512518   2.369   2.422  16.153 -0.5350 -0.7576  0.1823
  848MPD2    N112519   2.421   2.050  16.585 -0.9481  0.1926  0.4118
  848MPD2    H712520   2.416   2.122  16.657 -1.3845  0.5391  0.0413
  849MPD2     C12521   1.513   1.264  14.053 -0.1275  0.5005  0.1777
  849MPD2    C112522   1.587   1.277  13.939  0.3493 -0.2033  0.1248
  849MPD2    C212523   1.720   1.245  13.927 -0.1101 -0.3213 -0.0742
  849MPD2    C312524   1.789   1.205  14.044  0.6476  0.3820  0.2840
  849MPD2    C412525   1.714   1.173  14.157 -0.0765 -0.2965  0.4796
  849MPD2    C512526   1.584   1.226  14.163 -0.3209  0.8912 -0.5586
  849MPD2     H12527   1.778   1.260  13.837  0.6498  1.5953  0.7440
  849MPD2    H112528   1.759   1.132  14.247 -0.1309 -0.0494  0.6163
  849MPD2    H212529   1.416   1.311  14.063 -0.1999  0.2775  0.5313
  849MPD2    H312530   1.534   1.232  14.259  1.0830  1.8373  0.1058
  849MPD2     N12531   1.927   1.197  14.040  0.5603 -0.2662  0.2467
  849MPD2    H512532   1.971   1.228  13.954  1.9711 -2.0254  0.3457
  849MPD2    N112533   1.530   1.341  13.827  0.3370 -0.0875 -0.5930
  849MPD2    H712534   1.430   1.354  13.838  0.3255 -1.0726  0.4307
  850MPD2     C12535   0.056   0.128  14.440  0.2966  0.7971  0.0812
  850MPD2    C112536   0.059   0.217  14.547  0.2443  0.3310  0.1820
  850MPD2    C212537   0.181   0.254  14.593  0.2359  0.1383  0.6678
  850MPD2    C312538   0.294   0.182  14.559 -0.3148 -0.0315 -0.3078
  850MPD2    C412539   0.285   0.088  14.457  0.0535 -0.6707 -0.0362
  850MPD2    C512540   0.165   0.060  14.396  0.0921 -0.3428  0.2342
  850MPD2     H12541   0.196   0.339  14.658  2.0104  0.8340 -0.6449
  850MPD2    H112542   0.369   0.026  14.428 -0.3544 -1.1451 -0.1957
  850MPD2    H212543   4.695   0.106  14.395  0.7916 -0.5002 -0.3516
  850MPD2    H312544   0.153   4.721  14.317 -0.4306  0.4941 -0.4836
  850MPD2     N12545   0.415   0.198  14.635 -0.3113 -0.2386 -0.7059
  850MPD2    H512546   0.488   0.131  14.610  0.5742  0.1024  0.9489
  850MPD2    N112547   4.665   0.258  14.592 -0.0172  0.3618  0.0151
  850MPD2    H712548   4.584   0.255  14.530  0.8377  0.1583 -1.0947
  851MPD2     C12549   0.438   0.055  15.256 -0.0506  0.9461 -0.1013
  851MPD2    C112550   0.355   4.733  15.159  0.3428 -0.4598 -0.1930
  851MPD2    C212551   0.332   4.598  15.150  0.4104 -0.0267 -0.1745
  851MPD2    C312552   0.394   4.510  15.234 -0.0879 -0.0972 -0.8637
  851MPD2    C412553   0.476   4.563  15.331 -0.2517 -0.0589 -0.2211
  851MPD2    C512554   0.495   4.696  15.340 -0.0564 -0.4440  0.2383
  851MPD2     H12555   0.271   4.548  15.077  0.0960 -0.2179  0.2209
  851MPD2    H112556   0.542   4.500  15.391 -0.6873 -1.1797 -0.9119
  851MPD2    H212557   0.465   0.157  15.283  0.8577  0.4438  0.9009
  851MPD2    H312558   0.569   4.733  15.411 -0.6440  0.8253  0.1880
  851MPD2     N12559   0.384   4.375  15.210  0.3105 -0.0464  0.2707
  851MPD2    H512560   0.321   4.347  15.135 -1.2481 -2.0462  2.2977
  851MPD2    N112561   0.275   0.086  15.089 -0.2484  0.5501 -0.2890
  851MPD2    H712562   0.280   0.180  15.128 -1.9865  0.2964  0.5557
  852MPD2     C12563   4.728   2.339  10.298 -0.6096  0.1155 -0.5695
  852MPD2    C112564   4.701   2.408  10.418 -0.2542 -0.0912  0.2421
  852MPD2    C212565   0.068   2.463  10.483 -0.3219  0.3960  0.0926
  852MPD2    C312566   0.187   2.483  10.413 -0.1458 -0.3394  0.3413
  852MPD2    C412567   0.217   2.404  10.299  0.5340 -0.3546 -0.1552
  852MPD2    C512568   0.120   2.335  10.245  0.2717 -0.5054 -0.4033
  852MPD2     H12569   0.040   2.519  10.572 -0.5634  1.3469 -0.5910
  852MPD2    H112570   0.317   2.391  10.257  1.4249  1.2622  1.4556
  852MPD2    H212571   4.653   2.274  10.253 -0.1579  0.2053 -1.4435
  852MPD2    H312572   0.135   2.281  10.152  1.2794 -1.8372  0.5344
  852MPD2     N12573   0.287   2.571  10.463  0.1963  0.4559 -0.5704
  852MPD2    H512574   0.263   2.627  10.544  2.0735 -0.2588  0.4677
  852MPD2    N112575   4.572   2.402  10.483  0.1255  0.1232 -0.0324
  852MPD2    H712576   4.563   2.430  10.580 -0.6274 -2.3589  0.5875
  853MPD2     C12577   1.132   1.565  12.006  0.7378 -0.6058  0.3174
  853MPD2    C112578   1.097   1.682  11.938 -0.3895  0.0994  0.0122
  853MPD2    C212579   1.066   1.666  11.806 -0.4637  0.3315 -0.3228
  853MPD2    C312580   1.072   1.545  11.737 -0.5652  0.5248 -0.0024
  853MPD2    C412581   1.116   1.437  11.802 -0.2061 -0.2421  0.2553
  853MPD2    C512582   1.149   1.447  11.935  0.0407  0.0087 -0.2320
  853MPD2     H12583   1.035   1.754  11.750  1.3654  0.7710 -0.6284
  853MPD2    H112584   1.126   1.344  11.748 -1.0690  0.8769 -1.8051
  853MPD2    H212585   1.157   1.562  12.111 -0.4006  1.1736  0.6414
  853MPD2    H312586   1.180   1.353  11.980  0.0562  0.6955  1.1806
  853MPD2     N12587   1.050   1.528  11.600 -0.7155 -0.9892  0.4282
  853MPD2    H512588   1.065   1.433  11.566  1.9495  0.4460 -2.4525
  853MPD2    N112589   1.095   1.805  12.006 -0.7211 -0.4354 -0.2088
  853MPD2    H712590   1.105   1.811  12.107 -3.4626 -0.1646  0.0348
  854MPD2     C12591   3.284   2.550  13.247 -0.1577 -0.0881  0.6795
  854MPD2    C112592   3.352   2.495  13.135 -0.7147 -0.2834 -0.6289
  854MPD2    C212593   3.440   2.385  13.143  0.0858 -0.2403 -0.4767
  854MPD2    C312594   3.454   2.320  13.263  0.1462 -0.3185  0.8703
  854MPD2    C412595   3.375   2.359  13.365  0.1226  0.0075 -0.4309
  854MPD2    C512596   3.293   2.469  13.358 -0.0876 -0.1195  0.0701
  854MPD2     H12597   3.488   2.350  13.052  0.5851  0.4823 -0.4894
  854MPD2    H112598   3.372   2.300  13.455 -0.1713  1.0204  0.2241
  854MPD2    H212599   3.215   2.633  13.249 -1.6029 -1.2412 -0.9653
  854MPD2    H312600   3.234   2.485  13.449 -1.8172  0.1180 -1.0896
  854MPD2     N12601   3.537   2.210  13.285  0.5968  0.3211 -0.6557
  854MPD2    H512602   3.522   2.159  13.372  0.8163  1.5239  0.0955
  854MPD2    N112603   3.342   2.558  13.009 -0.5823 -0.1158 -0.0314
  854MPD2    H712604   3.416   2.537  12.944 -1.7067 -0.8051 -1.0844
  855MPD2     C12605   3.953   2.129  14.027 -0.1505  0.1929 -0.4282
  855MPD2    C112606   3.910   2.010  13.995 -0.3212 -0.3530  0.3838
  855MPD2    C212607   3.886   1.981  13.863 -0.3535 -0.7970  0.0230
  855MPD2    C312608   3.911   2.070  13.768 -0.4295  0.4741  0.3921
  855MPD2    C412609   3.965   2.192  13.801  0.0928 -0.0443  0.3834
  855MPD2    C512610   3.974   2.224  13.931  0.4072  0.3612 -0.8210
  855MPD2     H12611   3.836   1.887  13.841 -2.7815  0.2208  1.1273
  855MPD2    H112612   4.001   2.261  13.727  0.5332 -0.8730 -0.1698
  855MPD2    H212613   3.957   2.159  14.131 -0.2288  2.4323 -1.0710
  855MPD2    H312614   4.016   2.317  13.968  0.9978  0.2527 -1.2182
  855MPD2     N12615   3.884   2.052  13.628  0.0866 -0.3758  0.2628
  855MPD2    H512616   3.909   2.134  13.573 -1.6891 -0.0059  0.0313
  855MPD2    N112617   3.868   1.931  14.104  0.0878 -0.2460  0.3211
  855MPD2    H712618   3.899   1.958  14.197  1.2042  1.4189 -0.5457
  856MPD2     C12619   0.659   3.034  13.648 -0.1533  0.6184 -0.2907
  856MPD2    C112620   0.677   3.138  13.737  0.2523 -0.3876  0.0841
  856MPD2    C212621   0.623   3.262  13.704 -1.1176 -0.4362 -0.4327
  856MPD2    C312622   0.569   3.289  13.584  0.3138 -0.5268 -0.7837
  856MPD2    C412623   0.560   3.188  13.498 -0.2277  0.2291  0.1508
  856MPD2    C512624   0.608   3.063  13.524 -0.0360  0.3399  0.6928
  856MPD2     H12625   0.631   3.338  13.781 -1.0344 -2.4785  1.5789
  856MPD2    H112626   0.517   3.211  13.401 -0.2570  1.3456  0.4210
  856MPD2    H212627   0.701   2.937  13.672 -0.7848  0.3866 -0.1101
  856MPD2    H312628   0.599   2.982  13.453 -0.7237  2.0499 -1.1852
  856MPD2     N12629   0.533   3.421  13.543 -0.4343  0.1094  0.3089
  856MPD2    H512630   0.477   3.429  13.459 -0.9705  0.3543  0.6855
  856MPD2    N112631   0.747   3.136  13.870 -0.0254 -0.4280  0.3812
  856MPD2    H712632   0.751   3.227  13.914 -2.5769 -0.2345  0.2189
  857MPD2     C12633   2.728   0.547  12.247  0.3095  0.5768 -0.4901
  857MPD2    C112634   2.765   0.477  12.366  0.1828 -0.2358  0.5533
  857MPD2    C212635   2.721   0.525  12.486 -0.0350  0.3844 -0.2209
  857MPD2    C312636   2.638   0.634  12.494  0.7442 -0.5055 -0.0161
  857MPD2    C412637   2.616   0.708  12.382  0.1707  0.5740 -0.3866
  857MPD2    C512638   2.661   0.665  12.256  0.4198  0.5502  0.1855
  857MPD2     H12639   2.744   0.477  12.580 -1.4303  0.7962  0.3457
  857MPD2    H112640   2.541   0.786  12.372 -1.1016 -0.7705 -1.3865
  857MPD2    H212641   2.741   0.503  12.148  0.7818  0.1678 -0.2492
  857MPD2    H312642   2.633   0.723  12.169 -1.4023  0.1375  0.5058
  857MPD2     N12643   2.593   0.686  12.613  0.1037  0.0993  0.2000
  857MPD2    H512644   2.573   0.785  12.612 -0.7047 -0.0702 -0.5836
  857MPD2    N112645   2.834   0.353  12.350 -0.6884  0.5969 -0.0633
  857MPD2    H712646   2.878   0.332  12.262 -0.6143 -0.1926  0.1613
  858MPD2     C12647   3.144   4.038  17.023 -0.1615  0.1623  0.3523
  858MPD2    C112648   3.280   4.044  16.989 -0.2157  0.5788 -0.1773
  858MPD2    C212649   3.359   4.128  17.060 -0.8802  0.4482  0.3587
  858MPD2    C312650   3.297   4.210  17.160  0.2491  0.3861  0.6302
  858MPD2    C412651   3.163   4.203  17.189 -0.5701  0.2428  0.5712
  858MPD2    C512652   3.080   4.120  17.117  0.3066 -0.0042  0.3977
  858MPD2     H12653   3.463   4.145  17.035 -0.8416  1.3396  1.1161
  858MPD2    H112654   3.119   4.267  17.265  0.3285 -1.0281  2.1583
  858MPD2    H212655   3.087   3.964  16.967 -0.2819  0.2843  0.3148
  858MPD2    H312656   2.977   4.120  17.148 -0.0058 -0.1546 -0.6444
  858MPD2     N12657   3.374   4.300  17.235  0.4934  0.9698  0.0220
  858MPD2    H512658   3.322   4.345  17.310 -1.3799  0.2135 -0.8105
  858MPD2    N112659   3.336   3.964  16.886 -0.1273  0.0659 -0.0194
  858MPD2    H712660   3.436   3.976  16.885 -0.3603  1.8957 -0.9151
  859MPD2     C12661   1.650   1.407  14.999  0.5110  0.1489 -0.4914
  859MPD2    C112662   1.776   1.425  15.040 -0.3069  0.0415  0.0649
  859MPD2    C212663   1.852   1.322  15.097 -0.1116  0.5102 -0.3065
  859MPD2    C312664   1.788   1.201  15.119 -0.1924 -0.1069  0.1508
  859MPD2    C412665   1.650   1.197  15.102  0.1660  0.2674  0.2116
  859MPD2    C512666   1.582   1.291  15.034  0.6216 -0.0562 -0.2514
  859MPD2     H12667   1.954   1.331  15.134 -0.3655  0.9229  0.2766
  859MPD2    H112668   1.602   1.109  15.144 -0.3878  2.0750  3.3299
  859MPD2    H212669   1.594   1.485  14.949 -0.8762 -1.7991 -1.9148
  859MPD2    H312670   1.478   1.278  15.006  0.3992  2.3255 -0.5183
  859MPD2     N12671   1.851   1.092  15.190 -0.1158  0.4407  0.5400
  859MPD2    H512672   1.788   1.023  15.228 -2.0386  0.4387 -2.5938
  859MPD2    N112673   1.833   1.553  15.021  1.4153  0.8451 -0.2010
  859MPD2    H712674   1.765   1.620  14.987 -0.2552 -0.8679 -0.2569
  860MPD2     C12675   3.834   1.801  11.781  0.2363  0.2794 -0.0754
  860MPD2    C112676   3.812   1.896  11.881  0.6455  0.6729 -0.1374
  860MPD2    C212677   3.723   1.866  11.982  0.0431  0.2530  0.4047
  860MPD2    C312678   3.644   1.753  11.981 -0.1893 -0.5450 -0.4265
  860MPD2    C412679   3.653   1.668  11.874  0.0102  0.2913  0.3648
  860MPD2    C512680   3.757   1.684  11.780  0.4588  0.4293 -1.3640
  860MPD2     H12681   3.729   1.926  12.073 -1.1946  0.9782  0.0163
  860MPD2    H112682   3.602   1.572  11.871  0.5644 -0.0154  0.9799
  860MPD2    H212683   3.904   1.817  11.699  0.1463  1.8913  0.1664
  860MPD2    H312684   3.756   1.607  11.703  2.5288  0.7441 -1.6977
  860MPD2     N12685   3.546   1.736  12.085  0.0400  0.1478  0.2428
  860MPD2    H512686   3.542   1.803  12.161  0.5086  1.9490 -1.2919
  860MPD2    N112687   3.904   2.005  11.913  0.3462  0.3040  0.1387
  860MPD2    H712688   3.886   2.050  12.002  1.0626 -1.7211  1.2937
  861MPD2     C12689   3.389   4.561  10.758  0.2569  0.0045  0.0340
  861MPD2    C112690   3.340   4.680  10.814  0.0683  0.5186  0.0274
  861MPD2    C212691   3.239   0.016  10.755  0.6205 -0.2192  0.5222
  861MPD2    C312692   3.185   4.701  10.639 -1.0250 -0.1358  0.0682
  861MPD2    C412693   3.232   4.587  10.588  0.3415  0.6911  0.0948
  861MPD2    C512694   3.339   4.521  10.639 -0.0458  0.3352 -0.0944
  861MPD2     H12695   3.197   0.105  10.801  1.7112  0.2377  0.6390
  861MPD2    H112696   3.196   4.561  10.489 -0.0924 -0.2210  0.4963
  861MPD2    H212697   3.476   4.512  10.799  0.6926 -0.0894 -0.9905
  861MPD2    H312698   3.376   4.432  10.590 -1.0907  0.1761 -0.6115
  861MPD2     N12699   3.074   0.030  10.583 -0.7572 -0.2339 -0.3281
  861MPD2    H512700   3.027   4.706  10.515 -0.1308 -0.8870 -0.1848
  861MPD2    N112701   3.380   4.727  10.939 -0.3268 -0.0672 -0.7642
  861MPD2    H712702   3.320   0.060  10.984  0.2672 -1.2033  1.7587
  862MPD2     C12703   2.456   4.536  10.418 -0.4311  0.4437 -0.0513
  862MPD2    C112704   2.581   4.544  10.470  0.6097  0.6978 -0.2946
  862MPD2    C212705   2.624   4.449  10.557 -0.1163 -0.2493  0.2842
  862MPD2    C312706   2.551   4.345  10.600 -0.0814  0.2798 -0.9739
  862MPD2    C412707   2.424   4.337  10.551  0.6979  0.7718  0.2154
  862MPD2    C512708   2.379   4.430  10.461 -0.6108  0.8528 -0.4914
  862MPD2     H12709   2.723   4.463  10.598 -0.5062 -1.7568  1.7444
  862MPD2    H112710   2.349   4.261  10.570  1.8578 -1.1257 -2.8871
  862MPD2    H212711   2.422   4.612  10.349  0.5259  1.1928  0.3086
  862MPD2    H312712   2.278   4.417  10.424 -0.1008  0.7011 -1.8357
  862MPD2     N12713   2.593   4.255  10.702 -0.6947  0.2816  0.1396
  862MPD2    H512714   2.517   4.192  10.725 -0.9161  0.6994  0.5347
  862MPD2    N112715   2.660   4.663  10.457 -0.1517 -0.3774 -1.2028
  862MPD2    H712716   2.752   4.661  10.500 -0.7745  1.8747  0.2459
  863MPD2     C12717   2.121   3.581  16.560 -0.7030  0.4764  0.2327
  863MPD2    C112718   2.006   3.546  16.623 -0.1488  0.8960  0.0761
  863MPD2    C212719   2.003   3.505  16.753  0.3599 -0.7482  0.3550
  863MPD2    C312720   2.123   3.505  16.826 -0.9393  0.5390 -0.4772
  863MPD2    C412721   2.241   3.539  16.764  0.6127  0.0646 -0.1432
  863MPD2    C512722   2.237   3.583  16.639 -0.6676  0.2665  0.0429
  863MPD2     H12723   1.909   3.470  16.793  0.9815  0.5735  2.9897
  863MPD2    H112724   2.337   3.538  16.814  0.7878 -0.0383 -0.4853
  863MPD2    H212725   2.135   3.606  16.455  0.1595  1.9471  0.7003
  863MPD2    H312726   2.327   3.614  16.587  0.7075  2.3384  3.6367
  863MPD2     N12727   2.121   3.483  16.966 -0.2291 -0.2973 -0.0516
  863MPD2    H512728   2.202   3.509  17.021 -0.1129 -2.4864  0.8064
  863MPD2    N112729   1.887   3.573  16.547 -0.4249  0.3058 -0.1133
  863MPD2    H712730   1.896   3.577  16.446  0.0249 -1.8175 -0.1626
  864MPD2     C12731   2.425   4.559  17.368 -0.4855 -0.0783  0.0605
  864MPD2    C112732   2.395   4.556  17.233 -0.0166 -0.0439 -0.0611
  864MPD2    C212733   2.444   4.659  17.153 -0.8109  0.3594 -0.1753
  864MPD2    C312734   2.520   0.025  17.211 -0.1691 -0.7050  0.2113
  864MPD2    C412735   2.553   0.025  17.348 -0.3177  0.3559 -0.1003
  864MPD2    C512736   2.502   4.656  17.423 -0.8833  0.0326 -0.7552
  864MPD2     H12737   2.429   4.668  17.046 -1.7073  0.1324 -0.0668
  864MPD2    H112738   2.594   0.115  17.392  0.0638 -0.2630  0.8260
  864MPD2    H212739   2.374   4.490  17.434  1.1871  0.9262  2.3989
  864MPD2    H312740   2.515   4.651  17.531 -1.0658 -0.4788 -0.7567
  864MPD2     N12741   2.561   0.137  17.136 -0.1925 -0.3622  0.7556
  864MPD2    H512742   2.621   0.200  17.188  2.7273 -2.9122  0.4638
  864MPD2    N112743   2.312   4.447  17.189  0.4063 -0.0376 -0.0001
  864MPD2    H712744   2.278   4.390  17.265 -1.2546 -0.6576 -1.2122
  865MPD2     C12745   2.187   0.183  16.299  0.5302  0.0017 -0.7045
  865MPD2    C112746   2.316   0.139  16.287 -0.2256  0.2451 -0.2062
  865MPD2    C212747   2.411   0.173  16.384  0.7438 -0.1392  1.0506
  865MPD2    C312748   2.370   0.248  16.495 -0.9387  0.4489 -0.5882
  865MPD2    C412749   2.238   0.295  16.500  0.7585 -0.1419 -0.0747
  865MPD2    C512750   2.148   0.264  16.405  0.2242 -0.5915 -0.5317
  865MPD2     H12751   2.505   0.120  16.387  0.1792 -1.0750  2.2111
  865MPD2    H112752   2.203   0.363  16.577  0.2411  0.6891 -1.0339
  865MPD2    H212753   2.117   0.172  16.217  0.1563 -0.8984 -0.2624
  865MPD2    H312754   2.047   0.302  16.416  0.2257 -0.0363 -2.4547
  865MPD2     N12755   2.461   0.281  16.606  0.2495 -0.3813 -0.2365
  865MPD2    H512756   2.427   0.319  16.694 -0.5481  1.3698 -1.3059
  865MPD2    N112757   2.340   0.046  16.185  0.2768 -0.2778  0.7997
  865MPD2    H712758   2.259   4.734  16.145  0.3421  0.8648 -0.6926
  866MPD2     C12759   3.834   0.577  11.285 -0.4304  0.7783  0.1822
  866MPD2    C112760   3.791   0.467  11.224  0.7052  0.2636 -0.3490
  866MPD2    C212761   3.657   0.452  11.185  0.8806  0.3539 -0.3486
  866MPD2    C312762   3.569   0.556  11.210 -0.0536 -0.6485  0.2360
  866MPD2    C412763   3.616   0.668  11.263  0.2384  0.5701 -0.2282
  866MPD2    C512764   3.749   0.683  11.302 -0.3946 -0.0133 -0.0912
  866MPD2     H12765   3.610   0.363  11.145  1.0806 -0.6037  1.5055
  866MPD2    H112766   3.547   0.751  11.273 -0.0675  0.2074  0.7040
  866MPD2    H212767   3.937   0.592  11.313 -0.1444  1.0788 -1.0015
  866MPD2    H312768   3.782   0.772  11.354  1.3074 -0.5261 -0.2900
  866MPD2     N12769   3.431   0.526  11.172 -0.4333  0.1406 -0.0480
  866MPD2    H512770   3.412   0.434  11.133  1.5276  0.1419 -1.0186
  866MPD2    N112771   3.891   0.367  11.197  0.0897 -0.3671  0.2446
  866MPD2    H712772   3.988   0.386  11.220  0.4743  1.8989 -3.1879
  867MPD2     C12773   0.873   4.417  16.379  0.5634  0.4015 -0.4002
  867MPD2    C112774   0.954   4.400  16.490  0.0716 -0.3395 -0.5404
  867MPD2    C212775   0.966   4.506  16.574 -0.2808  0.1575  0.1391
  867MPD2    C312776   0.895   4.628  16.553  0.1930 -0.7084  0.4020
  867MPD2    C412777   0.805   4.629  16.453 -0.3771  0.0449 -0.3073
  867MPD2    C512778   0.797   4.534  16.360 -0.2981 -0.4971  0.6461
  867MPD2     H12779   1.047   4.505  16.646  0.3687 -0.2359 -0.5883
  867MPD2    H112780   0.744   4.718  16.444  0.2443  0.4183 -0.8641
  867MPD2    H212781   0.878   4.341  16.302 -0.3080 -1.8537  1.7609
  867MPD2    H312782   0.746   4.555  16.268 -1.5946 -0.2620  1.4246
  867MPD2     N12783   0.896   4.731  16.646  0.0990  0.0926 -0.2864
  867MPD2    H512784   0.862   0.087  16.616  2.7323  1.5535  1.2043
  867MPD2    N112785   1.044   4.294  16.491 -0.2081  0.4609  0.2926
  867MPD2    H712786   1.050   4.231  16.412  1.8770  1.7915 -0.6269
  868MPD2     C12787   2.536   3.645  13.119  0.4631 -0.6218  1.0299
  868MPD2    C112788   2.609   3.571  13.207  0.3694 -0.5202  0.4808
  868MPD2    C212789   2.545   3.505  13.312  0.3103  0.7370 -0.1043
  868MPD2    C312790   2.411   3.519  13.329  0.4124  0.1800  0.5088
  868MPD2    C412791   2.333   3.584  13.238 -0.9113  0.0567 -0.1648
  868MPD2    C512792   2.399   3.648  13.140 -0.0114 -0.0805 -0.1089
  868MPD2     H12793   2.614   3.464  13.385 -0.8530  1.7054  1.5216
  868MPD2    H112794   2.224   3.586  13.239 -0.8798  1.9653 -0.9297
  868MPD2    H212795   2.588   3.703  13.043 -1.0235 -0.3170  0.2337
  868MPD2    H312796   2.331   3.698  13.072  0.3110  0.5891  0.0655
  868MPD2     N12797   2.364   3.464  13.451 -0.0182 -0.5899 -0.3274
  868MPD2    H512798   2.435   3.426  13.513  0.2676 -0.4211 -0.5527
  868MPD2    N112799   2.755   3.574  13.201  0.2593  0.3944  0.1325
  868MPD2    H712800   2.799   3.601  13.113 -1.1172 -1.3828 -1.1121
  869MPD2     C12801   3.303   1.796   1.539 -0.2541  0.1697 -0.2563
  869MPD2    C112802   3.317   1.913   1.602 -0.7489  0.1831  0.8569
  869MPD2    C212803   3.434   1.996   1.587 -0.9088 -0.1521  0.1840
  869MPD2    C312804   3.543   1.951   1.513 -0.0734  0.0181 -0.8174
  869MPD2    C412805   3.528   1.826   1.450 -0.2214  0.3407 -0.5989
  869MPD2    C512806   3.410   1.755   1.459 -0.1255 -0.0437 -0.6052
  869MPD2     H12807   3.448   2.078   1.656 -0.4904 -1.3308  1.5129
  869MPD2    H112808   3.610   1.792   1.388  1.2214  1.2442  0.8181
  869MPD2    H212809   3.210   1.739   1.545 -1.0232  1.5120  0.5276
  869MPD2    H312810   3.407   1.660   1.407  0.3106 -2.0585  3.0602
  869MPD2     N12811   3.655   2.028   1.491  0.6000 -1.2681  0.7446
  869MPD2    H512812   3.717   1.994   1.418  1.2772  1.4161  0.0944
  869MPD2    N112813   3.211   1.947   1.690  0.3415  0.4325  0.1197
  869MPD2    H712814   3.137   1.878   1.695 -0.2887  1.0517 -0.7059
  870MPD2     C12815   2.549   1.177   1.025 -0.2526  0.5532  0.0770
  870MPD2    C112816   2.650   1.084   1.001  0.0067  0.4929 -0.9189
  870MPD2    C212817   2.651   1.010   0.882  0.0850 -0.9855 -0.7432
  870MPD2    C312818   2.556   1.034   0.782 -0.4061  0.2821  0.4355
  870MPD2    C412819   2.455   1.122   0.805  0.3204  0.2239  0.2273
  870MPD2    C512820   2.453   1.197   0.928 -0.2535  0.1173 -0.0525
  870MPD2     H12821   2.749   0.974   0.853  0.3303 -0.0370 -1.1030
  870MPD2    H112822   2.377   1.135   0.731  0.0212 -2.8191 -0.0111
  870MPD2    H212823   2.536   1.234   1.116 -1.8365  0.5665 -0.1577
  870MPD2    H312824   2.372   1.262   0.959 -1.7338 -1.1346 -1.3187
  870MPD2     N12825   2.574   0.947   0.672 -0.6725 -0.2993 -0.0696
  870MPD2    H512826   2.663   0.900   0.659 -1.0308 -0.9569 -0.1261
  870MPD2    N112827   2.763   1.073   1.091 -0.1360  0.2286  0.7605
  870MPD2    H712828   2.768   1.142   1.165 -2.2078  1.5286 -0.2756
  871MPD2     C12829   0.098   0.046  16.411  0.2989 -0.4018  0.5431
  871MPD2    C112830   0.090   4.730  16.540 -0.1233 -0.0124 -0.6436
  871MPD2    C212831   0.072   4.594  16.554 -0.0858  0.2335 -0.3287
  871MPD2    C312832   0.081   4.510  16.447 -0.1300 -0.8618  0.0811
  871MPD2    C412833   0.091   4.557  16.319  0.1228  0.5916 -0.4992
  871MPD2    C512834   0.091   4.700  16.302 -0.4095 -0.4170 -0.4203
  871MPD2     H12835   0.061   4.542  16.649 -0.9247  0.3898 -0.3388
  871MPD2    H112836   0.073   4.498  16.230 -0.9288 -0.7177  0.5761
  871MPD2    H212837   0.090   0.153  16.397 -1.3457 -0.7685 -1.3769
  871MPD2    H312838   0.082   0.005  16.201  0.4131 -0.5209 -0.5349
  871MPD2     N12839   0.083   4.367  16.470  0.3093 -0.1396 -0.0929
  871MPD2    H512840   0.068   4.327  16.562  0.3618  0.3216  0.1161
  871MPD2    N112841   0.071   0.085  16.645 -0.2583 -0.5370 -0.1312
  871MPD2    H712842   0.082   0.185  16.632  0.4602 -0.2068  2.9449
  872MPD2     C12843   0.756   2.476  13.660 -0.8699 -0.4154  0.0762
  872MPD2    C112844   0.766   2.589  13.739  0.3238 -0.6906 -0.4527
  872MPD2    C212845   0.675   2.623  13.836  0.3604  0.5608  0.1924
  872MPD2    C312846   0.567   2.528  13.861 -0.7427  0.5206  0.3704
  872MPD2    C412847   0.574   2.410  13.793 -0.0946  0.3748  0.8077
  872MPD2    C512848   0.656   2.391  13.689 -0.0903  0.9299 -0.1152
  872MPD2     H12849   0.676   2.718  13.887  1.3888 -0.4834  2.1001
  872MPD2    H112850   0.500   2.330  13.800 -1.5728  1.5695 -1.2152
  872MPD2    H212851   0.824   2.456  13.578  0.6908  1.0088  1.0290
  872MPD2    H312852   0.633   2.303  13.629  0.2399 -0.3893  1.6739
  872MPD2     N12853   0.476   2.556  13.965  0.3493  1.0639  0.5996
  872MPD2    H512854   0.504   2.629  14.030  0.5474  3.0802 -1.7639
  872MPD2    N112855   0.861   2.690  13.715 -0.1522 -0.4571  0.5892
  872MPD2    H712856   0.857   2.769  13.780 -0.6262 -2.0042  2.4267
  873MPD2     C12857   2.957   2.678   1.312  1.0324 -0.2391  0.3722
  873MPD2    C112858   2.829   2.679   1.361 -0.6284 -0.2191 -0.1342
  873MPD2    C212859   2.753   2.558   1.373  0.2017  0.0051  0.1230
  873MPD2    C312860   2.819   2.438   1.346 -0.7176 -0.0111 -0.0237
  873MPD2    C412861   2.944   2.441   1.290  0.4143 -0.8892 -0.1877
  873MPD2    C512862   3.015   2.558   1.287 -0.1307 -0.7649  1.4600
  873MPD2     H12863   2.659   2.564   1.427 -1.2324 -0.7360 -2.3120
  873MPD2    H112864   2.997   2.348   1.274  0.7253 -0.7413 -0.0205
  873MPD2    H212865   3.011   2.770   1.292 -1.6274  0.2870 -4.4323
  873MPD2    H312866   3.121   2.550   1.269 -0.5979  0.2636 -1.8236
  873MPD2     N12867   2.764   2.308   1.366  0.1281  0.0918  0.2639
  873MPD2    H512868   2.811   2.227   1.326 -0.4258 -0.5941  0.9921
  873MPD2    N112869   2.771   2.801   1.400  0.4334 -0.2154 -0.1406
  873MPD2    H712870   2.835   2.879   1.413  0.4840 -0.4133  0.8017
  874MPD2     C12871   1.695   2.071  16.098  0.5438 -0.4902 -0.8264
  874MPD2    C112872   1.812   2.067  16.169  0.5675  0.0006  0.2210
  874MPD2    C212873   1.888   2.178  16.174  0.3774 -0.3210  0.3336
  874MPD2    C312874   1.843   2.290  16.119  0.4481  0.5253  0.8507
  874MPD2    C412875   1.722   2.298  16.062  0.0036  0.1135  0.4761
  874MPD2    C512876   1.651   2.186  16.040 -0.1721 -0.0209  0.5276
  874MPD2     H12877   1.982   2.191  16.227  1.3393  1.6205 -1.8906
  874MPD2    H112878   1.691   2.391  16.015  0.0037  0.2483  0.7379
  874MPD2    H212879   1.639   1.979  16.086 -0.1977 -0.3034  1.1441
  874MPD2    H312880   1.566   2.179  15.972 -1.5993  1.5917  2.1427
  874MPD2     N12881   1.904   2.417  16.145  0.1019 -0.0430 -0.4270
  874MPD2    H512882   1.846   2.498  16.166 -0.0849 -0.3612  0.2793
  874MPD2    N112883   1.844   1.958  16.241  0.6066 -0.1748 -0.0549
  874MPD2    H712884   1.789   1.872  16.233  0.9058 -0.3013 -0.7177
  875MPD2     C12885   2.660   0.446  14.937  0.2424  0.2564  0.0056
  875MPD2    C112886   2.737   0.547  14.867 -0.6983 -0.1596 -0.5956
  875MPD2    C212887   2.805   0.639  14.944  0.3987 -1.2025 -0.2161
  875MPD2    C312888   2.799   0.633  15.084 -0.4896  0.2101 -0.2204
  875MPD2    C412889   2.736   0.521  15.138 -0.1836  0.4045  0.6042
  875MPD2    C512890   2.663   0.430  15.074  0.3970 -0.2802 -0.7406
  875MPD2     H12891   2.874   0.707  14.895  0.2745 -1.7426 -1.1251
  875MPD2    H112892   2.737   0.519  15.246 -0.5077 -0.3615  0.5913
  875MPD2    H212893   2.597   0.382  14.877 -1.9552  0.5253  2.0463
  875MPD2    H312894   2.596   0.358  15.121  1.4846  0.1928  1.5483
  875MPD2     N12895   2.857   0.731  15.166 -0.2162 -0.5570 -0.6256
  875MPD2    H512896   2.862   0.708  15.264 -0.6666 -1.7651 -0.8904
  875MPD2    N112897   2.756   0.547  14.729  0.0151 -0.4780  0.1196
  875MPD2    H712898   2.814   0.618  14.686  0.7600 -2.4415 -2.0818
  876MPD2     C12899   1.981   1.957  15.767  0.3714  0.9192  0.3674
  876MPD2    C112900   2.113   1.957  15.732  0.0353  0.2153  0.1299
  876MPD2    C212901   2.200   1.889  15.811  0.1528 -0.5080  0.0812
  876MPD2    C312902   2.163   1.823  15.928  0.1324 -0.2261 -0.6226
  876MPD2    C412903   2.032   1.808  15.959 -0.8806  0.1555  0.3883
  876MPD2    C512904   1.943   1.872  15.872  1.1990  0.2122 -0.0014
  876MPD2     H12905   2.306   1.894  15.787  0.0813  0.2866 -0.0842
  876MPD2    H112906   1.994   1.752  16.044 -2.7569  2.7210  1.2360
  876MPD2    H212907   1.902   2.006  15.710  1.2642 -1.2045 -2.7063
  876MPD2    H312908   1.840   1.857  15.900  1.1118  3.5181  1.4837
  876MPD2     N12909   2.265   1.753  15.997  0.1389  0.2788 -0.3313
  876MPD2    H512910   2.359   1.744  15.959  0.9291 -0.2963  1.7037
  876MPD2    N112911   2.154   2.043  15.625  0.3471  0.6369  0.5473
  876MPD2    H712912   2.085   2.106  15.587  1.0090  1.3016  0.4361
  877MPD2     C12913   1.911   2.355  14.976 -0.1683  0.1781 -0.0094
  877MPD2    C112914   2.048   2.372  14.967 -0.3219  0.2067 -0.2580
  877MPD2    C212915   2.110   2.388  14.847 -0.1728  0.2269  0.4116
  877MPD2    C312916   2.035   2.376  14.735 -0.8045  0.5481  0.2535
  877MPD2    C412917   1.897   2.357  14.743  0.2308  0.6233 -0.2238
  877MPD2    C512918   1.837   2.340  14.865 -0.3060 -0.4228  0.5104
  877MPD2     H12919   2.217   2.402  14.836 -0.1188  0.6740  1.4658
  877MPD2    H112920   1.835   2.337  14.657 -0.0323 -0.1513  0.1421
  877MPD2    H212921   1.847   2.337  15.061 -1.0367  1.1175 -0.4669
  877MPD2    H312922   1.733   2.320  14.888 -0.0724  0.2988  2.2010
  877MPD2     N12923   2.084   2.373  14.603  0.3775  0.0153 -0.4934
  877MPD2    H512924   2.019   2.335  14.534  2.0748 -1.9250 -1.0200
  877MPD2    N112925   2.128   2.367  15.084  0.2429 -0.0999 -0.6335
  877MPD2    H712926   2.225   2.389  15.067 -0.0561  0.7433 -1.2399
  878MPD2     C12927   1.769   1.212  12.844  0.4087  0.8952  0.0340
  878MPD2    C112928   1.803   1.343  12.872 -0.6405 -0.1279  0.1817
  878MPD2    C212929   1.753   1.415  12.983  0.1574  0.4217  0.3787
  878MPD2    C312930   1.667   1.351  13.069  0.2749 -0.2836  0.0956
  878MPD2    C412931   1.636   1.219  13.045 -0.7677  0.7500 -0.5294
  878MPD2    C512932   1.696   1.151  12.941 -0.1720  0.2869  0.5805
  878MPD2     H12933   1.773   1.520  12.996 -0.3512  0.8411 -2.1741
  878MPD2    H112934   1.588   1.165  13.126  2.6399 -0.0371  0.9865
  878MPD2    H212935   1.799   1.153  12.759 -0.9316  0.1934  0.0514
  878MPD2    H312936   1.667   1.047  12.931  1.0971  0.0298 -0.4191
  878MPD2     N12937   1.613   1.424  13.184  0.5039  0.1377  0.0801
  878MPD2    H512938   1.654   1.514  13.205 -1.4576  1.6138 -2.4204
  878MPD2    N112939   1.878   1.405  12.775 -0.4851  0.2378  0.0992
  878MPD2    H712940   1.893   1.350  12.691 -0.2551 -2.0978  1.6704
  879MPD2     C12941   2.655   3.492  17.043  0.2172  0.7986 -0.4847
  879MPD2    C112942   2.595   3.427  17.145  0.1103  0.2227 -0.3361
  879MPD2    C212943   2.496   3.336  17.115 -0.4611  0.5843 -0.3294
  879MPD2    C312944   2.465   3.301  16.986 -0.2290 -0.3081 -0.1636
  879MPD2    C412945   2.516   3.377  16.884 -0.7108 -0.1216 -0.1857
  879MPD2    C512946   2.612   3.469  16.919  0.1941  0.1426  0.3673
  879MPD2     H12947   2.447   3.286  17.198 -0.5314 -1.5533 -1.6451
  879MPD2    H112948   2.500   3.361  16.778  0.0316 -1.0275 -0.1619
  879MPD2    H212949   2.735   3.563  17.062 -0.6376  1.9089 -0.9656
  879MPD2    H312950   2.679   3.505  16.842 -0.8933 -0.9688 -1.0949
  879MPD2     N12951   2.366   3.206  16.946 -0.2045  0.1325 -0.4577
  879MPD2    H512952   2.351   3.194  16.846  0.0770  1.7612 -0.6832
  879MPD2    N112953   2.646   3.459  17.268 -0.6785  0.3261 -0.2483
  879MPD2    H712954   2.729   3.518  17.271 -0.2639 -0.3091  0.8584
  880MPD2     C12955   3.649   4.598   0.744  0.2299  0.3284 -1.2903
  880MPD2    C112956   3.712   4.693   0.672  0.5271 -0.5442  0.0448
  880MPD2    C212957   3.836   4.653   0.616  0.4887  0.4028  0.0370
  880MPD2    C312958   3.889   4.530   0.626  0.0676  0.0109 -0.4449
  880MPD2    C412959   3.817   4.437   0.692 -0.1185  0.4393 -0.9484
  880MPD2    C512960   3.700   4.472   0.754 -0.1570 -0.1083 -0.0847
  880MPD2     H12961   3.898   4.718   0.556  0.7352  0.1127 -0.0205
  880MPD2    H112962   3.842   4.332   0.702 -0.8607  0.2779 -0.8300
  880MPD2    H212963   3.557   4.621   0.797  1.4193 -0.6573  1.1855
  880MPD2    H312964   3.640   4.399   0.806  2.0677 -1.8813 -0.0540
  880MPD2     N12965   4.010   4.515   0.548 -0.2354 -0.2484  0.1309
  880MPD2    H512966   4.028   4.591   0.483 -3.5538  2.7446  2.6936
  880MPD2    N112967   3.656   0.087   0.651 -0.4401 -0.0865 -0.6528
  880MPD2    H712968   3.562   0.109   0.684  0.1337  1.6135 -0.1788
  881MPD2     C12969   3.752   0.925  17.738 -0.8621 -0.2058 -0.5100
  881MPD2    C112970   3.824   0.811   0.013  0.5936  0.1040 -0.0787
  881MPD2    C212971   3.825   0.741   0.134 -0.1058 -0.1860  0.4370
  881MPD2    C312972   3.733   0.782   0.233  0.3474  0.1958  0.3033
  881MPD2    C412973   3.668   0.898   0.219 -0.2692 -0.9554  0.2798
  881MPD2    C512974   3.679   0.971   0.104  0.4334  0.2435 -0.3645
  881MPD2     H12975   3.892   0.657   0.149  1.5982  0.8756 -1.2014
  881MPD2    H112976   3.602   0.941   0.294 -1.7157 -1.0896 -0.8989
  881MPD2    H212977   3.779   0.992  17.658 -0.6415 -2.0462 -1.9621
  881MPD2    H312978   3.635   1.070   0.098  0.4650  0.3254  0.8808
  881MPD2     N12979   3.697   0.711   0.346 -0.1458 -0.7165 -0.4442
  881MPD2    H512980   3.622   0.754   0.399  1.2472  0.0732  0.9049
  881MPD2    N112981   3.915   0.788  17.650 -0.3611  0.2350 -0.0364
  881MPD2    H712982   3.916   0.847  17.567  1.3609 -0.6726 -0.6511
  882MPD2     C12983   1.976   2.155  13.796  0.0719  0.8061  0.7293
  882MPD2    C112984   1.942   2.220  13.910 -0.3410 -0.3753 -0.7670
  882MPD2    C212985   1.805   2.247  13.939 -0.5600 -0.1027  1.4648
  882MPD2    C312986   1.708   2.211  13.852 -0.5930  0.3020 -0.6272
  882MPD2    C412987   1.739   2.140  13.737  0.0222  0.6531 -0.3307
  882MPD2    C512988   1.874   2.119  13.712 -0.5477 -0.0101 -0.4856
  882MPD2     H12989   1.773   2.283  14.036 -2.4836 -0.7268  1.0636
  882MPD2    H112990   1.669   2.090  13.671  0.0106 -2.1737  1.8056
  882MPD2    H212991   2.078   2.127  13.772 -0.2589  0.0642  0.2077
  882MPD2    H312992   1.912   2.085  13.616  2.5024 -0.7282  0.9683
  882MPD2     N12993   1.579   2.243  13.892 -0.4025  0.3501 -0.0485
  882MPD2    H512994   1.569   2.300  13.976 -0.8726  0.7328 -0.3632
  882MPD2    N112995   2.048   2.254  13.999  0.0079 -0.3796  0.2988
  882MPD2    H712996   2.140   2.220  13.974  0.4640  0.0026  1.4865
  883MPD2     C12997   3.912   3.083  16.539 -0.0875 -0.1645  0.2379
  883MPD2    C112998   4.029   3.057  16.465  0.1563  0.4960  0.3741
  883MPD2    C212999   4.139   3.007  16.532 -0.4163 -0.0854  0.0850
  883MPD2    C313000   4.139   2.998  16.671 -0.4028  0.3362  0.2218
  883MPD2    C413001   4.025   3.024  16.740  0.2448 -0.3480 -0.0781
  883MPD2    C513002   3.914   3.066  16.680 -0.4719 -0.5316  0.1556
  883MPD2     H13003   4.236   3.002  16.483 -0.9838 -0.7580 -0.9873
  883MPD2    H113004   4.022   3.007  16.847  2.9401 -0.9851 -0.1183
  883MPD2    H213005   3.818   3.109  16.491 -0.0442 -0.2059  0.1315
  883MPD2    H313006   3.823   3.095  16.732 -0.3817  1.2403 -0.6609
  883MPD2     N13007   4.263   2.961  16.735 -0.2502 -0.8644 -0.2826
  883MPD2    H513008   4.338   2.946  16.668  1.4025 -1.4636  1.7046
  883MPD2    N113009   4.032   3.054  16.325  0.4300 -0.1037 -0.4013
  883MPD2    H713010   4.115   3.017  16.278  0.0255 -0.7628 -0.5978
  884MPD2     C13011   1.437   2.915  15.321  0.4401  0.0107 -0.0476
  884MPD2    C113012   1.450   2.981  15.201  0.7462  0.0444 -0.7252
  884MPD2    C213013   1.358   3.080  15.170  0.3117 -0.4350  0.1258
  884MPD2    C313014   1.255   3.113  15.248 -0.6687 -0.4760 -0.3412
  884MPD2    C413015   1.228   3.034  15.357 -0.0089 -0.5450 -0.3771
  884MPD2    C513016   1.319   2.939  15.396 -0.0091  0.6689 -0.4481
  884MPD2     H13017   1.366   3.131  15.075  3.2936  2.2445  1.7813
  884MPD2    H113018   1.140   3.052  15.418  0.5846  1.1822 -0.0351
  884MPD2    H213019   1.499   2.834  15.358 -1.7034 -1.4638  0.3173
  884MPD2    H313020   1.303   2.888  15.490  0.8405  1.3277  0.0475
  884MPD2     N13021   1.172   3.215  15.206 -0.1742  0.1140  0.3656
  884MPD2    H513022   1.178   3.236  15.107 -0.0803 -0.9051  0.1459
  884MPD2    N113023   1.558   2.951  15.112  0.2336  0.4606  0.0940
  884MPD2    H713024   1.540   2.987  15.019 -0.3185  0.4782  0.2072
  885MPD2     C13025   4.530   3.066   0.442 -0.2954  0.3256  0.1209
  885MPD2    C113026   4.658   3.109   0.434  0.4116 -0.6348 -0.3382
  885MPD2    C213027   4.691   3.224   0.367  0.4667 -0.3749 -1.0115
  885MPD2    C313028   4.590   3.301   0.313 -0.5828  0.0299  0.6876
  885MPD2    C413029   4.461   3.251   0.315  0.3050  1.1709 -0.4332
  885MPD2    C513030   4.431   3.133   0.377 -0.2659 -0.1422  0.3705
  885MPD2     H13031   0.060   3.253   0.360  1.0240 -2.1295  0.0920
  885MPD2    H113032   4.381   3.302   0.263 -0.1456  3.1400  2.1581
  885MPD2    H213033   4.487   2.982   0.496 -2.2826  1.7307  0.7706
  885MPD2    H313034   4.331   3.093   0.392  0.2626 -2.3872 -2.1726
  885MPD2     N13035   4.629   3.415   0.233 -0.2978 -0.2531  0.1163
  885MPD2    H513036   4.724   3.436   0.205  0.3754 -1.6538  1.3060
  885MPD2    N113037   0.016   3.041   0.514 -0.3166  0.4480 -0.4732
  885MPD2    H713038   4.725   2.948   0.544  0.8973 -0.2256 -1.5180
  886MPD2     C13039   0.918   1.938  15.385  0.3601 -1.3659 -0.4368
  886MPD2    C113040   0.990   1.922  15.273 -0.7743  0.0470 -0.2449
  886MPD2    C213041   1.020   2.026  15.193 -0.0128 -0.2113  0.0231
  886MPD2    C313042   0.982   2.152  15.236 -0.3308  0.1163  0.5190
  886MPD2    C413043   0.894   2.166  15.342  0.4458 -0.1962  0.8855
  886MPD2    C513044   0.859   2.056  15.415  0.3760 -1.0369 -0.5411
  886MPD2     H13045   1.083   2.012  15.106 -0.0350  0.5587 -0.1218
  886MPD2    H113046   0.859   2.260  15.383 -2.0495 -0.4543 -0.6450
  886MPD2    H213047   0.883   1.856  15.446  1.5433 -2.2903 -0.9905
  886MPD2    H313048   0.791   2.063  15.499  2.2521  0.8156  0.8115
  886MPD2     N13049   1.026   2.258  15.151  0.5407  0.1549  0.2466
  886MPD2    H513050   1.092   2.238  15.077  1.3516  0.8059  0.7886
  886MPD2    N113051   1.050   1.798  15.234 -0.2832 -0.2133 -0.1287
  886MPD2    H713052   1.101   1.807  15.147 -3.1865 -3.4290 -2.1750
  887MPD2     C13053   1.778   1.753  15.335  0.6369  0.6016  0.8285
  887MPD2    C113054   1.648   1.787  15.354  0.3884 -0.1195 -0.3076
  887MPD2    C213055   1.628   1.912  15.414 -1.0604 -0.2949 -0.3608
  887MPD2    C313056   1.720   2.006  15.440 -0.3012 -0.3742  0.3687
  887MPD2    C413057   1.851   1.967  15.414  0.4880 -0.3217  0.7391
  887MPD2    C513058   1.881   1.845  15.364 -0.6562 -1.0620 -0.8039
  887MPD2     H13059   1.525   1.922  15.444 -0.1705  0.1533  2.5410
  887MPD2    H113060   1.941   2.017  15.447 -0.1032  0.8829  0.5466
  887MPD2    H213061   1.799   1.658  15.287  2.0124  0.2325  2.1535
  887MPD2    H313062   1.982   1.807  15.352 -1.1286 -2.2549 -1.0517
  887MPD2     N13063   1.696   2.122  15.521 -0.6652 -0.1054  0.3198
  887MPD2    H513064   1.602   2.151  15.545 -0.9664 -0.3944 -0.5256
  887MPD2    N113065   1.534   1.715  15.332  0.6538  0.3022  0.6133
  887MPD2    H713066   1.449   1.769  15.348  1.7015  1.3769  2.4785
  888MPD2     C13067   3.076   1.846  14.750 -0.3547 -0.7123 -0.2932
  888MPD2    C113068   3.075   1.861  14.882 -0.0926  0.2549 -0.0140
  888MPD2    C213069   3.162   1.949  14.944  0.5887 -0.1807  1.5568
  888MPD2    C313070   3.248   2.024  14.861  0.1205  0.6964 -0.0222
  888MPD2    C413071   3.246   2.007  14.720  0.8353  0.1456  0.1459
  888MPD2    C513072   3.164   1.917  14.672  0.3804 -0.5549 -0.3788
  888MPD2     H13073   3.164   1.963  15.051 -0.1978 -0.7415  1.6438
  888MPD2    H113074   3.296   2.065  14.643  0.9840  1.9429  1.5821
  888MPD2    H213075   3.020   1.772  14.694  1.1148 -1.6781 -0.4790
  888MPD2    H313076   3.171   1.905  14.564 -1.2192  1.8440 -0.7469
  888MPD2     N13077   3.325   2.122  14.928 -0.7334  0.2044  0.2335
  888MPD2    H513078   3.330   2.118  15.030  1.4996 -2.2722  0.0214
  888MPD2    N113079   2.992   1.780  14.964  0.5954 -0.3675  0.6712
  888MPD2    H713080   3.025   1.776  15.060 -0.8948  1.3437  1.2544
  889MPD2     C13081   2.680   1.318  12.597  0.5481 -0.1875 -0.4104
  889MPD2    C113082   2.665   1.307  12.738 -0.3837  0.2227  0.3326
  889MPD2    C213083   2.706   1.411  12.815 -0.2371 -0.4277 -0.1873
  889MPD2    C313084   2.732   1.537  12.758  0.0051  0.4792  0.1629
  889MPD2    C413085   2.724   1.556  12.624  0.0483  0.2698  0.5874
  889MPD2    C513086   2.706   1.443  12.548 -0.5620  0.0363 -0.8909
  889MPD2     H13087   2.706   1.399  12.922 -0.6424 -1.4810 -0.3063
  889MPD2    H113088   2.730   1.655  12.580  1.1824  0.1055  0.3718
  889MPD2    H213089   2.651   1.237  12.530  2.1629 -2.0663  1.1546
  889MPD2    H313090   2.697   1.453  12.441 -0.4556  0.6897 -0.8419
  889MPD2     N13091   2.765   1.635  12.846  0.7336 -0.4427  0.3186
  889MPD2    H513092   2.763   1.611  12.945 -0.8240  0.2606  0.4553
  889MPD2    N113093   2.656   1.183  12.801  0.2202  0.5978 -0.2338
  889MPD2    H713094   2.648   1.191  12.902 -1.6682 -0.1266 -0.3337
  890MPD2     C13095   2.403   2.827  14.764 -0.3432  0.2857 -0.1143
  890MPD2    C113096   2.483   2.925  14.816 -0.8411  0.4289 -0.2309
  890MPD2    C213097   2.532   2.916  14.940 -0.3747  0.5677 -0.2586
  890MPD2    C313098   2.511   2.800  15.013  0.0449 -0.2756  0.2961
  890MPD2    C413099   2.444   2.692  14.956  0.5367  0.2569 -0.2814
  890MPD2    C513100   2.382   2.713  14.836 -0.9918 -0.9549 -0.4010
  890MPD2     H13101   2.578   3.005  14.983  2.1392 -0.1616 -1.4779
  890MPD2    H113102   2.431   2.599  15.010  0.7787  1.9866  2.7324
  890MPD2    H213103   2.352   2.841  14.670  1.7373 -1.2345 -1.4858
  890MPD2    H313104   2.316   2.638  14.793 -2.7483 -0.4959  1.4742
  890MPD2     N13105   2.562   2.802  15.146 -0.6290  0.1709 -0.3304
  890MPD2    H513106   2.615   2.881  15.180 -0.6806 -0.0224  0.2174
  890MPD2    N113107   2.495   3.044  14.748 -0.1940 -0.1397 -0.0934
  890MPD2    H713108   2.426   3.060  14.676 -1.9351 -1.1955  1.3448
  891MPD2     C13109   0.284   1.621  16.241 -0.1147 -0.3615  0.6178
  891MPD2    C113110   0.230   1.687  16.353  0.8488 -0.3754  0.3551
  891MPD2    C213111   0.285   1.658  16.475  1.1090 -0.2540 -0.1882
  891MPD2    C313112   0.392   1.561  16.489 -0.5946 -0.0146  0.2335
  891MPD2    C413113   0.460   1.531  16.371  0.6228  0.0587  0.3633
  891MPD2    C513114   0.402   1.558  16.249 -0.1773  0.3165  0.4079
  891MPD2     H13115   0.248   1.696  16.569  0.1789 -0.6988 -0.3753
  891MPD2    H113116   0.545   1.464  16.379 -1.2105 -2.3284  0.1474
  891MPD2    H213117   0.247   1.630  16.140 -3.4014  0.5279  1.8874
  891MPD2    H313118   0.456   1.523  16.161  1.4729  0.9637  1.1715
  891MPD2     N13119   0.437   1.522  16.620  0.1513 -0.2321 -0.1389
  891MPD2    H513120   0.378   1.554  16.696  1.1045  1.2920 -0.0581
  891MPD2    N113121   0.132   1.783  16.341 -0.2980 -0.4944 -0.4293
  891MPD2    H713122   0.110   1.807  16.245 -0.0713 -0.8839 -0.5778
  892MPD2     C13123   1.469   2.640  14.656  0.2405  0.2435  0.2271
  892MPD2    C113124   1.360   2.673  14.578  0.4722  0.0066 -0.5176
  892MPD2    C213125   1.332   2.591  14.471  0.0339 -0.7845 -0.3189
  892MPD2    C313126   1.414   2.487  14.428 -0.2587  0.1003 -0.1646
  892MPD2    C413127   1.528   2.458  14.507  0.4788 -0.2648 -0.3124
  892MPD2    C513128   1.549   2.533  14.625 -0.1661  0.0780 -0.2210
  892MPD2     H13129   1.234   2.605  14.428 -0.2152 -2.4617 -0.2824
  892MPD2    H113130   1.592   2.377  14.475  0.3182 -0.1709 -0.8774
  892MPD2    H213131   1.499   2.696  14.744 -0.8574  1.2183 -0.0286
  892MPD2    H313132   1.640   2.516  14.683  0.6781 -2.6547 -2.3970
  892MPD2     N13133   1.388   2.406  14.318 -0.0298  0.3768 -0.3370
  892MPD2    H513134   1.446   2.324  14.306 -0.1262  0.1909  0.5386
  892MPD2    N113135   1.263   2.771  14.609  0.0531  0.0411 -0.2357
  892MPD2    H713136   1.200   2.792  14.532 -0.4488  0.9185  0.4129
  893MPD2     C13137   1.985   1.642   0.619  0.3000 -0.2198  0.0684
  893MPD2    C113138   2.021   1.667   0.749 -0.7276  0.2235  0.3683
  893MPD2    C213139   1.928   1.728   0.833  0.3129 -0.1594 -0.0905
  893MPD2    C313140   1.792   1.753   0.799  0.1629  0.1257  0.1453
  893MPD2    C413141   1.759   1.731   0.664  0.5205 -0.0452 -0.5133
  893MPD2    C513142   1.857   1.673   0.582  0.5523 -0.0214  0.3467
  893MPD2     H13143   1.950   1.757   0.935 -2.4257 -2.2978  1.1043
  893MPD2    H113144   1.664   1.765   0.624  1.2509  2.3334 -0.2236
  893MPD2    H213145   2.051   1.598   0.545  0.5356 -0.6102  0.5170
  893MPD2    H313146   1.833   1.673   0.476  0.5280  2.4819  0.3470
  893MPD2     N13147   1.693   1.813   0.886  0.2797  0.1222  0.9455
  893MPD2    H513148   1.597   1.808   0.855  0.7250 -0.0915 -0.3998
  893MPD2    N113149   2.144   1.625   0.796  0.2497  0.0888  0.6635
  893MPD2    H713150   2.199   1.575   0.726 -1.7461 -2.0684  0.6151
  894MPD2     C13151   1.047   3.264   1.366  0.2849 -0.5508 -0.5464
  894MPD2    C113152   1.001   3.392   1.368 -0.5343  0.3119  0.2662
  894MPD2    C213153   1.032   3.476   1.262 -0.6306 -0.6910  1.0537
  894MPD2    C313154   1.104   3.427   1.154  0.2911 -0.3517 -0.0629
  894MPD2    C413155   1.137   3.291   1.148  0.3591  0.4249  0.8150
  894MPD2    C513156   1.113   3.215   1.257 -0.0192  0.3020  0.1403
  894MPD2     H13157   1.009   3.582   1.271 -0.5483 -0.6093  0.2896
  894MPD2    H113158   1.198   3.246   1.071 -2.0696 -1.9360  0.2848
  894MPD2    H213159   1.020   3.198   1.448  1.7010 -1.7690 -1.0430
  894MPD2    H313160   1.143   3.111   1.263 -0.9593  0.0391  0.3176
  894MPD2     N13161   1.141   3.517   1.053  0.7664  0.4340  0.2353
  894MPD2    H513162   1.115   3.613   1.076  1.3533  0.3410  1.3020
  894MPD2    N113163   0.953   3.460   1.485 -0.0413  0.5226  0.7792
  894MPD2    H713164   0.925   3.558   1.480 -0.9554  0.3103  1.5455
  895MPD2     C13165   0.302   2.134  14.197 -0.5636  0.3183  1.0061
  895MPD2    C113166   0.250   2.112  14.069 -0.6695  0.2173 -0.0723
  895MPD2    C213167   0.325   2.057  13.977  0.4796 -0.1391  0.4445
  895MPD2    C313168   0.461   2.034  13.997 -0.0650  0.1851  0.1582
  895MPD2    C413169   0.512   2.063  14.118  0.2422 -0.3818 -0.5714
  895MPD2    C513170   0.433   2.100  14.221  0.7204 -0.6240 -0.7077
  895MPD2     H13171   0.283   2.056  13.877  1.9180  0.9993 -0.1704
  895MPD2    H113172   0.619   2.047  14.125  0.0040 -1.4492  0.7068
  895MPD2    H213173   0.243   2.157  14.285 -0.1026  1.9088  0.9049
  895MPD2    H313174   0.473   2.114  14.321  0.6598  0.2468 -0.8071
  895MPD2     N13175   0.550   2.003  13.894 -0.2261  0.4227 -0.1121
  895MPD2    H513176   0.647   1.985  13.919  0.3715  2.3774 -1.0289
  895MPD2    N113177   0.124   2.133  14.031  0.1853  0.1311  0.0569
  895MPD2    H713178   0.103   2.123  13.932 -1.7932  1.1171  0.3827
  896MPD2     C13179   2.504   0.104   1.517 -0.0488 -0.5693  0.0953
  896MPD2    C113180   2.541   0.003   1.440  0.4179 -0.2716  0.3400
  896MPD2    C213181   2.447   4.653   1.376 -0.3357 -0.6062 -0.1901
  896MPD2    C313182   2.310   4.672   1.388  0.0082 -0.6205  0.1277
  896MPD2    C413183   2.269   0.037   1.473  0.0836  0.2428  0.2566
  896MPD2    C513184   2.362   0.128   1.523 -0.1003  0.6990  0.2786
  896MPD2     H13185   2.482   4.565   1.323 -1.3526 -1.5856  0.7468
  896MPD2    H113186   2.164   0.052   1.498  0.6192  0.1220  2.5729
  896MPD2    H213187   2.575   0.170   1.563  0.1629 -0.9797  0.3549
  896MPD2    H313188   2.326   0.202   1.594 -0.4985  1.4392 -0.6931
  896MPD2     N13189   2.218   4.581   1.329  0.7997  0.4927  0.0541
  896MPD2    H513190   2.267   4.500   1.291  0.1785 -0.3115  0.9905
  896MPD2    N113191   2.679   4.731   1.415  1.0001 -0.1525  0.2721
  896MPD2    H713192   2.734   0.064   1.466  1.9006  0.5012 -1.5578
  897MPD2     C13193   4.150   1.139  10.308  0.0249  0.2583  0.1858
  897MPD2    C113194   4.036   1.220  10.282 -0.7091  0.4857  0.4911
  897MPD2    C213195   3.918   1.186  10.345 -0.6364 -0.3239 -0.2403
  897MPD2    C313196   3.910   1.084  10.445 -0.7435  0.0770  0.5251
  897MPD2    C413197   4.022   1.009  10.461  0.3432 -0.5598  0.3231
  897MPD2    C513198   4.138   1.043  10.400 -0.0301  0.2052  0.2899
  897MPD2     H13199   3.843   1.263  10.340 -0.2807 -0.0314 -1.1912
  897MPD2    H113200   4.027   0.927  10.531  0.6009 -1.6236 -0.9511
  897MPD2    H213201   4.240   1.146  10.248  0.5682 -0.8926  0.8641
  897MPD2    H313202   4.217   0.971  10.419  0.8988  0.5645 -2.1852
  897MPD2     N13203   3.789   1.068  10.513 -0.1030  0.0829  0.5191
  897MPD2    H513204   3.718   1.136  10.488  2.1704  1.7879 -1.3244
  897MPD2    N113205   4.044   1.333  10.199  0.2700 -0.3415  0.4048
  897MPD2    H713206   4.134   1.367  10.166  0.2387  0.0009  0.6792
  898MPD2     C13207   1.854   2.139  17.269 -0.4208 -0.3236  0.1710
  898MPD2    C113208   1.724   2.118  17.304 -0.5039  0.0837  0.0945
  898MPD2    C213209   1.629   2.096  17.212  0.1734  1.0193 -0.2380
  898MPD2    C313210   1.660   2.080  17.081  0.2556 -0.3647 -0.7158
  898MPD2    C413211   1.792   2.095  17.046  0.6219 -0.5010 -0.0003
  898MPD2    C513212   1.888   2.119  17.139  0.3814  0.8993  0.0135
  898MPD2     H13213   1.524   2.083  17.236  0.4211 -0.9338 -0.2873
  898MPD2    H113214   1.829   2.096  16.944 -0.2159 -0.3266 -0.3009
  898MPD2    H213215   1.937   2.164  17.335  0.3375  0.4865 -1.1059
  898MPD2    H313216   1.992   2.139  17.118  0.5196 -0.1493 -0.3112
  898MPD2     N13217   1.559   2.049  16.991 -0.1063 -0.5402 -0.6430
  898MPD2    H513218   1.465   2.062  17.026 -0.9602 -0.4116 -2.9840
  898MPD2    N113219   1.677   2.131  17.435  0.4512 -0.7568 -0.1478
  898MPD2    H713220   1.582   2.102  17.453  0.3924 -0.3042  0.2906
  899MPD2     C13221   2.224   2.862  17.535  1.2609 -0.6340 -0.2409
  899MPD2    C113222   2.106   2.933  17.523 -0.6019  0.0772 -0.1099
  899MPD2    C213223   1.993   2.883  17.587  0.2327 -0.1050 -0.7513
  899MPD2    C313224   2.003   2.784  17.680  0.2636  0.1202  1.2769
  899MPD2    C413225   2.125   2.724  17.702  0.4753 -0.3089 -0.2276
  899MPD2    C513226   2.232   2.753  17.617  0.2967  0.1257  0.2753
  899MPD2     H13227   1.902   2.941  17.576  1.3286  1.3563 -2.1784
  899MPD2    H113228   2.151   2.654   0.041  3.0495 -1.4027 -2.0736
  899MPD2    H213229   2.311   2.896  17.480  1.7139 -0.8253  0.3627
  899MPD2    H313230   2.316   2.686  17.634  1.1558  1.6477  1.9638
  899MPD2     N13231   1.894   2.776   0.027 -0.3960  0.5100 -0.3258
  899MPD2    H513232   1.809   2.823  17.736 -0.8306 -0.9957 -1.4936
  899MPD2    N113233   2.112   3.046  17.440  0.3165  0.3953 -0.7763
  899MPD2    H713234   2.205   3.066  17.405  0.0778  0.9526 -1.0868
  900MPD2     C13235   1.724   4.189  12.483 -0.4182 -0.1658  0.5722
  900MPD2    C113236   1.618   4.112  12.505 -0.5623 -0.0844 -0.3613
  900MPD2    C213237   1.494   4.157  12.469 -0.3210  0.1673 -0.5918
  900MPD2    C313238   1.478   4.272  12.397 -0.4525 -0.0789  0.3304
  900MPD2    C413239   1.588   4.351  12.369  0.4337  1.0177 -0.4404
  900MPD2    C513240   1.710   4.309  12.419 -0.0193  0.0554  0.4887
  900MPD2     H13241   1.409   4.094  12.495  0.2642 -0.1342  0.6020
  900MPD2    H113242   1.588   4.449  12.324 -0.3221  1.1510 -0.1543
  900MPD2    H213243   1.822   4.164  12.522  0.0921  2.3755  0.9199
  900MPD2    H313244   1.798   4.373  12.408  0.4044 -0.6702 -0.3801
  900MPD2     N13245   1.346   4.303  12.360 -0.1008 -0.0688  0.0735
  900MPD2    H513246   1.274   4.231  12.368  0.4291 -0.5436  0.5258
  900MPD2    N113247   1.637   3.990  12.581  0.7526 -0.4028  0.0623
  900MPD2    H713248   1.733   3.961  12.593  0.6556 -0.5908  0.4018
  901MPD2     C13249   1.218   3.035  12.889  0.2648 -0.2040  0.3268
  901MPD2    C113250   1.331   3.014  12.816  0.2433 -0.0287 -0.2852
  901MPD2    C213251   1.406   3.121  12.774 -0.1679  1.0896 -0.7273
  901MPD2    C313252   1.376   3.246  12.820 -0.4803  0.1518  1.0042
  901MPD2    C413253   1.262   3.268  12.898  0.5255 -0.3689  0.6046
  901MPD2    C513254   1.181   3.161  12.921  0.7400 -0.6709  0.4326
  901MPD2     H13255   1.499   3.105  12.721 -0.8378 -2.6688 -0.7321
  901MPD2    H113256   1.225   3.362  12.937  0.8540  1.0769 -2.5761
  901MPD2    H213257   1.155   2.950  12.913 -1.8095  2.3367  4.1186
  901MPD2    H313258   1.082   3.176  12.965  1.0003  0.4139  0.6382
  901MPD2     N13259   1.455   3.344  12.775  0.1027  0.0681  0.1317
  901MPD2    H513260   1.536   3.307  12.726  1.5789  1.5564  1.4348
  901MPD2    N113261   1.364   2.877  12.792  0.4514  0.0257  0.1293
  901MPD2    H713262   1.318   2.803  12.845 -1.2448  1.0395  0.0936
  902MPD2     C13263   0.551   2.325  13.315 -0.5052 -0.9060  0.3528
  902MPD2    C113264   0.458   2.381  13.226  0.4197 -0.1316 -0.2275
  902MPD2    C213265   0.443   2.317  13.106 -0.5701  0.0397 -0.3497
  902MPD2    C313266   0.511   2.197  13.065  0.1573  0.4191 -0.1903
  902MPD2    C413267   0.583   2.141  13.162  0.3274  0.2523 -0.2558
  902MPD2    C513268   0.598   2.200  13.286  0.6383  0.3218  0.0838
  902MPD2     H13269   0.383   2.372  13.034 -0.3285  1.9144  0.8593
  902MPD2    H113270   0.628   2.045  13.142  0.8113 -0.0924  2.4797
  902MPD2    H213271   0.562   2.374  13.411 -0.0449  1.5658 -0.9653
  902MPD2    H313272   0.666   2.147  13.352 -0.5535 -0.5922  0.5604
  902MPD2     N13273   0.500   2.130  12.938  0.2030  0.9833 -0.0467
  902MPD2    H513274   0.536   2.035  12.933 -0.1740  0.9577 -2.1501
  902MPD2    N113275   0.406   2.515  13.244  0.0036  0.0666 -0.3483
  902MPD2    H713276   0.440   2.561  13.328 -1.1406 -0.9421  0.6718
  903MPD2     C13277   0.243   2.107  12.049 -0.2396 -0.7638  0.0533
  903MPD2    C113278   0.186   2.104  12.173 -0.0768  0.8361  0.0879
  903MPD2    C213279   0.052   2.112  12.174  0.2734  0.9605 -0.1493
  903MPD2    C313280   4.715   2.104  12.053  0.2694 -0.6480  0.0574
  903MPD2    C413281   0.040   2.100  11.928 -0.1067  0.0449 -0.2926
  903MPD2    C513282   0.180   2.111  11.929 -0.6362 -0.0689  0.0252
  903MPD2     H13283   0.004   2.110  12.272  0.4993 -0.2671 -0.0594
  903MPD2    H113284   4.724   2.091  11.833 -2.1164 -2.4341  1.0217
  903MPD2    H213285   0.351   2.114  12.037 -0.4924  1.3290 -0.9612
  903MPD2    H313286   0.243   2.105  11.841  3.2580 -1.3402  2.9235
  903MPD2     N13287   4.577   2.102  12.065 -0.2111  0.4854 -0.9236
  903MPD2    H513288   4.537   2.085  12.156 -0.8559  2.0036 -0.9292
  903MPD2    N113289   0.270   2.103  12.291  0.3731  0.4664  0.1269
  903MPD2    H713290   0.370   2.099  12.277  0.0562  1.3044 -2.4588
  904MPD2     C13291   0.183   1.332  14.107 -0.3656 -0.0199  0.5159
  904MPD2    C113292   0.204   1.435  14.026 -0.1787  0.1614  0.2013
  904MPD2    C213293   0.336   1.481  14.017  0.4364 -0.4531 -0.2463
  904MPD2    C313294   0.440   1.413  14.084  0.1609 -0.3329  0.0801
  904MPD2    C413295   0.412   1.299  14.160  0.4062  0.7950  0.0633
  904MPD2    C513296   0.278   1.265  14.174  0.0371 -0.5337 -0.1310
  904MPD2     H13297   0.367   1.552  13.941 -0.6587 -0.3425 -0.5847
  904MPD2    H113298   0.489   1.243  14.213  1.1250  1.0205 -0.7428
  904MPD2    H213299   0.087   1.284  14.123 -0.6717  1.0171  1.8022
  904MPD2    H313300   0.253   1.180  14.236  2.1560  0.0186  1.4789
  904MPD2     N13301   0.572   1.460  14.057 -0.3589  0.4765  0.7496
  904MPD2    H513302   0.577   1.522  13.977 -0.9850 -0.9108 -0.3647
  904MPD2    N113303   0.095   1.489  13.950 -0.0138 -0.0682  0.8539
  904MPD2    H713304   0.117   1.571  13.894 -0.1485  0.1967  1.1881
  905MPD2     C13305   4.692   1.824  13.407 -0.3249 -0.3704 -0.5245
  905MPD2    C113306   0.002   1.874  13.530  0.0928  0.0818 -0.1606
  905MPD2    C213307   0.132   1.927  13.534  0.0776 -0.5394  0.3554
  905MPD2    C313308   0.219   1.910  13.428 -0.2608 -0.4090 -0.3607
  905MPD2    C413309   0.168   1.858  13.309 -1.4356 -0.6576 -0.1084
  905MPD2    C513310   0.043   1.817  13.295  0.5841 -0.0604 -0.9150
  905MPD2     H13311   0.173   1.967  13.626 -1.9414  1.2199  0.4850
  905MPD2    H113312   0.228   1.829  13.224  1.0415  0.1823  1.3478
  905MPD2    H213313   4.595   1.781  13.385 -0.9851 -0.0339  1.6971
  905MPD2    H313314   0.014   1.777  13.198 -0.3747  1.6462 -1.3250
  905MPD2     N13315   0.355   1.936  13.453  0.0530  0.0256 -0.4567
  905MPD2    H513316   0.384   1.956  13.549  0.8839  0.9266 -0.8951
  905MPD2    N113317   4.655   1.846  13.644 -0.2705  0.2232  0.6869
  905MPD2    H713318   4.580   1.778  13.635  1.4379 -1.7155  1.0613
  906MPD2     C13319   2.464   1.336  11.007 -0.1246  0.0737 -0.5870
  906MPD2    C113320   2.433   1.246  10.910 -0.6214  0.6167 -0.4207
  906MPD2    C213321   2.386   1.120  10.953  0.2130 -0.0468  0.2143
  906MPD2    C313322   2.399   1.082  11.087  0.2504  0.0073  0.3462
  906MPD2    C413323   2.433   1.177  11.186 -0.2475 -0.7717 -0.0065
  906MPD2    C513324   2.460   1.299  11.140  0.1112  0.6534  0.6205
  906MPD2     H13325   2.349   1.050  10.879  0.4423 -0.7375  0.7419
  906MPD2    H113326   2.470   1.160  11.286  0.1992 -1.2649 -0.2556
  906MPD2    H213327   2.481   1.440  10.981 -0.0910  0.2575  0.1648
  906MPD2    H313328   2.494   1.368  11.217  0.4919  0.2269  0.8283
  906MPD2     N13329   2.366   0.956  11.138  0.1682 -0.1049 -0.4427
  906MPD2    H513330   2.375   0.949  11.238 -1.9273  0.6591 -0.1957
  906MPD2    N113331   2.441   1.266  10.775  0.2997 -0.0673 -0.0904
  906MPD2    H713332   2.401   1.190  10.721  0.5643  0.1289 -0.5578
  907MPD2     C13333   1.145   0.765  15.552  0.4323  0.7354 -1.5974
  907MPD2    C113334   1.213   0.661  15.493 -1.0630  0.3007  0.5991
  907MPD2    C213335   1.325   0.609  15.551 -0.3976 -0.1373  0.3977
  907MPD2    C313336   1.369   0.652  15.673 -0.2736  0.2855 -0.1691
  907MPD2    C413337   1.303   0.760  15.730 -0.3282 -0.5414 -0.5317
  907MPD2    C513338   1.187   0.812  15.669  0.2438  0.0428 -0.0225
  907MPD2     H13339   1.382   0.530  15.504 -2.5482 -1.1294 -0.5323
  907MPD2    H113340   1.322   0.796  15.831 -0.6112 -0.3745 -0.5385
  907MPD2    H213341   1.056   0.811  15.510  0.6028  1.5926 -1.0183
  907MPD2    H313342   1.124   0.884  15.719  0.6527 -0.2734  0.9513
  907MPD2     N13343   1.479   0.584  15.731  0.1472  0.3992  0.0198
  907MPD2    H513344   1.502   0.497  15.683 -1.3679 -1.2454  2.2704
  907MPD2    N113345   1.177   0.609  15.369  0.0665 -0.8568  0.0752
  907MPD2    H713346   1.216   0.523  15.333 -0.5469 -0.9291 -0.4200
  908MPD2     C13347   3.568   1.683   9.388 -0.3385  0.2301 -0.6992
  908MPD2    C113348   3.566   1.561   9.457 -0.0564 -0.2775 -0.1976
  908MPD2    C213349   3.641   1.545   9.578  0.7359  0.2066  0.0568
  908MPD2    C313350   3.716   1.655   9.622 -0.0805  0.2410  0.2804
  908MPD2    C413351   3.725   1.770   9.545  0.8119  0.0255 -0.4699
  908MPD2    C513352   3.655   1.783   9.430  0.3061  0.3750 -0.3243
  908MPD2     H13353   3.629   1.458   9.641  0.6521  1.2027  1.4266
  908MPD2    H113354   3.782   1.858   9.574  1.8255 -1.0012  0.6804
  908MPD2    H213355   3.498   1.703   9.308 -1.8115 -0.9617  0.2916
  908MPD2    H313356   3.659   1.874   9.372  0.7791 -0.1501 -1.1231
  908MPD2     N13357   3.788   1.635   9.739 -0.0760  0.4966  0.7298
  908MPD2    H513358   3.798   1.542   9.779 -0.0931  0.3783  0.4578
  908MPD2    N113359   3.478   1.458   9.407  0.2094  0.3128  0.3153
  908MPD2    H713360   3.427   1.488   9.324 -1.4681  1.2473  1.7090
  909MPD2     C13361   4.064   3.722  11.747  0.3295  0.3357  0.3134
  909MPD2    C113362   4.067   3.855  11.722 -0.0372 -0.0867 -0.5845
  909MPD2    C213363   3.996   3.938  11.801 -0.3470  0.7041 -0.9722
  909MPD2    C313364   3.916   3.893  11.897  0.4191 -0.5635 -0.4822
  909MPD2    C413365   3.901   3.755  11.913 -0.3009  1.0079  0.5692
  909MPD2    C513366   3.973   3.670  11.841  0.6989 -1.1137  0.8848
  909MPD2     H13367   4.000   4.044  11.781  0.9252  1.0246  1.0606
  909MPD2    H113368   3.830   3.719  11.986 -0.0388 -2.5857 -0.9595
  909MPD2    H213369   4.123   3.647  11.696 -0.6568 -0.1201 -0.1552
  909MPD2    H313370   3.967   3.564  11.864  0.8198 -0.8848  1.9952
  909MPD2     N13371   3.851   3.998  11.975 -0.0053  0.0593  0.0544
  909MPD2    H513372   3.872   4.097  11.969  1.7773 -0.2784  0.5209
  909MPD2    N113373   4.138   3.899  11.608 -0.0196 -0.0427 -0.2926
  909MPD2    H713374   4.133   4.000  11.601  0.0169 -0.1441 -1.9045
  910MPD2     C13375   0.825   1.177  16.182  0.1512  0.5255 -0.0288
  910MPD2    C113376   0.820   1.074  16.092  0.2541  0.3328  0.0723
  910MPD2    C213377   0.731   1.078  15.984 -0.2493  0.0946 -0.2223
  910MPD2    C313378   0.638   1.182  15.966  0.7127  0.6776  0.0378
  910MPD2    C413379   0.641   1.280  16.063 -0.1374  0.3499  0.0695
  910MPD2    C513380   0.735   1.275  16.163  0.3312 -0.5332 -0.4480
  910MPD2     H13381   0.731   0.995  15.915  0.6708 -2.3566  2.7388
  910MPD2    H113382   0.575   1.366  16.069 -0.5040  0.0702  0.0289
  910MPD2    H213383   0.900   1.194  16.259 -0.9363 -1.3617  1.4726
  910MPD2    H313384   0.733   1.365  16.223  2.9935 -2.2695  2.2017
  910MPD2     N13385   0.556   1.199  15.859  0.6366 -0.1876 -0.0392
  910MPD2    H513386   0.487   1.273  15.870 -2.2537 -2.6491 -1.3970
  910MPD2    N113387   0.910   0.963  16.103 -0.4935 -0.1060 -0.5294
  910MPD2    H713388   0.906   0.894  16.029  2.6300 -2.2205  1.2624
  911MPD2     C13389   3.257   1.517  16.455 -0.0670 -0.0764  0.1996
  911MPD2    C113390   3.305   1.649  16.462  0.4096 -0.0891 -0.0373
  911MPD2    C213391   3.215   1.752  16.463  0.1275  0.3247  0.1863
  911MPD2    C313392   3.080   1.723  16.450  0.4335 -0.1071  0.2010
  911MPD2    C413393   3.031   1.594  16.440  0.5745 -0.3469 -0.1262
  911MPD2    C513394   3.124   1.489  16.449 -0.2707  0.0715 -0.2879
  911MPD2     H13395   3.249   1.855  16.460 -0.7898  0.5859 -0.9397
  911MPD2    H113396   2.924   1.574  16.438  0.4753  0.1295  0.3336
  911MPD2    H213397   3.330   1.437  16.448  0.9403  0.7670  1.2705
  911MPD2    H313398   3.088   1.387  16.443  0.3481 -0.2344  1.4092
  911MPD2     N13399   2.980   1.825  16.439 -0.5989  0.2425 -0.2522
  911MPD2    H513400   2.886   1.792  16.417  0.3707 -1.4665 -1.7770
  911MPD2    N113401   3.441   1.662  16.462  0.5877 -0.2981  0.1825
  911MPD2    H713402   3.501   1.580  16.463 -0.4547 -1.0479  0.3329
  912MPD2     C13403   3.128   1.593  15.991 -0.8999  0.1815  0.1584
  912MPD2    C113404   3.010   1.604  16.057 -0.5933 -1.0969  0.3675
  912MPD2    C213405   2.953   1.494  16.114  0.1471  0.5840 -0.0845
  912MPD2    C313406   3.022   1.377  16.122 -0.8354 -0.8070  0.2341
  912MPD2    C413407   3.143   1.361  16.059  0.1703  0.1403  0.5910
  912MPD2    C513408   3.190   1.471  15.982  0.5987  0.1560 -0.0508
  912MPD2     H13409   2.858   1.503  16.165 -0.0626 -0.0445 -0.3684
  912MPD2    H113410   3.199   1.268  16.057 -1.1424 -0.6754  1.2545
  912MPD2    H213411   3.185   1.672  15.945 -1.2656 -0.3380 -1.1839
  912MPD2    H313412   3.287   1.447  15.938 -0.2850 -0.9809 -1.3738
  912MPD2     N13413   2.963   1.274  16.199 -0.1597  0.4742  0.2228
  912MPD2    H513414   2.873   1.298  16.241  1.1638 -0.6423  3.7093
  912MPD2    N113415   2.952   1.738  16.069 -0.1703  0.0870 -0.3650
  912MPD2    H713416   3.006   1.808  16.019  0.2226 -0.0618 -0.1476
  913MPD2     C13417   3.300   2.520  10.185 -0.8981  0.7686 -0.1951
  913MPD2    C113418   3.335   2.644  10.231  0.0893 -0.9380 -0.2147
  913MPD2    C213419   3.299   2.758  10.159  0.3078 -0.6137  0.3892
  913MPD2    C313420   3.239   2.740  10.033  0.4142  0.1206 -0.1146
  913MPD2    C413421   3.211   2.609   9.993  0.3667 -0.1206 -0.0027
  913MPD2    C513422   3.245   2.502  10.063 -0.3036  0.2961 -0.0045
  913MPD2     H13423   3.301   2.859  10.198 -0.3520 -0.1388 -0.7985
  913MPD2    H113424   3.182   2.590   9.890 -2.2960  2.6641  0.2294
  913MPD2    H213425   3.315   2.435  10.250 -2.1254  0.2970 -0.5384
  913MPD2    H313426   3.208   2.409  10.024 -0.6051  1.1094 -1.6464
  913MPD2     N13427   3.205   2.850   9.955 -0.2829  0.0350  0.0138
  913MPD2    H513428   3.151   2.833   9.872  2.5412  1.2663 -2.0848
  913MPD2    N113429   3.382   2.653  10.364 -0.2876 -0.4442  0.4432
  913MPD2    H713430   3.388   2.569  10.420  0.1736 -0.2477  0.6925
  914MPD2     C13431   1.384   2.513  11.852  0.4078 -0.0536  0.3977
  914MPD2    C113432   1.310   2.609  11.918 -0.3658  0.2014 -1.1693
  914MPD2    C213433   1.317   2.616  12.057  0.2453  0.5479 -0.1874
  914MPD2    C313434   1.414   2.545  12.122  0.4078 -0.5416 -0.6192
  914MPD2    C413435   1.496   2.455  12.056 -0.2010  0.7927  1.0538
  914MPD2    C513436   1.474   2.438  11.918  0.1896  0.1911  1.0586
  914MPD2     H13437   1.262   2.690  12.114  0.8833  1.0449 -0.2143
  914MPD2    H113438   1.577   2.404  12.107  0.1722  2.1392  1.8078
  914MPD2    H213439   1.374   2.511  11.745 -1.3880  1.3856  0.5403
  914MPD2    H313440   1.545   2.375  11.867  1.6031  1.9592  0.8183
  914MPD2     N13441   1.416   2.554  12.266  0.0804  0.4699  0.1456
  914MPD2    H513442   1.356   2.627  12.303 -3.6884 -2.1903 -0.7128
  914MPD2    N113443   1.219   2.693  11.842  0.0624 -0.2163  0.2833
  914MPD2    H713444   1.214   2.683  11.741  2.1569  1.4252  0.0010
  915MPD2     C13445   4.422   3.112  15.799 -0.3907 -0.4367  0.2950
  915MPD2    C113446   4.353   3.185  15.712 -0.8023 -0.4572  0.0732
  915MPD2    C213447   4.250   3.274  15.761  0.4121 -0.5646 -0.5651
  915MPD2    C313448   4.218   3.286  15.896 -0.2494  0.3140 -0.0715
  915MPD2    C413449   4.297   3.208  15.977 -0.3413 -0.6127  0.1168
  915MPD2    C513450   4.390   3.122  15.930  0.3156 -0.6103 -0.3183
  915MPD2     H13451   4.201   3.343  15.693 -0.3060  0.6336  1.1641
  915MPD2    H113452   4.277   3.201  16.084 -0.2195 -4.5123 -0.1190
  915MPD2    H213453   4.497   3.040  15.768  0.2435  0.3055  0.1272
  915MPD2    H313454   4.442   3.062  16.003 -1.0056 -1.0043  0.2998
  915MPD2     N13455   4.121   3.385  15.933 -0.6102 -0.5888 -0.5500
  915MPD2    H513456   4.085   3.448  15.863  0.7804  0.1617 -0.6032
  915MPD2    N113457   4.372   3.161  15.573 -0.5294  0.5790  0.3069
  915MPD2    H713458   4.432   3.085  15.546  0.3850  1.5477 -0.3989
  916MPD2     C13459   2.479   1.229  15.814  0.6623 -0.3415  0.2851
  916MPD2    C113460   2.573   1.255  15.908  0.2553 -0.1223 -0.8559
  916MPD2    C213461   2.696   1.206  15.896 -0.1118 -0.5594 -0.3042
  916MPD2    C313462   2.730   1.113  15.788  0.2551 -0.0481 -0.3085
  916MPD2    C413463   2.632   1.077  15.707  0.2340  0.8951 -0.5500
  916MPD2    C513464   2.504   1.136  15.719 -0.6049  0.4662 -0.1573
  916MPD2     H13465   2.772   1.239  15.966 -1.6592 -1.2191  1.6877
  916MPD2    H113466   2.641   1.002  15.629 -1.1937 -0.5825  0.7255
  916MPD2    H213467   2.376   1.261  15.814  0.6773 -0.2933 -1.4694
  916MPD2    H313468   2.432   1.090  15.653 -2.9246  0.7312  2.1585
  916MPD2     N13469   2.863   1.077  15.766  0.2930 -0.2809 -0.1639
  916MPD2    H513470   2.938   1.126  15.813  1.0604 -1.1680 -0.4468
  916MPD2    N113471   2.531   1.350  16.006  0.4885  0.6979 -0.8309
  916MPD2    H713472   2.443   1.398  15.989 -1.1001 -2.1807 -0.8201
  917MPD2     C13473   3.150   3.079  11.234 -0.4940  0.2971  0.4516
  917MPD2    C113474   3.084   3.192  11.279 -0.1564 -0.0357 -0.6008
  917MPD2    C213475   3.172   3.298  11.311 -0.0476 -0.1285  0.4839
  917MPD2    C313476   3.310   3.290  11.306 -0.1249 -0.7691 -0.3544
  917MPD2    C413477   3.368   3.181  11.247 -0.0372  0.9051  0.1998
  917MPD2    C513478   3.283   3.077  11.218  0.1177  0.0034 -0.1834
  917MPD2     H13479   3.132   3.396  11.333  2.5451  0.5882  2.0018
  917MPD2    H113480   3.475   3.173  11.234 -0.1464  1.0742 -0.7851
  917MPD2    H213481   3.097   2.993  11.196 -0.2699  0.6596 -0.6969
  917MPD2    H313482   3.325   2.990  11.170  0.9228  0.2646  0.0453
  917MPD2     N13483   3.393   3.394  11.348  0.1451 -0.3343  0.6125
  917MPD2    H513484   3.493   3.395  11.330 -0.4469  2.2119 -2.4476
  917MPD2    N113485   2.944   3.200  11.287  0.2506  0.1180 -0.6519
  917MPD2    H713486   2.894   3.112  11.280  1.3714 -0.4689 -1.1738
  918MPD2     C13487   2.657   3.799  12.060 -0.0116  0.0454 -0.4803
  918MPD2    C113488   2.778   3.782  12.001  0.5609  0.3003 -0.7802
  918MPD2    C213489   2.791   3.685  11.908  0.1374 -0.3610 -0.0233
  918MPD2    C313490   2.679   3.614  11.855 -0.1489 -0.2332  0.4167
  918MPD2    C413491   2.554   3.633  11.919  0.6952 -0.1439  0.2630
  918MPD2    C513492   2.553   3.719  12.024  0.0295 -0.4109 -0.3966
  918MPD2     H13493   2.887   3.668  11.860 -0.0586 -0.5256 -0.3600
  918MPD2    H113494   2.462   3.583  11.894 -0.5294  1.1730  2.1333
  918MPD2    H213495   2.648   3.854  12.153 -1.2706  0.2381 -0.7133
  918MPD2    H313496   2.458   3.734  12.074 -0.2343  1.1778 -1.3678
  918MPD2     N13497   2.693   3.525  11.744  0.0731 -0.3786  0.3425
  918MPD2    H513498   2.777   3.529  11.687  0.2402  0.0734  0.6079
  918MPD2    N113499   2.900   3.846  12.043 -0.1177 -0.6661 -0.1299
  918MPD2    H713500   2.984   3.808  12.001 -0.2329 -1.6224  0.5028
  919MPD2     C13501   3.448   2.566  11.360 -0.0782 -0.4982  0.0691
  919MPD2    C113502   3.405   2.438  11.331 -0.2232  0.0249 -0.2783
  919MPD2    C213503   3.325   2.414  11.222  0.5641  0.7261  0.8364
  919MPD2    C313504   3.283   2.518  11.134  0.0583 -0.5050  0.0289
  919MPD2    C413505   3.318   2.648  11.170  0.1098 -0.1751  0.7485
  919MPD2    C513506   3.400   2.666  11.280  0.7241  0.1934 -0.3914
  919MPD2     H13507   3.291   2.313  11.202 -1.8838  1.8956 -0.9516
  919MPD2    H113508   3.288   2.734  11.111  0.5617 -0.7801 -0.3474
  919MPD2    H213509   3.531   2.586  11.428  0.7733 -0.4696 -0.9763
  919MPD2    H313510   3.458   2.758  11.286  0.5338  0.2578  0.3781
  919MPD2     N13511   3.185   2.507  11.029 -0.2444  0.1708 -0.1303
  919MPD2    H513512   3.167   2.591  10.974 -2.3653 -0.0178  0.2778
  919MPD2    N113513   3.440   2.324  11.414  0.2084 -0.0352  0.6003
  919MPD2    H713514   3.416   2.234  11.373 -1.6857 -0.1129  1.8906
  920MPD2     C13515   2.903   2.897  10.182 -0.0950 -0.8473  0.4869
  920MPD2    C113516   2.816   2.796  10.188  0.1120 -0.1312  0.3230
  920MPD2    C213517   2.827   2.700  10.286  0.4440  0.2307 -0.5331
  920MPD2    C313518   2.925   2.714  10.386 -0.2816 -0.0633 -0.5421
  920MPD2    C413519   3.004   2.826  10.390 -0.0602 -0.0287  0.0454
  920MPD2    C513520   2.994   2.913  10.282 -0.4328  0.1787  0.0865
  920MPD2     H13521   2.750   2.624  10.294 -1.5716  2.2274 -0.7566
  920MPD2    H113522   3.086   2.838  10.461  0.2871  1.1332 -0.5546
  920MPD2    H213523   2.913   2.980  10.113  1.3484 -0.6086  0.9872
  920MPD2    H313524   3.068   2.992  10.275  0.2725 -0.3441  1.6665
  920MPD2     N13525   2.920   2.620  10.486 -0.3657 -0.0690 -0.3677
  920MPD2    H513526   2.866   2.537  10.465  0.0549 -0.1533 -1.1392
  920MPD2    N113527   2.704   2.782  10.104  0.0349  0.0084  0.4286
  920MPD2    H713528   2.639   2.705  10.112  0.4323 -0.6370 -2.6476
  921MPD2     C13529   4.309   1.928  16.774  0.3693  0.2837  0.3627
  921MPD2    C113530   4.303   2.002  16.659  0.3708 -0.5909  0.1990
  921MPD2    C213531   4.175   2.008  16.597  0.6827 -0.2372 -0.9848
  921MPD2    C313532   4.067   1.936  16.646 -1.2766 -0.2913 -0.8548
  921MPD2    C413533   4.082   1.861  16.758  0.1067 -0.3640  0.5388
  921MPD2    C513534   4.206   1.850  16.817  0.3246  0.5087 -0.0719
  921MPD2     H13535   4.158   2.082  16.519 -0.0479  0.5194 -0.1065
  921MPD2    H113536   4.005   1.796  16.797  0.9050 -1.0371  0.9915
  921MPD2    H213537   4.403   1.924  16.829  0.1293  0.7323  0.8081
  921MPD2    H313538   4.214   1.787  16.904 -1.5756 -0.9837 -0.9610
  921MPD2     N13539   3.945   1.930  16.571  0.2276  0.3673 -0.0148
  921MPD2    H513540   3.877   1.859  16.595 -0.6552 -0.1567 -3.9989
  921MPD2    N113541   4.416   2.064  16.618 -0.1985 -0.0584 -0.3871
  921MPD2    H713542   4.494   2.063  16.682 -2.5628  1.7526  2.5351
  922MPD2     C13543   0.491   4.402  17.078 -0.3594 -0.2175  0.8917
  922MPD2    C113544   0.444   4.470  17.185  0.8525 -0.0016 -0.2727
  922MPD2    C213545   0.363   4.407  17.279 -0.0846  0.2026  0.0716
  922MPD2    C313546   0.332   4.273  17.278  0.3490  0.6076  0.0166
  922MPD2    C413547   0.377   4.205  17.163 -0.2412  0.3981 -0.1989
  922MPD2    C513548   0.450   4.273  17.067  0.0017  0.5616  0.1207
  922MPD2     H13549   0.339   4.458  17.371  1.7910  1.8804 -0.3541
  922MPD2    H113550   0.373   4.098  17.152  0.2180  0.3460  0.1272
  922MPD2    H213551   0.537   4.447  16.991 -0.8861 -0.6013  0.4161
  922MPD2    H313552   0.482   4.212  16.983 -1.4162  2.0469 -1.5132
  922MPD2     N13553   0.256   4.212  17.380  0.0332 -0.2946 -0.5625
  922MPD2    H513554   0.205   4.279  17.437  1.0774  0.5529 -0.6264
  922MPD2    N113555   0.484   4.599  17.220  0.1799  0.1671 -0.3972
  922MPD2    H713556   0.441   4.637  17.303 -3.5523  0.3435 -2.4159
  923MPD2     C13557   1.500   0.778   9.628 -0.3847 -0.1228  0.2925
  923MPD2    C113558   1.572   0.801   9.517  0.4160  0.1906  0.0703
  923MPD2    C213559   1.711   0.821   9.525 -0.5025  0.1781 -0.7180
  923MPD2    C313560   1.774   0.823   9.648  0.1981  0.3576  0.1459
  923MPD2    C413561   1.703   0.791   9.761  0.8964 -0.2174 -0.1734
  923MPD2    C513562   1.567   0.766   9.746 -0.3455 -0.2151 -0.1558
  923MPD2     H13563   1.771   0.853   9.440 -0.3559  0.8225 -0.3691
  923MPD2    H113564   1.751   0.778   9.857  0.3548  2.0904  0.4114
  923MPD2    H213565   1.393   0.759   9.621 -0.1622 -1.1873 -0.1938
  923MPD2    H313566   1.522   0.736   9.840 -0.7582 -0.2801 -0.3752
  923MPD2     N13567   1.913   0.848   9.653  0.0623 -0.1776  0.8018
  923MPD2    H513568   1.942   0.854   9.750 -2.1980 -1.2480  1.5423
  923MPD2    N113569   1.505   0.819   9.396 -0.0031  0.4000 -0.1092
  923MPD2    H713570   1.404   0.825   9.406 -0.3127  1.7427 -4.0640
  924MPD2     C13571   1.709   4.538  16.145 -0.0009 -0.0943  0.0337
  924MPD2    C113572   1.776   4.627  16.208 -0.1191  0.5782  0.4446
  924MPD2    C213573   1.802   0.012  16.151 -0.0216  0.3022 -0.2992
  924MPD2    C313574   1.765   0.041  16.018  0.9998 -0.5246  0.4439
  924MPD2    C413575   1.696   4.674  15.948  0.4909 -0.0196 -0.6320
  924MPD2    C513576   1.665   4.554  16.014  0.2216 -0.8806 -0.4798
  924MPD2     H13577   1.864   0.082  16.206 -0.1102  0.3278 -0.2307
  924MPD2    H113578   1.661   4.679  15.845 -1.2442 -1.2075 -0.1058
  924MPD2    H213579   1.670   4.450  16.194  1.2992  1.1422  3.2955
  924MPD2    H313580   1.611   4.471  15.971 -0.0609 -2.0666  2.1374
  924MPD2     N13581   1.786   0.168  15.965 -0.1224  0.1171  0.2420
  924MPD2    H513582   1.839   0.229  16.027  2.4900 -1.1879 -0.6995
  924MPD2    N113583   1.793   4.605  16.343  0.1772 -0.9047  0.6119
  924MPD2    H713584   1.745   4.525  16.381  1.4983 -2.0916 -0.2280
  925MPD2     C13585   0.409   2.821  14.687  0.0559 -0.3857  0.4232
  925MPD2    C113586   0.361   2.697  14.695  0.8612 -0.5408  0.1073
  925MPD2    C213587   0.326   2.635  14.813 -0.2108 -0.3383  0.2861
  925MPD2    C313588   0.325   2.705  14.927 -0.0179 -0.2872  0.3622
  925MPD2    C413589   0.359   2.837  14.923 -0.6557 -0.4052  0.2632
  925MPD2    C513590   0.414   2.894  14.804  0.3477  0.7435 -0.5310
  925MPD2     H13591   0.293   2.532  14.816 -0.2578 -0.3521 -0.6861
  925MPD2    H113592   0.354   2.894  15.015  1.1841  0.8713 -0.4413
  925MPD2    H213593   0.430   2.870  14.592 -0.3457  1.7962  1.4469
  925MPD2    H313594   0.436   3.000  14.797 -0.1035  0.8049 -0.9486
  925MPD2     N13595   0.280   2.635  15.044  0.3618  0.1904 -0.7280
  925MPD2    H513596   0.272   2.534  15.043  2.1912  0.0703 -1.6889
  925MPD2    N113597   0.339   2.615  14.582 -0.7482 -0.5424 -0.1827
  925MPD2    H713598   0.276   2.535  14.590 -0.3156 -0.7459  1.2399
  926MPD2     C13599   3.104   0.410  14.006  0.0973 -0.3665  0.2907
  926MPD2    C113600   3.130   0.547  14.008  0.6192 -0.1057 -0.4230
  926MPD2    C213601   3.189   0.602  13.900  0.6679 -0.0474 -0.0409
  926MPD2    C313602   3.207   0.533  13.783  0.1431  0.3151  0.1917
  926MPD2    C413603   3.166   0.401  13.776  0.3777 -0.9700 -0.2650
  926MPD2    C513604   3.134   0.339  13.894  0.8114  0.2181 -0.2811
  926MPD2     H13605   3.199   0.710  13.892  1.2477  0.0553  2.1529
  926MPD2    H113606   3.197   0.339  13.693  1.1934  0.4124 -0.9846
  926MPD2    H213607   3.076   0.350  14.092 -3.4113 -1.0915 -1.3249
  926MPD2    H313608   3.105   0.235  13.879 -1.2378  0.7439  0.0846
  926MPD2     N13609   3.258   0.601  13.672  0.4599  0.2780  0.2142
  926MPD2    H513610   3.281   0.700  13.681 -2.7671  0.9895  0.9187
  926MPD2    N113611   3.097   0.629  14.119 -0.1779  0.0907 -0.8256
  926MPD2    H713612   3.114   0.728  14.106  0.7766  0.1108  0.5567
  927MPD2     C13613   3.794   2.383   0.710  0.1196 -0.2475 -0.3515
  927MPD2    C113614   3.737   2.482   0.625 -0.0005 -0.1399  0.5843
  927MPD2    C213615   3.792   2.500   0.502 -0.1937  0.0826 -0.7156
  927MPD2    C313616   3.907   2.434   0.472 -0.2124 -0.4974  0.5030
  927MPD2    C413617   3.965   2.337   0.553 -0.1463 -0.1943 -0.0774
  927MPD2    C513618   3.907   2.313   0.676  0.6271  0.0100 -0.3567
  927MPD2     H13619   3.737   2.560   0.430  0.6917  2.2479  0.4325
  927MPD2    H113620   4.055   2.282   0.530  1.6053  2.2662  0.8480
  927MPD2    H213621   3.752   2.359   0.807  1.7569  1.7443  0.8696
  927MPD2    H313622   3.954   2.244   0.746 -1.0348 -0.4741  0.3012
  927MPD2     N13623   3.970   2.471   0.347 -0.4283 -0.3281  0.0579
  927MPD2    H513624   3.923   2.544   0.294 -0.0885 -0.8525 -0.9659
  927MPD2    N113625   3.626   2.548   0.678 -0.0526  0.0492  0.2352
  927MPD2    H713626   3.616   2.543   0.779 -0.3396  0.7273  0.2433
  928MPD2     C13627   1.139   2.289   0.977 -0.2332 -0.3144  0.2441
  928MPD2    C113628   1.234   2.357   1.055  0.0042 -0.5454  0.2620
  928MPD2    C213629   1.368   2.330   1.023  0.7804 -0.8374 -0.1168
  928MPD2    C313630   1.399   2.256   0.909 -0.6672 -0.6811 -0.9379
  928MPD2    C413631   1.297   2.203   0.834 -0.3357  0.8365 -0.7454
  928MPD2    C513632   1.170   2.215   0.870 -0.5861 -0.8648  0.9762
  928MPD2     H13633   1.446   2.378   1.082 -0.7771  0.8000  0.5779
  928MPD2    H113634   1.308   2.145   0.742  0.5580  2.4577 -1.6522
  928MPD2    H213635   1.032   2.304   0.988  0.0286  0.2622  1.9649
  928MPD2    H313636   1.095   2.161   0.813 -0.5452 -0.7438  0.8054
  928MPD2     N13637   1.531   2.242   0.860  0.3646  0.0561 -0.2490
  928MPD2    H513638   1.541   2.214   0.763 -1.4836 -0.6857 -0.2113
  928MPD2    N113639   1.184   2.437   1.157 -0.4254  0.2929 -0.2152
  928MPD2    H713640   1.083   2.445   1.163 -0.5538 -0.2875 -1.5436
  929MPD2     C13641   2.116   1.129  10.130  0.9545  0.2443  0.5326
  929MPD2    C113642   2.015   1.074  10.209 -0.3217 -0.7721  0.3558
  929MPD2    C213643   1.890   1.068  10.155  0.2029  0.3476  0.1131
  929MPD2    C313644   1.860   1.126  10.032 -0.0863 -0.2193  0.2974
  929MPD2    C413645   1.965   1.192   9.964 -0.5625 -0.3270  0.2459
  929MPD2    C513646   2.094   1.192  10.014 -0.5950  0.1183 -0.9270
  929MPD2     H13647   1.807   1.032  10.215 -1.1097 -0.3924 -2.1150
  929MPD2    H113648   1.950   1.236   9.866 -0.0589  1.0412  0.7885
  929MPD2    H213649   2.220   1.129  10.160  1.1659  0.2771 -0.1858
  929MPD2    H313650   2.177   1.230   9.956  0.4055 -1.0582 -0.2479
  929MPD2     N13651   1.741   1.114   9.966  0.3685 -0.4002 -0.6419
  929MPD2    H513652   1.739   1.153   9.872 -1.4406  1.3628  0.1272
  929MPD2    N113653   2.043   1.034  10.339  0.0390 -0.0728 -0.2390
  929MPD2    H713654   2.141   1.025  10.366 -0.4310 -0.6830  1.2747
  930MPD2     C13655   3.195   3.813  14.254  0.5497  0.1065  0.3684
  930MPD2    C113656   3.284   3.791  14.148 -0.4316  0.2541  0.0890
  930MPD2    C213657   3.277   3.675  14.076  0.0835  0.5509 -0.5485
  930MPD2    C313658   3.158   3.598  14.078 -0.0151  0.1181  0.3137
  930MPD2    C413659   3.068   3.623  14.178  0.1853 -0.0210 -1.1468
  930MPD2    C513660   3.088   3.724  14.273 -0.1325  0.2417  0.0446
  930MPD2     H13661   3.349   3.649  13.999 -0.2692 -0.5979 -0.4844
  930MPD2    H113662   2.990   3.548  14.186  1.0612 -0.7739  0.3721
  930MPD2    H213663   3.213   3.901  14.314  0.4307 -0.0343  0.6079
  930MPD2    H313664   3.018   3.736  14.354 -0.2254  1.3515 -0.1948
  930MPD2     N13665   3.150   3.508  13.976  0.5205 -0.5526  0.0713
  930MPD2    H513666   3.226   3.515  13.909  1.0969  0.7147  0.8649
  930MPD2    N113667   3.393   3.880  14.126  0.4986 -0.2736  0.1682
  930MPD2    H713668   3.402   3.955  14.193  1.8380 -0.6066  0.3531
  931MPD2     C13669   3.829   3.101   0.899 -0.0031  0.1843 -0.2289
  931MPD2    C113670   3.704   3.071   0.959 -0.6346 -0.4198 -0.2246
  931MPD2    C213671   3.667   3.137   1.070 -0.1767  0.3084 -0.1448
  931MPD2    C313672   3.762   3.223   1.139 -0.5828  0.5500  0.3458
  931MPD2    C413673   3.887   3.242   1.087 -0.8687 -0.7254 -0.7158
  931MPD2    C513674   3.915   3.183   0.970 -0.0900 -0.6484  0.2710
  931MPD2     H13675   3.569   3.113   1.111 -0.3091  0.6669 -0.2539
  931MPD2    H113676   3.963   3.290   1.149 -1.2343 -1.9302  0.6576
  931MPD2    H213677   3.864   3.065   0.803  1.0181 -0.1158  0.2508
  931MPD2    H313678   4.013   3.204   0.929  0.3025 -0.8114  1.1213
  931MPD2     N13679   3.743   3.257   1.276  0.1296 -0.3395 -0.6965
  931MPD2    H513680   3.819   3.297   1.330  1.3500 -0.5269 -2.2722
  931MPD2    N113681   3.619   2.979   0.889  0.0126  0.0317 -0.3600
  931MPD2    H713682   3.650   2.934   0.804  0.6995  1.1959 -0.7218
  932MPD2     C13683   0.171   2.014  11.119  0.4907  0.0502  0.4022
  932MPD2    C113684   0.259   2.086  11.193 -0.0979  0.4391  0.2197
  932MPD2    C213685   0.331   2.026  11.291  0.5947 -0.2663  0.0793
  932MPD2    C313686   0.334   1.887  11.298 -0.3209 -0.0198  0.3408
  932MPD2    C413687   0.248   1.813  11.228  0.8542 -0.7919  0.2938
  932MPD2    C513688   0.157   1.876  11.147  0.5942 -0.5603 -0.7938
  932MPD2     H13689   0.397   2.082  11.355  1.8443 -0.5815 -0.9304
  932MPD2    H113690   0.239   1.705  11.237 -1.6315 -0.5714  0.4781
  932MPD2    H213691   0.093   2.059  11.057  2.0020  1.7875 -0.2582
  932MPD2    H313692   0.086   1.820  11.088 -1.4809  0.1420  1.0191
  932MPD2     N13693   0.419   1.808  11.375  0.0237  0.5808  0.2151
  932MPD2    H513694   0.420   1.708  11.364  0.8117  0.4873  1.0709
  932MPD2    N113695   0.272   2.224  11.185  0.3172 -0.0508  0.2682
  932MPD2    H713696   0.319   2.270  11.262 -1.6443  0.3200  1.2417
  933MPD2     C13697   0.621   2.608   1.802 -0.3625  1.0387 -0.4366
  933MPD2    C113698   0.678   2.546   1.692  0.4096  0.3176 -0.2062
  933MPD2    C213699   0.606   2.452   1.617 -0.5638 -0.1825  0.0077
  933MPD2    C313700   0.473   2.425   1.641  0.3270  0.3705  0.5360
  933MPD2    C413701   0.420   2.491   1.751  0.3105 -1.2213 -0.5300
  933MPD2    C513702   0.493   2.576   1.831  0.0373  0.0309 -0.0593
  933MPD2     H13703   0.650   2.378   1.551 -0.8793 -1.2335  0.9702
  933MPD2    H113704   0.315   2.481   1.777 -0.1851  3.0346 -0.8808
  933MPD2    H213705   0.685   2.673   1.862 -0.7259  0.9207  0.0730
  933MPD2    H313706   0.443   2.629   1.911 -0.1729 -1.3536  0.7411
  933MPD2     N13707   0.410   2.311   1.580 -0.5813 -0.5351 -0.5435
  933MPD2    H513708   0.462   2.267   1.504 -1.7883 -1.5982 -0.7499
  933MPD2    N113709   0.814   2.577   1.653  0.2814  0.1975 -0.2823
  933MPD2    H713710   0.868   2.632   1.719 -1.0519  2.0695 -0.7518
  934MPD2     C13711   2.387   4.468   1.663  0.6448  0.3794 -0.5785
  934MPD2    C113712   2.483   4.365   1.645  0.1787 -0.1882 -0.5033
  934MPD2    C213713   2.430   4.236   1.625 -0.0969 -0.1790  0.0753
  934MPD2    C313714   2.299   4.211   1.618 -0.9489  0.5187  1.1642
  934MPD2    C413715   2.206   4.315   1.635  0.2568 -0.2477  0.2372
  934MPD2    C513716   2.257   4.435   1.669 -0.2544  0.0942  0.3926
  934MPD2     H13717   2.488   4.146   1.609  0.8871  0.4313  0.1746
  934MPD2    H113718   2.100   4.294   1.627  0.4476 -0.7787 -0.8460
  934MPD2    H213719   2.408   4.573   1.677  0.8035  0.0003  1.9364
  934MPD2    H313720   2.191   4.519   1.687 -2.5291 -1.3499 -1.1185
  934MPD2     N13721   2.250   4.083   1.601 -0.3199  0.9460 -0.1496
  934MPD2    H513722   2.150   4.083   1.582 -0.0873 -2.2627 -1.4838
  934MPD2    N113723   2.619   4.396   1.645 -0.3148  0.0987 -0.5930
  934MPD2    H713724   2.681   4.332   1.596 -0.2657  1.8796 -2.8624
  935MPD2     C13725   2.742   3.236   1.355 -0.3993  0.6911 -0.3998
  935MPD2    C113726   2.616   3.219   1.297  0.1056  0.0264  0.0635
  935MPD2    C213727   2.506   3.297   1.331 -0.5926  0.0536 -0.1841
  935MPD2    C313728   2.517   3.393   1.429 -0.3947 -0.0759  0.3275
  935MPD2    C413729   2.644   3.403   1.495 -0.9840 -0.2509  0.7404
  935MPD2    C513730   2.750   3.335   1.450 -0.5691 -0.2724  0.0155
  935MPD2     H13731   2.412   3.284   1.279 -1.5108  2.3284  0.9256
  935MPD2    H113732   2.660   3.470   1.579  1.0430  0.1392  0.0469
  935MPD2    H213733   2.836   3.191   1.326  0.1204  1.2101  0.4688
  935MPD2    H313734   2.848   3.353   1.492 -0.5892  1.6646 -0.7550
  935MPD2     N13735   2.417   3.487   1.464 -0.2448  0.9104  0.0009
  935MPD2    H513736   2.430   3.541   1.549 -0.4609  0.0731  0.5633
  935MPD2    N113737   2.605   3.131   1.185 -0.2685  0.0449 -1.0076
  935MPD2    H713738   2.516   3.126   1.136  0.0258  0.3729 -1.5731
  936MPD2     C13739   0.698   0.258  12.442  0.5848 -0.7264  0.5767
  936MPD2    C113740   0.805   0.286  12.526  0.1759 -0.1494  0.1460
  936MPD2    C213741   0.929   0.300  12.469  0.3569 -0.8641 -0.1877
  936MPD2    C313742   0.949   0.297  12.335 -0.9466  0.1429  0.2706
  936MPD2    C413743   0.841   0.276  12.250 -0.7272  1.2601 -0.7424
  936MPD2    C513744   0.718   0.259  12.306  0.7579 -0.2713 -0.0297
  936MPD2     H13745   1.010   0.335  12.531 -1.9938  1.0548  1.8089
  936MPD2    H113746   0.853   0.277  12.142  2.0267 -2.4660 -0.4443
  936MPD2    H213747   0.597   0.245  12.478  0.0651  2.4087  0.2377
  936MPD2    H313748   0.627   0.250  12.247  0.3977 -1.2901  0.6953
  936MPD2     N13749   1.081   0.335  12.292 -0.1878  0.4035 -0.3230
  936MPD2    H513750   1.157   0.334  12.359 -1.2495  1.9694  0.9066
  936MPD2    N113751   0.789   0.306  12.661  0.0531  0.2548 -0.2916
  936MPD2    H713752   0.868   0.350  12.707 -0.0149  1.5002 -1.3567
  937MPD2     C13753   3.696   1.674  11.356 -0.4112 -0.3211  0.3659
  937MPD2    C113754   3.753   1.785  11.415 -0.2280  0.1366  0.9028
  937MPD2    C213755   3.867   1.841  11.358 -0.6656 -0.4331  0.2829
  937MPD2    C313756   3.935   1.787  11.252 -0.6977  0.2465 -0.1213
  937MPD2    C413757   3.883   1.667  11.197 -0.1885 -0.3391 -0.2610
  937MPD2    C513758   3.769   1.611  11.255 -0.5582  0.1054 -0.2968
  937MPD2     H13759   3.904   1.940  11.383 -0.1644 -0.6684  0.4651
  937MPD2    H113760   3.936   1.612  11.121  0.4740  1.3531 -1.0200
  937MPD2    H213761   3.596   1.635  11.370 -0.7360  0.3708 -0.0274
  937MPD2    H313762   3.722   1.521  11.216  0.0904 -0.3086 -0.1345
  937MPD2     N13763   4.056   1.849  11.208 -0.3457  0.2601  0.6221
  937MPD2    H513764   4.094   1.926  11.263 -1.0295  0.9414  0.1386
  937MPD2    N113765   3.676   1.875  11.486 -0.5313  1.0745  0.2204
  937MPD2    H713766   3.716   1.960  11.525  1.3647  0.4544 -0.3764
  938MPD2     C13767   1.452   3.047   1.157  0.2949 -0.1636 -0.2801
  938MPD2    C113768   1.496   3.170   1.181  0.4328  0.6718  0.2479
  938MPD2    C213769   1.498   3.215   1.312  0.3117  0.1885 -0.7315
  938MPD2    C313770   1.462   3.137   1.420  0.4590  0.6382  0.1352
  938MPD2    C413771   1.413   3.015   1.387 -0.0297 -0.4002  0.1237
  938MPD2    C513772   1.409   2.972   1.265 -0.4490 -0.3183 -0.0140
  938MPD2     H13773   1.530   3.314   1.341  0.3660  0.5577 -2.0285
  938MPD2    H113774   1.366   2.949   1.459 -0.8566  0.8609  0.7285
  938MPD2    H213775   1.437   3.006   1.058  1.3162  1.3663 -1.0777
  938MPD2    H313776   1.371   2.874   1.239 -4.4010  2.1685 -3.6221
  938MPD2     N13777   1.446   3.174   1.557  0.0713 -0.6839  0.0015
  938MPD2    H513778   1.398   3.121   1.628  0.5646 -0.7116  0.3167
  938MPD2    N113779   1.549   3.253   1.085 -0.1186 -0.3570 -0.4682
  938MPD2    H713780   1.578   3.346   1.113 -0.8618 -0.2967  0.1039
  939MPD2     C13781   2.864   4.262   1.141 -1.0609 -0.7748 -0.2628
  939MPD2    C113782   2.801   4.302   1.020 -0.2035  0.1413  0.4470
  939MPD2    C213783   2.853   4.255   0.899 -0.1666  0.1139  0.1619
  939MPD2    C313784   2.963   4.178   0.898 -0.3054  0.6354 -0.2176
  939MPD2    C413785   3.025   4.135   1.013 -0.4793  0.9267  1.0225
  939MPD2    C513786   2.973   4.176   1.133 -0.3713 -0.1065 -0.1175
  939MPD2     H13787   2.816   4.275   0.799  0.0235 -1.2279 -0.1772
  939MPD2    H113788   3.104   4.062   1.008  0.5805  1.9631  2.8103
  939MPD2    H213789   2.838   4.298   1.240  1.4120 -0.9197  0.4380
  939MPD2    H313790   3.024   4.138   1.221  0.3411 -0.1867 -0.5607
  939MPD2     N13791   3.002   4.119   0.772 -0.4843  0.3437  0.0813
  939MPD2    H513792   2.938   4.130   0.694  0.7201  1.6359 -0.7332
  939MPD2    N113793   2.693   4.389   1.024 -0.0950 -0.5033  0.0093
  939MPD2    H713794   2.669   4.433   1.112 -1.7087 -2.0797  0.3469
  940MPD2     C13795   2.163   0.524  12.965 -0.1086  0.5427  0.4094
  940MPD2    C113796   2.092   0.408  12.980  0.7544  0.0492 -0.5149
  940MPD2    C213797   2.111   0.311  12.882  0.1547 -0.3018 -0.0328
  940MPD2    C313798   2.206   0.333  12.774  1.0700  0.6870  0.1853
  940MPD2    C413799   2.281   0.450  12.772  0.4375  0.6047  0.0658
  940MPD2    C513800   2.238   0.555  12.855  1.0061 -0.4136  0.4685
  940MPD2     H13801   2.050   0.221  12.880 -1.3532  0.7277 -0.1734
  940MPD2    H113802   2.347   0.482  12.692 -0.0668 -0.5925 -0.8269
  940MPD2    H213803   2.163   0.601  13.041 -0.3779  0.6702  0.2826
  940MPD2    H313804   2.290   0.650  12.853  1.1759 -0.5275 -0.2523
  940MPD2     N13805   2.225   0.248  12.657 -0.5497 -0.4911 -0.4777
  940MPD2    H513806   2.301   0.285  12.600 -0.0329 -2.0888 -0.8060
  940MPD2    N113807   2.002   0.387  13.091  0.0335 -0.1653 -0.8083
  940MPD2    H713808   1.962   0.295  13.104 -0.7947  0.3871  0.5145
  941MPD2     C13809   0.201   4.675   9.683 -0.1227 -0.3622  0.3631
  941MPD2    C113810   0.300   4.620   9.604  0.4140  0.5576 -0.2571
  941MPD2    C213811   0.364   4.505   9.654  0.1796  0.1512 -0.0425
  941MPD2    C313812   0.316   4.439   9.758 -0.4263 -0.2060 -0.0521
  941MPD2    C413813   0.204   4.481   9.825  0.1624  0.2946  0.3584
  941MPD2    C513814   0.150   4.605   9.792 -0.0731 -0.1745  0.5011
  941MPD2     H13815   0.448   4.463   9.600  0.2076 -0.8350  0.7587
  941MPD2    H113816   0.166   4.431   9.914 -0.9073 -0.2241 -0.3900
  941MPD2    H213817   0.167   0.042   9.667 -1.2647 -0.6505  0.9853
  941MPD2    H313818   0.065   4.643   9.847 -0.3861  0.0207 -0.1286
  941MPD2     N13819   0.368   4.316   9.807 -0.5797  0.4261  0.7889
  941MPD2    H513820   0.318   4.275   9.886 -1.3323 -1.0798 -0.4600
  941MPD2    N113821   0.357   4.694   9.496  0.2671  0.2418  0.1381
  941MPD2    H713822   0.453   4.676   9.471 -0.0898 -1.0765 -0.2694
  942MPD2     C13823   0.174   1.166   9.525  0.3328 -0.4585  0.1777
  942MPD2    C113824   0.234   1.088   9.620 -1.0314  0.3796  0.0789
  942MPD2    C213825   0.366   1.064   9.607 -0.7436  0.0112  0.6781
  942MPD2    C313826   0.435   1.105   9.494 -0.1204  0.1231  0.1680
  942MPD2    C413827   0.369   1.166   9.397  0.8869 -0.0545  0.1641
  942MPD2    C513828   0.235   1.202   9.411  0.1037  0.1675  0.8301
  942MPD2     H13829   0.409   1.002   9.684  2.8855 -2.3164 -3.2036
  942MPD2    H113830   0.421   1.199   9.307  0.8955  2.0439  0.9199
  942MPD2    H213831   0.069   1.193   9.532  0.6906  1.0479 -0.2630
  942MPD2    H313832   0.170   1.259   9.346 -1.9874 -1.8086  1.1522
  942MPD2     N13833   0.564   1.071   9.463  1.0288 -0.1887 -0.2433
  942MPD2    H513834   0.601   1.111   9.378 -1.1921  0.8680 -0.7106
  942MPD2    N113835   0.165   1.036   9.736 -0.1343  0.2092  0.2092
  942MPD2    H713836   0.228   0.977   9.789  2.3283  3.0186  0.3966
  943MPD2     C13837   3.791   4.529   9.408  0.5273  0.6794  0.1897
  943MPD2    C113838   3.804   4.413   9.471 -0.1128  0.1324 -0.1014
  943MPD2    C213839   3.846   4.401   9.601  0.3598 -0.8399  0.7360
  943MPD2    C313840   3.888   4.515   9.669 -0.2151  0.3381 -0.9558
  943MPD2    C413841   3.863   4.636   9.602 -0.0380  0.3824  0.2888
  943MPD2    C513842   3.828   4.646   9.468 -0.2613 -0.8142  0.8854
  943MPD2     H13843   3.869   4.304   9.644  0.4980 -2.1651 -2.3251
  943MPD2    H113844   3.883   4.733   9.645 -0.2344  0.7902 -0.5233
  943MPD2    H213845   3.759   4.531   9.304  1.1315  1.7270  0.0309
  943MPD2    H313846   3.824   0.006   9.415 -0.6234  0.6897  3.5713
  943MPD2     N13847   3.957   4.520   9.788  0.0807 -0.1069 -0.2195
  943MPD2    H513848   3.992   4.611   9.816  0.4515 -0.3553  0.1065
  943MPD2    N113849   3.767   4.301   9.392 -0.1046  0.2754  0.4120
  943MPD2    H713850   3.742   4.306   9.294  0.5793 -0.6280  0.1969
  944MPD2     C13851   3.925   3.043  11.074 -0.7198 -0.4604  0.0960
  944MPD2    C113852   3.916   3.154  10.994  0.0217  0.3296  0.7170
  944MPD2    C213853   3.923   3.279  11.050  0.3689 -0.3296  0.2171
  944MPD2    C313854   3.941   3.297  11.183  0.3303 -0.1494  0.1502
  944MPD2    C413855   3.944   3.184  11.263  0.0429  0.1480 -0.0583
  944MPD2    C513856   3.941   3.060  11.207 -0.1872  0.1859  0.0005
  944MPD2     H13857   3.899   3.366  10.990  0.5725 -1.9621 -2.2589
  944MPD2    H113858   3.956   3.179  11.371  1.3485  0.5625 -0.1843
  944MPD2    H213859   3.923   2.943  11.032  0.7938 -0.2644 -0.4238
  944MPD2    H313860   3.951   2.975  11.273  0.5840 -0.3780 -0.8404
  944MPD2     N13861   3.948   3.428  11.234  0.7289 -0.4000 -0.0348
  944MPD2    H513862   3.955   3.498  11.161 -0.8003 -3.1064 -2.7897
  944MPD2    N113863   3.881   3.130  10.851  0.2708  0.2919  0.3812
  944MPD2    H713864   3.877   3.032  10.827 -1.7429  0.3585  0.4703
    1TMC1    C113865   2.478   4.010  14.360 -0.0150  0.1002 -0.6647
    1TMC1    C213866   2.556   3.917  14.424 -0.3509  0.1266  0.4785
    1TMC1    C313867   2.607   3.813  14.352  0.2523  1.2636  0.2164
    1TMC1    C413868   2.436   3.992  14.234 -0.1945 -0.2471 -0.3332
    1TMC1    C513869   2.485   3.886  14.169 -0.0727  0.1858  0.4372
    1TMC1    C613870   2.574   3.797  14.219  0.5021 -0.1283  0.2414
    1TMC1     C13871   2.399   4.112  14.439 -0.2120  0.0344  0.0510
    1TMC1     O13872   2.388   4.097  14.560  0.7386 -0.6696 -0.1756
    1TMC1     H13873   2.587   3.941  14.526  0.8815 -0.2931  0.2061
    1TMC1    H113874   2.369   4.061  14.182 -3.8494 -3.3209  0.2774
    1TMC1    H213875   2.603   3.715  14.155 -0.7537 -1.7077  1.7036
    1TMC1    C713876   2.449   3.870  14.029  0.3093 -0.3905  0.7959
    1TMC1    C813877   2.711   3.738  14.417 -0.3154 -0.3145  0.5519
    1TMC1    O113878   2.347   3.912  13.977  0.6111 -0.1023  0.1134
    1TMC1    O213879   2.750   3.766  14.531 -0.6484  0.2642  0.5406
    1TMC1    O313880   2.577   3.881  13.978 -0.1086 -0.2583 -0.5709
    1TMC1    H313881   2.638   3.879  14.055  0.3077 -1.5190 -0.9329
    1TMC1    O513882   2.734   3.619  14.355  0.6054 -0.1064  0.4304
    1TMC1    H513883   2.715   3.599  14.261 -2.2373  1.7097  0.5835
    2MPD2     C13884   2.116   4.543  14.487  0.1701  0.1402  0.1943
    2MPD2    C113885   2.174   4.540  14.364 -0.5582  0.3167 -0.6025
    2MPD2    C213886   2.253   4.432  14.322  0.5292 -0.4925 -0.1557
    2MPD2    C313887   2.272   4.320  14.404 -0.1580 -0.6536 -0.8741
    2MPD2    C413888   2.205   4.330  14.527 -0.2680 -0.1300 -0.1718
    2MPD2    C513889   2.130   4.433  14.568 -0.2080 -0.6249  0.1925
    2MPD2     H13890   2.307   4.427  14.228  1.5757  2.8377  0.2523
    2MPD2    H113891   2.211   4.250  14.599 -1.8793 -0.4333 -0.3867
    2MPD2    H213892   2.054   4.625  14.522 -1.4180 -0.7785 -0.4849
    2MPD2    H313893   2.072   4.424  14.659  1.6721 -1.3702  1.3085
    2MPD2     N13894   2.353   4.218  14.362  0.2873  0.2422 -0.9329
    2MPD2    H513895   2.382   4.222  14.265  0.3685  0.4843 -0.8969
    2MPD2    N113896   2.146   4.647  14.280  0.3004  0.0976 -0.2430
    2MPD2    H713897   2.115   4.732  14.326 -0.1186 -0.1087 -0.1399
    3TMC2    C113898   2.180   0.046  14.088  0.4463  0.3172 -0.0275
    3TMC2    C213899   2.223   0.151  14.167  0.9190 -0.9000  0.3094
    3TMC2    C313900   2.280   0.253  14.107 -1.0921  0.0866  0.2705
    3TMC2    C413901   2.206   0.045  13.952  0.3163  0.0947 -0.4618
    3TMC2    C513902   2.278   0.152  13.899 -0.0166 -0.6481  0.0644
    3TMC2    C613903   2.297   0.265  13.973  0.0144  0.1727  0.3970
    3TMC2     C13904   2.171   4.646  14.144 -0.2122 -0.5391 -0.2541
    3TMC2     O13905   2.179   4.548  14.076  0.2644 -0.1926  0.9040
    3TMC2     H13906   2.236   0.146  14.274  0.5544  0.5647  0.4149
    3TMC2    H113907   2.184   4.692  13.893  2.5152 -0.8737  0.1678
    3TMC2    H213908   2.335   0.358  13.932  0.3196  0.3511  1.0774
    3TMC2    C713909   2.263   0.159  13.750 -0.5919 -1.2158 -0.4859
    3TMC2    C813910   2.276   0.377  14.183 -0.3146  0.0802 -0.1215
    3TMC2    O113911   2.259   0.058  13.682 -0.6984 -0.6994  0.1554
    3TMC2    O213912   2.364   0.464  14.171  0.2146 -0.5085  0.5808
    3TMC2    O513913   2.151   0.393  14.234  0.9106 -0.1449  0.6810
    3TMC2    H513914   2.093   0.317  14.213 -1.2292  1.5209  0.4813
    4TMC2    C113915   1.907   0.984  13.439 -0.7095  0.2087 -0.1996
    4TMC2    C213916   1.891   0.998  13.302  0.2042 -0.1313  0.3039
    4TMC2    C313917   1.985   0.939  13.226  0.9855 -0.1577  0.0387
    4TMC2    C413918   2.026   0.937  13.493 -0.5289  0.0933  0.0840
    4TMC2    C513919   2.109   0.865  13.413 -0.1041  0.1209 -0.0244
    4TMC2    C613920   2.083   0.863  13.278  0.2837 -0.2582  0.5551
    4TMC2     C13921   1.794   1.020  13.533 -0.3080  0.0019  0.0664
    4TMC2     O13922   1.809   1.028  13.655 -0.0907 -0.3956 -0.9407
    4TMC2     H13923   1.804   1.037  13.252  0.9039  1.9008  0.6468
    4TMC2    H113924   2.025   0.919  13.600 -2.8891 -0.6186 -0.0520
    4TMC2    H213925   2.148   0.802  13.217  0.6906 -0.1627  0.8933
    4TMC2    C713926   2.155   0.745  13.480 -0.0482 -0.2720  0.4395
    4TMC2    C813927   1.965   0.940  13.082 -0.0933 -0.5163  0.0235
    4TMC2    O113928   2.147   0.742  13.604 -0.2094 -0.2370 -0.4540
    4TMC2    O213929   2.006   0.859  12.997  0.2069  0.0228 -0.2186
    4TMC2    O513930   1.984   1.065  13.059 -0.6913 -0.1729 -0.0455
    4TMC2    H513931   1.965   1.130  13.130  0.2702 -1.6799  1.6162
    5MPD2     C13932   1.293   1.071  13.586 -0.1559  0.1704 -0.2285
    5MPD2    C113933   1.318   1.039  13.457 -0.0233  0.3770  0.5207
    5MPD2    C213934   1.445   1.024  13.409  0.0675  1.0661  0.2353
    5MPD2    C313935   1.542   1.040  13.507  0.2646  0.4554  1.2458
    5MPD2    C413936   1.519   1.062  13.643  0.2764  0.4187  0.4235
    5MPD2    C513937   1.391   1.077  13.684 -0.2019 -0.0116  0.7367
    5MPD2     H13938   1.477   0.995  13.309  0.9484  0.6226  0.6424
    5MPD2    H113939   1.602   1.071  13.713  1.2118 -0.3891 -0.5892
    5MPD2    H213940   1.192   1.088  13.623 -0.6233 -1.8898 -0.5426
    5MPD2    H313941   1.361   1.099  13.786  0.0629  0.5283  0.6990
    5MPD2     N13942   1.675   1.031  13.461 -0.6225 -0.0943  0.0485
    5MPD2    H513943   1.686   1.000  13.365  1.1596 -0.6417  0.4302
    5MPD2    N113944   1.211   1.028  13.364 -0.1523 -0.0593  0.4422
    5MPD2    H713945   1.120   1.057  13.400 -0.2298  1.4484 -0.9812
    6MPD1     C13946   0.606   2.415  12.231 -0.0084  0.2034  0.6639
    6MPD1    C113947   0.555   2.418  12.358 -0.1894 -1.1377  0.7076
    6MPD1    C213948   0.626   2.353  12.464  0.0020 -1.0630 -0.5239
    6MPD1    C313949   0.738   2.277  12.432  0.2381  0.0411  0.6128
    6MPD1    C413950   0.780   2.271  12.302 -0.2718  0.4418  1.0381
    6MPD1    C513951   0.711   2.336  12.201 -0.7682  0.9986  0.4454
    6MPD1     H13952   0.598   2.375  12.566  0.9798  0.8212 -0.6606
    6MPD1    H113953   0.864   2.205  12.284  0.1632  0.9336  1.2871
    6MPD1    H213954   0.564   2.481  12.156  1.9974  0.0367 -0.6438
    6MPD1    H313955   0.746   2.325  12.099 -2.8691  1.5675 -0.3331
    6MPD1     N13956   0.815   2.201  12.521  0.2580  0.7557 -0.0952
    6MPD1    H513957   0.891   2.145  12.485  0.3178  2.4126 -2.5445
    6MPD1    N113958   0.451   2.499  12.385  0.5570 -0.0503  0.1785
    6MPD1    H613959   0.387   2.464  12.456  1.5057 -1.7925  0.1503
    6MPD1    H713960   0.395   2.517  12.301 -0.4951 -1.3254  0.6009
    7MPD2     C13961   0.893   1.791  13.315  0.1664  0.2303 -0.9374
    7MPD2    C113962   0.878   1.746  13.187  0.1856 -0.5124 -0.3273
    7MPD2    C213963   0.871   1.609  13.169 -0.2307  0.5133 -0.3404
    7MPD2    C313964   0.884   1.526  13.281 -0.0478 -0.7109  0.3276
    7MPD2    C413965   0.913   1.576  13.404 -0.2271  0.4443 -0.0319
    7MPD2    C513966   0.913   1.708  13.423  0.1464  0.7295  0.4143
    7MPD2     H13967   0.872   1.573  13.067  0.9106  1.8871 -0.8202
    7MPD2    H113968   0.916   1.511  13.490  1.4025  0.5812  0.0247
    7MPD2    H213969   0.897   1.898  13.334  2.5856 -0.1681  0.8196
    7MPD2    H313970   0.922   1.754  13.521 -3.5599  2.2826  0.0127
    7MPD2     N13971   0.884   1.380  13.267  0.4918  0.3569  0.3104
    7MPD2    H513972   0.888   1.324  13.352 -0.1899  3.6487  2.5018
    7MPD2    N113973   0.885   1.824  13.071 -0.1325 -0.6137  0.8925
    7MPD2    H713974   0.876   1.773  12.984  1.9435  0.1485  0.2244
    8TMC3    C113975   0.891   1.161  13.166  0.4711  0.3560  0.0413
    8TMC3    C213976   1.007   1.128  13.232 -0.6043 -0.0710  0.1691
    8TMC3    C313977   1.084   1.029  13.179  0.6524 -0.1636  0.6440
    8TMC3    C413978   0.859   1.104  13.052  0.3004  0.1939  0.4539
    8TMC3    C513979   0.954   1.031  12.984 -0.3526  0.3726 -0.6864
    8TMC3    C613980   1.060   0.984  13.051 -0.3231  0.7507  0.6797
    8TMC3     C13981   0.876   1.307  13.152 -0.6274  0.0778  0.2983
    8TMC3     O13982   0.835   1.346  13.045 -0.3979  0.0589 -0.4702
    8TMC3     H13983   1.040   1.189  13.315  0.8152 -0.7432  0.0966
    8TMC3    H113984   0.765   1.137  13.010 -0.0632  0.5506  1.5639
    8TMC3    H213985   1.132   0.922  13.000  0.6628  1.5394  1.1174
    8TMC3    C713986   0.992   1.074  12.849 -0.4499 -0.6027  0.0555
    8TMC3    C813987   1.216   1.005  13.232 -0.0586  0.3517  0.4749
    8TMC3    O113988   1.064   1.005  12.776  0.0666 -0.2570  0.3820
    8TMC3    O213989   1.307   0.968  13.157 -0.0307  0.6987  0.7418
    9TMC3    C113990   0.893   2.110  12.719 -0.1003  0.7857  0.0537
    9TMC3    C213991   0.937   2.006  12.647  0.0531 -0.0135  0.0684
    9TMC3    C313992   0.982   1.897  12.718 -0.3639  0.1414  1.0085
    9TMC3    C413993   0.878   2.101  12.856  0.6916 -0.2780 -0.2534
    9TMC3    C513994   0.927   1.994  12.923 -0.3037  0.1673 -0.3157
    9TMC3    C613995   0.986   1.888  12.850  0.2159  0.5519  1.1632
    9TMC3     C13996   0.799   2.207  12.655 -0.2734 -0.8218 -0.1774
    9TMC3     O13997   0.717   2.264  12.725 -0.5848 -0.0260  0.1840
    9TMC3     H13998   0.937   1.996  12.539 -0.9296 -3.0614  0.3393
    9TMC3    H113999   0.821   2.174  12.912  1.6360  0.3830 -0.1447
    9TMC3    H214000   1.035   1.802  12.893  0.0957 -0.7175 -1.2928
    9TMC3    C714001   0.888   1.963  13.055  0.3709 -0.7720  0.7793
    9TMC3    C814002   1.013   1.778  12.637 -0.0819 -0.0427  0.2863
    9TMC3    O114003   0.885   2.055  13.133  0.4902  0.2411 -0.5648
    9TMC3    O214004   1.072   1.801  12.534 -0.2875  0.1065  0.2802
   10MPD2     C14005   1.066   1.263  12.630  0.2827  0.0774 -0.1697
   10MPD2    C114006   0.996   1.293  12.741  0.0972 -0.8416 -1.1411
   10MPD2    C214007   0.961   1.428  12.755 -0.3050 -0.0419 -0.2800
   10MPD2    C314008   1.002   1.530  12.670 -0.6937 -0.1493 -0.3499
   10MPD2    C414009   1.068   1.494  12.557  0.4016 -0.2933  0.1081
   10MPD2    C514010   1.094   1.361  12.537 -0.7088 -0.6831  0.0335
   10MPD2     H14011   0.895   1.455  12.836 -1.3720 -0.3735 -1.0282
   10MPD2    H114012   1.101   1.570  12.488 -1.4929  1.5729  1.2508
   10MPD2    H214013   1.095   1.165  12.593  0.1505  0.1194 -0.3875
   10MPD2    H314014   1.134   1.337  12.439 -0.1523 -3.1559  0.8639
   10MPD2     N14015   0.972   1.666  12.705  0.5852 -0.4431  0.3679
   10MPD2    H514016   0.899   1.685  12.774 -0.1624  1.7782 -1.0571
   10MPD2    N114017   0.955   1.203  12.838  0.4535 -0.5723 -0.1609
   10MPD2    H714018   0.907   1.249  12.915 -0.2121 -0.4264 -0.6590
   11MPD2     C14019   2.267   0.240  13.468  0.0446 -0.1466 -0.5430
   11MPD2    C114020   2.247   0.326  13.576  0.0127  0.2668 -0.4926
   11MPD2    C214021   2.215   0.459  13.553  0.3765  0.7879  0.7396
   11MPD2    C314022   2.220   0.513  13.429  0.0042  0.2024  0.2686
   11MPD2    C414023   2.257   0.429  13.329 -0.0682 -0.0597 -0.2816
   11MPD2    C514024   2.274   0.299  13.345  1.1004  0.5634 -0.0643
   11MPD2     H14025   2.175   0.515  13.637 -0.9445 -0.4318  0.9156
   11MPD2    H114026   2.266   0.469  13.229 -1.5236 -1.2335 -0.8795
   11MPD2    H214027   2.295   0.136  13.476 -0.8667 -0.2491  1.3079
   11MPD2    H314028   2.286   0.233  13.260  1.1185 -1.1941  1.3128
   11MPD2     N14029   2.179   0.641  13.391 -0.1462 -0.4807 -0.1399
   11MPD2    H514030   2.172   0.656  13.291 -0.5369  1.6352  0.1997
   11MPD2    N114031   2.254   0.287  13.711 -0.3243 -0.2517 -0.4803
   11MPD2    H714032   2.262   0.361  13.780 -1.8104  0.3552 -0.9637
    1MPD1     C14033   4.401   2.524   0.001 -0.0438 -0.5150  0.0084
    1MPD1    C114034   4.471   2.407  17.717 -0.4926 -0.5565  0.6854
    1MPD1    C214035   4.471   2.341  17.599  0.2510 -0.1466  0.1987
    1MPD1    C314036   4.387   2.391  17.500  0.1385  0.1978  0.8730
    1MPD1    C414037   4.320   2.510  17.517  0.2052  0.7165  0.7578
    1MPD1    C514038   4.323   2.573  17.638  0.3333  0.0283 -0.3373
    1MPD1     H14039   4.531   2.251  17.593  1.0810  0.3531  0.9803
    1MPD1    H114040   4.263   2.562  17.441  2.1656 -0.6685 -1.6867
    1MPD1    H214041   4.423   2.586   0.087  1.9188 -1.4322  0.1804
    1MPD1    H314042   4.279   2.672  17.634  1.6846  0.6571  0.2600
    1MPD1     N14043   4.387   2.339  17.371  0.0672 -0.0197 -1.0138
    1MPD1    H514044   4.320   2.391  17.315 -2.0495 -0.9930  0.6287
    1MPD1    N114045   4.563   2.372   0.079  0.0053  0.8186  0.1439
    1MPD1    H614046   4.542   2.410   0.171  2.2719  2.0936  0.1347
    1MPD1    H714047   4.560   2.271   0.090 -1.9608  0.7980 -0.6922
    2MPD1     C14048   0.415   2.013  16.881  0.0760  0.5069 -0.1018
    2MPD1    C114049   0.394   2.101  16.984  0.4822  0.0559 -0.1238
    2MPD1    C214050   0.278   2.160  17.008  0.4254  0.2627 -0.1263
    2MPD1    C314051   0.170   2.106  16.931 -0.7050  0.8053  0.0534
    2MPD1    C414052   0.187   2.009  16.840  0.3788 -0.4471 -0.4006
    2MPD1    C514053   0.312   1.970  16.805 -0.1226  0.5597 -0.0786
    2MPD1     H14054   0.271   2.236  17.084  0.1537 -0.8480  0.9591
    2MPD1    H114055   0.109   1.968  16.777  0.7623 -2.5438  0.5052
    2MPD1    H214056   0.509   1.960  16.869  0.5206  1.3394 -0.3696
    2MPD1    H314057   0.324   1.897  16.725 -0.4763  0.0498  0.3276
    2MPD1     N14058   0.050   2.172  16.951 -0.0758 -0.1307  0.1664
    2MPD1    H514059   0.049   2.249  17.018  1.6301 -0.0233  0.0713
    2MPD1    N114060   0.508   2.146  17.055  0.4160  0.1740  1.2554
    2MPD1    H614061   0.477   2.192  17.141 -0.7960  3.7223 -1.0939
    2MPD1    H714062   0.574   2.071  17.072  1.1887  0.5461 -0.1865
    3TMC3    C114063   4.549   2.199  16.963 -0.1600 -0.8113 -0.3545
    3TMC3    C214064   4.422   2.219  16.903 -0.4657  0.3492  0.1997
    3TMC3    C314065   4.313   2.239  16.988  1.0229  0.8921  0.1334
    3TMC3    C414066   4.554   2.191  17.102 -0.0815  0.2468  0.4437
    3TMC3    C514067   4.447   2.216  17.181  0.1125  0.3931  0.2373
    3TMC3    C614068   4.330   2.250  17.125  0.3007  0.5926 -0.4413
    3TMC3     C14069   4.661   2.143  16.889 -0.2903  0.0369 -0.4040
    3TMC3     O14070   4.632   2.072  16.793 -0.0617 -0.2463 -0.2953
    3TMC3     H14071   4.408   2.221  16.796  0.8384  2.5014  0.0539
    3TMC3    H114072   4.646   2.162  17.152 -0.4433 -1.0814  0.3376
    3TMC3    H214073   4.246   2.248  17.195  0.7264 -0.1007  0.0499
    3TMC3    C714074   4.473   2.247  17.319 -0.5770  0.6876 -0.5815
    3TMC3    C814075   4.185   2.280  16.932  0.0962 -0.0757  0.2260
    3TMC3    O114076   4.575   2.200  17.367 -0.0326  0.2919 -0.3509
    3TMC3    O214077   4.109   2.334  17.011 -0.1687  0.3269  0.0975
    4MPD1     C14078   3.824   2.394  16.581 -0.3417  0.0481 -0.4573
    4MPD1    C114079   3.939   2.358  16.515  0.0452  0.1487 -0.4244
    4MPD1    C214080   4.055   2.337  16.593  0.2442  0.9507 -0.2014
    4MPD1    C314081   4.052   2.323  16.731  0.0932  0.0144  0.0311
    4MPD1    C414082   3.925   2.346  16.791  0.0239  0.2036 -0.0771
    4MPD1    C514083   3.814   2.380  16.717  0.3280 -0.4920 -0.2470
    4MPD1     H14084   4.152   2.327  16.546 -1.2877 -0.3736 -3.0322
    4MPD1    H114085   3.909   2.337  16.898 -1.8315  1.7294 -0.2489
    4MPD1    H214086   3.741   2.435  16.525  0.5824 -0.4977 -2.2191
    4MPD1    H314087   3.723   2.412  16.768 -0.2965 -2.8851  0.1785
    4MPD1     N14088   4.172   2.290  16.795  0.8301  0.5109 -0.3122
    4MPD1    H514089   4.260   2.289  16.746  0.8713  3.5464 -0.3468
    4MPD1    N114090   3.947   2.382  16.375  0.3474 -0.2846  0.6729
    4MPD1    H614091   4.016   2.319  16.333 -1.3946  0.7458 -3.6478
    4MPD1    H714092   3.860   2.360  16.327  0.5057  0.2545  0.1465
    1TCq1    O114093   4.446   1.108  11.568  0.0540  0.3264 -0.0868
    1TCq1    C114094   4.401   1.013  11.656 -0.4521 -0.0138  0.3182
    1TCq1    O214095   4.283   0.978  11.675 -0.2196 -0.4069 -0.6679
    1TCq1    C214096   4.497   0.904  11.650  0.1282  0.3267  0.6971
    1TCq1    C314097   4.447   0.777  11.615 -1.3234 -0.0986 -0.2441
    1TCq1    C414098   4.539   0.678  11.593 -0.1575  0.5652 -0.3920
    1TCq1    C514099   4.674   0.709  11.603  0.5361  0.1160 -0.0585
    1TCq1    C614100   4.721   0.834  11.624 -0.5755  0.0972 -0.8071
    1TCq1    C714101   4.631   0.937  11.642 -0.2578  0.2390 -0.0811
    1TCq1    C814102   0.127   0.862  11.603 -0.2645 -0.2170 -0.1114
    1TCq1    O414103   0.181   0.956  11.661 -0.5741  0.0392  0.4688
    1TCq1    C914104   4.499   0.544  11.620 -0.2813  0.5178 -0.2133
    1TCq1    O514105   4.591   0.460  11.587 -0.6293  0.6169 -0.4225
    1TCq1    O614106   4.384   0.520  11.664 -0.0599  0.7658  0.0002
    1TCq1    H114107   4.543   1.117  11.567  0.2411 -2.0775 -1.7380
    1TCq1    H214108   4.347   0.749  11.645 -0.0473 -1.4302  2.7377
    1TCq1    H314109   0.012   0.629  11.614 -1.2467 -1.6114 -0.9171
    1TCq1    H414110   4.669   1.033  11.672 -0.2726  0.9531 -2.3663
    2MPD1     C14111   0.531   0.765  11.293 -0.7585  0.4507  0.4407
    2MPD1    C114112   0.426   0.694  11.253  0.4103  0.0242  0.3295
    2MPD1    C214113   0.304   0.691  11.321  0.2552 -0.2278  0.8603
    2MPD1    C314114   0.292   0.774  11.433  0.1769  0.0738 -0.0412
    2MPD1    C414115   0.398   0.860  11.469  0.2533  0.5145  0.4765
    2MPD1    C514116   0.516   0.847  11.403 -0.3185 -0.6249  0.6206
    2MPD1     H14117   0.223   0.623  11.297  0.5291 -1.1452  2.5899
    2MPD1    H114118   0.397   0.926  11.555 -3.3101 -0.6968  1.3771
    2MPD1    H214119   0.622   0.780  11.235 -0.4422 -0.1240  0.7872
    2MPD1    H314120   0.600   0.913  11.422 -0.8142  0.5924 -1.4151
    2MPD1     N14121   0.166   0.779  11.500 -0.4296 -0.0538 -0.6404
    2MPD1    H514122   0.093   0.715  11.470 -0.3480 -0.7734  0.7179
    2MPD1    N114123   0.436   0.638  11.124  0.5769  0.3015 -0.0378
    2MPD1    H614124   0.363   0.574  11.093  0.9694  0.5840 -1.5737
    2MPD1    H714125   0.530   0.609  11.095  0.0912 -0.4765 -0.8582
    1TMC1    C114126   0.312   2.686  16.451 -1.1151  0.6278 -0.0418
    1TMC1    C214127   0.227   2.585  16.427  0.1157 -0.2591  0.7407
    1TMC1    C314128   0.093   2.600  16.445 -1.4351  0.1188  0.6743
    1TMC1    C414129   0.258   2.804  16.486  0.4383 -0.6479 -0.1291
    1TMC1    C514130   0.124   2.819  16.506  0.4841  0.0428  0.8294
    1TMC1    C614131   0.036   2.721  16.488  0.4198 -0.1697 -0.3688
    1TMC1     C14132   0.449   2.666  16.429  0.5523  0.1414  0.1076
    1TMC1     O14133   0.530   2.755  16.444 -0.0194  0.4550 -0.1575
    1TMC1     H14134   0.256   2.484  16.401  1.0265 -0.0735  1.0236
    1TMC1    H114135   0.327   2.885  16.505 -0.1817  0.3056 -1.9537
    1TMC1    H214136   4.664   2.737  16.499  0.9634  3.0606  0.2905
    1TMC1    C714137   0.082   2.938  16.568 -0.9776 -0.9102  0.0479
    1TMC1    C814138   0.010   2.492  16.409 -0.3868  0.4070 -0.4347
    1TMC1    O114139   4.714   2.948  16.634 -0.2285  1.0076  0.5898
    1TMC1    O214140   0.046   2.408  16.330 -0.0668  0.3797  0.1529
    1TMC1    O314141   0.132   3.031  16.475 -0.1029 -0.1528  0.5083
    1TMC1    H314142   0.209   2.993  16.428 -2.5088 -2.3207 -1.6614
    1TMC1    O514143   4.644   2.482  16.499  0.3283  0.1245  0.2549
    1TMC1    H514144   4.646   2.549  16.570 -0.8919 -0.0713  0.4697
    2MPD1     C14145   0.850   2.406  16.239 -0.3205 -0.5773  0.3715
    2MPD1    C114146   0.753   2.316  16.285  0.7071  0.2041  0.5440
    2MPD1    C214147   0.630   2.367  16.318  0.1727 -0.1711  0.1543
    2MPD1    C314148   0.613   2.497  16.335  0.3938 -0.5589  0.4277
    2MPD1    C414149   0.712   2.589  16.304 -0.1086 -0.4499 -0.3603
    2MPD1    C514150   0.835   2.543  16.251 -0.4989  0.4974  0.3748
    2MPD1     H14151   0.553   2.299  16.353 -1.0991  1.0809 -0.2315
    2MPD1    H114152   0.699   2.696  16.313 -0.0839 -0.5899  1.2630
    2MPD1    H214153   0.944   2.361  16.213 -0.7281 -1.7428  0.9179
    2MPD1    H314154   0.920   2.610  16.249 -0.5965  0.6718  1.9827
    2MPD1     N14155   0.484   2.541  16.379 -0.6103  0.1126 -0.3520
    2MPD1    H514156   0.426   2.459  16.395 -0.4224  0.0483 -0.0119
    2MPD1    N114157   0.769   2.178  16.272  0.7526  0.3693 -0.3237
    2MPD1    H614158   0.711   2.125  16.336  1.2603  0.0093 -0.1559
    2MPD1    H714159   0.863   2.139  16.278  1.4334  2.3681  1.9149
    1MPD1     C14160   2.373   1.385  12.484 -0.5064 -0.8119 -0.5986
    1MPD1    C114161   2.414   1.300  12.379 -0.3274  0.1649 -0.1566
    1MPD1    C214162   2.465   1.365  12.261 -0.0784  0.2931  0.1800
    1MPD1    C314163   2.456   1.499  12.244 -0.5527 -0.7813  0.1841
    1MPD1    C414164   2.417   1.575  12.345  0.0959  0.1917  0.3947
    1MPD1    C514165   2.371   1.519  12.461 -0.1625  0.3359  0.4426
    1MPD1     H14166   2.496   1.300  12.180 -0.0476  0.2474  0.2279
    1MPD1    H114167   2.391   1.680  12.340  0.6056  0.3048  0.0795
    1MPD1    H214168   2.351   1.341  12.581  0.7383  0.7289  0.4054
    1MPD1    H314169   2.350   1.588  12.543 -1.5225  0.4979 -0.0303
    1MPD1     N14170   2.506   1.550  12.121  0.4734  0.1705 -0.4375
    1MPD1    H514171   2.534   1.481  12.052  1.5485 -2.2663  2.4233
    1MPD1    N114172   2.407   1.161  12.406  0.1285  0.0331  0.6948
    1MPD1    H614173   2.363   1.099  12.338 -0.5161  1.2338  0.0264
    1MPD1    H714174   2.379   1.135  12.501 -1.8368  0.2668  0.1734
    2MPD1     C14175   2.211   1.668  11.825  0.3442  0.1235 -0.2742
    2MPD1    C114176   2.139   1.578  11.749  0.6750  0.2890 -0.7671
    2MPD1    C214177   2.136   1.586  11.609  0.2379 -0.1172  0.2787
    2MPD1    C314178   2.196   1.694  11.550  0.1656 -0.0421 -0.1880
    2MPD1    C414179   2.269   1.784  11.626 -0.2455  0.2479 -0.7015
    2MPD1    C514180   2.276   1.777  11.762 -0.2933 -0.8760  0.2386
    2MPD1     H14181   2.084   1.509  11.553  1.6570  0.1621 -1.4403
    2MPD1    H114182   2.298   1.881  11.586  1.4060 -0.0812 -0.2946
    2MPD1    H214183   2.206   1.660  11.933  0.8560 -0.8134 -0.3202
    2MPD1    H314184   2.325   1.852  11.823 -1.4191 -0.0243  0.1053
    2MPD1     N14185   2.208   1.706  11.406 -0.7507  0.3453 -0.0156
    2MPD1    H514186   2.256   1.789  11.373 -0.3173 -0.8033 -2.2384
    2MPD1    N114187   2.092   1.460  11.810 -0.0757  0.3582 -0.0413
    2MPD1    H614188   2.078   1.463  11.910  2.4549 -1.5079  0.3751
    2MPD1    H714189   2.012   1.414  11.768  0.9014  0.9450 -2.5962
    3MPD1     C14190   2.074   1.605  10.341 -0.2077  0.0612  1.1314
    3MPD1    C114191   2.209   1.618  10.356  0.2826 -0.2431 -0.3944
    3MPD1    C214192   2.259   1.617  10.487  0.6238 -0.4563  0.5097
    3MPD1    C314193   2.167   1.593  10.592 -0.1734 -0.4625  0.4536
    3MPD1    C414194   2.037   1.566  10.564 -0.3444  0.6992  0.2159
    3MPD1    C514195   1.989   1.597  10.445  0.6844  0.1064 -0.1516
    3MPD1     H14196   2.365   1.625  10.505  0.5063 -0.7555  1.3462
    3MPD1    H114197   1.966   1.546  10.644 -1.7316  3.3104 -0.3462
    3MPD1    H214198   2.039   1.594  10.239  2.0771  0.8987  0.2559
    3MPD1    H314199   1.883   1.580  10.431  0.8563 -0.6685 -0.5135
    3MPD1     N14200   2.216   1.599  10.724  0.4470 -0.4091  0.4234
    3MPD1    H514201   2.312   1.628  10.740  0.4790  0.7137 -1.7803
    3MPD1    N114202   2.288   1.627  10.244 -0.3083  0.1989 -0.2611
    3MPD1    H614203   2.250   1.700  10.185 -1.2587 -0.0571  0.0342
    3MPD1    H714204   2.382   1.647  10.278 -1.2100 -1.5475  3.3856
    4MPD2     C14205   2.972   2.139  11.657 -0.0538 -0.1948 -0.4904
    4MPD2    C114206   2.959   2.003  11.625 -0.4280  0.3961  0.1702
    4MPD2    C214207   3.042   1.942  11.536  0.1376 -0.3036 -0.3746
    4MPD2    C314208   3.136   2.014  11.468 -0.2985 -0.0982 -0.1799
    4MPD2    C414209   3.145   2.145  11.507  0.0367  0.5866  0.4701
    4MPD2    C514210   3.067   2.213  11.596  0.0303 -0.1355 -0.3769
    4MPD2     H14211   3.026   1.835  11.536  1.4465 -0.5085  0.1197
    4MPD2    H114212   3.215   2.204  11.451  0.9135  0.7468  1.7459
    4MPD2    H214213   2.896   2.189  11.717  0.4107 -0.0662 -0.0127
    4MPD2    H314214   3.074   2.318  11.624 -0.3171  0.0078 -0.8119
    4MPD2     N14215   3.211   1.948  11.373 -0.1126  0.1204 -0.8408
    4MPD2    H514216   3.177   1.853  11.362 -0.3943  0.2587 -1.1695
    4MPD2    N114217   2.866   1.920  11.687  0.0220 -0.1318  0.9605
    4MPD2    H714218   2.873   1.822  11.665  0.1474 -0.1170  0.9343
    5TMC3    C114219   2.679   1.842  11.794 -0.5449 -0.1316  0.2774
    5TMC3    C214220   2.645   1.811  11.923  0.6366 -0.2536  0.4799
    5TMC3    C314221   2.579   1.698  11.951 -0.9138  0.4425  0.0003
    5TMC3    C414222   2.664   1.751  11.693  0.0226  0.6984  0.3878
    5TMC3    C514223   2.592   1.635  11.716 -0.3300  0.1581  0.1270
    5TMC3    C614224   2.560   1.599  11.851 -0.2698  0.3240 -0.3252
    5TMC3     C14225   2.779   1.955  11.781 -0.6152 -0.2534 -0.2922
    5TMC3     O14226   2.769   2.056  11.847  0.2369 -0.1350  0.2262
    5TMC3     H14227   2.638   1.891  11.996 -0.2439  0.3441 -0.2480
    5TMC3    H114228   2.690   1.781  11.592 -0.5339  0.3534  0.1448
    5TMC3    H214229   2.516   1.503  11.875  0.7711 -0.7852 -2.8330
    5TMC3    C714230   2.609   1.535  11.616 -0.3309  0.2178  0.5992
    5TMC3    C814231   2.514   1.678  12.086  0.0913  0.0854 -0.8494
    5TMC3    O114232   2.504   1.480  11.582 -0.2301 -0.2694  0.2240
    5TMC3    O214233   2.497   1.779  12.151  0.6452  0.5081  0.0822
    6TMC3    C114234   2.232   1.628  11.187 -1.0812 -0.9202 -0.0252
    6TMC3    C214235   2.180   1.566  11.080  0.4375  0.0211 -0.0013
    6TMC3    C314236   2.225   1.606  10.959 -0.5592 -0.4586 -0.3162
    6TMC3    C414237   2.344   1.699  11.181  0.7992  0.9321 -0.3850
    6TMC3    C514238   2.402   1.721  11.060  0.0258  0.5309 -0.2114
    6TMC3    C614239   2.345   1.682  10.946  0.7242 -0.0706 -0.6247
    6TMC3     C14240   2.176   1.604  11.321  0.1689  0.0620  0.1175
    6TMC3     O14241   2.102   1.509  11.338 -0.3105  0.4522  0.5490
    6TMC3     H14242   2.092   1.504  11.097 -1.3314  1.8676 -2.3574
    6TMC3    H114243   2.397   1.734  11.269 -0.3732  2.2294 -0.1855
    6TMC3    H214244   2.382   1.725  10.854  1.7129  1.6553  0.5818
    6TMC3    C714245   2.519   1.802  11.050  0.3452 -0.4558 -0.2350
    6TMC3    C814246   2.153   1.556  10.839 -0.9001  0.2944 -0.2573
    6TMC3    O114247   2.580   1.794  10.949 -0.2937  0.5972  0.5284
    6TMC3    O214248   2.054   1.488  10.864 -0.6858  0.1297  0.1782
    7MPD2     C14249   2.858   1.400  11.189 -0.4101 -0.3919 -0.0781
    7MPD2    C114250   2.932   1.498  11.254 -0.0650 -0.1910  0.2440
    7MPD2    C214251   2.885   1.552  11.372  0.4518  0.2169 -0.3786
    7MPD2    C314252   2.775   1.499  11.439  0.1659  0.1100 -0.1414
    7MPD2    C414253   2.710   1.397  11.377  0.4784  0.5920  0.3654
    7MPD2    C514254   2.748   1.348  11.254 -0.0896  0.6737  0.1424
    7MPD2     H14255   2.933   1.637  11.419 -2.7118  1.9098 -0.1885
    7MPD2    H114256   2.634   1.336  11.425  0.8054  1.0202  1.4468
    7MPD2    H214257   2.895   1.357  11.097 -1.3368  0.5040 -0.8697
    7MPD2    H314258   2.692   1.265  11.215  0.9472 -0.5471  1.2363
    7MPD2     N14259   2.734   1.554  11.558 -0.7729 -0.0573 -0.2450
    7MPD2    H514260   2.802   1.619  11.597 -0.5629  0.5064 -1.5485
    7MPD2    N114261   3.051   1.547  11.195 -0.7617 -0.0679 -0.3373
    7MPD2    H714262   3.069   1.507  11.104  1.6575 -0.9359  0.5111
    8TMC3    C114263   3.232   1.691  11.158 -0.1943  0.0503 -0.7912
    8TMC3    C214264   3.173   1.731  11.050 -0.1033 -0.2912 -0.5142
    8TMC3    C314265   3.197   1.859  11.013 -0.2221 -0.0616  0.3807
    8TMC3    C414266   3.314   1.769  11.225 -0.8362  0.3474  0.1722
    8TMC3    C514267   3.328   1.904  11.196  0.5695 -0.0961  0.8161
    8TMC3    C614268   3.275   1.947  11.081  0.6231  0.0078  0.8236
    8TMC3     C14269   3.146   1.629  11.253 -0.5349  0.1405 -0.8226
    8TMC3     O14270   3.156   1.677  11.367  0.2019 -0.5930 -0.2766
    8TMC3     H14271   3.098   1.667  11.005  0.3464 -2.3386  1.5906
    8TMC3    H114272   3.365   1.728  11.312  0.7915  1.3441 -0.3074
    8TMC3    H214273   3.291   2.048  11.047 -1.3503 -0.1394 -0.6029
    8TMC3    C714274   3.320   1.992  11.305 -0.0253 -0.2416  0.2364
    8TMC3    C814275   3.062   1.900  10.973 -0.1490  0.3342  0.7613
    8TMC3    O114276   3.345   2.109  11.277  0.3763 -0.3962 -0.2602
    8TMC3    O214277   2.998   1.841  10.883 -0.1105  0.9602 -0.3432
    9MPD2     C14278   2.903   2.097  11.243  0.2589  0.4117  0.0631
    9MPD2    C114279   2.901   2.015  11.127 -0.8059  0.6094 -0.2706
    9MPD2    C214280   2.795   1.930  11.102  0.0517 -0.1825  0.9558
    9MPD2    C314281   2.679   1.943  11.181 -0.3036 -0.7415 -0.1448
    9MPD2    C414282   2.676   2.028  11.288  0.4147  0.0252 -0.1221
    9MPD2    C514283   2.783   2.111  11.309  0.2566  0.0610 -0.8385
    9MPD2     H14284   2.788   1.870  11.012  0.4427  1.4387 -0.1368
    9MPD2    H114285   2.589   2.040  11.352  0.7026 -1.3228  0.5241
    9MPD2    H214286   2.990   2.155  11.272  0.6887  0.5124 -1.4235
    9MPD2    H314287   2.782   2.179  11.394  0.1882 -1.6240  0.4934
    9MPD2     N14288   2.555   1.872  11.160 -0.0461  0.6169 -0.4247
    9MPD2    H514289   2.487   1.867  11.235 -0.0567 -3.1914 -0.6876
    9MPD2    N114290   3.025   1.994  11.066 -0.3333  0.1749 -0.5334
    9MPD2    H714291   3.098   2.051  11.109 -0.8608 -2.1635  3.4274
    1MPD1     C14292   3.342   0.971  17.460  0.0378 -0.0739  0.0005
    1MPD1    C114293   3.262   0.901  17.375 -0.4241  0.2275  0.2555
    1MPD1    C214294   3.312   0.786  17.313  0.4213  0.1900 -0.9352
    1MPD1    C314295   3.444   0.752  17.322  0.2155  0.2541 -0.1070
    1MPD1    C414296   3.533   0.818  17.406  0.3435 -0.1787  0.6365
    1MPD1    C514297   3.475   0.923  17.474 -0.0872  1.0635  0.2367
    1MPD1     H14298   3.237   0.743  17.247  0.6982  2.0981 -2.5195
    1MPD1    H114299   3.637   0.801  17.432  0.2831 -0.1372  0.9048
    1MPD1    H214300   3.318   1.064  17.511  1.6418  0.3588 -0.0519
    1MPD1    H314301   3.539   0.980  17.539 -0.7535  0.9971  0.9513
    1MPD1     N14302   3.508   0.652  17.241  0.2133 -0.4223  0.3967
    1MPD1    H514303   3.607   0.638  17.259  0.4729  2.4626  1.3339
    1MPD1    N114304   3.125   0.927  17.358  0.0687  0.7323 -0.2348
    1MPD1    H614305   3.094   0.889  17.268 -1.3785  0.4613  0.3797
    1MPD1    H714306   3.106   1.026  17.347  3.5269  1.2704 -1.1223
    2TMC2    C114307   3.726   0.325  17.110  0.0482 -0.6050  0.0658
    2TMC2    C214308   3.674   0.249  17.006  0.0627 -0.1005 -0.5581
    2TMC2    C314309   3.546   0.276  16.960  0.7077  0.7896  0.3198
    2TMC2    C414310   3.642   0.415  17.172 -0.3873 -0.1177 -0.1378
    2TMC2    C514311   3.522   0.447  17.115  0.6455 -0.4259  0.1450
    2TMC2    C614312   3.465   0.373  17.012  0.1446  0.1048  0.0493
    2TMC2     C14313   3.863   0.377  17.090  0.5572  0.3290  0.5520
    2TMC2     O14314   3.920   0.444  17.178 -0.7606  0.0811  0.0805
    2TMC2     H14315   3.722   0.163  16.961  1.8967  0.0009  1.2145
    2TMC2    H114316   3.678   0.478  17.253 -3.5510  3.0995 -1.1926
    2TMC2    H214317   3.364   0.395  16.979  0.5027  0.9458 -0.4587
    2TMC2    C714318   3.444   0.569  17.151 -0.0806 -0.0166 -0.3948
    2TMC2    C814319   3.520   0.225  16.823  0.7762 -0.3574  0.5050
    2TMC2    O114320   3.326   0.571  17.110  0.2198  0.2191  0.1366
    2TMC2    O214321   3.609   0.192  16.740 -0.5243 -0.0131 -0.5455
    2TMC2    O514322   3.389   0.190  16.826 -0.1356  0.2877  0.1033
    2TMC2    H514323   3.347   0.211  16.912  0.0977  0.2130  0.2358
    3MPD1     C14324   4.184   0.587  16.751  0.2722  0.0467 -0.0796
    3MPD1    C114325   4.131   0.468  16.702  0.8842  0.7256 -0.4976
    3MPD1    C214326   4.045   0.390  16.771 -0.3675 -0.2119 -0.4231
    3MPD1    C314327   4.002   0.430  16.895 -0.1083 -0.1578 -0.1350
    3MPD1    C414328   4.038   0.551  16.938  0.2701  0.6485 -0.0801
    3MPD1    C514329   4.132   0.626  16.876 -0.5488  0.6403 -0.8531
    3MPD1     H14330   4.017   0.294  16.728 -0.9286 -0.6461  0.9193
    3MPD1    H114331   3.980   0.594  17.019  2.5132  0.9943  1.3285
    3MPD1    H214332   4.257   0.648  16.700 -1.0681  0.7157 -1.2110
    3MPD1    H314333   4.151   0.724  16.919  0.5075  0.3651 -0.6788
    3MPD1     N14334   3.904   0.357  16.960 -0.4086 -0.1873  0.0829
    3MPD1    H514335   3.862   0.281  16.908 -3.5661  1.3074  0.4995
    3MPD1    N114336   4.173   0.412  16.582  0.2495 -0.3459  0.2038
    3MPD1    H614337   4.167   0.485  16.512  0.9874  0.4362  0.9516
    3MPD1    H714338   4.108   0.345  16.541 -1.2161  1.3239 -0.1868
    1TMC1    C114339   0.602   4.709  13.017 -0.7931 -0.1142  0.2588
    1TMC1    C214340   0.556   4.734  13.146 -0.9768 -0.1539  0.5263
    1TMC1    C314341   0.423   4.711  13.182  0.5686 -0.9123  0.1617
    1TMC1    C414342   0.520   4.659  12.929  0.0312  0.1059  0.1844
    1TMC1    C514343   0.380   4.641  12.960  0.1199 -0.0347  0.4022
    1TMC1    C614344   0.333   4.664  13.090  0.5965 -0.4288 -0.4378
    1TMC1     C14345   0.739   4.698  12.995  0.5687  0.0274 -0.0241
    1TMC1     O14346   0.768   4.684  12.876  0.3461 -0.0097 -0.3870
    1TMC1     H14347   0.621   0.048  13.217 -0.7385  1.1283 -0.5718
    1TMC1    H114348   0.564   4.627  12.836  0.9245  3.0175 -0.3842
    1TMC1    H214349   0.227   4.663  13.116  0.6775 -0.1845 -0.0913
    1TMC1    C714350   0.290   4.588  12.855  0.1248 -0.3585  0.1011
    1TMC1    C814351   0.377   0.065  13.282 -0.1836 -0.1110  0.2157
    1TMC1    O114352   0.307   4.628  12.741 -0.5664  0.0077  0.6498
    1TMC1    O214353   0.260   0.105  13.275  0.0692 -0.4346 -0.6034
    1TMC1    O314354   0.178   4.530  12.903 -0.3731 -0.1674  0.1925
    1TMC1    H314355   0.188   4.502  12.997  1.0856 -0.3135 -0.0036
    1TMC1    O514356   0.446   0.053  13.398  0.3521  0.0937  0.6103
    1TMC1    H514357   0.538   0.019  13.403  0.8514  0.7137 -4.2273
    2MPD2     C14358   1.032   4.650  13.020 -0.6402 -0.0631 -0.2181
    2MPD2    C114359   0.949   4.684  13.125 -1.0884  0.2042 -0.2754
    2MPD2    C214360   0.999   4.708  13.252 -0.7676  0.0109 -0.6531
    2MPD2    C314361   1.132   4.691  13.282 -0.6806 -0.3678  0.4250
    2MPD2    C414362   1.214   4.650  13.179  0.5021 -0.2048 -0.2433
    2MPD2    C514363   1.166   4.633  13.054 -0.5074  0.0005  0.4835
    2MPD2     H14364   0.933   4.729  13.335  1.4004  0.3315  0.9914
    2MPD2    H114365   1.320   4.636  13.199  0.6609  2.2713  0.6620
    2MPD2    H214366   0.994   4.644  12.918 -0.9852  0.6991 -0.1389
    2MPD2    H314367   1.242   4.624  12.977  1.2342  1.6121  2.0190
    2MPD2     N14368   1.175   4.716  13.415  0.0315  0.1108  0.2293
    2MPD2    H514369   1.108   0.020  13.480 -0.1965 -0.0523  0.0932
    2MPD2    N114370   0.812   4.695  13.112  0.4908 -0.1440  0.3198
    2MPD2    H714371   0.758   4.720  13.194  1.0524 -2.1437  1.2829
    3TCq1    O114372   1.122   0.164  14.004  0.0233 -0.1355 -0.0612
    3TCq1    C114373   1.122   0.169  13.871  0.4095 -0.2201 -0.6084
    3TCq1    O214374   1.056   0.249  13.802 -0.4896 -0.1365  0.2007
    3TCq1    C214375   1.206   0.065  13.812 -0.4932  0.6981  0.2892
    3TCq1    C314376   1.256   4.702  13.890 -0.2764 -0.3584  0.3177
    3TCq1    C414377   1.326   4.601  13.826 -0.3649  0.2334  0.3038
    3TCq1    C514378   1.341   4.599  13.690 -0.1428  1.0282 -0.1324
    3TCq1    C614379   1.290   4.707  13.615 -0.2995  0.3822  0.1249
    3TCq1    C714380   1.223   0.075  13.679 -0.1471 -0.2579  0.3578
    3TCq1    C814381   1.294   4.693  13.465  0.4445 -0.0073  0.0426
    3TCq1    O414382   1.375   4.622  13.419  0.2270  0.0631 -0.0612
    3TCq1    C914383   1.392   4.500  13.907  0.1887 -0.7124  0.0770
    3TCq1    O514384   1.398   4.383  13.855 -0.0780  0.3346 -0.6520
    3TCq1    O614385   1.408   4.521  14.032 -0.3884  0.0335 -0.5963
    3TCq1    H114386   1.200   0.113  14.035  1.3090  0.4719 -2.3421
    3TCq1    H214387   1.249   4.688  13.998 -0.7121  2.3267  0.6470
    3TCq1    H314388   1.387   4.511  13.646 -1.5713  0.0531  0.3114
    3TCq1    H414389   1.193   0.167  13.631  0.4408 -0.5097 -0.4821
    1MPD2     C14390   0.206   1.291  14.731  0.1932 -0.5269 -0.3633
    1MPD2    C114391   0.173   1.165  14.772 -0.6316 -0.0259  0.3620
    1MPD2    C214392   0.215   1.061  14.700  0.0210 -0.3419 -0.6898
    1MPD2    C314393   0.286   1.079  14.581 -0.2936  0.5386  0.6289
    1MPD2    C414394   0.338   1.204  14.552  0.1250 -0.2625  0.4444
    1MPD2    C514395   0.293   1.309  14.622  1.1456  0.1220 -0.1621
    1MPD2     H14396   0.186   0.960  14.726 -0.9590  0.4239  1.1985
    1MPD2    H114397   0.401   1.224  14.466 -1.2962 -0.0303 -0.5527
    1MPD2    H214398   0.170   1.377  14.787  2.4548  1.5588 -2.1323
    1MPD2    H314399   0.321   1.406  14.583  0.3627  0.5053  0.2215
    1MPD2     N14400   0.325   0.955  14.519  0.5594  0.0169 -0.1602
    1MPD2    H514401   0.277   0.870  14.547 -1.7791  1.4266  0.1389
    1MPD2    N114402   0.073   1.158  14.878  0.6393 -0.1439  0.0517
    1MPD2    H714403   0.030   1.247  14.902  3.1174  0.7091  1.3718
    2TMC3    C114404   4.643   1.058  15.004 -0.2429  0.0505 -0.0121
    2TMC3    C214405   4.579   0.941  15.018  0.1508  0.8331 -0.0781
    2TMC3    C314406   4.439   0.932  14.999  0.7781 -0.7496 -0.5852
    2TMC3    C414407   4.570   1.176  15.010 -0.0549 -0.6138 -0.4528
    2TMC3    C514408   4.436   1.172  15.028  0.2955 -0.4312  0.4253
    2TMC3    C614409   4.369   1.049  15.008  0.1260  0.4101 -0.2983
    2TMC3     C14410   0.024   1.042  14.930  0.2401  0.0582 -0.0658
    2TMC3     O14411   0.047   0.930  14.890  0.0080 -0.0269 -1.0149
    2TMC3     H14412   4.636   0.850  15.036  0.4122  0.6154 -2.0294
    2TMC3    H114413   4.619   1.273  15.016 -0.3020 -0.4886 -0.4282
    2TMC3    H214414   4.261   1.051  15.004  0.0646  0.5278  1.2380
    2TMC3    C714415   4.361   1.282  15.078 -0.4923 -0.4508  0.3489
    2TMC3    C814416   4.407   0.862  14.878 -0.6996 -0.7904 -0.4790
    2TMC3    O114417   4.255   1.246  15.128  0.7277  0.1952 -0.5385
    2TMC3    O214418   4.302   0.882  14.820  0.7518  0.3868  0.6635
    3TCq1    O114419   4.671   2.513  14.874  0.1300 -0.6843  0.1986
    3TCq1    C114420   4.626   2.438  14.980  0.2806  0.3876 -0.1097
    3TCq1    O214421   4.593   2.481  15.090  0.1573 -0.4526 -0.1501
    3TCq1    C214422   4.631   2.296  14.935  0.0065 -1.2338  0.0809
    3TCq1    C314423   0.018   2.247  14.894 -0.1349 -0.3810 -0.5100
    3TCq1    C414424   0.046   2.117  14.928 -0.0316 -0.1686  1.0344
    3TCq1    C514425   4.704   2.033  14.998 -0.2261 -0.0099  0.5410
    3TCq1    C614426   4.580   2.087  15.033 -0.8873  0.0586  0.5271
    3TCq1    C714427   4.549   2.219  15.009 -0.2990  0.5028  0.1338
    3TCq1    C814428   4.476   2.008  15.095  0.2354 -1.0293 -0.0000
    3TCq1    O414429   4.387   2.063  15.158  0.6998  0.0952 -1.1000
    3TCq1    C914430   0.169   2.069  14.876 -0.1579  0.3278  0.3213
    3TCq1    O514431   0.178   1.943  14.879  0.4919  0.6759  0.1482
    3TCq1    O614432   0.255   2.146  14.826  0.3722 -0.1991  0.2824
    3TCq1    H114433   4.665   2.477  14.783 -0.5026  3.8447 -1.5527
    3TCq1    H214434   0.095   2.309  14.850  0.5164 -1.5047 -0.9476
    3TCq1    H314435   0.005   1.932  15.014  0.2557 -0.4241 -3.0183
    3TCq1    H414436   4.456   2.267  15.038 -1.2385 -0.2103 -1.7255
    4MPD2     C14437   4.289   1.780  15.167 -0.5753  0.1865  0.4394
    4MPD2    C114438   4.412   1.768  15.108  0.3396 -0.0825 -0.0101
    4MPD2    C214439   4.452   1.637  15.080 -0.4463 -0.2408  0.4520
    4MPD2    C314440   4.375   1.527  15.111  0.4956 -0.2164  0.2853
    4MPD2    C414441   4.256   1.540  15.176  0.2804 -0.8230  0.2263
    4MPD2    C514442   4.211   1.668  15.203  0.8955  0.0727 -0.7361
    4MPD2     H14443   4.552   1.623  15.041 -0.2935  1.2788  0.3043
    4MPD2    H114444   4.194   1.458  15.209  0.7939 -0.4374  2.1378
    4MPD2    H214445   4.245   1.877  15.190 -0.5447 -0.5032  3.4687
    4MPD2    H314446   4.119   1.677  15.260 -0.1857  0.2068 -2.5005
    4MPD2     N14447   4.421   1.404  15.066 -1.0450  0.8495  0.2773
    4MPD2    H514448   4.509   1.413  15.017 -1.0401 -0.1976  0.1050
    4MPD2    N114449   4.501   1.871  15.081 -0.0058  0.1256  0.2233
    4MPD2    H714450   4.580   1.846  15.023 -0.0328 -3.0828  1.5638
    5TMC2    C114451   0.332   0.630  14.516 -0.2634 -1.3027 -0.2399
    5TMC2    C214452   0.442   0.594  14.590  0.3517 -0.4065  0.8278
    5TMC2    C314453   0.553   0.664  14.562 -0.1062 -0.3994  0.3859
    5TMC2    C414454   0.334   0.716  14.414 -0.2458  0.2617 -0.5414
    5TMC2    C514455   0.445   0.793  14.404 -0.0773 -0.1811 -0.5605
    5TMC2    C614456   0.560   0.760  14.468  0.2709 -0.0798  0.2830
    5TMC2     C14457   0.211   0.626  14.589  0.4977  0.4207  0.0443
    5TMC2     O14458   0.225   0.657  14.704  0.6150  0.1582  0.0537
    5TMC2     H14459   0.431   0.531  14.678  0.0483 -1.7530 -0.1703
    5TMC2    H114460   0.241   0.759  14.379  0.8958  2.1329 -1.3305
    5TMC2    H214461   0.637   0.835  14.461  0.6478 -0.5292 -0.3956
    5TMC2    C714462   0.420   0.935  14.423 -0.6962 -0.5542 -0.6097
    5TMC2    C814463   0.659   0.651  14.653 -0.0959 -0.1198  0.5286
    5TMC2    O114464   0.492   1.011  14.357 -0.0237 -0.0914 -0.8554
    5TMC2    O214465   0.661   0.575  14.747  0.6769 -0.0363  0.1195
    5TMC2    O514466   0.757   0.744  14.635  0.1028 -0.4590 -0.3891
    5TMC2    H514467   0.752   0.781  14.545  0.3479 -0.1887 -0.2894
    6MPD2     C14468   4.432   0.688  14.630 -0.6100 -0.5353 -0.2169
    6MPD2    C114469   4.539   0.734  14.710 -0.1594  0.4507  0.7005
    6MPD2    C214470   4.665   0.698  14.680  0.2824  0.1805  0.0951
    6MPD2    C314471   4.693   0.639  14.558 -0.3640 -0.5810  0.7273
    6MPD2    C414472   4.587   0.611  14.475  0.0239 -0.2541 -0.7509
    6MPD2    C514473   4.458   0.628  14.515  0.0458  0.5761  0.0436
    6MPD2     H14474   0.018   0.728  14.737 -1.1605 -1.0560  2.9399
    6MPD2    H114475   4.600   0.571  14.375  1.3233  0.7504 -0.9868
    6MPD2    H214476   4.328   0.703  14.658 -0.0455  0.6492  1.2074
    6MPD2    H314477   4.380   0.598  14.445  0.2660  0.5969 -0.2117
    6MPD2     N14478   0.094   0.616  14.512  0.1526  0.0131  0.5157
    6MPD2    H514479   0.117   0.577  14.421  1.6968  1.6839  0.1886
    6MPD2    N114480   4.520   0.804  14.832  0.2010 -0.4159 -0.2568
    6MPD2    H714481   4.605   0.831  14.880  0.9094  0.4875 -2.0220
  945NH3     N114482   0.042   1.096   2.365  0.6693 -1.4220 -0.1573
  945NH3     H214483   0.035   1.079   2.465 -2.5954 -1.9474 -0.4886
  945NH3     H314484   0.129   1.148   2.353 -0.1968 -0.2253 -1.2731
  945NH3     H414485   4.706   1.163   2.339 -0.0937 -2.4674 -0.7484
  946SOD     NA14486   1.225   0.200  15.627 -0.5828 -0.0251 -0.1825
  947SOD     NA14487   3.502   2.229  13.920  0.0106 -0.1246  0.4613
  948SOD     NA14488   4.696   0.898   0.876  0.7664 -0.1370 -0.6033
  949SOD     NA14489   4.372   3.386  11.251 -0.5740 -0.3727 -0.3093
  950SOD     NA14490   1.267   0.443   2.559  0.0363 -0.5005  0.2809
  951SOD     NA14491   3.537   4.535  10.137  0.0511 -0.0956 -0.1383
  952SOD     NA14492   3.524   0.251  15.931 -0.5437  0.0997  0.3904
  953SOD     NA14493   1.722   2.604  16.566  0.1529  0.1857  0.2003
  954SOL     OW14494   3.176   3.902  11.233 -0.1705 -0.4383  0.3985
  954SOL    HW114495   3.138   3.918  11.147 -1.5761 -1.6437  0.8068
  954SOL    HW214496   3.108   3.855  11.280  0.4744 -1.0427  0.7391
  955SOL     OW14497   3.596   3.492  13.365  0.0640  0.2682 -0.3184
  955SOL    HW114498   3.567   3.490  13.274  1.7471  0.2829 -0.8439
  955SOL    HW214499   3.510   3.506  13.405 -0.2729 -3.0483  0.1306
  956SOL     OW14500   0.758   4.132  12.088  0.0056  0.9038 -0.0676
  956SOL    HW114501   0.739   4.214  12.134 -0.4895  0.2950  0.8239
  956SOL    HW214502   0.851   4.151  12.077 -0.3217  2.4627 -0.0955
  957SOL     OW14503   3.356   2.982  17.736 -0.4127 -0.2430  0.6905
  957SOL    HW114504   3.284   2.923   0.020  0.3605 -1.0169  1.1171
  957SOL    HW214505   3.315   3.031  17.665 -0.2177 -0.1859  0.6173
  958SOL     OW14506   1.194   1.875  15.675 -0.4234 -0.2173  0.0078
  958SOL    HW114507   1.126   1.809  15.665 -1.3495  0.4151  2.2016
  958SOL    HW214508   1.271   1.821  15.657 -0.6578 -0.3455 -0.6072
  959SOL     OW14509   3.829   3.122   5.242  0.2665  0.3143  0.1041
  959SOL    HW114510   3.777   3.056   5.290 -0.6416  1.2327  0.3822
  959SOL    HW214511   3.769   3.152   5.174 -2.8616 -3.1286  1.2787
  960SOL     OW14512   2.308   2.375   2.345  0.1736 -0.1259  0.3489
  960SOL    HW114513   2.294   2.464   2.378  2.2346  1.0864 -2.0639
  960SOL    HW214514   2.388   2.353   2.393 -0.7831 -0.3210  1.8519
  961SOL     OW14515   1.547   3.582  12.357 -0.5463  0.3274  0.8185
  961SOL    HW114516   1.635   3.577  12.319 -1.6595 -2.6587 -1.3366
  961SOL    HW214517   1.516   3.671  12.337  1.5677  0.8685 -0.0525
  962SOL     OW14518   3.466   3.176   4.862  0.4488  0.1095  0.7855
  962SOL    HW114519   3.497   3.261   4.831  0.8559 -0.0903  0.6402
  962SOL    HW214520   3.372   3.190   4.855  0.3567 -2.4860 -3.0306
  963SOL     OW14521   4.242   0.748   3.705  0.2627  0.4895 -0.1226
  963SOL    HW114522   4.238   0.657   3.735 -0.2260  0.1356 -1.2662
  963SOL    HW214523   4.149   0.769   3.696  0.1926  0.6333  0.8906
  964SOL     OW14524   1.695   2.173  11.353 -0.1639 -0.0778 -0.2113
  964SOL    HW114525   1.650   2.089  11.360 -1.2032  0.4673 -0.1716
  964SOL    HW214526   1.718   2.176  11.261  0.3542  1.5685 -0.0260
  965SOL     OW14527   3.907   0.799   3.965  0.2253 -0.6614  0.1479
  965SOL    HW114528   3.977   0.812   4.029  0.3794 -0.1631 -0.1240
  965SOL    HW214529   3.896   0.704   3.975  0.0722 -0.8801 -2.2190
  966SOL     OW14530   2.801   0.840   4.309 -0.5670 -0.0771  0.3909
  966SOL    HW114531   2.762   0.850   4.222  2.6952 -1.3693 -1.2092
  966SOL    HW214532   2.773   0.748   4.314  2.2202 -0.8628  1.5434
  967SOL     OW14533   2.725   2.483   4.907  0.0399  0.4626  0.8957
  967SOL    HW114534   2.795   2.418   4.917 -0.9482 -1.1345 -2.3863
  967SOL    HW214535   2.779   2.551   4.867  0.0971  0.3845  0.8367
  968SOL     OW14536   2.927   2.951   7.156 -0.2872  0.3220 -0.4486
  968SOL    HW114537   2.886   2.964   7.242 -1.8936  2.2646 -1.4726
  968SOL    HW214538   2.871   3.010   7.105  0.6984 -0.1728 -2.0709
  969SOL     OW14539   3.476   3.694   7.481 -0.4019  0.0187 -0.2427
  969SOL    HW114540   3.500   3.709   7.390 -0.1486 -0.6547 -0.2881
  969SOL    HW214541   3.411   3.624   7.476 -3.4658  2.8397 -0.4397
  970SOL     OW14542   4.718   2.093  11.517  0.3062  0.2879 -0.6995
  970SOL    HW114543   4.710   2.174  11.466 -1.1443  1.4849  1.3949
  970SOL    HW214544   0.077   2.089  11.533  0.1896  2.8080  0.7569
  971SOL     OW14545   1.539   1.585   7.621  0.1224  0.2232  0.2527
  971SOL    HW114546   1.576   1.522   7.559 -1.1971 -1.2043  0.9069
  971SOL    HW214547   1.576   1.549   7.702 -2.7114  0.9476  1.9184
  972SOL     OW14548   2.605   3.179   8.286 -0.1866  0.5608 -0.1601
  972SOL    HW114549   2.638   3.163   8.197 -0.2952  0.0190 -0.1009
  972SOL    HW214550   2.525   3.231   8.272 -0.0076  0.6335 -0.9522
  973SOL     OW14551   1.315   2.632  13.427  0.1592  0.0433  0.1735
  973SOL    HW114552   1.356   2.623  13.341 -1.1425 -0.8894 -0.3580
  973SOL    HW214553   1.263   2.552  13.437 -0.4278  0.3437 -0.4549
  974SOL     OW14554   3.622   4.237   2.441 -0.2534 -0.1412 -0.6008
  974SOL    HW114555   3.565   4.239   2.519  0.1394 -0.1883 -0.3127
  974SOL    HW214556   3.576   4.292   2.378 -0.4483  1.3592  0.8397
  975SOL     OW14557   0.106   0.009   5.246 -0.3233 -0.3335  0.3641
  975SOL    HW114558   0.121   0.053   5.330 -0.7678 -2.4708  1.5555
  975SOL    HW214559   0.035   0.058   5.203 -1.3131 -1.3302  0.8558
  976SOL     OW14560   2.075   0.416   8.906 -0.0872  0.2562  0.0733
  976SOL    HW114561   2.098   0.432   8.998  0.4604 -0.3959  0.0549
  976SOL    HW214562   2.064   0.321   8.908  2.4934 -0.0778 -1.4182
  977SOL     OW14563   2.319   3.693   4.940 -0.0184  0.4364 -0.0744
  977SOL    HW114564   2.373   3.711   5.016  0.6658 -3.2091  0.3340
  977SOL    HW214565   2.348   3.763   4.881  3.3002 -1.4576 -0.7168
  978SOL     OW14566   4.243   0.897  13.911 -0.4701 -0.0188  0.1864
  978SOL    HW114567   4.261   0.915  13.819 -1.8031  2.1919  0.3627
  978SOL    HW214568   4.292   0.962  13.962 -0.0329  0.7976 -1.2840
  979SOL     OW14569   0.281   4.488   7.767 -0.5290 -0.7085  0.0396
  979SOL    HW114570   0.186   4.490   7.755 -0.6480  0.4620  1.1988
  979SOL    HW214571   0.287   4.399   7.732 -0.1328 -1.0873  1.0789
  980SOL     OW14572   3.945   0.313  16.374  0.2722 -0.3258  0.6444
  980SOL    HW114573   3.991   0.272  16.301 -0.7313 -0.9012  0.3270
  980SOL    HW214574   3.907   0.234  16.413  0.5954  0.3850  2.3976
  981SOL     OW14575   3.668   0.959   2.058 -0.2841  0.2579  0.2767
  981SOL    HW114576   3.709   0.944   1.972 -4.2978 -0.1854 -1.5531
  981SOL    HW214577   3.611   1.034   2.040 -3.0145 -1.5097  1.6501
  982SOL     OW14578   2.988   4.668   6.512  0.5058  0.5225 -0.3351
  982SOL    HW114579   3.033   4.713   6.440 -1.5732  1.6107 -0.9640
  982SOL    HW214580   2.928   4.610   6.467 -0.2284  2.6423 -2.0886
  983SOL     OW14581   1.346   1.766   4.315 -0.0177 -0.4255  0.4299
  983SOL    HW114582   1.392   1.832   4.368  0.9286 -1.3194  0.7256
  983SOL    HW214583   1.274   1.739   4.372  0.6544  0.5390  1.7257
  984SOL     OW14584   0.198   3.777  12.641 -0.0874  0.1000 -0.1506
  984SOL    HW114585   0.255   3.732  12.704  1.6600 -0.0743 -1.8720
  984SOL    HW214586   0.114   3.766  12.684 -0.8745 -5.4165 -3.1808
  985SOL     OW14587   1.685   3.431  11.821 -0.0126  0.1653  0.1219
  985SOL    HW114588   1.766   3.422  11.771  1.1224 -0.3774  2.0591
  985SOL    HW214589   1.709   3.489  11.894  0.2940 -1.0759  1.0122
  986SOL     OW14590   3.888   4.536   8.192  0.1894  0.0118  0.2029
  986SOL    HW114591   3.834   4.586   8.132  0.1730  0.1273  0.3130
  986SOL    HW214592   3.864   4.446   8.169  0.5261  0.5456 -2.2326
  987SOL     OW14593   0.245   4.542  16.826 -0.3471 -0.7219  0.7517
  987SOL    HW114594   0.289   4.546  16.741  0.3375 -0.3784  1.1312
  987SOL    HW214595   0.182   4.614  16.820  0.4859  0.0533  1.3786
  988SOL     OW14596   4.395   4.278  12.336  0.7994 -0.2053  0.3762
  988SOL    HW114597   4.363   4.341  12.401 -2.7448 -0.8957 -0.6620
  988SOL    HW214598   4.395   4.197  12.388  1.3321 -0.2164  0.3611
  989SOL     OW14599   3.471   4.357  10.983  0.2872 -0.6555 -0.1161
  989SOL    HW114600   3.377   4.365  10.963 -0.0740 -1.1078  1.4119
  989SOL    HW214601   3.517   4.440  10.971  0.5316 -1.0015 -1.5747
  990SOL     OW14602   0.552   0.208   8.806  0.5476  0.0978  0.1638
  990SOL    HW114603   0.634   0.185   8.848  0.2473  1.0223  1.2499
  990SOL    HW214604   0.541   0.301   8.828  0.6286 -0.4912  2.5990
  991SOL     OW14605   3.272   0.421   3.645 -0.3671  0.0766 -0.2715
  991SOL    HW114606   3.196   0.479   3.646 -0.4180  0.0097 -0.2976
  991SOL    HW214607   3.316   0.459   3.569  0.0088  0.5252  0.1666
  992SOL     OW14608   3.263   2.733   5.401  0.5662  0.1177  0.8024
  992SOL    HW114609   3.223   2.726   5.315  0.8090  4.2143  0.3509
  992SOL    HW214610   3.334   2.795   5.387  0.6917 -0.4818 -1.2427
  993SOL     OW14611   2.413   1.521   7.725  0.3798 -0.0982 -0.1709
  993SOL    HW114612   2.498   1.495   7.763  0.2396 -1.2661 -0.6653
  993SOL    HW214613   2.380   1.432   7.710 -2.1013  0.7354  0.3629
  994SOL     OW14614   3.705   1.835   4.189 -0.2298 -0.4796  0.4789
  994SOL    HW114615   3.792   1.874   4.181 -0.1079 -1.1291 -1.5107
  994SOL    HW214616   3.651   1.912   4.173 -0.1907 -0.2532  1.4693
  995SOL     OW14617   4.391   4.382  12.813  0.1222  0.1339  0.1663
  995SOL    HW114618   4.337   4.436  12.871  2.1823 -0.2897  2.5144
  995SOL    HW214619   4.448   4.346  12.882  2.1830  0.1255 -1.5270
  996SOL     OW14620   3.902   2.901   1.334 -0.1062  0.1808  0.2583
  996SOL    HW114621   3.928   2.880   1.423  2.4060 -0.4845 -0.6307
  996SOL    HW214622   3.990   2.916   1.301 -0.6962  0.9335 -0.9588
  997SOL     OW14623   0.785   2.478   5.913 -0.0578  0.2422 -0.0551
  997SOL    HW114624   0.841   2.547   5.877  3.7147 -1.2147  2.9794
  997SOL    HW214625   0.704   2.502   5.868  0.5137  1.0725 -0.6345
  998SOL     OW14626   4.378   2.931   1.903 -0.5573  0.2467  0.0444
  998SOL    HW114627   4.418   2.979   1.830  0.4472 -0.3959  0.1795
  998SOL    HW214628   4.393   2.843   1.869 -3.6934 -0.0910 -0.4637
  999SOL     OW14629   3.288   0.329   5.561 -0.3308 -0.8425 -0.3391
  999SOL    HW114630   3.272   0.235   5.570 -0.8880 -0.8896 -1.9365
  999SOL    HW214631   3.260   0.357   5.474  0.3025  1.6757  0.2668
 1000SOL     OW14632   0.352   1.174  11.676  0.2742 -0.0441 -0.3800
 1000SOL    HW114633   0.277   1.114  11.678  0.8110 -0.7463 -1.6845
 1000SOL    HW214634   0.420   1.111  11.697  0.5492  0.5794  0.6050
 1001SOL     OW14635   2.096   3.356   5.966  0.7370 -0.0934 -0.2685
 1001SOL    HW114636   2.123   3.270   5.999 -0.0476 -0.7381 -1.3229
 1001SOL    HW214637   2.098   3.328   5.874  1.2387  0.6668 -0.4835
 1002SOL     OW14638   0.481   2.859   8.007  0.2394  0.4313 -0.2873
 1002SOL    HW114639   0.444   2.787   8.057 -1.3069 -0.1831 -2.3212
 1002SOL    HW214640   0.458   2.849   7.915 -2.3504 -0.0394  0.4361
 1003SOL     OW14641   1.009   3.297   0.736 -0.2064 -0.1386  0.3070
 1003SOL    HW114642   1.085   3.307   0.794  0.6563  1.2222 -1.0672
 1003SOL    HW214643   0.940   3.298   0.802 -0.8538 -2.5837 -0.3297
 1004SOL     OW14644   1.725   2.324   7.708 -0.0976  0.0920 -0.1394
 1004SOL    HW114645   1.806   2.356   7.748  0.4082 -0.5753 -0.6145
 1004SOL    HW214646   1.675   2.287   7.780 -1.7923 -2.1643 -2.4610
 1005SOL     OW14647   2.664   2.432  13.808 -0.0676 -0.6403 -0.3424
 1005SOL    HW114648   2.725   2.457  13.878 -1.0024 -1.3382  0.7313
 1005SOL    HW214649   2.638   2.513  13.763 -0.9919 -0.8677 -0.2197
 1006SOL     OW14650   0.714   0.966   2.720  0.7718 -0.0528 -0.4205
 1006SOL    HW114651   0.749   0.977   2.632 -1.5895  0.9626 -1.2362
 1006SOL    HW214652   0.739   1.047   2.764 -0.2438 -0.7866  1.5265
 1007SOL     OW14653   4.361   2.569  11.423 -0.2181  0.3207  0.2769
 1007SOL    HW114654   4.321   2.530  11.345  1.8438 -0.9405 -0.1339
 1007SOL    HW214655   4.445   2.524  11.423  0.4153  1.4860 -1.2663
 1008SOL     OW14656   2.611   0.510   5.681  0.6702  0.7714  0.4761
 1008SOL    HW114657   2.634   0.479   5.769 -2.5997 -1.2740  0.5988
 1008SOL    HW214658   2.521   0.534   5.704  0.8546  1.3863  0.5649
 1009SOL     OW14659   3.366   0.876  13.771 -0.1907  1.0695  0.3882
 1009SOL    HW114660   3.388   0.866  13.864 -2.3083 -0.4351  0.7351
 1009SOL    HW214661   3.322   0.960  13.769  0.9683  1.6414 -1.1472
 1010SOL     OW14662   0.345   1.301  13.137 -0.0486  0.2529 -0.1687
 1010SOL    HW114663   0.390   1.384  13.152  0.5499  0.2765 -2.0643
 1010SOL    HW214664   0.364   1.247  13.214 -0.1716 -0.4626 -0.6342
 1011SOL     OW14665   0.843   0.776   9.684 -0.1875 -0.0148  0.3717
 1011SOL    HW114666   0.792   0.855   9.670 -2.4266 -1.3681  0.7675
 1011SOL    HW214667   0.777   0.711   9.710  1.9080 -1.5618  1.8782
 1012SOL     OW14668   3.831   0.092   7.081 -0.5255 -0.1058 -0.3624
 1012SOL    HW114669   3.896   0.141   7.029 -0.1144  0.9645  1.1421
 1012SOL    HW214670   3.865   0.003   7.079 -0.2049  0.0221 -0.7081
 1013SOL     OW14671   3.376   4.321  15.892  0.0859  0.2384  0.1153
 1013SOL    HW114672   3.383   4.249  15.830 -0.9981 -0.1668  0.4689
 1013SOL    HW214673   3.289   4.307  15.928 -0.0511  1.2318  0.1798
 1014SOL     OW14674   3.102   2.982   4.987  0.5057  0.0845  0.4781
 1014SOL    HW114675   3.119   2.999   4.894 -1.1492 -0.0395  0.1559
 1014SOL    HW214676   3.099   3.069   5.025 -1.1054 -0.4710  1.6158
 1015SOL     OW14677   4.242   3.047   7.967 -0.3545  0.4464  0.1887
 1015SOL    HW114678   4.304   3.006   8.028  1.2923  0.2290 -1.6349
 1015SOL    HW214679   4.256   2.996   7.887  1.1584  2.9614 -1.1397
 1016SOL     OW14680   3.677   2.004   5.816  0.6270  0.1046  0.3022
 1016SOL    HW114681   3.756   1.981   5.865  0.5362  2.0821  1.4033
 1016SOL    HW214682   3.631   1.930   5.855 -0.8191 -0.7899 -3.1363
 1017SOL     OW14683   1.854   0.267   5.537  0.1483 -0.5101  0.3392
 1017SOL    HW114684   1.769   0.276   5.494  0.3225  1.3720  0.3800
 1017SOL    HW214685   1.913   0.218   5.479 -0.3188 -0.0695 -0.5015
 1018SOL     OW14686   1.107   2.629   8.078  0.1173 -0.1907  0.1295
 1018SOL    HW114687   1.094   2.543   8.038  0.9786  0.2508 -1.0864
 1018SOL    HW214688   1.201   2.627   8.096 -0.1416  0.3158  1.5348
 1019SOL     OW14689   2.276   2.514   6.459  0.4809  0.5947 -0.8654
 1019SOL    HW114690   2.221   2.549   6.388  0.1365 -0.1729 -0.9784
 1019SOL    HW214691   2.294   2.427   6.424 -0.3966 -0.1461  0.4919
 1020SOL     OW14692   2.702   0.604   4.292 -0.6962  0.4402 -0.4226
 1020SOL    HW114693   2.673   0.570   4.208  2.5791 -1.2484 -0.8550
 1020SOL    HW214694   2.762   0.537   4.326 -1.6694 -0.5641 -0.6722
 1021SOL     OW14695   1.810   1.136   3.198  0.3717  0.1640 -0.0320
 1021SOL    HW114696   1.776   1.161   3.112 -0.2244  1.4128  0.5503
 1021SOL    HW214697   1.761   1.059   3.224  0.2471 -0.3210 -1.7057
 1022SOL     OW14698   1.459   1.811   5.996  0.1413 -0.2567  0.7404
 1022SOL    HW114699   1.388   1.854   5.949  0.3244  0.0125  0.7051
 1022SOL    HW214700   1.464   1.872   6.070 -0.5830 -1.7653  2.0240
 1023SOL     OW14701   1.221   2.124  15.512 -0.0544 -0.0509  0.0108
 1023SOL    HW114702   1.155   2.086  15.454 -1.3727  2.3516 -0.0592
 1023SOL    HW214703   1.230   2.058  15.581  3.8875 -0.0594 -0.5118
 1024SOL     OW14704   2.437   0.617   3.904  0.0833  0.4174 -0.5317
 1024SOL    HW114705   2.388   0.582   3.831 -2.2313 -0.4301  1.4374
 1024SOL    HW214706   2.369   0.639   3.967  0.0198  1.5271 -0.9878
 1025SOL     OW14707   4.620   1.467   7.870  0.2878 -0.3734  0.1223
 1025SOL    HW114708   4.659   1.507   7.948 -0.3662  2.0750 -0.8220
 1025SOL    HW214709   4.592   1.382   7.903  1.9028 -0.1773  2.0107
 1026SOL     OW14710   0.026   1.440   9.974  0.3828 -0.1417 -0.3848
 1026SOL    HW114711   0.113   1.430  10.013 -0.2074 -1.8960  0.4546
 1026SOL    HW214712   4.712   1.368  10.013  0.9462 -0.8017 -0.8875
 1027SOL     OW14713   4.664   2.915   7.546 -0.0569  0.2511  0.4852
 1027SOL    HW114714   4.673   2.997   7.595  2.4123 -1.1045  2.3142
 1027SOL    HW214715   4.729   2.867   7.597  0.8871  0.5810 -0.4092
 1028SOL     OW14716   3.928   1.039  11.741  0.3133  0.4401 -0.2092
 1028SOL    HW114717   3.850   0.985  11.753  2.3777 -1.8258  2.9625
 1028SOL    HW214718   3.987   0.974  11.779 -0.1102 -0.6863 -1.4794
 1029SOL     OW14719   0.485   1.033   2.148 -0.8029  0.4656 -0.8333
 1029SOL    HW114720   0.421   1.101   2.169 -2.0628 -0.5383 -1.4579
 1029SOL    HW214721   0.475   0.985   2.230  1.5674 -2.6159 -2.3682
 1030SOL     OW14722   3.288   2.588   6.478  0.1998  0.1345  0.3531
 1030SOL    HW114723   3.236   2.508   6.490  2.7402 -1.6254 -0.5351
 1030SOL    HW214724   3.245   2.619   6.398  0.8292 -0.5713 -0.2525
 1031SOL     OW14725   1.617   4.665  14.878  0.3482  0.3396 -0.5704
 1031SOL    HW114726   1.541   4.665  14.820  0.2370  1.4880 -0.4201
 1031SOL    HW214727   1.590   4.734  14.939  2.3205  1.4829 -1.0044
 1032SOL     OW14728   1.783   1.224   2.658  0.1519 -0.0734 -0.2776
 1032SOL    HW114729   1.700   1.270   2.647 -0.1837 -1.1429 -2.2408
 1032SOL    HW214730   1.835   1.259   2.585  1.3120  2.6635  1.8914
 1033SOL     OW14731   3.752   0.829   2.629  0.4497 -0.0139 -0.1229
 1033SOL    HW114732   3.723   0.914   2.596  0.6142 -0.4974 -1.5003
 1033SOL    HW214733   3.671   0.780   2.640 -0.8627  1.6734 -2.3878
 1034SOL     OW14734   4.378   4.575   8.183  0.1448 -0.3836 -0.2513
 1034SOL    HW114735   4.316   4.580   8.111  0.3567 -0.9776 -0.4753
 1034SOL    HW214736   4.439   4.638   8.143  0.4290 -0.7536 -0.3980
 1035SOL     OW14737   1.642   3.502   3.920 -0.2131  0.1613  0.0917
 1035SOL    HW114738   1.608   3.454   3.995 -0.4902  1.3676  0.7363
 1035SOL    HW214739   1.686   3.577   3.960 -0.7962  1.2056 -1.2081
 1036SOL     OW14740   3.754   4.390   4.102 -0.0898 -0.6335 -0.1977
 1036SOL    HW114741   3.732   4.479   4.128 -0.4624  0.0465 -2.8379
 1036SOL    HW214742   3.669   4.349   4.085 -0.2525 -1.5368  2.7544
 1037SOL     OW14743   3.389   4.092  16.132  0.3764  0.0774 -0.1281
 1037SOL    HW114744   3.455   4.134  16.077 -0.2912 -0.1182 -1.0870
 1037SOL    HW214745   3.368   4.167  16.187 -2.1727  0.7720 -2.0117
 1038SOL     OW14746   3.031   1.483   3.181  0.2495 -0.1479  0.4786
 1038SOL    HW114747   3.000   1.399   3.213  0.5468 -0.1439  0.7739
 1038SOL    HW214748   3.106   1.503   3.237 -0.1075  1.2176  0.4585
 1039SOL     OW14749   2.626   2.818  16.179  0.1253  0.2031 -0.2041
 1039SOL    HW114750   2.689   2.815  16.251  0.2700  2.6001 -0.2304
 1039SOL    HW214751   2.683   2.872  16.125  1.6461  0.6745  1.8918
 1040SOL     OW14752   0.411   1.882   4.980  0.4492 -0.3943  0.4341
 1040SOL    HW114753   0.354   1.926   5.044  1.3458 -0.2893  1.1516
 1040SOL    HW214754   0.351   1.816   4.946 -0.9690 -0.0361  2.2003
 1041SOL     OW14755   1.691   1.242   5.082 -0.2632  0.0134 -0.1231
 1041SOL    HW114756   1.744   1.299   5.027  0.2646 -2.2368 -1.9470
 1041SOL    HW214757   1.725   1.253   5.170  1.1478  0.8045 -0.7648
 1042SOL     OW14758   2.719   3.232  14.127 -0.2192  0.1112  0.6025
 1042SOL    HW114759   2.806   3.198  14.105 -0.9762 -0.3945 -1.6075
 1042SOL    HW214760   2.681   3.219  14.040  1.1502  0.3442 -0.0190
 1043SOL     OW14761   3.359   3.918  15.306  0.6716  0.4532 -0.1329
 1043SOL    HW114762   3.295   3.912  15.234  1.6516 -0.8623 -0.8874
 1043SOL    HW214763   3.421   3.977  15.262  0.2186  1.5727  0.7174
 1044SOL     OW14764   3.605   0.157   5.004 -0.1224  0.0817  0.1890
 1044SOL    HW114765   3.531   0.209   4.972 -1.4466 -1.2687  1.0959
 1044SOL    HW214766   3.581   0.068   4.980  3.6367 -1.0300  0.6409
 1045SOL     OW14767   0.071   1.871   2.352  0.2248  0.1091  0.5858
 1045SOL    HW114768   0.099   1.825   2.273  3.2762  0.8153  1.2628
 1045SOL    HW214769   4.720   1.830   2.363  0.1504 -0.1800 -1.0971
 1046SOL     OW14770   2.108   4.440   2.410  0.2028 -0.4867 -0.2491
 1046SOL    HW114771   2.189   4.466   2.366  0.2399  1.6824  1.0591
 1046SOL    HW214772   2.098   4.355   2.369  0.1005 -0.8989  0.6340
 1047SOL     OW14773   1.431   0.865  11.386  0.0855 -0.4548 -0.3369
 1047SOL    HW114774   1.490   0.938  11.368 -2.3843  1.8615  0.9891
 1047SOL    HW214775   1.488   0.804  11.434 -1.8218 -2.1955 -0.2593
 1048SOL     OW14776   0.893   4.654  11.753 -0.0963 -0.2860 -0.2194
 1048SOL    HW114777   0.957   4.723  11.734 -0.9244  0.6561  0.4031
 1048SOL    HW214778   0.810   4.696  11.732  0.2374 -0.2193 -1.4429
 1049SOL     OW14779   2.212   4.623   0.552 -0.0836  0.0916 -0.2170
 1049SOL    HW114780   2.151   4.564   0.596 -0.6509  1.0990  0.3516
 1049SOL    HW214781   2.173   4.611   0.466 -2.4913  1.0723  0.7583
 1050SOL     OW14782   2.504   0.803   3.205  0.0953  0.8207 -0.3242
 1050SOL    HW114783   2.464   0.883   3.240 -1.8106  0.4033 -1.5346
 1050SOL    HW214784   2.458   0.792   3.122 -2.6323  2.8866  0.9155
 1051SOL     OW14785   4.433   1.683   0.764  0.3491  0.5146 -0.1810
 1051SOL    HW114786   4.517   1.689   0.810 -1.1230  1.0438  2.4813
 1051SOL    HW214787   4.455   1.725   0.681  0.0402  1.8494  0.4188
 1052SOL     OW14788   0.181   0.012   8.555  0.0224 -0.4413  0.7150
 1052SOL    HW114789   0.240   0.030   8.481  0.6797 -1.8450  0.8999
 1052SOL    HW214790   0.128   4.677   8.516 -0.9362 -0.1616  1.5192
 1053SOL     OW14791   3.233   4.666   7.872 -0.3402  0.3525  0.4384
 1053SOL    HW114792   3.251   4.589   7.818 -3.0629  0.2371 -0.3308
 1053SOL    HW214793   3.233   4.636   7.963  1.3505 -2.7361 -0.5763
 1054SOL     OW14794   1.059   0.509   0.937 -0.8147  0.4151 -0.2812
 1054SOL    HW114795   1.111   0.566   0.994 -0.6873  0.0024  0.0207
 1054SOL    HW214796   1.070   0.549   0.851 -0.7263 -1.6371 -1.2166
 1055SOL     OW14797   2.028   4.650   6.337  0.6763  0.0880  0.1688
 1055SOL    HW114798   2.099   4.615   6.391  1.1983 -1.2238 -1.4096
 1055SOL    HW214799   2.039   4.597   6.259  0.1322 -0.4538  0.4617
 1056SOL     OW14800   3.161   2.622  14.087  0.3996  0.0880  0.1009
 1056SOL    HW114801   3.250   2.590  14.096  0.3121 -0.1604  0.0825
 1056SOL    HW214802   3.177   2.704  14.040 -0.0616  0.5141  0.6657
 1057SOL     OW14803   0.268   0.284   8.138  0.0996  0.0514 -0.7792
 1057SOL    HW114804   0.354   0.303   8.100 -1.0580  4.2415 -1.3462
 1057SOL    HW214805   0.266   0.331   8.221 -0.2032 -0.3103 -0.5867
 1058SOL     OW14806   2.739   1.134   4.892 -0.0975  0.2375  0.7971
 1058SOL    HW114807   2.747   1.223   4.858  0.2748 -0.4829 -1.0319
 1058SOL    HW214808   2.791   1.121   4.971 -1.7299  0.6420  1.9202
 1059SOL     OW14809   4.212   2.489  16.196 -0.2677  0.0893  0.2598
 1059SOL    HW114810   4.163   2.410  16.173  0.9147 -0.8045  0.8314
 1059SOL    HW214811   4.197   2.533  16.112 -0.0720  1.2621  0.8482
 1060SOL     OW14812   4.653   4.505   3.317 -0.8413  0.7554  0.1892
 1060SOL    HW114813   4.615   4.553   3.390  2.7401  0.0114  2.5515
 1060SOL    HW214814   4.716   4.452   3.365  1.5453  2.4082 -1.1532
 1061SOL     OW14815   1.453   3.947  15.616 -0.2573  0.8040  0.5097
 1061SOL    HW114816   1.375   3.954  15.671 -1.8066  0.4004 -1.6354
 1061SOL    HW214817   1.417   3.907  15.536 -0.3199 -1.1335  1.5068
 1062SOL     OW14818   4.553   1.394   8.950 -0.2015 -0.4317  0.5439
 1062SOL    HW114819   4.505   1.335   9.007 -1.8698 -0.8099 -1.2393
 1062SOL    HW214820   4.534   1.476   8.995  0.9203 -0.0319  0.2893
 1063SOL     OW14821   0.256   2.068  10.785  0.3209 -0.3862 -0.1824
 1063SOL    HW114822   0.227   2.138  10.845 -0.1775 -0.6583 -0.1092
 1063SOL    HW214823   0.167   2.039  10.764  0.2243  0.3925 -0.8561
 1064SOL     OW14824   3.902   3.678   4.039  0.1578  0.4120  0.6389
 1064SOL    HW114825   3.975   3.639   4.086  1.8362 -0.0940 -2.4231
 1064SOL    HW214826   3.941   3.683   3.952 -0.9577  1.0846  0.1787
 1065SOL     OW14827   2.308   1.519   3.013  0.3072  0.3061 -0.5368
 1065SOL    HW114828   2.366   1.449   2.986  1.2189  0.1683  1.8042
 1065SOL    HW214829   2.366   1.577   3.061  0.8942  0.4488 -1.4089
 1066SOL     OW14830   2.632   3.686   9.190 -0.1017 -0.3616  0.1162
 1066SOL    HW114831   2.710   3.732   9.157 -0.3567 -0.1980 -0.2554
 1066SOL    HW214832   2.665   3.616   9.247  1.6923  1.4717  1.3678
 1067SOL     OW14833   1.272   0.713   7.726  0.1949 -0.2262  0.2794
 1067SOL    HW114834   1.276   0.758   7.642  3.3394  0.9103  1.0402
 1067SOL    HW214835   1.217   0.638   7.701  1.7030 -1.6851  1.3208
 1068SOL     OW14836   0.837   3.282   0.947  0.6512 -0.6537  0.8986
 1068SOL    HW114837   0.811   3.359   0.997  2.7653 -0.0477  1.0982
 1068SOL    HW214838   0.817   3.213   1.011 -3.5491 -0.9573 -0.7857
 1069SOL     OW14839   3.031   1.223   5.990  0.1787 -0.2700  0.5391
 1069SOL    HW114840   2.950   1.263   5.959  1.1221 -1.0177 -2.8975
 1069SOL    HW214841   3.033   1.238   6.084  2.8242 -0.0124  0.4474
 1070SOL     OW14842   1.577   0.557   7.382  0.4580 -0.3715  0.5003
 1070SOL    HW114843   1.589   0.567   7.477 -0.5909 -1.0231  0.7042
 1070SOL    HW214844   1.520   0.480   7.378  0.1730 -0.0005 -2.5792
 1071SOL     OW14845   4.605   3.996  15.827 -0.0856 -0.4299  0.1903
 1071SOL    HW114846   4.666   4.058  15.788  1.8146 -1.8749  0.8543
 1071SOL    HW214847   4.537   3.977  15.763 -1.6054 -1.3507  2.0949
 1072SOL     OW14848   1.115   4.209   6.854  0.5719 -0.2538 -0.5871
 1072SOL    HW114849   1.162   4.135   6.893  0.4465 -0.8284 -1.5210
 1072SOL    HW214850   1.025   4.186   6.874  1.1430 -1.0988  1.0147
 1073SOL     OW14851   3.119   3.846   5.544  0.6217 -0.4184  0.0353
 1073SOL    HW114852   3.112   3.860   5.638 -0.4403  0.5990 -0.2019
 1073SOL    HW214853   3.035   3.804   5.523  0.3514  0.2795 -0.2866
 1074SOL     OW14854   3.609   3.647  13.720  0.3594  0.2320 -0.1640
 1074SOL    HW114855   3.544   3.706  13.760 -1.0516 -0.5093 -1.3549
 1074SOL    HW214856   3.680   3.709  13.703  2.0920 -1.9596 -0.8673
 1075SOL     OW14857   1.996   0.514   5.453  0.1276 -1.0737 -0.1175
 1075SOL    HW114858   1.945   0.448   5.501 -0.3837 -1.1403 -0.7510
 1075SOL    HW214859   1.956   0.500   5.368  0.2144 -0.5445 -0.2404
 1076SOL     OW14860   3.672   4.429  16.466  0.0251 -0.3370  0.3368
 1076SOL    HW114861   3.733   4.373  16.514  0.9257 -0.0785 -0.5022
 1076SOL    HW214862   3.666   4.512  16.514  0.8705 -1.0070  1.6099
 1077SOL     OW14863   3.812   0.320   7.294 -0.2263  0.3111 -0.0491
 1077SOL    HW114864   3.904   0.302   7.309 -0.0402  0.6037 -0.8233
 1077SOL    HW214865   3.803   0.252   7.228 -2.2787  0.2855  0.2331
 1078SOL     OW14866   0.122   0.592   0.645  0.5115  0.5772 -0.0802
 1078SOL    HW114867   0.062   0.664   0.667  0.0154 -0.2041  1.1503
 1078SOL    HW214868   0.071   0.526   0.693  0.0363  1.3379  0.4684
 1079SOL     OW14869   0.683   0.691   7.254  0.6083  0.1751  0.1974
 1079SOL    HW114870   0.638   0.766   7.215 -1.8379 -1.7644 -0.7421
 1079SOL    HW214871   0.608   0.666   7.308  1.7662 -3.8493 -0.0743
 1080SOL     OW14872   3.918   3.755   9.088 -0.2997 -0.5169 -0.3441
 1080SOL    HW114873   3.948   3.713   9.169  0.6654 -1.4274 -1.1697
 1080SOL    HW214874   4.002   3.777   9.047 -0.2561 -0.0716 -0.0225
 1081SOL     OW14875   3.232   1.335  11.658  0.1352  0.3501  0.1238
 1081SOL    HW114876   3.299   1.385  11.612  0.7759  0.4368  1.1588
 1081SOL    HW214877   3.185   1.300  11.582 -0.9567 -1.2715  1.5341
 1082SOL     OW14878   2.280   2.486   7.558  0.7150 -0.1746 -0.0136
 1082SOL    HW114879   2.251   2.405   7.517  1.4836 -0.6121  0.3118
 1082SOL    HW214880   2.360   2.494   7.506 -0.1236 -0.9633 -1.3992
 1083SOL     OW14881   0.857   1.244   6.635  0.9555  0.4790 -0.0798
 1083SOL    HW114882   0.796   1.219   6.704 -0.1952 -0.4172 -1.4050
 1083SOL    HW214883   0.939   1.266   6.680  1.9375 -2.4996 -0.4088
 1084SOL     OW14884   4.283   1.750   6.598 -0.4074 -0.1683 -0.6244
 1084SOL    HW114885   4.377   1.734   6.606 -0.5988 -0.2239  1.4180
 1084SOL    HW214886   4.252   1.778   6.684 -0.3661 -3.1498  0.3554
 1085SOL     OW14887   0.694   3.379  15.957  1.0591  0.1726  0.2364
 1085SOL    HW114888   0.718   3.293  15.992  0.5464  0.3678  1.0454
 1085SOL    HW214889   0.764   3.432  15.994  1.1466  2.4438 -3.2360
 1086SOL     OW14890   2.802   0.961   4.551 -0.1081  0.0435 -0.5439
 1086SOL    HW114891   2.793   0.936   4.459 -2.1945 -1.2151  0.0021
 1086SOL    HW214892   2.894   0.944   4.571 -1.0971 -0.3586  3.7213
 1087SOL     OW14893   2.883   0.362  11.842 -0.0348 -0.2239 -0.2255
 1087SOL    HW114894   2.846   0.276  11.862 -0.3115  0.2779  1.4820
 1087SOL    HW214895   2.815   0.388  11.780  0.7011 -0.5296 -1.1534
 1088SOL     OW14896   4.657   3.073   5.361  0.0195 -0.2814  0.0712
 1088SOL    HW114897   4.644   2.994   5.308 -0.2643  0.2863 -0.6995
 1088SOL    HW214898   4.613   3.145   5.316 -1.2247 -0.3400  1.1890
 1089SOL     OW14899   4.215   1.893   0.416 -0.2004  0.6825  0.0362
 1089SOL    HW114900   4.208   1.969   0.359  0.4103  0.4757 -0.3065
 1089SOL    HW214901   4.149   1.837   0.375  1.2309 -0.7125 -0.3584
 1090SOL     OW14902   0.427   3.230   6.255 -0.0925  0.5972  0.0144
 1090SOL    HW114903   0.442   3.192   6.342  2.2552 -1.8434 -1.4671
 1090SOL    HW214904   0.509   3.278   6.238 -0.1779  1.3678  1.7575
 1091SOL     OW14905   0.153   3.210  15.122 -0.2492  0.1485 -0.1866
 1091SOL    HW114906   0.194   3.125  15.107 -0.3980  0.2299 -1.0928
 1091SOL    HW214907   0.073   3.188  15.169  0.4576 -0.3424  0.7720
 1092SOL     OW14908   4.340   2.599   3.249  0.8596 -0.1394  0.2138
 1092SOL    HW114909   4.419   2.575   3.200  1.2586 -2.4764  2.0046
 1092SOL    HW214910   4.363   2.671   3.307 -2.2157  0.7150  0.3937
 1093SOL     OW14911   4.282   4.009   7.338  0.2924  0.2882 -0.1793
 1093SOL    HW114912   4.340   3.975   7.406  0.2138 -1.2990 -0.9147
 1093SOL    HW214913   4.209   3.949   7.353  1.3997 -1.2875 -1.1094
 1094SOL     OW14914   1.338   0.456   6.232  0.0766  0.3867  0.0403
 1094SOL    HW114915   1.313   0.530   6.176 -2.3345 -1.5178 -1.4092
 1094SOL    HW214916   1.284   0.384   6.200  0.0900  0.6976 -0.6856
 1095SOL     OW14917   2.766   2.860   3.842  0.1226  0.0195 -0.0055
 1095SOL    HW114918   2.676   2.884   3.862 -0.3613 -1.1924 -0.7007
 1095SOL    HW214919   2.778   2.787   3.902 -1.0191  0.4375  0.7335
 1096SOL     OW14920   2.101   1.955   9.918  0.4501 -0.2358  0.6587
 1096SOL    HW114921   2.019   1.934   9.875 -0.9349  2.2213  2.0692
 1096SOL    HW214922   2.155   1.987   9.846 -0.4146 -0.9289 -0.2894
 1097SOL     OW14923   1.514   2.012  15.740  0.0677 -0.0940 -0.2183
 1097SOL    HW114924   1.511   1.996  15.834 -1.2198 -0.5741 -0.3468
 1097SOL    HW214925   1.556   1.929  15.718  1.3306  0.1110  1.4242
 1098SOL     OW14926   0.570   1.421  10.156 -0.0551  0.5633 -0.1639
 1098SOL    HW114927   0.585   1.456  10.244  1.4480 -0.2820 -0.0878
 1098SOL    HW214928   0.632   1.349  10.165 -2.1122 -1.2504 -0.3756
 1099SOL     OW14929   1.666   3.896  17.273 -0.8456 -0.4552 -0.1444
 1099SOL    HW114930   1.698   3.892  17.183  2.9822 -0.7351  1.2251
 1099SOL    HW214931   1.663   3.802  17.291  2.2136 -0.5120  0.0942
 1100SOL     OW14932   1.994   1.258   6.630 -0.2525  0.2696  0.4248
 1100SOL    HW114933   1.927   1.204   6.673  0.3412 -0.3112  0.6275
 1100SOL    HW214934   2.049   1.187   6.598 -2.2577 -0.6429 -1.0404
 1101SOL     OW14935   1.264   3.941   6.523  0.4408  0.4010 -0.5040
 1101SOL    HW114936   1.270   4.031   6.489 -0.9163  1.2243  1.4306
 1101SOL    HW214937   1.318   3.909   6.451  0.5247 -1.0592  0.2023
 1102SOL     OW14938   1.150   0.133   0.617 -0.0507 -0.3650  0.0310
 1102SOL    HW114939   1.127   0.194   0.547  2.5121  0.0219 -0.4863
 1102SOL    HW214940   1.072   0.081   0.636  0.3973 -1.1046 -0.1402
 1103SOL     OW14941   4.196   3.723  10.922  0.2738 -0.4742  0.3220
 1103SOL    HW114942   4.119   3.690  10.876  0.4927  0.5421 -0.7577
 1103SOL    HW214943   4.168   3.796  10.977 -1.2884 -1.4906  0.8633
 1104SOL     OW14944   3.636   2.735   3.336 -0.3896  0.1233  0.1114
 1104SOL    HW114945   3.703   2.673   3.365 -1.6702 -1.1405  0.3687
 1104SOL    HW214946   3.646   2.734   3.241 -0.5262 -2.7959  0.1441
 1105SOL     OW14947   1.696   4.660  10.754  0.3352 -0.4598  0.4971
 1105SOL    HW114948   1.776   4.679  10.803  0.8277 -0.1218 -0.4356
 1105SOL    HW214949   1.624   4.679  10.814 -0.0995 -0.7209  0.0548
 1106SOL     OW14950   1.011   3.147   7.438 -0.2771  0.4603  0.0636
 1106SOL    HW114951   1.099   3.184   7.434 -0.0564  0.1416  2.0706
 1106SOL    HW214952   0.955   3.216   7.402 -0.3978  0.4120  0.1621
 1107SOL     OW14953   3.168   2.769   5.123  0.5838 -0.6289 -0.2276
 1107SOL    HW114954   3.086   2.748   5.169  0.3441  0.6853 -0.0585
 1107SOL    HW214955   3.142   2.840   5.064  1.8077  0.3502  0.4193
 1108SOL     OW14956   0.341   0.436  17.708  0.0952  0.0297 -0.0365
 1108SOL    HW114957   0.400   0.470   0.035  1.2567 -1.2935 -0.4024
 1108SOL    HW214958   0.257   0.450   0.014 -1.3282 -0.0234 -2.6467
 1109SOL     OW14959   1.123   3.294  14.723  0.0231  0.6596  0.4858
 1109SOL    HW114960   1.035   3.324  14.748 -0.5392 -0.1847 -0.5323
 1109SOL    HW214961   1.180   3.316  14.798  0.5075 -2.2621  0.9604
 1110SOL     OW14962   0.103   0.951   5.159 -0.5169  0.1451 -0.6958
 1110SOL    HW114963   0.164   0.989   5.095  0.7647 -1.1249 -0.2455
 1110SOL    HW214964   0.116   1.012   5.232 -0.5622 -0.4249 -0.2141
 1111SOL     OW14965   3.676   2.263   5.201  0.4745 -0.6054 -0.4746
 1111SOL    HW114966   3.756   2.239   5.155  0.6444 -2.1676  0.6405
 1111SOL    HW214967   3.619   2.196   5.164 -1.4072  0.2047  0.9395
 1112SOL     OW14968   3.266   3.330   5.995 -0.1656 -0.6613 -0.2800
 1112SOL    HW114969   3.334   3.296   5.936  1.3487 -0.0409  1.1282
 1112SOL    HW214970   3.278   3.425   6.000  2.0377 -1.0713  2.6504
 1113SOL     OW14971   4.150   0.952   3.499 -0.1586 -0.0572 -0.6177
 1113SOL    HW114972   4.100   0.893   3.556  0.1919 -0.4445 -0.7172
 1113SOL    HW214973   4.159   0.897   3.422 -0.3302 -1.0610  0.0778
 1114SOL     OW14974   3.158   2.564   2.651 -0.4997 -0.1975 -0.6581
 1114SOL    HW114975   3.194   2.579   2.563 -0.3509 -1.0177 -0.7344
 1114SOL    HW214976   3.239   2.570   2.702  0.1146 -0.4494 -1.6005
 1115SOL     OW14977   0.207   4.621  17.085  0.2722 -0.0953 -0.5037
 1115SOL    HW114978   0.223   4.569  17.007  2.3374  0.4681 -0.4751
 1115SOL    HW214979   0.195   4.558  17.156  0.7934 -1.6791 -1.8272
 1116SOL     OW14980   1.061   3.471   4.043 -0.4088 -0.0530  0.0734
 1116SOL    HW114981   1.128   3.479   4.111 -0.8533 -0.4228  0.5444
 1116SOL    HW214982   1.105   3.485   3.959  2.7860 -1.8560  1.4075
 1117SOL     OW14983   0.112   4.140   7.438  0.3061 -0.3454 -0.0729
 1117SOL    HW114984   0.203   4.110   7.430  0.3781 -0.3007  0.5803
 1117SOL    HW214985   0.060   4.061   7.421  2.1958 -1.5088 -0.5539
 1118SOL     OW14986   0.002   3.900   5.931 -0.0390  0.1309 -0.4869
 1118SOL    HW114987   4.697   3.958   5.866 -0.7948 -1.5692 -1.5278
 1118SOL    HW214988   0.088   3.942   5.938  0.6656 -1.6554  1.5184
 1119SOL     OW14989   0.353   2.746   5.861 -0.7781  0.1525 -0.1894
 1119SOL    HW114990   0.432   2.693   5.855  0.1018  1.3021  0.9956
 1119SOL    HW214991   0.336   2.794   5.780  0.0121  0.4516 -0.1823
 1120SOL     OW14992   1.020   1.518   2.214  0.0846 -0.6185  0.2245
 1120SOL    HW114993   0.966   1.509   2.292  0.0850 -1.4708  0.1266
 1120SOL    HW214994   1.084   1.449   2.230  0.9361  0.0980 -0.0802
 1121SOL     OW14995   0.894   0.862  14.868  0.1137  0.2846 -0.4027
 1121SOL    HW114996   0.823   0.802  14.846  1.4207 -1.4494  0.1338
 1121SOL    HW214997   0.878   0.936  14.809  0.8053  1.5874  1.0279
 1122SOL     OW14998   4.410   2.715   7.743 -0.2840  0.1023 -0.7351
 1122SOL    HW114999   4.445   2.644   7.689  0.9105  0.8865 -0.9953
 1122SOL    HW215000   4.317   2.708   7.721 -0.1770  2.9132 -2.1044
 1123SOL     OW15001   0.733   3.629   8.114 -0.8299  0.2811  0.0700
 1123SOL    HW115002   0.714   3.594   8.201 -0.9267 -1.2436 -0.5675
 1123SOL    HW215003   0.828   3.629   8.119 -0.6524 -1.1103 -3.0580
 1124SOL     OW15004   3.399   1.198  12.351  0.4442  0.4092  0.4327
 1124SOL    HW115005   3.408   1.252  12.430 -0.0007  1.9187 -0.5492
 1124SOL    HW215006   3.431   1.114  12.385 -0.4107  0.0105  0.2461
 1125SOL     OW15007   2.466   3.455  15.649  0.0570 -0.3864 -0.4972
 1125SOL    HW115008   2.553   3.424  15.626  0.0447 -1.2807  0.6249
 1125SOL    HW215009   2.415   3.385  15.608 -1.0029  1.3101 -2.0636
 1126SOL     OW15010   1.772   3.765   1.738 -0.2881 -0.4664  0.0895
 1126SOL    HW115011   1.710   3.817   1.789 -1.2918  0.6364 -2.2362
 1126SOL    HW215012   1.704   3.727   1.682  0.8221 -1.0806 -0.8506
 1127SOL     OW15013   2.007   0.339  15.248 -0.3157  0.1632 -0.1334
 1127SOL    HW115014   2.058   0.402  15.198  1.1467  0.2019  1.3996
 1127SOL    HW215015   2.062   0.262  15.235 -0.1316  0.6111 -1.8935
 1128SOL     OW15016   2.683   3.292   2.242  0.0175  0.2742 -0.4367
 1128SOL    HW115017   2.664   3.250   2.326  1.6420  1.7173  0.6560
 1128SOL    HW215018   2.640   3.239   2.175  1.7514 -0.6153 -0.8531
 1129SOL     OW15019   0.366   4.627  14.758 -0.4325 -0.3796  0.3216
 1129SOL    HW115020   0.373   4.704  14.702 -2.6023 -1.2886 -1.1818
 1129SOL    HW215021   0.283   4.642  14.803 -0.4026  1.8478 -0.3834
 1130SOL     OW15022   1.091   2.721   8.723 -0.1418  0.5084  0.0776
 1130SOL    HW115023   1.109   2.754   8.811 -1.3269  0.6704  0.2525
 1130SOL    HW215024   1.065   2.804   8.683  1.1457  0.9923  0.2199
 1131SOL     OW15025   2.821   2.911   9.277 -0.4838 -0.3326 -0.2086
 1131SOL    HW115026   2.892   2.851   9.299  0.3052 -0.0733 -2.0498
 1131SOL    HW215027   2.761   2.900   9.350  0.4489 -0.0395  0.5967
 1132SOL     OW15028   0.810   1.887  16.092 -0.0445  0.4244  0.1535
 1132SOL    HW115029   0.775   1.969  16.056  0.0418  0.4933  0.2293
 1132SOL    HW215030   0.820   1.824  16.020 -0.9074 -0.7276  1.0355
 1133SOL     OW15031   0.954   1.617   4.890 -0.1418 -0.4420  0.0175
 1133SOL    HW115032   0.950   1.532   4.935  0.4421 -0.4250  0.0951
 1133SOL    HW215033   0.875   1.655   4.928 -0.2192 -0.6820  0.1001
 1134SOL     OW15034   2.598   2.559   6.248  0.3405 -0.0092 -0.2538
 1134SOL    HW115035   2.601   2.496   6.320  3.1409 -1.0490 -1.3077
 1134SOL    HW215036   2.595   2.503   6.171 -2.2530  1.3716 -1.1711
 1135SOL     OW15037   1.440   2.899   3.442 -0.2753 -0.5069  0.1560
 1135SOL    HW115038   1.351   2.881   3.473 -0.8134  2.0304  0.1142
 1135SOL    HW215039   1.466   2.986   3.473  1.5669 -2.2959  3.7008
 1136SOL     OW15040   2.047   0.990   3.203  0.0597  0.0440  0.2802
 1136SOL    HW115041   1.954   0.994   3.226  0.2956  1.9252  0.8395
 1136SOL    HW215042   2.042   0.951   3.116 -2.3115  1.2399 -0.1139
 1137SOL     OW15043   1.119   0.561   8.029  0.2445  0.2980  0.0822
 1137SOL    HW115044   1.061   0.514   8.089  0.8751  0.0303  0.4874
 1137SOL    HW215045   1.081   0.542   7.944 -3.5693  3.1183  1.1492
 1138SOL     OW15046   4.501   2.578   8.714  0.4782 -0.2212 -0.1428
 1138SOL    HW115047   4.523   2.552   8.624  1.8902  0.1639  0.0802
 1138SOL    HW215048   4.556   2.657   8.716  0.0959  0.0975 -1.7210
 1139SOL     OW15049   4.029   0.289   8.990  0.1546 -0.0483 -0.8997
 1139SOL    HW115050   4.105   0.231   8.993 -1.8126 -2.5782  0.3300
 1139SOL    HW215051   4.048   0.355   8.924  1.9158  1.1550  0.8321
 1140SOL     OW15052   1.405   0.371   8.285  0.1073 -0.4659  0.2559
 1140SOL    HW115053   1.472   0.342   8.223  0.3888 -2.6547  1.5412
 1140SOL    HW215054   1.447   0.438   8.338  2.4318 -1.8395  0.1663
 1141SOL     OW15055   0.283   1.545   9.003 -0.2082 -0.1404  0.3340
 1141SOL    HW115056   0.243   1.594   9.075 -0.5891 -0.1595  0.1380
 1141SOL    HW215057   0.222   1.559   8.931  0.6761 -0.7953 -0.5434
 1142SOL     OW15058   1.136   0.661   3.088  0.3291  0.5409 -0.2778
 1142SOL    HW115059   1.132   0.754   3.110  1.4031  1.2932 -3.1629
 1142SOL    HW215060   1.161   0.626   3.173  0.1841  1.8970  0.3168
 1143SOL     OW15061   2.501   1.146   8.926  0.6574  0.2669 -0.0217
 1143SOL    HW115062   2.485   1.083   8.996  3.4596  0.5178  0.8608
 1143SOL    HW215063   2.561   1.204   8.972  0.8059  0.9131 -1.0383
 1144SOL     OW15064   0.940   3.600   3.657  0.3304 -0.4770 -0.5277
 1144SOL    HW115065   0.982   3.574   3.575  2.2960  2.5297 -0.4901
 1144SOL    HW215066   0.849   3.590   3.631 -0.1038  0.0381  0.8034
 1145SOL     OW15067   1.778   1.209   9.682  0.2591  0.5989 -0.2739
 1145SOL    HW115068   1.819   1.272   9.623  0.5598  1.4978  0.8769
 1145SOL    HW215069   1.721   1.159   9.625  2.3466 -1.2211 -0.7670
 1146SOL     OW15070   3.906   0.207   8.414 -0.2763 -0.2393  0.2708
 1146SOL    HW115071   3.889   0.115   8.392 -2.2439 -0.3357  2.2559
 1146SOL    HW215072   4.001   0.204   8.407 -0.4703 -3.2380 -1.3747
 1147SOL     OW15073   1.298   3.939   5.833  0.1191  0.6362  0.4329
 1147SOL    HW115074   1.221   3.996   5.843 -0.0884  0.1425  1.6599
 1147SOL    HW215075   1.317   3.912   5.923  0.4470  0.7053  0.3837
 1148SOL     OW15076   2.931   3.542   5.257 -0.3053 -0.2139 -0.3753
 1148SOL    HW115077   3.005   3.575   5.307  0.3597 -1.3854 -0.5783
 1148SOL    HW215078   2.896   3.481   5.323  1.7776 -0.1921  0.7403
 1149SOL     OW15079   2.452   3.033   2.112  0.1162 -0.1519 -0.5891
 1149SOL    HW115080   2.538   2.992   2.110  0.3065  0.1587  1.0875
 1149SOL    HW215081   2.425   3.009   2.200  0.2146 -2.9029 -1.2967
 1150SOL     OW15082   1.168   0.995   2.776  0.3560 -0.5457  0.8031
 1150SOL    HW115083   1.129   0.909   2.763 -2.7689  0.7384  1.6415
 1150SOL    HW215084   1.186   1.002   2.870  1.4935 -0.5503  0.5784
 1151SOL     OW15085   0.619   2.502   8.705  0.2586 -0.4006 -0.8087
 1151SOL    HW115086   0.703   2.526   8.742 -0.4734 -0.5452  0.9599
 1151SOL    HW215087   0.627   2.496   8.610  1.2667 -0.7752 -0.6933
 1152SOL     OW15088   0.452   0.706   6.254  0.4748 -0.2605 -0.0162
 1152SOL    HW115089   0.379   0.717   6.315 -0.7940 -3.2632 -0.9485
 1152SOL    HW215090   0.506   0.638   6.295  1.1996 -0.2331 -0.9211
 1153SOL     OW15091   3.785   4.292   8.091  0.2647 -0.2135  0.4550
 1153SOL    HW115092   3.859   4.241   8.060  0.2466  0.7808 -1.2176
 1153SOL    HW215093   3.738   4.231   8.148  0.2827 -0.7140 -0.0713
 1154SOL     OW15094   0.275   4.366   0.164 -0.0615  0.2894 -1.4093
 1154SOL    HW115095   0.221   4.422   0.218  0.0223 -1.7291  0.7627
 1154SOL    HW215096   0.357   4.366   0.214  0.1309  1.0033 -1.7345
 1155SOL     OW15097   2.407   0.517   1.632 -0.1817 -0.5557  0.1712
 1155SOL    HW115098   2.374   0.472   1.554 -0.2277 -1.4349  0.6989
 1155SOL    HW215099   2.325   0.558   1.660 -1.0844 -1.3660 -1.2676
 1156SOL     OW15100   4.500   0.970   3.341 -0.0104  0.2212 -0.1328
 1156SOL    HW115101   4.580   0.931   3.374 -1.3700 -2.1734  0.3307
 1156SOL    HW215102   4.449   0.889   3.341 -1.7896  1.3303  1.3118
 1157SOL     OW15103   3.811   3.405   4.192  0.2041  0.0521 -0.2159
 1157SOL    HW115104   3.803   3.403   4.096 -1.2920  0.1838 -0.0907
 1157SOL    HW215105   3.892   3.455   4.202  0.1901  0.1455 -0.5776
 1158SOL     OW15106   2.222   1.731   2.341 -0.0094 -0.3476  0.0220
 1158SOL    HW115107   2.284   1.794   2.379 -0.0587 -0.2264 -0.0991
 1158SOL    HW215108   2.257   1.708   2.255  1.2777  1.4811  0.0476
 1159SOL     OW15109   0.805   1.404   3.354 -0.3932 -0.3014  0.9070
 1159SOL    HW115110   0.797   1.499   3.343 -0.3525 -0.3464  0.5115
 1159SOL    HW215111   0.883   1.396   3.298  1.8213  0.3834  3.8790
 1160SOL     OW15112   4.421   0.747   1.070 -0.2089  0.1840  0.1184
 1160SOL    HW115113   4.359   0.747   0.997 -0.3185 -1.4113  0.2198
 1160SOL    HW215114   4.472   0.823   1.041 -0.9223  0.7423  0.3197
 1161SOL     OW15115   2.814   1.193   6.714  0.4060 -0.0652 -0.8660
 1161SOL    HW115116   2.792   1.118   6.769  2.2436 -1.4911 -2.0847
 1161SOL    HW215117   2.906   1.178   6.692  0.6221  1.1276 -0.8011
 1162SOL     OW15118   1.806   2.937   4.708 -0.3872  0.4801  0.2178
 1162SOL    HW115119   1.891   2.955   4.668  0.5331  0.9597  2.3613
 1162SOL    HW215120   1.833   2.874   4.775  0.8139  0.4801 -0.2803
 1163SOL     OW15121   3.436   1.386  16.721 -0.0008 -0.4627  0.3976
 1163SOL    HW115122   3.500   1.370  16.791  2.0840  0.1894 -1.3469
 1163SOL    HW215123   3.442   1.481  16.723  0.4069 -0.4752 -0.2196
 1164SOL     OW15124   2.712   0.938   8.146  0.5005  0.4452 -0.5133
 1164SOL    HW115125   2.637   0.977   8.190  0.2335 -3.7014  2.6692
 1164SOL    HW215126   2.694   0.844   8.153  0.9739  0.4199  0.3907
 1165SOL     OW15127   0.103   1.651   9.827 -0.1557 -0.3045 -0.3952
 1165SOL    HW115128   0.086   1.566   9.868  1.4217 -0.7895 -0.7143
 1165SOL    HW215129   0.196   1.644   9.804  0.1608 -1.0220  1.1242
 1166SOL     OW15130   4.435   4.519   0.979 -0.0058  0.2304 -0.5067
 1166SOL    HW115131   4.437   4.454   1.049 -0.3035  0.0033 -0.7087
 1166SOL    HW215132   4.388   4.473   0.910 -2.5816  2.1947 -0.0507
 1167SOL     OW15133   3.822   2.346  12.964 -0.0532 -0.6568 -0.2208
 1167SOL    HW115134   3.746   2.293  12.988  1.1206 -3.8455 -3.7462
 1167SOL    HW215135   3.874   2.277  12.923 -1.2025 -1.0717 -0.9722
 1168SOL     OW15136   1.269   1.591   4.068 -0.2247  0.3493 -0.0434
 1168SOL    HW115137   1.233   1.668   4.113  0.4092 -0.8797  2.5610
 1168SOL    HW215138   1.359   1.622   4.063  0.4517 -1.8664 -1.6481
 1169SOL     OW15139   4.233   1.953   5.559  0.0323 -0.0032  0.1831
 1169SOL    HW115140   4.218   1.880   5.499 -1.1242 -0.1476  0.6445
 1169SOL    HW215141   4.312   1.927   5.607  0.4085  0.9640  0.0981
 1170SOL     OW15142   0.426   4.281   5.685  0.1419 -0.0836  0.1545
 1170SOL    HW115143   0.418   4.320   5.772 -0.1897 -0.2089  0.1777
 1170SOL    HW215144   0.452   4.191   5.703 -3.0163 -1.1594 -0.8020
 1171SOL     OW15145   2.949   2.187   1.038 -0.1316  0.0783  0.1356
 1171SOL    HW115146   2.909   2.198   0.951 -0.2495 -0.8669  0.0726
 1171SOL    HW215147   2.922   2.095   1.045  2.1333 -0.6955 -1.1876
 1172SOL     OW15148   4.098   3.982   4.645 -0.6195  0.0639  0.4881
 1172SOL    HW115149   4.135   3.903   4.606 -0.5527  1.2354 -1.8356
 1172SOL    HW215150   4.009   3.954   4.665 -1.1488  1.6067  0.2544
 1173SOL     OW15151   0.814   1.461   0.794 -0.1404 -0.2457  0.2706
 1173SOL    HW115152   0.895   1.513   0.799  0.3487 -0.9254 -0.4882
 1173SOL    HW215153   0.762   1.498   0.864  1.7767 -1.3457  2.2724
 1174SOL     OW15154   0.778   1.438   3.873  0.1475 -0.4639  0.0398
 1174SOL    HW115155   0.689   1.442   3.840 -0.3530 -0.1971  1.4274
 1174SOL    HW215156   0.775   1.395   3.958 -1.1173  2.2921  1.3865
 1175SOL     OW15157   1.346   3.874   3.911 -0.7327 -0.0934  0.1631
 1175SOL    HW115158   1.251   3.879   3.905 -0.5223  2.1105 -1.2829
 1175SOL    HW215159   1.352   3.865   4.006 -1.2266 -1.9984  0.0132
 1176SOL     OW15160   1.072   2.062   7.135 -0.1859  0.1559  0.5404
 1176SOL    HW115161   1.040   2.153   7.130  1.2166  0.5682 -0.8705
 1176SOL    HW215162   1.164   2.085   7.150 -0.3618  1.2255  0.0362
 1177SOL     OW15163   3.926   2.272  15.549 -1.1243  0.0386 -1.3653
 1177SOL    HW115164   3.843   2.244  15.512 -1.3419  0.3517 -1.1109
 1177SOL    HW215165   3.975   2.286  15.468 -3.0079 -1.5587 -2.7809
 1178SOL     OW15166   4.374   0.252   8.663  0.0730 -0.1351 -0.1949
 1178SOL    HW115167   4.459   0.211   8.671 -0.4132 -0.7345  1.9085
 1178SOL    HW215168   4.386   0.271   8.570  2.7732  1.6411  0.5280
 1179SOL     OW15169   2.645   1.086  16.964 -0.4006 -0.5159 -0.8170
 1179SOL    HW115170   2.572   1.026  16.946 -1.8936  0.6859  1.2572
 1179SOL    HW215171   2.656   1.119  16.875 -0.5511 -2.8971 -1.7159
 1180SOL     OW15172   0.272   3.728   2.718  0.1289 -0.3711  0.4016
 1180SOL    HW115173   0.267   3.759   2.808 -0.6600  0.7864 -0.0526
 1180SOL    HW215174   0.195   3.671   2.713  0.1313 -0.5181  2.2264
 1181SOL     OW15175   2.923   3.062   2.816 -0.1282  0.2074 -0.1402
 1181SOL    HW115176   2.849   3.046   2.757  0.5098 -1.9906 -0.3549
 1181SOL    HW215177   2.882   3.054   2.901  3.0223  0.7759  1.4443
 1182SOL     OW15178   4.286   2.530   6.543  0.0312  0.1818 -0.3340
 1182SOL    HW115179   4.288   2.544   6.448  0.6422 -0.4963 -0.4212
 1182SOL    HW215180   4.200   2.489   6.553 -1.2188  2.1437 -2.9611
 1183SOL     OW15181   4.541   0.320  11.363  0.7460 -0.1867 -0.1860
 1183SOL    HW115182   4.558   0.352  11.452  0.6388 -0.4892 -0.0541
 1183SOL    HW215183   4.446   0.335  11.365  0.4789 -1.7143 -1.2546
 1184SOL     OW15184   1.824   3.982  13.273 -0.0657 -0.3776 -0.2286
 1184SOL    HW115185   1.826   4.025  13.358 -0.7173 -1.3478  0.2832
 1184SOL    HW215186   1.879   4.045  13.227 -1.9289 -0.4059 -2.4963
 1185SOL     OW15187   3.052   1.845   6.343  0.4279 -0.3790 -0.5317
 1185SOL    HW115188   3.115   1.879   6.406 -0.3480 -0.0678  0.0800
 1185SOL    HW215189   3.060   1.750   6.343 -0.5788 -0.4774  2.6597
 1186SOL     OW15190   0.462   3.176  16.126  0.1024  0.4688 -0.0688
 1186SOL    HW115191   0.490   3.268  16.133  0.2120  0.4972 -0.9818
 1186SOL    HW215192   0.467   3.142  16.037  1.4520  0.6788 -0.0731
 1187SOL     OW15193   4.380   0.428   9.371  0.1442 -0.2310 -0.1062
 1187SOL    HW115194   4.433   0.498   9.334 -1.0358 -0.2874 -1.8869
 1187SOL    HW215195   4.330   0.493   9.420 -1.6190 -0.6685 -1.3055
 1188SOL     OW15196   1.110   4.059   1.990 -0.2535 -0.8519 -0.3581
 1188SOL    HW115197   1.061   3.996   2.042 -2.2279  0.9101 -0.0781
 1188SOL    HW215198   1.060   4.055   1.908  0.4516  2.0853 -0.9430
 1189SOL     OW15199   3.981   0.722  12.692  0.0225  0.1933 -0.3366
 1189SOL    HW115200   4.045   0.735  12.763 -0.5928  4.0164 -0.4799
 1189SOL    HW215201   4.048   0.706  12.626  0.7895  0.1857  0.4348
 1190SOL     OW15202   4.203   3.775   4.496  0.4318  0.3405 -0.1152
 1190SOL    HW115203   4.270   3.819   4.443 -2.5623  2.6362 -1.9770
 1190SOL    HW215204   4.253   3.728   4.563 -1.4255 -1.6325 -0.1378
 1191SOL     OW15205   1.211   3.951  15.778  0.4084 -0.1713 -0.2747
 1191SOL    HW115206   1.246   3.960  15.866  0.5951 -0.8810 -0.2727
 1191SOL    HW215207   1.119   3.947  15.804  0.2620  3.1197 -0.4069
 1192SOL     OW15208   4.261   2.426   8.564  0.0253  0.1416 -0.4806
 1192SOL    HW115209   4.238   2.462   8.650  0.4462  1.0991 -0.7675
 1192SOL    HW215210   4.300   2.502   8.521 -0.2841  1.6367  1.8616
 1193SOL     OW15211   1.809   1.320   6.419 -0.1493 -0.2352 -0.7827
 1193SOL    HW115212   1.731   1.357   6.460 -0.7819 -2.6866  0.2166
 1193SOL    HW215213   1.871   1.298   6.489 -1.0487 -0.5261 -0.0777
 1194SOL     OW15214   1.875   0.141   6.399 -0.1484  0.3988 -0.2975
 1194SOL    HW115215   1.923   0.068   6.361  0.7483  0.9464 -0.2112
 1194SOL    HW215216   1.860   0.107   6.487  1.7876  1.0225  0.2885
 1195SOL     OW15217   1.165   1.104  11.248 -0.0758  0.5294 -0.0473
 1195SOL    HW115218   1.096   1.167  11.229  0.7099  0.3098 -3.5850
 1195SOL    HW215219   1.200   1.093  11.160 -1.4132 -1.1264 -0.3722
 1196SOL     OW15220   4.701   0.812  10.623  0.1049  0.3770 -0.0862
 1196SOL    HW115221   0.055   0.815  10.659 -0.0204 -0.8854  0.3369
 1196SOL    HW215222   4.679   0.719  10.631  1.3227  0.2501  1.8421
 1197SOL     OW15223   3.517   4.057   7.334  0.0312 -0.1624  0.0460
 1197SOL    HW115224   3.551   3.992   7.273 -1.9451 -1.0583 -0.0968
 1197SOL    HW215225   3.469   4.121   7.281  3.0698  1.5755 -0.6362
 1198SOL     OW15226   4.184   1.576   7.745  0.0347  0.2844  0.8772
 1198SOL    HW115227   4.089   1.563   7.750 -0.2051  2.2432  1.3424
 1198SOL    HW215228   4.219   1.499   7.700  1.6357  0.2232  2.2328
 1199SOL     OW15229   1.716   1.450   2.945 -0.1528 -0.1683 -0.9478
 1199SOL    HW115230   1.683   1.360   2.951 -1.6084  0.5217  1.4796
 1199SOL    HW215231   1.804   1.441   2.907  0.0521  0.1185 -0.5412
 1200SOL     OW15232   2.908   3.746   3.332  0.1021  0.0409 -0.6405
 1200SOL    HW115233   2.867   3.704   3.256 -2.6621  2.0432 -0.2617
 1200SOL    HW215234   2.952   3.825   3.299 -0.8603  1.1930  0.8215
 1201SOL     OW15235   1.176   0.318   2.739 -0.1628 -0.2408  0.2953
 1201SOL    HW115236   1.142   0.388   2.795 -2.2145  0.3273 -1.6633
 1201SOL    HW215237   1.217   0.268   2.810 -2.6351 -0.3711  1.5955
 1202SOL     OW15238   2.130   2.105   6.942  0.2532 -0.5912 -0.5098
 1202SOL    HW115239   2.217   2.138   6.964  0.3359 -0.0413 -1.6840
 1202SOL    HW215240   2.130   2.016   6.979  0.2505 -0.0594  0.7766
 1203SOL     OW15241   2.378   3.143  16.668 -0.1180  0.6725  0.3293
 1203SOL    HW115242   2.428   3.068  16.635 -0.5224  1.8717 -3.0311
 1203SOL    HW215243   2.417   3.216  16.620 -0.9034  0.2174 -0.9859
 1204SOL     OW15244   4.446   3.294   5.248  0.1161 -0.3160  0.4384
 1204SOL    HW115245   4.370   3.237   5.263 -2.0181  2.1808 -0.9361
 1204SOL    HW215246   4.460   3.307   5.342 -0.7665  0.9021  0.4027
 1205SOL     OW15247   1.140   1.825   3.969  0.3402 -0.1909  0.3219
 1205SOL    HW115248   1.165   1.862   3.884 -0.6328  1.0910  0.5960
 1205SOL    HW215249   1.081   1.753   3.950  0.0692 -0.0211  0.5209
 1206SOL     OW15250   1.671   2.577   0.986 -0.4554  0.1326  0.2327
 1206SOL    HW115251   1.634   2.610   0.904  0.2681 -0.7299 -0.4468
 1206SOL    HW215252   1.614   2.500   0.989  2.0963 -1.6856  1.6858
 1207SOL     OW15253   1.495   3.409   5.850 -0.2899  0.4549  0.2663
 1207SOL    HW115254   1.458   3.495   5.832 -0.0811  0.1391 -1.7191
 1207SOL    HW215255   1.422   3.348   5.849 -2.4335  3.0593  0.2909
 1208SOL     OW15256   2.767   3.360   7.555  0.5306 -0.1759 -0.7987
 1208SOL    HW115257   2.706   3.351   7.629  2.7700 -0.8770  0.9408
 1208SOL    HW215258   2.825   3.285   7.570 -0.1076 -0.4095  0.5304
 1209SOL     OW15259   4.251   4.122  12.746 -0.0200 -0.3998  0.2359
 1209SOL    HW115260   4.292   4.203  12.774  0.4928  0.0653 -1.8500
 1209SOL    HW215261   4.158   4.136  12.765 -0.0930 -1.3193  0.5693
 1210SOL     OW15262   2.639   2.739  11.759  0.2119 -0.0772  0.0370
 1210SOL    HW115263   2.621   2.764  11.849  1.2862  1.0038 -0.0428
 1210SOL    HW215264   2.583   2.795  11.705 -0.6107 -0.0186  0.9539
 1211SOL     OW15265   3.381   0.856   9.032  1.2829  0.8552  0.7717
 1211SOL    HW115266   3.466   0.864   9.077  3.3121  2.5386 -3.3420
 1211SOL    HW215267   3.395   0.776   8.982 -0.1277  1.9090 -1.2713
 1212SOL     OW15268   0.426   1.674   4.512  0.6808  0.0974  0.2197
 1212SOL    HW115269   0.430   1.614   4.437  1.7046  1.0839 -0.5261
 1212SOL    HW215270   0.521   1.675   4.526  1.0107  0.3097 -1.9057
 1213SOL     OW15271   2.554   2.571   8.112 -0.2364  0.1128 -0.3611
 1213SOL    HW115272   2.558   2.553   8.206 -0.3586  2.3173  0.0643
 1213SOL    HW215273   2.644   2.546   8.093 -0.0115  0.7559 -0.1408
 1214SOL     OW15274   0.015   2.958  10.401 -0.3991  0.5778  0.1401
 1214SOL    HW115275   0.053   2.889  10.347 -0.6807  0.4188  0.1427
 1214SOL    HW215276   0.074   2.968  10.475 -0.4754 -1.4379  0.4807
 1215SOL     OW15277   1.868   0.909   4.969  0.1705 -0.2691  0.1873
 1215SOL    HW115278   1.846   0.900   4.876 -0.6575 -0.4969  0.4137
 1215SOL    HW215279   1.810   0.840   4.998 -0.8309 -0.2789 -1.8157
 1216SOL     OW15280   1.655   2.981  14.653 -0.1178  0.0547  0.6116
 1216SOL    HW115281   1.715   2.908  14.670  0.8617  0.7975  0.3249
 1216SOL    HW215282   1.616   2.961  14.568 -0.7905  0.4331  0.8266
 1217SOL     OW15283   1.799   0.754  13.912 -0.1957 -0.2079  0.3106
 1217SOL    HW115284   1.779   0.695  13.839  0.5904 -1.2234  0.9296
 1217SOL    HW215285   1.803   0.837  13.865  2.6785 -0.0167  0.9128
 1218SOL     OW15286   1.501   1.713   3.448 -0.0310  0.3346 -0.3241
 1218SOL    HW115287   1.424   1.664   3.475  1.4994 -0.6249  2.3682
 1218SOL    HW215288   1.571   1.648   3.437 -0.4997 -0.2870  0.3280
 1219SOL     OW15289   4.437   3.264   1.979 -0.6337 -0.1168 -0.3947
 1219SOL    HW115290   4.389   3.269   2.061  0.9750 -0.6606  0.5787
 1219SOL    HW215291   4.482   3.183   2.000  0.5686  1.1650  1.9609
 1220SOL     OW15292   1.136   3.719   6.609 -0.4557  0.2626  0.0199
 1220SOL    HW115293   1.043   3.722   6.632 -0.8835  0.9026 -1.7239
 1220SOL    HW215294   1.158   3.807   6.580  0.2071 -0.0257 -0.3571
 1221SOL     OW15295   1.817   0.200  12.975 -0.2009  0.2771  0.6362
 1221SOL    HW115296   1.744   0.245  13.017 -1.4160 -1.8805  0.8263
 1221SOL    HW215297   1.802   0.111  13.006  1.2636 -0.5087 -0.8585
 1222SOL     OW15298   2.316   3.013   4.873  0.3737 -0.2380  0.1219
 1222SOL    HW115299   2.375   2.952   4.828  0.0393  0.9773 -1.9474
 1222SOL    HW215300   2.235   2.962   4.879  0.1854 -0.0125 -0.5028
 1223SOL     OW15301   4.380   3.753   9.942 -0.3310 -0.3039 -0.4450
 1223SOL    HW115302   4.315   3.806   9.896 -1.8204 -2.6285 -1.0358
 1223SOL    HW215303   4.464   3.782   9.906  0.9712 -1.4775  1.6307
 1224SOL     OW15304   2.861   1.808   1.986 -0.0394  0.3425  0.4329
 1224SOL    HW115305   2.769   1.799   2.011  0.1292 -0.8660  0.6040
 1224SOL    HW215306   2.893   1.788   2.074 -1.5411  0.7309  1.0714
 1225SOL     OW15307   2.528   4.625   5.387 -0.7585 -0.3583 -0.0535
 1225SOL    HW115308   2.574   4.542   5.369  0.3713  0.4884 -1.0640
 1225SOL    HW215309   2.575   4.657   5.463 -2.8402 -2.5164  2.1460
 1226SOL     OW15310   0.816   4.454   6.966 -0.0588  0.1097 -0.2384
 1226SOL    HW115311   0.857   4.369   6.953 -1.5633 -0.4303 -1.3208
 1226SOL    HW215312   0.871   4.500   7.031  0.2095  1.0646 -1.1417
 1227SOL     OW15313   1.560   0.060  13.904  0.1836  0.3904  0.4104
 1227SOL    HW115314   1.634   0.001  13.920  0.8474  1.2014  0.3737
 1227SOL    HW215315   1.495   0.030  13.968 -1.5676 -0.0041 -1.5738
 1228SOL     OW15316   3.132   0.226  14.383  0.6679  0.2069 -0.1116
 1228SOL    HW115317   3.090   0.305  14.351  1.1718  1.2438  1.7581
 1228SOL    HW215318   3.168   0.258  14.466  1.3841 -0.4262 -0.1748
 1229SOL     OW15319   4.552   3.359  16.227 -0.0818 -0.1681  0.2606
 1229SOL    HW115320   4.477   3.365  16.286  0.9045  0.3586  1.4595
 1229SOL    HW215321   4.540   3.440  16.179 -0.1599 -0.5009 -0.2813
 1230SOL     OW15322   2.075   1.511  13.101  0.4285 -0.4966 -0.0579
 1230SOL    HW115323   2.045   1.549  13.018  1.4419 -0.5275 -0.4364
 1230SOL    HW215324   2.163   1.489  13.069  1.1412  0.4518  1.2663
 1231SOL     OW15325   4.579   4.035   7.819  0.1431  0.1470 -0.3040
 1231SOL    HW115326   4.619   4.068   7.899  0.5897  1.3219 -1.0166
 1231SOL    HW215327   4.555   3.946   7.846  1.9398 -0.3628 -0.3484
 1232SOL     OW15328   2.670   4.386   4.101 -0.0705  0.0027  0.4678
 1232SOL    HW115329   2.738   4.453   4.100  0.5930 -0.6571  1.4194
 1232SOL    HW215330   2.620   4.407   4.022 -0.1727 -0.1294  0.4968
 1233SOL     OW15331   2.863   3.046   7.946  0.3720  0.5654  0.2164
 1233SOL    HW115332   2.869   2.952   7.927 -2.0937  0.4048  0.1946
 1233SOL    HW215333   2.948   3.065   7.986  0.3876  0.2190  0.3504
 1234SOL     OW15334   0.904   4.123   3.875  0.0024 -0.6312 -0.0001
 1234SOL    HW115335   0.955   4.092   3.950  1.9004  0.0166 -1.0594
 1234SOL    HW215336   0.945   4.209   3.880  1.1484 -1.0937 -1.7382
 1235SOL     OW15337   4.490   1.233   4.252  0.2804 -0.0849 -0.5891
 1235SOL    HW115338   4.570   1.264   4.209 -0.2957  2.6028  0.3002
 1235SOL    HW215339   4.508   1.257   4.343 -2.4309  0.6311 -0.2529
 1236SOL     OW15340   2.575   1.097   2.927  0.2526 -0.3318  0.7642
 1236SOL    HW115341   2.528   1.061   3.002  1.6268 -0.9119  1.3263
 1236SOL    HW215342   2.663   1.067   2.947  0.0601 -1.5365 -0.2053
 1237SOL     OW15343   3.981   2.833   4.655  0.5896  0.0829  0.0838
 1237SOL    HW115344   4.052   2.817   4.716  1.9037  1.0639 -1.1902
 1237SOL    HW215345   3.905   2.806   4.707  0.1535  0.6053 -0.2739
 1238SOL     OW15346   2.204   2.965  16.461 -0.6331 -0.6236 -0.1079
 1238SOL    HW115347   2.289   2.953  16.502  0.4390  0.6234 -1.9338
 1238SOL    HW215348   2.171   3.043  16.506 -1.5103 -0.2208 -1.4395
 1239SOL     OW15349   4.421   2.913   2.467  0.2838 -0.3078  0.5161
 1239SOL    HW115350   4.409   2.904   2.372  1.0029  0.6446  0.3387
 1239SOL    HW215351   4.338   2.956   2.488 -0.4417 -1.1298 -0.5970
 1240SOL     OW15352   1.184   1.459  17.322 -0.6851  0.4637 -0.5128
 1240SOL    HW115353   1.265   1.409  17.335 -1.0317  0.4081  1.4372
 1240SOL    HW215354   1.117   1.392  17.334  1.0404 -1.7657 -3.3176
 1241SOL     OW15355   3.827   3.234   4.717 -0.2745  0.4206  0.0546
 1241SOL    HW115356   3.897   3.181   4.680 -1.2842 -1.1318  0.3772
 1241SOL    HW215357   3.855   3.324   4.697  1.5471  0.3553  2.3815
 1242SOL     OW15358   2.321   1.421   1.275 -0.2984 -0.2173 -0.2928
 1242SOL    HW115359   2.237   1.397   1.315 -0.6251  0.6393 -0.4613
 1242SOL    HW215360   2.339   1.337   1.233 -0.2649 -1.1429  1.5703
 1243SOL     OW15361   1.531   1.434   1.102 -0.3242 -0.5721 -0.0590
 1243SOL    HW115362   1.471   1.495   1.144 -1.0305 -1.4195  0.1722
 1243SOL    HW215363   1.615   1.478   1.110 -0.4744 -0.4597  0.8490
 1244SOL     OW15364   3.632   0.347   7.868  0.3725  0.2866 -0.2167
 1244SOL    HW115365   3.621   0.404   7.792  0.7679  1.9690  0.9629
 1244SOL    HW215366   3.574   0.277   7.839  0.6283  1.3900 -3.4319
 1245SOL     OW15367   4.274   3.746   7.483 -0.0652  0.0178  0.1492
 1245SOL    HW115368   4.345   3.771   7.543 -0.1430  0.7484 -0.0538
 1245SOL    HW215369   4.322   3.710   7.409  0.7248  0.1579  0.5859
 1246SOL     OW15370   1.608   2.712   3.613 -0.1469 -0.6519  0.2394
 1246SOL    HW115371   1.555   2.787   3.585  2.1972  0.9524  0.0625
 1246SOL    HW215372   1.583   2.708   3.705  0.5396 -0.8215  0.4237
 1247SOL     OW15373   1.224   1.834  17.238  0.2639 -0.4848 -0.2152
 1247SOL    HW115374   1.141   1.800  17.205 -0.8971  2.6529 -0.5515
 1247SOL    HW215375   1.289   1.770  17.207 -0.1521 -1.1002  0.1990
 1248SOL     OW15376   2.568   4.274   8.081  0.4094 -0.4984 -0.1721
 1248SOL    HW115377   2.657   4.260   8.113  0.2305  1.8030  1.3695
 1248SOL    HW215378   2.515   4.274   8.161 -1.0372 -0.4145 -1.1101
 1249SOL     OW15379   0.791   2.977  12.736 -0.4725 -0.0241 -0.1405
 1249SOL    HW115380   0.728   2.980  12.664 -0.6905 -0.7245  0.0203
 1249SOL    HW215381   0.829   3.065  12.730 -0.6717 -0.1055 -2.8707
 1250SOL     OW15382   1.703   2.977   2.651 -0.5266 -0.2921 -0.2183
 1250SOL    HW115383   1.644   2.962   2.578 -1.7426  2.5850  0.1889
 1250SOL    HW215384   1.779   3.016   2.609 -2.2506  2.5619 -0.6251
 1251SOL     OW15385   1.691   3.285  16.910 -0.5728  0.1961  0.3417
 1251SOL    HW115386   1.653   3.263  16.995  0.3658 -0.2246  0.6505
 1251SOL    HW215387   1.767   3.337  16.933  0.2249 -1.3019  1.1164
 1252SOL     OW15388   4.190   1.528   4.942 -0.0141 -0.4147  0.4277
 1252SOL    HW115389   4.274   1.564   4.911 -0.9249  1.5319  0.2495
 1252SOL    HW215390   4.194   1.538   5.037  2.2567  0.0202  0.3010
 1253SOL     OW15391   3.857   3.227   2.555 -0.2913 -0.1478  0.2336
 1253SOL    HW115392   3.791   3.292   2.534  0.4428  1.0031  1.4948
 1253SOL    HW215393   3.844   3.164   2.484  0.3509 -1.5876  1.3954
 1254SOL     OW15394   2.608   1.268  14.715  0.2501  0.8845  0.0126
 1254SOL    HW115395   2.571   1.299  14.798 -1.9825 -2.5212  0.2771
 1254SOL    HW215396   2.700   1.278  14.739  0.9971 -1.5771 -1.9312
 1255SOL     OW15397   2.162   0.135   2.725  0.6952  0.2925  0.6107
 1255SOL    HW115398   2.080   0.179   2.702  0.9397  0.2758 -0.2631
 1255SOL    HW215399   2.197   0.107   2.641  2.6506  0.4678  1.3789
 1256SOL     OW15400   1.300   3.250   5.349  0.2604  0.0974 -0.3502
 1256SOL    HW115401   1.383   3.273   5.392 -0.0526  0.8442 -0.1413
 1256SOL    HW215402   1.245   3.328   5.347 -1.4561 -1.0681  2.4983
 1257SOL     OW15403   2.486   3.888   4.721 -0.0671 -0.1479  0.3677
 1257SOL    HW115404   2.571   3.924   4.746  1.3310 -1.0977 -2.9655
 1257SOL    HW215405   2.444   3.926   4.797  1.2300 -2.5327  2.2830
 1258SOL     OW15406   4.618   1.321  11.633  0.1213 -0.0786  0.0953
 1258SOL    HW115407   4.551   1.339  11.699  1.0139 -0.6733  1.1537
 1258SOL    HW215408   4.693   1.311  11.692 -0.2550 -2.5978  0.1494
 1259SOL     OW15409   2.189   3.560   7.377  0.3081 -0.0285  0.3670
 1259SOL    HW115410   2.226   3.525   7.458  0.0938  2.6804  1.6569
 1259SOL    HW215411   2.126   3.619   7.419  0.1947 -1.2702  1.9334
 1260SOL     OW15412   2.924   0.376   7.504  0.9449 -0.1084  0.2261
 1260SOL    HW115413   2.928   0.459   7.456 -0.4013 -0.8963 -1.2544
 1260SOL    HW215414   2.832   0.383   7.530  0.7979 -1.4283  0.0486
 1261SOL     OW15415   0.238   0.005   6.124 -0.1919  0.5668  0.5323
 1261SOL    HW115416   0.193   4.659   6.100  1.7211 -0.2831 -0.1482
 1261SOL    HW215417   0.259   4.730   6.217 -0.7978 -0.8451  0.5141
 1262SOL     OW15418   2.729   3.546   2.153 -0.3646  0.3473  0.0744
 1262SOL    HW115419   2.709   3.462   2.194 -0.9346  0.0004 -0.9122
 1262SOL    HW215420   2.650   3.578   2.109 -0.2402  1.9608  1.0134
 1263SOL     OW15421   4.105   0.596   6.240 -0.3273 -0.4813 -0.0621
 1263SOL    HW115422   4.165   0.625   6.309  0.1181 -1.3584 -0.0791
 1263SOL    HW215423   4.022   0.614   6.284  0.6500  1.7219  0.8797
 1264SOL     OW15424   3.586   2.287   2.394 -0.2857 -0.4020 -0.2229
 1264SOL    HW115425   3.507   2.243   2.363 -1.5289  0.1849  2.1095
 1264SOL    HW215426   3.572   2.381   2.387 -1.5141 -0.6060 -0.4256
 1265SOL     OW15427   1.519   3.897   8.134  0.3093 -0.0988 -0.0015
 1265SOL    HW115428   1.608   3.897   8.098  1.2836 -0.6080  2.3614
 1265SOL    HW215429   1.511   3.808   8.169 -2.5808 -0.5693 -1.8926
 1266SOL     OW15430   2.653   3.027   4.831  0.2161  0.1535 -0.0531
 1266SOL    HW115431   2.731   3.061   4.788  0.1757  0.3474  0.0283
 1266SOL    HW215432   2.609   3.107   4.859 -0.4093 -0.2805  0.2204
 1267SOL     OW15433   3.790   2.351   3.932 -0.0568 -0.4049 -0.3643
 1267SOL    HW115434   3.791   2.391   4.018 -1.7500  1.0399 -1.0323
 1267SOL    HW215435   3.833   2.411   3.871  1.5813 -0.9819  0.2146
 1268SOL     OW15436   4.182   4.213   2.428  0.2225  0.3008 -0.5018
 1268SOL    HW115437   4.234   4.291   2.450  0.5792 -0.0484 -0.1094
 1268SOL    HW215438   4.245   4.155   2.385  1.7646  1.1974  0.5240
 1269SOL     OW15439   1.373   0.188   1.447  0.2179 -0.2706  0.4970
 1269SOL    HW115440   1.300   0.204   1.507  0.7541  1.7039  0.6211
 1269SOL    HW215441   1.331   0.114   1.404  1.8409 -0.3151 -1.0171
 1270SOL     OW15442   4.149   0.435  12.132  0.2821 -0.6397 -0.0709
 1270SOL    HW115443   4.181   0.498  12.196  0.3169  0.3128 -1.0172
 1270SOL    HW215444   4.062   0.468  12.110 -0.1705 -0.1293  2.5796
 1271SOL     OW15445   4.178   4.531   6.024  0.2889  0.4751  0.2403
 1271SOL    HW115446   4.103   4.590   6.016  0.8776  1.1982  0.0338
 1271SOL    HW215447   4.225   4.597   6.075 -1.3991  1.8261  0.0302
 1272SOL     OW15448   0.068   3.025   3.237  0.1257 -0.3351 -0.0200
 1272SOL    HW115449   0.071   2.930   3.224 -0.6443 -0.5431  1.2893
 1272SOL    HW215450   0.125   3.037   3.313 -1.1250  1.4875  0.6150
 1273SOL     OW15451   1.966   4.386   7.338 -0.5033 -0.1428  0.2451
 1273SOL    HW115452   1.953   4.359   7.247  0.5988 -0.8199  0.2981
 1273SOL    HW215453   1.945   4.480   7.335  0.4647  0.0429 -0.8634
 1274SOL     OW15454   3.686   4.128  13.203 -0.2029  0.2669 -0.2313
 1274SOL    HW115455   3.625   4.124  13.129  0.3971  0.9322 -0.7614
 1274SOL    HW215456   3.658   4.215  13.230 -1.0017 -0.3907  1.0835
 1275SOL     OW15457   3.802   0.905   3.484  0.1624  0.4657 -0.1903
 1275SOL    HW115458   3.728   0.845   3.490  0.4131  0.1114 -0.5618
 1275SOL    HW215459   3.846   0.885   3.401  2.1484  0.4077  0.8792
 1276SOL     OW15460   4.421   3.884   5.644 -0.1363  0.2144  0.4572
 1276SOL    HW115461   4.411   3.930   5.727  1.6044  1.6659 -0.1370
 1276SOL    HW215462   4.450   3.961   5.595 -2.4929  0.6893 -0.1951
 1277SOL     OW15463   1.354   0.129   3.902  0.8319  0.1896  0.1393
 1277SOL    HW115464   1.383   0.039   3.919  0.6990  0.1192 -0.0061
 1277SOL    HW215465   1.378   0.129   3.809 -2.9945 -0.6056 -0.8651
 1278SOL     OW15466   1.638   3.522   8.373  0.3313 -0.0835 -0.2340
 1278SOL    HW115467   1.587   3.568   8.306  1.5701 -1.8554 -2.3891
 1278SOL    HW215468   1.612   3.558   8.458  1.3492  3.3803 -1.3655
 1279SOL     OW15469   2.507   3.750  11.459  0.3845  0.0264  0.5803
 1279SOL    HW115470   2.466   3.827  11.498  1.4254  0.2064  1.3233
 1279SOL    HW215471   2.599   3.774  11.447  0.4626 -1.4900 -1.7718
 1280SOL     OW15472   0.011   1.943   3.342 -1.0801 -0.4455  0.6211
 1280SOL    HW115473   0.065   1.909   3.270  1.9492  1.6939  1.8802
 1280SOL    HW215474   4.661   1.950   3.298 -0.5303  1.7474 -0.1062
 1281SOL     OW15475   4.600   2.153   5.661  0.0424 -0.3818  0.5079
 1281SOL    HW115476   4.514   2.175   5.696  0.0104 -0.0922  0.2555
 1281SOL    HW215477   4.655   2.203   5.723  0.4524  0.7531 -0.7584
 1282SOL     OW15478   3.158   3.055   7.266  0.2209 -0.4714  0.0271
 1282SOL    HW115479   3.160   3.148   7.243  3.1270 -0.9589 -1.8025
 1282SOL    HW215480   3.079   3.021   7.225 -0.8670  2.2674 -0.1624
 1283SOL     OW15481   4.026   2.654   5.234  0.1646 -0.1503  0.4831
 1283SOL    HW115482   3.938   2.621   5.252 -0.6286  1.4589 -0.4953
 1283SOL    HW215483   4.009   2.721   5.168 -0.9181 -0.1002  0.8236
 1284SOL     OW15484   3.392   3.088  14.823  0.4803  0.2842 -0.1663
 1284SOL    HW115485   3.467   3.125  14.871  1.1150 -1.7245  0.4139
 1284SOL    HW215486   3.327   3.142  14.867  1.6446  1.4395  0.1411
 1285SOL     OW15487   1.917   3.610  14.359  0.2068  0.3788 -0.3879
 1285SOL    HW115488   1.963   3.681  14.403 -1.8946  0.9091  0.9658
 1285SOL    HW215489   1.837   3.612  14.411 -1.4187  1.8453 -2.9087
 1286SOL     OW15490   4.373   3.673   4.245 -0.3594 -0.3779 -0.5865
 1286SOL    HW115491   4.357   3.625   4.326 -3.0149 -0.2488 -1.0340
 1286SOL    HW215492   4.343   3.762   4.263  1.0496 -0.6093  2.8955
 1287SOL     OW15493   1.348   0.171   2.155  0.2093 -0.7704  0.2328
 1287SOL    HW115494   1.365   0.161   2.248  3.0685 -0.8013 -0.2906
 1287SOL    HW215495   1.426   0.222   2.137 -0.3298 -0.1811 -0.4454
 1288SOL     OW15496   1.229   0.738   1.094 -0.0870  0.0260  0.3999
 1288SOL    HW115497   1.297   0.675   1.117 -0.5039 -0.0301  1.4993
 1288SOL    HW215498   1.225   0.788   1.175  0.3024  1.7769 -0.6730
 1289SOL     OW15499   3.493   2.469   5.545 -0.1983  0.2267  0.0043
 1289SOL    HW115500   3.416   2.502   5.591  0.5858  1.0774  0.7079
 1289SOL    HW215501   3.533   2.416   5.613 -0.9330  0.2630  0.4580
 1290SOL     OW15502   3.172   4.388  11.445  0.2128 -0.1126 -0.4125
 1290SOL    HW115503   3.172   4.466  11.501  0.5902  0.9117 -1.8501
 1290SOL    HW215504   3.151   4.313  11.502 -0.7330  1.0517  0.7861
 1291SOL     OW15505   4.523   4.606   4.058  0.4815 -0.1353 -0.1097
 1291SOL    HW115506   4.440   4.582   4.019  0.8530  0.4428 -1.2639
 1291SOL    HW215507   4.525   4.558   4.141  1.5697  0.4112  0.1882
 1292SOL     OW15508   2.578   1.504  15.667  0.1053  0.3260 -0.1242
 1292SOL    HW115509   2.656   1.498  15.611  1.8999 -1.1131  2.5248
 1292SOL    HW215510   2.554   1.412  15.669  0.4494  0.2311 -0.3708
 1293SOL     OW15511   2.113   0.582   6.594  0.1002 -0.1458 -0.7863
 1293SOL    HW115512   2.057   0.624   6.529  0.9119  0.9862 -0.7574
 1293SOL    HW215513   2.060   0.602   6.671 -1.9067 -1.4284 -1.8452
 1294SOL     OW15514   3.070   2.414  12.013  0.0877 -0.6200  0.2978
 1294SOL    HW115515   2.991   2.367  11.986  0.1589  0.8430 -2.4888
 1294SOL    HW215516   3.106   2.341  12.063 -1.6559 -2.2977 -0.8481
 1295SOL     OW15517   3.097   4.124  10.648  0.2505 -0.4697 -0.0684
 1295SOL    HW115518   3.140   4.080  10.575  0.5121  2.5611 -1.7610
 1295SOL    HW215519   3.164   4.112  10.714  0.0835  1.8117  0.5431
 1296SOL     OW15520   2.789   1.439   1.187  0.3118  0.4289 -0.5008
 1296SOL    HW115521   2.769   1.379   1.259 -2.0387  1.5114 -0.2665
 1296SOL    HW215522   2.784   1.529   1.221 -1.1384  0.6745 -1.3593
 1297SOL     OW15523   0.002   4.585   7.085  0.1172  0.1318  0.3102
 1297SOL    HW115524   0.032   4.526   7.154 -2.3158 -1.7076 -0.1885
 1297SOL    HW215525   4.647   4.560   7.062  0.6995 -0.3419 -1.5158
 1298SOL     OW15526   0.293   4.254   7.670  0.2779 -0.1626 -0.5859
 1298SOL    HW115527   0.201   4.226   7.675  0.2697  0.0134  0.1801
 1298SOL    HW215528   0.336   4.175   7.637  3.0877  0.8782  0.6817
 1299SOL     OW15529   3.998   2.723   8.494  0.1872  0.1942 -0.0528
 1299SOL    HW115530   4.092   2.738   8.488  0.4883 -1.5427  0.4091
 1299SOL    HW215531   3.962   2.786   8.558 -0.1039 -0.2876  0.2581
 1300SOL     OW15532   2.043   1.271  11.441 -0.2989  0.4323 -0.2764
 1300SOL    HW115533   2.068   1.347  11.388 -0.1873  1.4385  1.2318
 1300SOL    HW215534   1.985   1.311  11.505 -0.5042 -0.3932  0.0538
 1301SOL     OW15535   1.164   2.020   1.477 -0.3158 -0.3740 -0.0738
 1301SOL    HW115536   1.185   2.020   1.384  3.2307  1.1589  0.7272
 1301SOL    HW215537   1.073   1.990   1.473 -0.6054  0.1550  2.3455
 1302SOL     OW15538   1.013   3.960  10.742 -0.4703 -0.0544 -0.0885
 1302SOL    HW115539   1.063   3.919  10.671 -0.0590  1.9172 -0.9314
 1302SOL    HW215540   0.990   3.890  10.802  0.4580 -0.1440  0.1567
 1303SOL     OW15541   1.460   1.320   5.211  0.1868 -0.0978 -0.0276
 1303SOL    HW115542   1.526   1.251   5.214 -0.8793 -1.2081 -2.6201
 1303SOL    HW215543   1.445   1.341   5.119  1.0553  1.9903  0.2925
 1304SOL     OW15544   1.538   2.597  11.370 -0.3155  0.4416  0.9403
 1304SOL    HW115545   1.521   2.686  11.337 -1.9093 -0.0849  0.2954
 1304SOL    HW215546   1.582   2.612  11.453 -1.0171  0.7927  1.2519
 1305SOL     OW15547   0.285   3.774  17.185 -0.1894 -0.1794 -0.5873
 1305SOL    HW115548   0.281   3.843  17.251  2.2440 -1.0889  0.5122
 1305SOL    HW215549   0.258   3.704  17.245  3.1850 -1.6221 -0.7485
 1306SOL     OW15550   3.380   0.439   7.431 -0.0238  0.6215 -0.2242
 1306SOL    HW115551   3.287   0.437   7.411  0.1316  0.6965 -0.9488
 1306SOL    HW215552   3.401   0.526   7.397 -1.3488  1.1682  0.3837
 1307SOL     OW15553   1.025   1.898   5.004  0.1419 -0.1954  0.4736
 1307SOL    HW115554   1.118   1.875   5.013  0.4363  0.7471 -0.0603
 1307SOL    HW215555   0.991   1.812   4.980 -0.6979  0.6361 -1.2624
 1308SOL     OW15556   3.103   2.903   6.191 -0.3056 -0.1240  0.2948
 1308SOL    HW115557   3.137   2.819   6.221 -0.0966 -0.5109 -1.0587
 1308SOL    HW215558   3.109   2.947   6.276 -2.5665 -1.8611  1.3291
 1309SOL     OW15559   0.710   2.150  16.014 -0.2369  0.0010 -0.1950
 1309SOL    HW115560   0.726   2.156  16.108 -0.4128 -1.4061 -0.0725
 1309SOL    HW215561   0.655   2.228  16.012  0.1494  0.2854  0.3552
 1310SOL     OW15562   0.529   2.958   2.678 -0.3223 -0.1625  0.7083
 1310SOL    HW115563   0.591   2.942   2.749  1.2251  1.1105 -0.3399
 1310SOL    HW215564   0.590   2.963   2.604 -1.8943  2.4619 -0.4342
 1311SOL     OW15565   4.481   0.820   6.207 -0.4143 -0.1995 -0.1625
 1311SOL    HW115566   4.515   0.875   6.137 -1.9838 -0.1829 -0.9260
 1311SOL    HW215567   4.467   0.742   6.153  0.3301  0.8432 -1.8537
 1312SOL     OW15568   0.353   0.894   9.921  0.4629  0.3479  0.4552
 1312SOL    HW115569   0.449   0.890   9.918  0.4916  1.0603  0.4139
 1312SOL    HW215570   0.331   0.909  10.013 -0.5598 -3.1739  0.7868
 1313SOL     OW15571   3.635   0.397   4.642 -0.1978  0.3025 -0.2635
 1313SOL    HW115572   3.677   0.391   4.728 -0.8629 -0.4910 -0.0006
 1313SOL    HW215573   3.625   0.492   4.635  1.6731  0.6450  1.4644
 1314SOL     OW15574   0.193   1.718   7.999 -0.4020  0.0485 -0.6570
 1314SOL    HW115575   0.234   1.714   8.085  1.7792 -2.0717 -1.8064
 1314SOL    HW215576   0.125   1.785   8.009 -0.3828 -0.2465  1.3315
 1315SOL     OW15577   2.805   4.064   5.346 -0.0470  0.0101  0.1289
 1315SOL    HW115578   2.832   4.058   5.438 -0.7197  0.2232  0.3394
 1315SOL    HW215579   2.760   3.980   5.347  1.1357 -0.6271 -2.3977
 1316SOL     OW15580   3.853   1.874   8.948 -0.3495 -0.3356 -0.5626
 1316SOL    HW115581   3.945   1.868   8.975 -0.6450 -0.7051  0.3715
 1316SOL    HW215582   3.832   1.961   8.982 -0.8627 -1.2395  1.4649
 1317SOL     OW15583   4.709   2.024   6.009 -0.0659 -0.1306 -0.3713
 1317SOL    HW115584   4.624   2.066   6.024 -0.2559 -0.9975  0.9843
 1317SOL    HW215585   4.685   1.940   5.970  2.0434 -1.3316  0.8699
 1318SOL     OW15586   3.027   1.294  15.545  0.1560 -0.0913 -0.3954
 1318SOL    HW115587   3.117   1.320  15.528 -0.3016  1.5025 -0.3730
 1318SOL    HW215588   3.007   1.353  15.618  1.3535  1.8091 -1.5982
 1319SOL     OW15589   4.531   0.299   3.793  0.2637  0.2996  0.6928
 1319SOL    HW115590   4.520   0.392   3.813  0.4611  0.0048  2.2124
 1319SOL    HW215591   4.487   0.283   3.710  0.9900  0.5081  0.2641
 1320SOL     OW15592   3.206   1.351   0.702 -0.1266 -0.0910 -0.5831
 1320SOL    HW115593   3.130   1.316   0.656 -0.2629 -1.9277  1.0339
 1320SOL    HW215594   3.178   1.443   0.703 -1.3285 -0.4604  0.0341
 1321SOL     OW15595   0.383   1.909   5.723  0.1108 -0.1908  0.3838
 1321SOL    HW115596   0.423   1.852   5.789  1.4665  2.4951  1.8777
 1321SOL    HW215597   0.442   1.893   5.650 -0.7470  1.2438 -0.6295
 1322SOL     OW15598   2.550   3.956  15.720  0.0070  0.2088 -0.4514
 1322SOL    HW115599   2.465   3.915  15.734 -0.3742  0.9112 -0.7230
 1322SOL    HW215600   2.561   3.950  15.625 -1.1729 -0.7940 -0.5280
 1323SOL     OW15601   4.021   4.420  17.701 -0.0233  0.1484 -0.5430
 1323SOL    HW115602   4.115   4.410  17.690  0.1466 -1.3667  2.2608
 1323SOL    HW215603   3.990   4.336  17.666  0.9646  0.1592 -1.4567
 1324SOL     OW15604   4.575   0.852   2.624  0.0162  0.2532  0.4260
 1324SOL    HW115605   4.665   0.882   2.626 -0.3144  1.1444  1.8694
 1324SOL    HW215606   4.527   0.932   2.648 -0.0628  0.4359 -0.3588
 1325SOL     OW15607   2.931   4.544  10.436  0.0734 -0.0752  0.4024
 1325SOL    HW115608   2.983   4.467  10.457  0.7856  0.3420  0.1567
 1325SOL    HW215609   2.940   4.544  10.341 -0.2380 -1.0098  0.3748
 1326SOL     OW15610   1.121   2.948   9.246 -0.0194  0.5275  0.4812
 1326SOL    HW115611   1.158   2.910   9.326  1.9248  0.7305 -0.3323
 1326SOL    HW215612   1.067   3.022   9.276 -2.0990 -0.1209 -1.6072
 1327SOL     OW15613   0.346   3.346   8.879 -0.0525  0.2948  0.0901
 1327SOL    HW115614   0.345   3.383   8.968 -0.8065 -4.1603  1.9215
 1327SOL    HW215615   0.293   3.415   8.838 -0.9718 -1.6117 -1.9327
 1328SOL     OW15616   3.215   1.661   5.758  0.1960  0.0734  0.6666
 1328SOL    HW115617   3.131   1.676   5.802 -0.5959 -1.8715 -0.1834
 1328SOL    HW215618   3.280   1.652   5.828  1.3523  0.2836 -0.3786
 1329SOL     OW15619   2.080   0.991   2.369  0.4358 -0.0558 -0.7150
 1329SOL    HW115620   2.018   1.058   2.342 -2.1601 -1.8610  0.8198
 1329SOL    HW215621   2.168   1.030   2.378 -0.8519  2.8971 -0.6991
 1330SOL     OW15622   1.754   0.266   7.443  0.4744 -0.8249 -0.0176
 1330SOL    HW115623   1.692   0.293   7.511  0.3966 -1.5406  0.1893
 1330SOL    HW215624   1.802   0.206   7.501  0.9395 -0.4495 -0.0139
 1331SOL     OW15625   0.417   0.330   4.537 -0.2557  0.1049  0.0066
 1331SOL    HW115626   0.335   0.291   4.568 -0.0745 -1.0693 -0.9621
 1331SOL    HW215627   0.467   0.252   4.512  0.5284  0.3786  0.7066
 1332SOL     OW15628   1.472   3.599   2.263  0.2069 -0.5670 -0.4699
 1332SOL    HW115629   1.385   3.558   2.270 -0.8721  1.7847 -0.0613
 1332SOL    HW215630   1.528   3.533   2.304  2.8339  0.7680 -1.9085
 1333SOL     OW15631   2.708   1.729   9.990 -0.0404  0.4540 -0.4500
 1333SOL    HW115632   2.687   1.763   9.903  0.0115  0.9769 -0.2607
 1333SOL    HW215633   2.772   1.798  10.009 -0.3521  1.3843 -2.7797
 1334SOL     OW15634   3.859   4.028   0.984  0.2299 -0.4361 -0.2312
 1334SOL    HW115635   3.895   4.042   0.897 -1.8024  0.7029 -0.8744
 1334SOL    HW215636   3.912   3.951   1.005  1.1002 -0.2210 -1.6748
 1335SOL     OW15637   3.722   3.946  10.706  0.3661 -0.2371  0.5926
 1335SOL    HW115638   3.801   3.966  10.756 -0.0401  1.5979  0.5139
 1335SOL    HW215639   3.671   3.997  10.770 -2.0079  0.1978 -1.6503
 1336SOL     OW15640   2.395   3.811   9.236  0.4682 -0.0074  0.4065
 1336SOL    HW115641   2.360   3.814   9.147  1.5224  0.0934 -0.0083
 1336SOL    HW215642   2.467   3.749   9.228  0.9673  0.3754  1.8513
 1337SOL     OW15643   0.161   2.830   6.618  0.1134  0.2719  0.2327
 1337SOL    HW115644   0.223   2.821   6.546  1.1195  1.4442  0.9639
 1337SOL    HW215645   0.180   2.913   6.662 -0.4763  0.4915  0.0786
 1338SOL     OW15646   4.724   3.912   7.380 -0.3283  0.3244 -0.3538
 1338SOL    HW115647   4.629   3.903   7.384 -0.0279 -2.0769  1.4803
 1338SOL    HW215648   4.729   3.883   7.289 -0.9286 -1.6768  0.2533
 1339SOL     OW15649   3.555   2.512   8.017 -0.3770  0.2948 -0.2062
 1339SOL    HW115650   3.578   2.541   8.105 -1.0953  2.8654 -0.8800
 1339SOL    HW215651   3.519   2.427   8.045 -2.2058  1.0963 -0.1571
 1340SOL     OW15652   3.574   3.516   3.898  0.6369 -0.2204  0.2406
 1340SOL    HW115653   3.661   3.482   3.879  0.3253 -0.6345 -0.4204
 1340SOL    HW215654   3.525   3.440   3.866  0.0464  0.1072  0.3547
 1341SOL     OW15655   0.108   1.888   9.053 -0.0410  0.0716  0.3938
 1341SOL    HW115656   0.118   1.805   9.100 -1.7526  0.5685  1.6301
 1341SOL    HW215657   0.030   1.876   8.999 -0.7428  0.2919  1.3494
 1342SOL     OW15658   4.545   1.535   5.192  0.0887  0.1344  0.2455
 1342SOL    HW115659   4.464   1.585   5.176  0.0290 -0.3147 -0.8297
 1342SOL    HW215660   4.612   1.604   5.194  0.4796 -0.1011 -3.9251
 1343SOL     OW15661   1.314   0.690   8.424 -0.3137 -0.2923  0.3026
 1343SOL    HW115662   1.262   0.614   8.396 -0.5133  0.6550 -1.8793
 1343SOL    HW215663   1.315   0.672   8.518  0.9404  2.4276  0.7983
 1344SOL     OW15664   1.909   0.868   5.359  0.1800 -0.2619 -0.3486
 1344SOL    HW115665   1.969   0.898   5.291  0.5630  0.7139  0.4336
 1344SOL    HW215666   1.958   0.902   5.434  0.6838 -1.8964  0.0736
 1345SOL     OW15667   0.604   1.474   3.521 -0.2460 -0.4070  0.1973
 1345SOL    HW115668   0.680   1.429   3.483 -0.1705 -0.2387  0.1487
 1345SOL    HW215669   0.534   1.441   3.463  0.3244 -0.5017 -0.4457
 1346SOL     OW15670   4.014   2.569   9.781  0.4413  1.0461  0.5587
 1346SOL    HW115671   3.997   2.476   9.795  2.0698  0.5587 -0.7460
 1346SOL    HW215672   4.069   2.585   9.858 -2.3169 -0.9610  2.9806
 1347SOL     OW15673   0.463   2.922   4.563 -0.1080 -0.0161  0.4534
 1347SOL    HW115674   0.417   2.947   4.483 -1.2597 -1.5472  0.6482
 1347SOL    HW215675   0.548   2.960   4.539 -0.3220 -0.9870 -1.7907
 1348SOL     OW15676   0.807   2.424   4.084  0.7840 -0.9020  0.2453
 1348SOL    HW115677   0.784   2.445   4.175  1.0811 -0.2710  0.1764
 1348SOL    HW215678   0.898   2.397   4.098  1.3262  1.3972  1.2551
 1349SOL     OW15679   4.306   1.802  12.123  0.4346  0.5886 -0.3231
 1349SOL    HW115680   4.378   1.839  12.174 -1.5221 -0.0021  2.8684
 1349SOL    HW215681   4.347   1.723  12.090  0.1402  0.4426 -0.3391
 1350SOL     OW15682   4.285   4.580  10.421 -0.0397  0.2828 -0.5883
 1350SOL    HW115683   4.364   4.547  10.465  0.2061 -0.0621 -1.2955
 1350SOL    HW215684   4.324   4.612  10.340  0.2111  1.7089  0.0887
 1351SOL     OW15685   0.635   1.306   5.873  0.2673  0.6623 -0.7826
 1351SOL    HW115686   0.699   1.352   5.928  0.1047  0.9891 -0.8616
 1351SOL    HW215687   0.564   1.300   5.937  1.6637  2.1468  0.9351
 1352SOL     OW15688   3.732   4.013  14.981  0.0141  0.2576  0.6185
 1352SOL    HW115689   3.822   3.978  14.983 -0.6275 -1.4719 -1.0783
 1352SOL    HW215690   3.708   3.965  14.901 -0.7656  1.8445 -0.0894
 1353SOL     OW15691   4.519   3.284  14.468  0.0360  0.1758 -0.1025
 1353SOL    HW115692   4.545   3.253  14.382  1.3681  0.0986  0.3254
 1353SOL    HW215693   4.489   3.375  14.463 -1.4029 -0.3265 -0.4709
 1354SOL     OW15694   4.730   2.884   2.543  0.4932  0.5301 -0.0227
 1354SOL    HW115695   0.049   2.927   2.477 -0.9510  1.1124 -0.8171
 1354SOL    HW215696   0.059   2.871   2.613 -1.5072  0.5148  1.8205
 1355SOL     OW15697   2.790   0.711  15.845 -0.4730 -0.3341 -0.3584
 1355SOL    HW115698   2.848   0.785  15.857 -0.6892 -0.2888  0.4328
 1355SOL    HW215699   2.706   0.744  15.813  0.0782 -0.8221 -2.3224
 1356SOL     OW15700   2.949   0.336   8.161  0.7433  0.0302 -0.0012
 1356SOL    HW115701   2.894   0.263   8.132 -0.9570  1.2016  0.3081
 1356SOL    HW215702   2.917   0.359   8.249  1.9701  1.3319  0.0988
 1357SOL     OW15703   2.868   1.191   8.923  0.0625 -0.5196 -0.3815
 1357SOL    HW115704   2.816   1.111   8.926 -2.3199  1.0234 -0.9584
 1357SOL    HW215705   2.888   1.211   9.015 -0.4179  0.1381 -0.4217
 1358SOL     OW15706   1.235   0.982   0.853  0.1242  0.2650 -0.0176
 1358SOL    HW115707   1.224   1.039   0.928 -2.9606  1.2616 -1.2463
 1358SOL    HW215708   1.226   1.052   0.788  1.3887  0.5110  0.0783
 1359SOL     OW15709   3.509   1.617  16.028  0.6344  0.2545 -0.1432
 1359SOL    HW115710   3.461   1.546  16.071  1.5058  0.4737  1.1933
 1359SOL    HW215711   3.566   1.565  15.972  0.3904  0.1219 -0.2649
 1360SOL     OW15712   1.562   0.850   4.014  0.1773  0.2142  0.2026
 1360SOL    HW115713   1.502   0.892   3.952  2.9946  0.7212 -2.2104
 1360SOL    HW215714   1.642   0.903   4.006  0.9725 -0.9130  0.7339
 1361SOL     OW15715   4.218   0.986   2.126 -0.4045 -0.0212 -0.1584
 1361SOL    HW115716   4.133   1.027   2.112 -0.4131  0.5817  1.6843
 1361SOL    HW215717   4.214   0.962   2.218 -0.0646 -0.1510 -0.1754
 1362SOL     OW15718   1.059   1.856   6.940  0.1039 -0.3507  0.4647
 1362SOL    HW115719   1.010   1.927   6.899  0.5708  0.0161  0.5359
 1362SOL    HW215720   1.089   1.917   7.007  0.3546  0.2350 -0.1733
 1363SOL     OW15721   3.427   4.549   4.316 -0.3692 -0.0429  0.1349
 1363SOL    HW115722   3.474   4.471   4.348  1.1472  0.4770 -0.8290
 1363SOL    HW215723   3.422   4.522   4.225 -0.0126 -0.5459  0.2626
 1364SOL     OW15724   1.257   2.713  16.260  0.3645 -0.1479 -0.3188
 1364SOL    HW115725   1.179   2.746  16.304  0.4390 -0.7708  0.2780
 1364SOL    HW215726   1.249   2.621  16.283 -0.7012  0.2549  0.9063
 1365SOL     OW15727   4.607   2.292   1.904  0.1877 -0.4854 -0.0952
 1365SOL    HW115728   4.635   2.282   1.995  0.1745  1.1934  0.0894
 1365SOL    HW215729   4.561   2.208   1.893 -0.7676 -0.0498  0.5620
 1366SOL     OW15730   0.294   0.085   0.376 -0.6533 -0.2150 -0.3036
 1366SOL    HW115731   0.301   0.124   0.463 -0.3140 -1.5467  0.2596
 1366SOL    HW215732   0.222   0.141   0.348 -1.0690 -1.5865 -1.9803
 1367SOL     OW15733   0.352   4.559  10.728 -0.1391 -0.5170 -0.4770
 1367SOL    HW115734   0.349   4.543  10.634  0.7192 -0.3126 -0.5383
 1367SOL    HW215735   0.362   4.654  10.728 -1.2927 -0.3967 -0.5591
 1368SOL     OW15736   0.206   2.853   5.557  0.3373  0.5275 -0.2738
 1368SOL    HW115737   0.152   2.796   5.501 -0.4764 -0.3301  1.3889
 1368SOL    HW215738   0.267   2.881   5.489  1.4555  1.4834  1.1525
 1369SOL     OW15739   3.715   2.923   9.369 -0.1205 -0.3122 -0.4593
 1369SOL    HW115740   3.711   3.004   9.421 -1.2321 -1.5661  1.3918
 1369SOL    HW215741   3.630   2.920   9.326 -0.3285  0.8434 -0.1239
 1370SOL     OW15742   2.444   1.321  13.633  0.2970  0.0852  0.1748
 1370SOL    HW115743   2.459   1.405  13.675 -2.2191 -0.0590  1.3366
 1370SOL    HW215744   2.481   1.346  13.548  1.8815 -0.3081  0.7563
 1371SOL     OW15745   2.684   3.455   4.317  0.1415  0.4119  0.1500
 1371SOL    HW115746   2.656   3.533   4.363 -0.4912 -0.9455  2.0715
 1371SOL    HW215747   2.773   3.481   4.293  1.3370 -3.7704 -0.1122
 1372SOL     OW15748   4.101   1.386  12.778 -0.4315 -0.4155  0.5128
 1372SOL    HW115749   4.037   1.454  12.758 -0.9185 -0.6647  1.2551
 1372SOL    HW215750   4.174   1.446  12.794 -0.9956  0.6732 -0.9918
 1373SOL     OW15751   1.249   0.347  11.486  0.1842 -0.1562  0.5331
 1373SOL    HW115752   1.201   0.391  11.556 -0.9474 -0.8000  0.1663
 1373SOL    HW215753   1.188   0.367  11.415  0.9255 -1.7051 -0.5514
 1374SOL     OW15754   2.832   2.394   0.250  0.7599 -0.0634  0.5353
 1374SOL    HW115755   2.874   2.443   0.321  2.9519  0.7416 -1.3264
 1374SOL    HW215756   2.746   2.391   0.293  0.4328  0.5065 -0.0867
 1375SOL     OW15757   1.401   1.762   1.943 -0.3878 -0.0503 -0.2236
 1375SOL    HW115758   1.423   1.801   2.028  1.7715 -2.2401  0.2272
 1375SOL    HW215759   1.489   1.768   1.906 -1.1795  1.1070 -1.9075
 1376SOL     OW15760   3.942   2.741   6.760 -0.0399  0.4322  0.4193
 1376SOL    HW115761   3.969   2.670   6.817  0.2021 -0.4838 -0.8551
 1376SOL    HW215762   4.019   2.797   6.769  0.5128  0.0084 -1.7580
 1377SOL     OW15763   2.952   1.367  13.503  0.0920  0.3021  0.1022
 1377SOL    HW115764   2.919   1.280  13.523  2.4335 -0.2474  1.6104
 1377SOL    HW215765   3.005   1.394  13.578  0.6220  1.5206 -0.7095
 1378SOL     OW15766   0.550   0.852  16.814  0.7769  0.8620  0.2430
 1378SOL    HW115767   0.618   0.805  16.767  0.1570  0.2565 -0.0479
 1378SOL    HW215768   0.541   0.801  16.895 -1.1910 -0.7741 -0.9990
 1379SOL     OW15769   1.395   4.080  14.207 -0.4010 -0.0585  0.4695
 1379SOL    HW115770   1.427   4.139  14.139  0.5649  0.9728  1.8182
 1379SOL    HW215771   1.312   4.125  14.219 -1.3516 -1.1587 -2.1254
 1380SOL     OW15772   2.590   4.275   6.806  0.1591  0.3091 -0.3603
 1380SOL    HW115773   2.632   4.346   6.758 -1.9025  1.5130 -0.4070
 1380SOL    HW215774   2.516   4.320   6.848  0.4852  0.5325 -0.0205
 1381SOL     OW15775   2.715   1.670  17.367 -0.2674 -0.2185 -0.0043
 1381SOL    HW115776   2.808   1.672  17.390  0.2324 -1.3703 -1.8206
 1381SOL    HW215777   2.714   1.635  17.278 -0.8686  0.7559 -0.3833
 1382SOL     OW15778   0.447   4.671   7.663 -0.0095 -0.1178  0.3942
 1382SOL    HW115779   0.459   4.727   7.740  0.6623 -1.6733  1.4030
 1382SOL    HW215780   0.367   4.624   7.688 -0.2991 -0.5288 -1.3057
 1383SOL     OW15781   1.588   2.223  14.214 -0.1659  0.0561 -0.3773
 1383SOL    HW115782   1.616   2.133  14.199 -0.0839 -0.0755  0.5608
 1383SOL    HW215783   1.660   2.257  14.266 -1.0235  1.7677 -0.2838
 1384SOL     OW15784   3.672   1.863   7.122  0.5578  0.0077  0.0152
 1384SOL    HW115785   3.643   1.949   7.152  0.2031 -0.7631  1.8787
 1384SOL    HW215786   3.595   1.834   7.074  0.3661  2.5886 -1.2960
 1385SOL     OW15787   1.440   2.283  11.535 -0.1191  0.0610 -0.1858
 1385SOL    HW115788   1.526   2.285  11.493 -0.2569  1.6465 -0.3971
 1385SOL    HW215789   1.395   2.361  11.503  0.7193 -0.5328 -2.7548
 1386SOL     OW15790   1.174   1.399   3.154  0.3441 -0.6323  0.1365
 1386SOL    HW115791   1.215   1.485   3.156 -0.1072 -0.3919 -1.6906
 1386SOL    HW215792   1.143   1.391   3.245  1.4085  0.6422  0.6102
 1387SOL     OW15793   2.423   2.112  10.351  0.2700 -0.1069 -0.3965
 1387SOL    HW115794   2.450   2.137  10.439  0.6411 -0.8458 -0.3006
 1387SOL    HW215795   2.479   2.036  10.337  0.6446  0.0572  0.2511
 1388SOL     OW15796   2.250   1.974   3.978  0.0311  0.3542  0.4047
 1388SOL    HW115797   2.314   1.977   4.048 -0.7337  0.9620  1.0717
 1388SOL    HW215798   2.305   2.018   3.913  2.3727 -0.1325  2.0816
 1389SOL     OW15799   2.391   1.948   7.078  0.6716  0.1044  0.1442
 1389SOL    HW115800   2.465   1.963   7.019  0.0187  1.0487 -0.4282
 1389SOL    HW215801   2.340   1.878   7.038 -1.6317  0.6927  2.0869
 1390SOL     OW15802   1.619   0.692   5.923  0.3978  0.3909  0.5513
 1390SOL    HW115803   1.648   0.680   5.833 -0.3990 -0.6702  0.4345
 1390SOL    HW215804   1.579   0.778   5.936 -0.7176  0.2420 -1.9661
 1391SOL     OW15805   2.063   1.120   1.053 -0.3133 -0.1904  0.1113
 1391SOL    HW115806   2.017   1.058   1.109 -0.1584 -1.0787 -0.7402
 1391SOL    HW215807   2.041   1.080   0.969 -0.7612 -2.9046  1.5496
 1392SOL     OW15808   2.153   0.779   1.221 -0.2260 -0.3748  0.0193
 1392SOL    HW115809   2.235   0.815   1.189 -1.6957  1.2372 -1.9622
 1392SOL    HW215810   2.109   0.863   1.238  2.5428  0.7803  1.4375
 1393SOL     OW15811   4.233   3.588  14.918  0.1587  0.2907 -0.2290
 1393SOL    HW115812   4.147   3.572  14.956 -0.7597 -1.0896 -2.9162
 1393SOL    HW215813   4.246   3.494  14.903 -1.6967  0.0888 -0.5442
 1394SOL     OW15814   1.949   1.863   6.973  0.1322 -0.0169 -0.4687
 1394SOL    HW115815   1.913   1.779   7.003 -0.4075  0.3276 -0.1672
 1394SOL    HW215816   2.037   1.836   6.948  0.5154 -0.2440  1.1002
 1395SOL     OW15817   2.604   1.825  13.822 -0.1880  0.6976 -0.3389
 1395SOL    HW115818   2.606   1.872  13.905 -1.2689  0.0609  0.0535
 1395SOL    HW215819   2.539   1.872  13.770  1.1839  2.0080 -0.8526
 1396SOL     OW15820   2.715   0.904   2.722  0.1408 -0.7688  0.1625
 1396SOL    HW115821   2.639   0.856   2.754 -1.0504 -0.9918 -3.0021
 1396SOL    HW215822   2.767   0.923   2.799  0.0301  1.5703 -0.3392
 1397SOL     OW15823   1.934   4.104   2.459 -0.1644 -0.5947 -0.5394
 1397SOL    HW115824   2.017   4.106   2.413 -0.3553  0.6243 -0.8430
 1397SOL    HW215825   1.907   4.194   2.438  2.4186  0.4209  0.5299
 1398SOL     OW15826   3.714   1.692   4.422 -0.4849 -0.8152  0.4901
 1398SOL    HW115827   3.773   1.618   4.411 -0.7020 -0.9802  0.4529
 1398SOL    HW215828   3.675   1.709   4.337 -0.0704  0.5934  0.5623
 1399SOL     OW15829   3.912   1.061  10.026  0.2038 -0.9970  0.6756
 1399SOL    HW115830   3.820   1.037  10.039 -0.1300  0.8780  1.7516
 1399SOL    HW215831   3.945   1.087  10.111 -0.0245  0.2552  0.3826
 1400SOL     OW15832   4.115   1.493   4.605 -0.0071  0.2361 -0.4240
 1400SOL    HW115833   4.134   1.585   4.623 -2.7476  0.7232 -0.0114
 1400SOL    HW215834   4.061   1.477   4.683  0.4124 -0.7554 -0.3417
 1401SOL     OW15835   1.851   3.415   3.414 -0.1135 -0.1517  0.2896
 1401SOL    HW115836   1.891   3.330   3.399  1.6125  0.9881 -1.5089
 1401SOL    HW215837   1.839   3.414   3.509  2.5785  3.7787  0.6836
 1402SOL     OW15838   4.331   3.338   6.433  0.1118 -0.0653  0.1785
 1402SOL    HW115839   4.292   3.424   6.450  0.8882  0.2405  0.4087
 1402SOL    HW215840   4.382   3.349   6.353  0.5316  3.6012  0.9429
 1403SOL     OW15841   2.953   0.740   4.988  0.1793  0.1587 -0.2091
 1403SOL    HW115842   2.873   0.791   4.979 -0.6151 -1.6938 -3.4132
 1403SOL    HW215843   2.922   0.654   4.959  1.0323  0.1670 -1.1323
 1404SOL     OW15844   0.269   2.322   8.008 -0.0680  0.0117 -0.3081
 1404SOL    HW115845   0.252   2.239   8.055 -1.4211  0.7156  0.4542
 1404SOL    HW215846   0.362   2.320   8.030 -0.2209  0.4230  0.3847
 1405SOL     OW15847   1.175   0.205   6.140 -0.1217 -0.1065  0.1714
 1405SOL    HW115848   1.101   0.223   6.198 -1.0193  0.1651 -1.0570
 1405SOL    HW215849   1.143   0.214   6.050  3.9491 -1.3949 -1.4405
 1406SOL     OW15850   2.642   3.528   8.719 -0.3420  0.7718 -0.1961
 1406SOL    HW115851   2.654   3.464   8.649  0.6737 -1.7836  2.3199
 1406SOL    HW215852   2.621   3.471   8.793  0.5233 -0.5720 -0.9698
 1407SOL     OW15853   4.264   4.191  15.238  0.2159 -0.1627  0.3688
 1407SOL    HW115854   4.322   4.116  15.252 -1.2049 -1.4276 -0.4662
 1407SOL    HW215855   4.241   4.220  15.326  1.9738  1.2241  0.3707
 1408SOL     OW15856   0.439   4.146   5.269  0.7134  0.6706 -0.1181
 1408SOL    HW115857   0.480   4.205   5.332  0.8731  3.2811 -2.6281
 1408SOL    HW215858   0.391   4.081   5.319  1.3891 -0.0682 -0.4284
 1409SOL     OW15859   3.358   0.181  12.332 -0.8978  0.1890 -0.2840
 1409SOL    HW115860   3.340   0.120  12.403  1.9865  1.5143  1.5667
 1409SOL    HW215861   3.339   0.265  12.374 -1.5968 -0.3741  0.5045
 1410SOL     OW15862   2.883   4.696  17.348  0.0816  0.3365 -0.5861
 1410SOL    HW115863   2.972   4.715  17.318  0.2713  1.2876  0.5454
 1410SOL    HW215864   2.852   0.041  17.391 -0.4811 -1.2564  2.0146
 1411SOL     OW15865   2.769   2.148  15.598 -0.3658  0.1897 -0.1035
 1411SOL    HW115866   2.729   2.064  15.577  0.4953  0.0135 -1.0659
 1411SOL    HW215867   2.745   2.194  15.517 -1.0474 -2.6356 -1.5139
 1412SOL     OW15868   1.062   4.724   9.827  0.7090  0.2770  0.5712
 1412SOL    HW115869   1.034   4.657   9.890 -0.9237  1.7659  1.4358
 1412SOL    HW215870   0.998   4.713   9.757  2.1958 -0.8325 -0.6056
 1413SOL     OW15871   0.159   1.571  14.316  0.1306  0.1114  0.2817
 1413SOL    HW115872   0.159   1.488  14.269 -0.0649 -0.3401  1.0859
 1413SOL    HW215873   0.073   1.555  14.354  0.4973 -1.9788  0.2221
 1414SOL     OW15874   0.376   1.685  17.638 -0.5523  0.1796  0.4178
 1414SOL    HW115875   0.371   1.636  17.555  1.0683  0.9068 -0.1228
 1414SOL    HW215876   0.471   1.674  17.651 -1.0414 -1.8647  2.2521
 1415SOL     OW15877   2.887   0.456   0.765  0.0257  0.1611 -0.0477
 1415SOL    HW115878   2.937   0.518   0.711 -0.7286  2.3246  1.7309
 1415SOL    HW215879   2.899   0.498   0.850 -0.4082 -1.2398  0.7000
 1416SOL     OW15880   1.220   1.619   6.126 -0.1691  0.1171 -0.2560
 1416SOL    HW115881   1.241   1.671   6.048 -0.2257  0.1935 -0.2200
 1416SOL    HW215882   1.295   1.560   6.136 -0.3843 -0.4853 -2.0047
 1417SOL     OW15883   1.529   0.502  17.017 -0.1399  0.5677  0.1986
 1417SOL    HW115884   1.476   0.546  17.083 -0.7989 -1.5829  1.0776
 1417SOL    HW215885   1.480   0.421  17.009  1.6602 -0.5657  0.7163
 1418SOL     OW15886   3.423   4.122   6.441 -0.1349  0.4449  0.2374
 1418SOL    HW115887   3.491   4.108   6.506  0.3127 -0.1133 -0.3440
 1418SOL    HW215888   3.467   4.104   6.357  2.8803 -1.4899  2.2441
 1419SOL     OW15889   2.651   1.111   7.569 -0.2831 -0.0507 -0.3035
 1419SOL    HW115890   2.604   1.028   7.559  1.3249 -0.8503 -1.3260
 1419SOL    HW215891   2.633   1.122   7.662 -0.0320  2.4764 -0.5505
 1420SOL     OW15892   4.120   1.237  10.799  0.5444  0.0283 -0.1380
 1420SOL    HW115893   4.195   1.196  10.756 -1.4487 -2.8610 -0.8763
 1420SOL    HW215894   4.156   1.325  10.809  3.2865 -0.9703 -1.1509
 1421SOL     OW15895   0.737   1.517  17.403 -0.2801  0.1256 -0.0887
 1421SOL    HW115896   0.814   1.571  17.420  0.5104 -0.7530 -0.9557
 1421SOL    HW215897   0.686   1.564  17.336  1.3163 -1.3795 -2.3475
 1422SOL     OW15898   3.473   4.482   5.657  0.0614 -0.6442 -0.4134
 1422SOL    HW115899   3.410   4.501   5.587  0.6456 -0.3545 -0.8564
 1422SOL    HW215900   3.487   4.391   5.633  0.5566 -0.6877  0.0568
 1423SOL     OW15901   1.572   1.227   5.799  0.4819 -0.7341 -0.1785
 1423SOL    HW115902   1.541   1.138   5.820  0.9169 -0.4742  1.5412
 1423SOL    HW215903   1.638   1.251   5.864 -0.0945 -1.5234  0.7013
 1424SOL     OW15904   3.480   3.258   3.810  0.1315 -0.4806 -0.6148
 1424SOL    HW115905   3.416   3.245   3.880  1.0811  0.9889  0.5128
 1424SOL    HW215906   3.485   3.170   3.771 -2.5733 -0.1235 -1.7836
 1425SOL     OW15907   3.189   2.297   5.496  0.4172 -0.5667  0.9494
 1425SOL    HW115908   3.185   2.387   5.530 -2.5234 -0.6889  0.9481
 1425SOL    HW215909   3.151   2.307   5.409  0.7600 -0.9544  0.7580
 1426SOL     OW15910   1.507   2.781  17.441  0.1195  0.1721 -0.3935
 1426SOL    HW115911   1.521   2.875  17.447  0.6788 -0.2077  4.0410
 1426SOL    HW215912   1.548   2.763  17.525  3.0728  0.1121 -1.8288
 1427SOL     OW15913   1.328   4.721   2.633  0.1027 -0.4448 -0.0710
 1427SOL    HW115914   1.420   4.698   2.617  0.2615  1.8976 -2.6062
 1427SOL    HW215915   1.295   4.675   2.710 -1.5461 -0.5387 -0.8379
 1428SOL     OW15916   0.013   0.586   9.051 -0.4114 -0.3230 -0.7721
 1428SOL    HW115917   0.094   0.582   9.101 -0.8831 -0.0577  0.0311
 1428SOL    HW215918   4.712   0.670   9.082 -0.9892 -0.5723 -0.7620
 1429SOL     OW15919   0.212   3.361   5.751 -0.7535 -0.0991  0.2626
 1429SOL    HW115920   0.254   3.275   5.749  1.0470  0.7766  0.5345
 1429SOL    HW215921   0.271   3.406   5.690  0.8245 -0.7813  1.2682
 1430SOL     OW15922   2.177   2.288   4.725  0.4324 -0.3831  0.2386
 1430SOL    HW115923   2.147   2.199   4.707 -0.2806 -0.8976  3.9950
 1430SOL    HW215924   2.244   2.296   4.657 -0.2047 -1.3345 -0.5143
 1431SOL     OW15925   3.971   3.010   8.326  0.3776  0.2441  0.2160
 1431SOL    HW115926   3.986   3.063   8.405  1.2513  0.0284  0.2030
 1431SOL    HW215927   3.880   3.027   8.305  0.1511 -0.7927  0.3820
 1432SOL     OW15928   2.775   1.219   2.716  0.0324 -0.3955 -0.9299
 1432SOL    HW115929   2.816   1.157   2.656  1.1430 -0.6382  0.0994
 1432SOL    HW215930   2.685   1.194   2.696  0.0459 -0.5648 -0.7809
 1433SOL     OW15931   1.167   0.893   1.312 -0.0921 -0.2459 -0.4670
 1433SOL    HW115932   1.180   0.827   1.381 -1.1810 -0.2165 -0.2323
 1433SOL    HW215933   1.081   0.930   1.330 -0.4214 -0.4677 -1.5886
 1434SOL     OW15934   0.291   1.444  10.082  0.1766  0.0029 -0.2464
 1434SOL    HW115935   0.380   1.444  10.047  0.0384  0.4845 -0.6046
 1434SOL    HW215936   0.309   1.383  10.153  0.7454  0.7256  0.2442
 1435SOL     OW15937   3.547   1.196  15.465  0.4499 -0.0527  0.3210
 1435SOL    HW115938   3.491   1.138  15.517 -0.8893  1.0343  0.0650
 1435SOL    HW215939   3.525   1.174  15.375 -1.4810 -0.5535  0.9330
 1436SOL     OW15940   2.180   0.156   1.127  0.0411 -0.0725 -0.5676
 1436SOL    HW115941   2.095   0.125   1.157 -0.3746  2.0478  0.5078
 1436SOL    HW215942   2.147   0.240   1.095  0.2062  0.9755  1.9924
 1437SOL     OW15943   3.152   0.116   3.798  0.1937 -0.7220 -0.0895
 1437SOL    HW115944   3.222   0.170   3.762  0.9259 -1.1475  0.6745
 1437SOL    HW215945   3.082   0.158   3.749  0.0593 -1.3303 -0.4187
 1438SOL     OW15946   0.773   2.773   2.111  1.1599  0.8996  0.2054
 1438SOL    HW115947   0.683   2.753   2.136 -0.1303  2.3903 -3.2086
 1438SOL    HW215948   0.797   2.842   2.172 -2.0567  0.1308  2.3123
 1439SOL     OW15949   2.260   0.265   6.346 -0.5429 -0.3374 -0.1350
 1439SOL    HW115950   2.304   0.337   6.391 -1.2408  0.6040 -0.9445
 1439SOL    HW215951   2.169   0.269   6.376 -0.7191  1.7468 -0.9476
 1440SOL     OW15952   4.032   4.054   2.153 -0.3580  0.0039  0.3548
 1440SOL    HW115953   4.000   4.143   2.167  1.3822  0.3274  2.3293
 1440SOL    HW215954   4.005   4.011   2.235  1.3103 -0.8678  0.4537
 1441SOL     OW15955   1.970   2.223   3.046  0.0625  0.0795 -0.5565
 1441SOL    HW115956   1.945   2.134   3.019 -0.1924  0.2972 -1.0414
 1441SOL    HW215957   1.884   2.264   3.053 -0.6781 -1.6860  0.5853
 1442SOL     OW15958   0.885   4.430   1.574  0.0453  0.2095  0.4480
 1442SOL    HW115959   0.828   4.492   1.621  0.8563  0.0572  1.6298
 1442SOL    HW215960   0.833   4.410   1.497  1.5245 -0.4462 -0.3771
 1443SOL     OW15961   0.017   1.750   1.864  0.8629 -0.4651 -0.3876
 1443SOL    HW115962   0.007   1.834   1.908  0.1182 -0.3507 -0.7890
 1443SOL    HW215963   0.096   1.765   1.811  0.3251 -1.2319 -1.4098
 1444SOL     OW15964   1.939   3.873   2.649 -0.1645  0.5512  0.3559
 1444SOL    HW115965   1.905   3.945   2.596  0.0242 -0.1409 -0.7088
 1444SOL    HW215966   1.957   3.807   2.582 -1.3942  0.1538  0.4236
 1445SOL     OW15967   2.715   4.137   3.396 -0.1411  0.5380 -0.4934
 1445SOL    HW115968   2.695   4.075   3.466 -0.9147  0.0096 -1.1822
 1445SOL    HW215969   2.685   4.083   3.322 -0.1539  0.8156 -0.6894
 1446SOL     OW15970   3.491   4.535  15.766  0.3558  0.2909 -0.2570
 1446SOL    HW115971   3.459   4.448  15.792  0.3523 -0.0015 -1.2367
 1446SOL    HW215972   3.535   4.511  15.684  2.3601 -0.6482  1.0923
 1447SOL     OW15973   0.972   0.031   2.211  0.1633  0.0917  0.5443
 1447SOL    HW115974   0.941   4.675   2.208  0.5837 -0.0039 -1.0282
 1447SOL    HW215975   0.994   0.037   2.304  1.4477  1.1458  0.1787
 1448SOL     OW15976   4.345   1.259   3.955 -0.1547  0.2214  0.0415
 1448SOL    HW115977   4.421   1.224   4.002  0.9619  2.7761  0.1804
 1448SOL    HW215978   4.346   1.204   3.877 -1.1334  0.9551 -0.4926
 1449SOL     OW15979   4.649   3.570   7.045  0.1144  0.2756 -0.0819
 1449SOL    HW115980   0.008   3.553   7.036 -0.2237 -1.8356  0.5946
 1449SOL    HW215981   4.606   3.527   6.971 -0.1958 -1.7889  1.3200
 1450SOL     OW15982   4.016   0.410   0.841 -0.3913 -0.0832 -0.0266
 1450SOL    HW115983   4.053   0.415   0.930  0.1702 -4.2384 -0.0184
 1450SOL    HW215984   3.924   0.426   0.859 -0.2884  1.5649 -0.9484
 1451SOL     OW15985   3.142   0.754   7.496  0.8309  0.8266 -0.0357
 1451SOL    HW115986   3.112   0.822   7.555  1.8948 -0.3930  1.9282
 1451SOL    HW215987   3.106   0.672   7.531 -0.5103  1.5207  0.1801
 1452SOL     OW15988   1.917   0.945   1.972 -0.1420 -0.2480  0.2165
 1452SOL    HW115989   1.844   0.907   1.924 -2.2551  0.5151  2.7954
 1452SOL    HW215990   1.976   0.938   1.897 -1.4773 -1.6319 -0.6814
 1453SOL     OW15991   3.412   2.147   8.666  0.4125  0.2745  0.2968
 1453SOL    HW115992   3.500   2.176   8.641 -0.0649  0.5476 -1.0567
 1453SOL    HW215993   3.407   2.065   8.617 -0.2877 -0.0514  0.9151
 1454SOL     OW15994   3.061   0.033  17.668  0.2598  0.0677  0.6008
 1454SOL    HW115995   2.987   0.044  17.608  0.3925  1.3003  0.6504
 1454SOL    HW215996   3.007   0.023   0.008  0.9235 -0.8638  0.9336
 1455SOL     OW15997   3.014   4.680  14.823 -0.3152  0.0914 -0.5432
 1455SOL    HW115998   2.984   4.661  14.912  0.0984 -0.0050 -0.4231
 1455SOL    HW215999   2.955   0.015  14.795 -0.9815 -1.5123 -3.1790
 1456SOL     OW16000   1.749   2.748   1.793  0.0654 -0.6573  0.3026
 1456SOL    HW116001   1.844   2.757   1.783  0.4297 -4.6553  0.1253
 1456SOL    HW216002   1.732   2.725   1.702 -1.0292  0.4697  0.2355
 1457SOL     OW16003   1.702   0.672   5.358  0.5598 -0.4850 -0.0727
 1457SOL    HW116004   1.796   0.690   5.358  0.0324  2.3687  2.3583
 1457SOL    HW216005   1.691   0.695   5.265  2.8231 -2.1106 -0.7424
 1458SOL     OW16006   3.619   1.544   8.761 -0.3239 -0.0559  0.2944
 1458SOL    HW116007   3.604   1.449   8.756 -3.5866  0.4844 -0.1678
 1458SOL    HW216008   3.647   1.566   8.673 -1.5553  1.0641  0.1842
 1459SOL     OW16009   1.527   0.877   6.646 -0.4256  0.3125  0.0751
 1459SOL    HW116010   1.457   0.896   6.707  0.4049  0.4082  0.9950
 1459SOL    HW216011   1.547   0.787   6.672  0.5291  0.3282 -0.5821
 1460SOL     OW16012   0.447   0.711   0.605  0.1445 -0.0436 -0.2355
 1460SOL    HW116013   0.459   0.803   0.581 -0.7756  0.3197  0.7284
 1460SOL    HW216014   0.353   0.695   0.610 -0.0261  0.3091 -2.3885
 1461SOL     OW16015   0.290   2.874   8.427  0.4151 -1.1518 -0.3052
 1461SOL    HW116016   0.374   2.896   8.387  0.4002  1.6691  1.1840
 1461SOL    HW216017   0.292   2.923   8.509  2.0686 -1.6958 -0.0184
 1462SOL     OW16018   3.122   0.683   4.199 -0.3691 -0.4821  0.5472
 1462SOL    HW116019   3.051   0.661   4.138  0.2583  1.0274 -0.7364
 1462SOL    HW216020   3.146   0.599   4.236 -1.4560 -1.3437 -0.7015
 1463SOL     OW16021   2.931   4.626   8.033  0.2847  0.2336 -0.0272
 1463SOL    HW116022   2.886   4.576   7.965  1.2238  2.4872 -2.2890
 1463SOL    HW216023   3.017   4.625   7.991 -0.4236  0.6712 -1.4968
 1464SOL     OW16024   3.914   1.159   7.305 -0.2273  0.1359 -0.6383
 1464SOL    HW116025   3.888   1.218   7.235  2.5827  0.1797 -1.6440
 1464SOL    HW216026   4.008   1.172   7.296 -0.1738 -0.4689 -0.9239
 1465SOL     OW16027   4.058   4.515   4.103  0.4769 -0.6076  0.0140
 1465SOL    HW116028   4.132   4.517   4.164  0.5068 -1.0729 -0.0051
 1465SOL    HW216029   3.995   4.567   4.153  0.1453  2.2744 -3.3446
 1466SOL     OW16030   0.964   4.656   4.175  0.1660 -0.0801 -0.2929
 1466SOL    HW116031   0.985   4.657   4.081  2.6759 -1.0722  0.2564
 1466SOL    HW216032   1.042   4.689   4.219  0.2450 -0.8688  0.1489
 1467SOL     OW16033   4.036   1.597   1.062  0.0117  0.6850 -0.4549
 1467SOL    HW116034   3.953   1.555   1.086 -0.5833  1.6320 -0.8664
 1467SOL    HW216035   4.038   1.581   0.967  0.3238  2.0356 -0.6761
 1468SOL     OW16036   2.244   0.109   9.784 -0.2598 -0.6542  0.1138
 1468SOL    HW116037   2.317   0.165   9.811 -0.6919  0.2008 -0.4716
 1468SOL    HW216038   2.244   0.037   9.848 -3.8445 -1.7291 -1.0813
 1469SOL     OW16039   4.246   4.200   3.848  0.3243  0.2187 -1.1723
 1469SOL    HW116040   4.269   4.195   3.941 -1.0171 -1.0064 -0.9142
 1469SOL    HW216041   4.271   4.111   3.824 -0.0357  0.3839 -2.1529
 1470SOL     OW16042   4.690   1.747   4.153 -0.0940 -0.0241 -0.4682
 1470SOL    HW116043   4.675   1.780   4.064 -1.1133 -2.2499 -1.1114
 1470SOL    HW216044   0.021   1.804   4.192 -0.2955 -0.5466  0.6358
 1471SOL     OW16045   3.293   1.203   6.267 -0.3765 -0.4522  0.5014
 1471SOL    HW116046   3.334   1.250   6.194  1.9103  0.3461  2.3080
 1471SOL    HW216047   3.346   1.229   6.342  0.8532 -0.1942 -0.4537
 1472SOL     OW16048   0.530   0.041   8.427  0.2520 -0.2804 -0.2011
 1472SOL    HW116049   0.616   0.082   8.414  1.4322 -3.1004 -1.2699
 1472SOL    HW216050   0.506   0.009   8.340  0.8476 -1.4800  0.0803
 1473SOL     OW16051   2.549   1.054   3.574 -0.4568 -0.4187  0.1941
 1473SOL    HW116052   2.474   1.047   3.632  0.1709  1.0326  1.1984
 1473SOL    HW216053   2.510   1.108   3.505  0.1141 -0.8679 -0.4777
 1474SOL     OW16054   0.181   1.063   0.032 -0.1818 -0.1347 -0.2469
 1474SOL    HW116055   0.100   1.071  17.721 -1.0274  1.2717  1.3218
 1474SOL    HW216056   0.174   1.131   0.100  0.1534 -1.1482  0.8131
 1475SOL     OW16057   4.059   3.103   4.605  0.1610 -0.3426 -0.8097
 1475SOL    HW116058   4.038   3.011   4.589  0.5289 -0.7305  0.9972
 1475SOL    HW216059   4.139   3.094   4.656  0.3942 -2.3980 -1.5211
 1476SOL     OW16060   0.088   0.485   5.470  0.3348  0.4039 -0.0617
 1476SOL    HW116061   0.140   0.466   5.548 -1.8248 -1.5041  0.9221
 1476SOL    HW216062   0.024   0.553   5.488 -0.9256 -0.9391  0.5865
 1477SOL     OW16063   4.041   3.078   6.321  0.8340 -1.0102  0.4512
 1477SOL    HW116064   4.081   3.050   6.238  1.1711  3.0291 -0.7480
 1477SOL    HW216065   4.092   3.157   6.336  0.2413 -0.3056 -1.2167
 1478SOL     OW16066   1.928   2.681   5.370 -0.1808 -0.3296  0.1429
 1478SOL    HW116067   1.965   2.595   5.389 -2.4232 -1.1846  0.6987
 1478SOL    HW216068   1.902   2.702   5.459 -1.4239  0.7363 -0.4595
 1479SOL     OW16069   4.192   1.165   0.785  0.5091 -0.4011  0.3245
 1479SOL    HW116070   4.285   1.184   0.803  0.7028  1.7529 -3.0211
 1479SOL    HW216071   4.204   1.129   0.698  2.1030  1.6092 -0.2961
 1480SOL     OW16072   0.540   2.553   2.379 -0.3746  0.5178  0.0435
 1480SOL    HW116073   0.544   2.641   2.340 -0.7606  1.2178  1.5948
 1480SOL    HW216074   0.445   2.551   2.387 -0.0493 -1.9478  3.0274
 1481SOL     OW16075   2.203   2.508   9.181 -0.2381  0.6971 -0.0907
 1481SOL    HW116076   2.248   2.585   9.145  1.8582  0.5116  2.0851
 1481SOL    HW216077   2.121   2.516   9.134  0.7776  3.9175 -1.3041
 1482SOL     OW16078   0.840   2.154  17.207  0.0447 -0.3566  0.0089
 1482SOL    HW116079   0.888   2.110  17.277  2.0637  0.1989 -1.0306
 1482SOL    HW216080   0.758   2.104  17.204 -0.4351  0.7209 -4.9307
 1483SOL     OW16081   0.873   2.666   7.663  0.2542  0.2103 -0.0021
 1483SOL    HW116082   0.868   2.574   7.690 -0.0780 -0.0393 -0.9199
 1483SOL    HW216083   0.898   2.647   7.573  1.8061 -0.2834  0.5271
 1484SOL     OW16084   1.064   3.752   7.700 -0.1796 -0.0105  0.8453
 1484SOL    HW116085   1.141   3.796   7.663 -0.3652  0.1227  0.6211
 1484SOL    HW216086   1.020   3.808   7.763 -0.2492  1.5821 -0.6098
 1485SOL     OW16087   3.274   2.500   2.120 -0.1536  0.4811 -0.0846
 1485SOL    HW116088   3.199   2.460   2.076  1.9775 -2.4928 -1.0666
 1485SOL    HW216089   3.302   2.559   2.050 -1.7531  0.8627 -0.3985
 1486SOL     OW16090   0.528   3.018   8.872 -0.0067 -0.0345  0.1821
 1486SOL    HW116091   0.526   3.113   8.872 -2.8252 -0.1019  0.1120
 1486SOL    HW216092   0.618   3.001   8.843  0.9269  2.3093  1.6614
 1487SOL     OW16093   4.066   4.150  13.298 -0.0082  0.4857  0.3553
 1487SOL    HW116094   3.989   4.094  13.311  1.4058 -1.8519 -1.4842
 1487SOL    HW216095   4.069   4.201  13.379 -1.3464  2.9884 -1.1397
 1488SOL     OW16096   0.361   4.053   7.384  0.7402 -0.0223  0.3691
 1488SOL    HW116097   0.443   4.101   7.380  0.6662  0.0528 -0.3268
 1488SOL    HW216098   0.392   3.963   7.390 -0.0830 -0.2482  1.3271
 1489SOL     OW16099   1.403   4.540   5.136  0.1945  0.4211 -0.0610
 1489SOL    HW116100   1.452   4.523   5.217  0.8206  0.9349 -0.3231
 1489SOL    HW216101   1.458   4.500   5.068 -1.4383 -0.1337 -1.0505
 1490SOL     OW16102   3.752   3.751   2.676  0.0139 -0.2785  0.3176
 1490SOL    HW116103   3.665   3.714   2.696  1.3062 -3.2579  0.5168
 1490SOL    HW216104   3.798   3.666   2.678 -1.0532 -0.9011 -2.1594
 1491SOL     OW16105   1.760   2.283   2.084 -0.0433 -0.9257  0.0767
 1491SOL    HW116106   1.754   2.324   2.170  1.8487  0.2605 -0.3566
 1491SOL    HW216107   1.714   2.350   2.034 -0.7280 -0.9056  0.7231
 1492SOL     OW16108   2.681   4.459   3.097  0.4373  0.7462  0.2353
 1492SOL    HW116109   2.593   4.450   3.132 -0.3233 -0.7401 -2.0570
 1492SOL    HW216110   2.700   4.376   3.053 -1.5961 -0.5845  1.8861
 1493SOL     OW16111   0.369   1.267   5.485 -0.9426  0.0531 -0.0512
 1493SOL    HW116112   0.380   1.336   5.550 -1.0832  1.7044 -1.7669
 1493SOL    HW216113   0.289   1.226   5.518 -0.6137 -1.9772 -1.7381
 1494SOL     OW16114   0.675   0.364   7.197 -0.4059 -0.2969  0.2795
 1494SOL    HW116115   0.598   0.321   7.234  0.4415 -0.9894  1.2514
 1494SOL    HW216116   0.702   0.397   7.283 -1.4198  1.9622 -0.2900
 1495SOL     OW16117   1.506   3.186   7.350 -0.4980  0.0321  0.2343
 1495SOL    HW116118   1.539   3.266   7.391  0.7158 -1.0765  1.4110
 1495SOL    HW216119   1.585   3.133   7.356 -0.2102  0.4096 -0.1991
 1496SOL     OW16120   0.478   4.022   7.676 -0.5357  0.3496 -0.5413
 1496SOL    HW116121   0.553   3.976   7.713 -0.6204 -1.6280 -2.8650
 1496SOL    HW216122   0.415   3.955   7.649 -2.0514  0.0613  3.7153
 1497SOL     OW16123   0.556   3.414   0.797 -0.0553 -0.4352  0.1544
 1497SOL    HW116124   0.497   3.416   0.722  1.7405  2.1036 -1.2279
 1497SOL    HW216125   0.606   3.333   0.789  0.0813 -0.3512  0.1515
 1498SOL     OW16126   2.835   3.427   9.398  0.0115 -0.2504 -0.7054
 1498SOL    HW116127   2.923   3.442   9.363  1.3838 -1.8838  2.0762
 1498SOL    HW216128   2.852   3.364   9.468 -0.6395  0.8807  0.4695
 1499SOL     OW16129   2.572   1.577   4.295  0.0055 -0.2269 -0.0611
 1499SOL    HW116130   2.508   1.569   4.225  0.2499  0.6678 -0.3786
 1499SOL    HW216131   2.534   1.644   4.352 -1.2276 -1.1575  0.2065
 1500SOL     OW16132   1.478   4.113  13.249 -0.2961 -0.0872  0.2679
 1500SOL    HW116133   1.523   4.188  13.288 -0.6382 -1.0955  2.5878
 1500SOL    HW216134   1.475   4.134  13.155  0.6281  1.0914  0.4905
 1501SOL     OW16135   2.290   1.883   7.611 -0.5610  0.4196 -0.0999
 1501SOL    HW116136   2.376   1.881   7.570 -0.4997  0.1888  0.0426
 1501SOL    HW216137   2.263   1.791   7.610  0.6685  0.0726 -1.5255
 1502SOL     OW16138   1.430   3.000  14.391 -0.4772 -0.0514  0.6147
 1502SOL    HW116139   1.454   3.007  14.299  0.8926  1.0465  1.0591
 1502SOL    HW216140   1.357   2.939  14.378  0.8937 -1.2014 -1.4553
 1503SOL     OW16141   3.338   1.632  13.751 -0.0831  0.0722  0.3660
 1503SOL    HW116142   3.327   1.707  13.810 -1.2440 -0.4049  0.7410
 1503SOL    HW216143   3.433   1.634  13.740 -0.3368  3.0124 -1.0656
 1504SOL     OW16144   0.798   0.668   8.589  0.4600  0.0478  0.2080
 1504SOL    HW116145   0.807   0.761   8.609 -0.4901  0.5834 -1.7786
 1504SOL    HW216146   0.791   0.632   8.677 -3.9004 -1.5444 -0.7957
 1505SOL     OW16147   0.853   0.553   2.466 -0.0281 -0.0335 -0.1230
 1505SOL    HW116148   0.908   0.478   2.488  0.6092 -0.1725 -2.1215
 1505SOL    HW216149   0.880   0.565   2.375  1.4832  2.6708  0.6952
 1506SOL     OW16150   3.890   3.327  15.479 -0.1519 -0.5331 -0.1925
 1506SOL    HW116151   3.872   3.370  15.563 -0.0497  1.8248 -1.3586
 1506SOL    HW216152   3.906   3.397  15.415  1.6336  0.4506  1.3224
 1507SOL     OW16153   0.323   2.934   8.705  0.5131 -0.3702 -0.1175
 1507SOL    HW116154   0.378   2.946   8.782  0.1731 -0.3804  0.1264
 1507SOL    HW216155   0.288   2.849   8.732 -0.2098 -0.8357 -2.5373
 1508SOL     OW16156   1.345   3.953  16.070  0.1780 -0.1386 -0.1560
 1508SOL    HW116157   1.424   3.999  16.096 -0.4697  0.3659  0.9032
 1508SOL    HW216158   1.276   4.018  16.083 -1.7965 -2.2795  0.2665
 1509SOL     OW16159   3.971   4.260   4.339 -0.1968  0.2642 -0.0726
 1509SOL    HW116160   3.946   4.325   4.404  1.0172 -1.6462  2.2740
 1509SOL    HW216161   3.894   4.202   4.336  0.7343 -1.1627  4.0888
 1510SOL     OW16162   2.793   0.800   3.149 -0.1459  0.6960  0.0405
 1510SOL    HW116163   2.820   0.715   3.115  0.7004  1.4453 -1.1850
 1510SOL    HW216164   2.698   0.794   3.154 -0.2105  3.1807  1.7494
 1511SOL     OW16165   4.270   0.518   2.497  0.3619  0.2372 -0.4182
 1511SOL    HW116166   4.213   0.564   2.436  1.0962  1.0358 -0.4992
 1511SOL    HW216167   4.207   0.452   2.528 -0.0498  0.3551 -0.9986
 1512SOL     OW16168   2.591   2.755   4.796  0.2689 -0.1262 -0.0684
 1512SOL    HW116169   2.683   2.737   4.817  0.2654  1.1841  1.0739
 1512SOL    HW216170   2.587   2.848   4.774 -2.5028 -0.8277 -2.4544
 1513SOL     OW16171   2.412   0.051   7.942  0.2726  0.1675 -0.2748
 1513SOL    HW116172   2.336   0.063   7.885 -1.6919  0.2472  2.3779
 1513SOL    HW216173   2.417   4.690   7.940  0.1452  0.1673 -0.7201
 1514SOL     OW16174   4.721   3.328  15.428  0.0039 -0.5249  0.8076
 1514SOL    HW116175   4.655   3.390  15.459  1.7961  1.6359  0.2794
 1514SOL    HW216176   0.045   3.323  15.504  0.5179 -0.8407  0.3836
 1515SOL     OW16177   1.082   4.294   2.181  0.2072  0.3636  0.8251
 1515SOL    HW116178   1.116   4.219   2.132 -0.4581  0.7762 -0.2583
 1515SOL    HW216179   1.096   4.269   2.273 -0.4795  0.4509  0.9543
 1516SOL     OW16180   1.994   3.314  16.312  0.1788 -0.0631 -0.2673
 1516SOL    HW116181   2.021   3.233  16.268 -2.1209 -2.1107  2.1471
 1516SOL    HW216182   1.993   3.282  16.402 -2.3468  0.8978  0.0348
 1517SOL     OW16183   0.568   4.283   4.302  0.3762 -0.5028  0.5388
 1517SOL    HW116184   0.572   4.334   4.221 -1.0245 -2.2806 -0.6247
 1517SOL    HW216185   0.486   4.316   4.338  0.3601  0.5705 -0.4565
 1518SOL     OW16186   3.721   0.074   5.609  0.2365  0.5336  0.6045
 1518SOL    HW116187   3.727   0.085   5.704  0.6374 -2.2320  0.8843
 1518SOL    HW216188   3.743   0.162   5.579 -0.4596  0.5774  0.2107
 1519SOL     OW16189   1.491   3.494   5.190 -0.3554  0.4221  0.2903
 1519SOL    HW116190   1.486   3.419   5.249 -0.9899 -0.3952 -0.8118
 1519SOL    HW216191   1.399   3.505   5.168  0.1286  1.4455 -1.2020
 1520SOL     OW16192   1.861   2.655   1.158 -0.7493 -0.3284  0.3212
 1520SOL    HW116193   1.799   2.613   1.099  1.9199 -0.2924 -2.4996
 1520SOL    HW216194   1.902   2.578   1.197 -1.1435 -0.0183  1.3346
 1521SOL     OW16195   0.829   3.774  15.622 -0.9447 -0.3812  0.4271
 1521SOL    HW116196   0.896   3.710  15.647 -1.3966 -1.2309 -0.5550
 1521SOL    HW216197   0.811   3.757  15.530  0.3981  0.3564  0.0258
 1522SOL     OW16198   4.268   1.410  10.458  0.3776 -0.1148 -0.7608
 1522SOL    HW116199   4.257   1.370  10.372  0.0535  1.2736 -1.3672
 1522SOL    HW216200   4.277   1.334  10.517  2.0302 -0.2267 -1.1594
 1523SOL     OW16201   1.314   3.845   2.263  0.3025  0.1244 -0.4682
 1523SOL    HW116202   1.339   3.759   2.230  1.5834  0.9187 -1.5711
 1523SOL    HW216203   1.382   3.903   2.228 -0.5674  1.7796  0.6119
 1524SOL     OW16204   3.833   2.545   3.252 -0.0373 -0.1215 -0.1025
 1524SOL    HW116205   3.799   2.466   3.210 -2.3173  1.2463 -0.8011
 1524SOL    HW216206   3.910   2.560   3.197  0.0797  0.1325  0.1283
 1525SOL     OW16207   1.885   4.502   5.911 -0.0014  0.3562  0.0667
 1525SOL    HW116208   1.881   4.560   5.835 -1.2957  0.5973  0.3180
 1525SOL    HW216209   1.794   4.518   5.936  0.2062 -0.2113  1.1683
 1526SOL     OW16210   4.496   0.175   2.339  0.1355  0.1123 -0.2315
 1526SOL    HW116211   4.476   0.246   2.278 -1.4511 -0.3209 -0.2268
 1526SOL    HW216212   4.420   0.120   2.359  1.5356 -2.3539 -1.6991
 1527SOL     OW16213   3.569   3.822   1.357  0.0661  0.1183 -0.1838
 1527SOL    HW116214   3.589   3.833   1.264 -1.7810  0.7878 -0.4885
 1527SOL    HW216215   3.656   3.828   1.396 -0.0179  1.1608 -0.1677
 1528SOL     OW16216   2.595   1.617   3.221  0.0461 -0.4657  0.9248
 1528SOL    HW116217   2.623   1.528   3.201  0.0505 -0.5633  1.3537
 1528SOL    HW216218   2.675   1.669   3.215 -0.0619 -0.5536 -1.0790
 1529SOL     OW16219   1.547   3.986   2.220  0.0682  0.4534 -0.5410
 1529SOL    HW116220   1.595   3.976   2.303 -0.9415 -2.2031 -0.2754
 1529SOL    HW216221   1.617   3.964   2.159  0.5176 -0.3644  0.2604
 1530SOL     OW16222   0.903   4.159  17.264 -0.0288  0.1651  0.0816
 1530SOL    HW116223   0.991   4.181  17.294  0.2554  0.0856 -0.7013
 1530SOL    HW216224   0.862   4.239  17.229  1.2448  0.9095  0.2753
 1531SOL     OW16225   3.439   2.248   3.173 -0.6129  0.2391 -0.8724
 1531SOL    HW116226   3.463   2.273   3.083  1.0350  1.0890 -0.2088
 1531SOL    HW216227   3.449   2.154   3.165 -0.2461  0.2578 -0.6312
 1532SOL     OW16228   1.546   1.238   7.107 -0.4632  0.4660  0.1391
 1532SOL    HW116229   1.451   1.224   7.114 -0.1421 -1.8869 -0.4919
 1532SOL    HW216230   1.559   1.331   7.128  0.2922  0.2228  0.7197
 1533SOL     OW16231   0.495   2.284   4.844  0.3657  0.5087  0.0538
 1533SOL    HW116232   0.522   2.201   4.885  1.2681  0.2147 -1.1395
 1533SOL    HW216233   0.469   2.253   4.758  1.8681  0.3552 -0.3532
 1534SOL     OW16234   0.975   1.977   6.160 -0.0226 -0.3034 -0.0962
 1534SOL    HW116235   1.009   2.065   6.148  0.8195 -0.7338 -0.8575
 1534SOL    HW216236   0.884   1.991   6.188  0.4686 -0.6622  1.7219
 1535SOL     OW16237   0.379   0.057   1.901 -0.1479 -0.4274 -0.1617
 1535SOL    HW116238   0.395   0.079   1.993 -1.2478  0.3771 -0.1582
 1535SOL    HW216239   0.408   0.131   1.849 -2.3711  0.4625 -0.1356
 1536SOL     OW16240   1.980   4.354   0.845 -0.1538 -0.4259 -0.3744
 1536SOL    HW116241   2.049   4.420   0.850 -0.5044 -0.0270 -0.7558
 1536SOL    HW216242   2.035   4.284   0.811  1.3587 -0.1740  1.5354
 1537SOL     OW16243   4.726   2.989   7.299  0.1165  0.2770  0.6306
 1537SOL    HW116244   4.716   2.952   7.386  0.6765  0.7792  0.9141
 1537SOL    HW216245   0.051   3.062   7.316  0.7251 -0.1947  0.5381
 1538SOL     OW16246   0.251   0.411   2.420  0.0071  0.0096  0.0647
 1538SOL    HW116247   0.274   0.489   2.471 -1.1942  0.7497 -0.5309
 1538SOL    HW216248   0.219   0.449   2.338  0.5868 -0.6615 -0.4765
 1539SOL     OW16249   1.214   0.428   2.338  0.3338  0.2801  0.1839
 1539SOL    HW116250   1.148   0.374   2.293 -0.0756 -0.0430  1.1888
 1539SOL    HW216251   1.231   0.478   2.258 -0.3564  2.2350  1.2446
 1540SOL     OW16252   3.857   0.568  10.587  0.5370  0.0915  0.2193
 1540SOL    HW116253   3.894   0.545  10.672 -1.4224 -0.5500  0.8949
 1540SOL    HW216254   3.866   0.663  10.595  1.0582  0.0697 -0.0983
 1541SOL     OW16255   4.240   1.770   3.382 -0.2616 -0.0878 -0.5466
 1541SOL    HW116256   4.333   1.784   3.401 -0.0283 -1.6428 -0.4730
 1541SOL    HW216257   4.200   1.843   3.429  0.8951 -0.9024  1.7547
 1542SOL     OW16258   0.631   4.341   6.595  0.3296 -0.5507 -0.4974
 1542SOL    HW116259   0.568   4.412   6.579  0.4101 -0.0275  1.6167
 1542SOL    HW216260   0.569   4.269   6.605  1.0866 -0.7360  2.7246
 1543SOL     OW16261   0.196   0.117  15.426 -0.3032 -0.5987  0.4244
 1543SOL    HW116262   0.155   0.074  15.502  0.0834 -0.6575  0.5993
 1543SOL    HW216263   0.240   0.038  15.395  0.4222 -0.3734  0.8977
 1544SOL     OW16264   3.731   2.568   9.492 -0.2016  0.0069 -0.4425
 1544SOL    HW116265   3.757   2.625   9.564 -0.5559  0.6449 -0.8198
 1544SOL    HW216266   3.821   2.556   9.462  0.1837  0.4781  0.5225
 1545SOL     OW16267   2.862   3.615   1.768  0.3813  0.1012 -0.6261
 1545SOL    HW116268   2.927   3.554   1.732 -0.7319 -2.0245  0.9487
 1545SOL    HW216269   2.921   3.652   1.835 -1.9750  1.0438  0.9139
 1546SOL     OW16270   4.131   3.116   9.052 -0.5588  0.5581 -0.0700
 1546SOL    HW116271   4.128   3.212   9.057  0.5870  0.5423  1.0962
 1546SOL    HW216272   4.066   3.099   9.120 -1.2422 -0.9090 -1.0876
 1547SOL     OW16273   3.487   2.316   1.832  0.6141  0.2362  0.2532
 1547SOL    HW116274   3.405   2.266   1.826  0.9732 -0.6001  2.7379
 1547SOL    HW216275   3.526   2.290   1.748  2.3665  2.5747  0.3543
 1548SOL     OW16276   4.484   3.570   8.882  0.3272 -0.0982  0.9545
 1548SOL    HW116277   4.568   3.596   8.920  0.5659 -0.1566  0.4544
 1548SOL    HW216278   4.492   3.475   8.890 -1.6176 -0.4673 -1.4012
 1549SOL     OW16279   0.674   1.061   1.568 -0.2137  0.2372 -0.1359
 1549SOL    HW116280   0.599   1.029   1.618 -0.3991  0.8661 -0.0061
 1549SOL    HW216281   0.629   1.082   1.486 -2.1046 -1.2356  0.5341
 1550SOL     OW16282   0.124   0.877   4.566  0.5908 -0.4006  0.0443
 1550SOL    HW116283   0.183   0.929   4.621 -2.6896  3.8475 -0.4537
 1550SOL    HW216284   0.129   0.787   4.599  0.0011 -1.1182 -1.8283
 1551SOL     OW16285   3.932   0.501   3.395  0.3772  0.2322 -0.0514
 1551SOL    HW116286   3.938   0.540   3.482  0.7388  0.0862 -0.0126
 1551SOL    HW216287   3.866   0.552   3.347  0.1092  1.7822  2.0037
 1552SOL     OW16288   2.041   3.751   2.389  0.3269  0.1131  0.1301
 1552SOL    HW116289   2.078   3.798   2.314 -0.2956 -2.8197 -2.0349
 1552SOL    HW216290   2.062   3.659   2.373 -0.2179 -0.1306  0.8355
 1553SOL     OW16291   2.171   0.065   2.986  0.9009 -0.2180  0.4623
 1553SOL    HW116292   2.146   4.708   2.990 -2.9376  0.7679 -0.9068
 1553SOL    HW216293   2.186   0.057   2.891  0.4089 -0.6011  0.4199
 1554SOL     OW16294   3.854   0.146   8.685 -0.5453  0.4422 -0.2869
 1554SOL    HW116295   3.862   0.164   8.591 -1.7423  0.1293 -0.4534
 1554SOL    HW216296   3.938   0.102   8.697 -0.4909  0.7695  0.4828
 1555SOL     OW16297   1.853   4.657   7.372  0.1123 -0.3800  0.2354
 1555SOL    HW116298   1.866   4.702   7.456  0.1160  1.6463 -0.8652
 1555SOL    HW216299   1.892   4.722   7.314  0.3706  0.6723  1.5910
 1556SOL     OW16300   3.173   4.310   6.032  0.3052  0.2608 -0.9959
 1556SOL    HW116301   3.176   4.346   5.943  1.8395 -1.0439 -1.4774
 1556SOL    HW216302   3.215   4.226   6.016  0.1056  0.7128 -3.9044
 1557SOL     OW16303   0.141   1.192   1.022 -0.2418 -0.2178  0.1627
 1557SOL    HW116304   0.167   1.102   0.998 -0.3090 -0.0972 -0.3770
 1557SOL    HW216305   0.114   1.172   1.111 -0.0258  1.1693  0.5285
 1558SOL     OW16306   2.515   1.925   8.417  0.5102 -0.4516 -0.0899
 1558SOL    HW116307   2.561   1.929   8.333 -1.6640  0.6298 -1.2447
 1558SOL    HW216308   2.562   1.864   8.473  0.2293  0.0929  0.7405
 1559SOL     OW16309   2.116   3.641  11.823  0.1950  0.0764 -0.3001
 1559SOL    HW116310   2.159   3.674  11.902 -1.7517 -0.5002  1.0240
 1559SOL    HW216311   2.073   3.564  11.861  0.0529  0.9765  1.3791
 1560SOL     OW16312   2.656   0.350  11.669  0.1232  0.4962 -0.2801
 1560SOL    HW116313   2.623   0.260  11.664  0.7315  0.1692  1.4324
 1560SOL    HW216314   2.671   0.368  11.576 -4.6551  1.5999 -0.8517
 1561SOL     OW16315   0.485   3.457   8.365  0.2760  0.2378  0.3931
 1561SOL    HW116316   0.439   3.532   8.328  1.6469  1.2914  0.8540
 1561SOL    HW216317   0.436   3.455   8.447 -0.9287 -0.0939 -0.3368
 1562SOL     OW16318   1.982   0.558   8.678 -0.4617 -0.1942 -0.4672
 1562SOL    HW116319   1.903   0.594   8.717 -0.8545 -2.0313  0.4784
 1562SOL    HW216320   2.030   0.524   8.754  0.2014  3.2055  0.6297
 1563SOL     OW16321   3.016   3.972   5.214 -0.4303  0.4741  0.0622
 1563SOL    HW116322   3.065   4.038   5.263 -0.1346  4.0026 -5.0330
 1563SOL    HW216323   2.931   3.998   5.250  0.2529  3.0137 -0.1731
 1564SOL     OW16324   3.938   4.561   6.454 -0.5913 -0.0351  0.2513
 1564SOL    HW116325   3.873   4.621   6.490  1.3749  1.4509  1.3485
 1564SOL    HW216326   3.927   4.580   6.360 -1.2658 -1.2579  0.0873
 1565SOL     OW16327   1.508   0.551   5.521 -0.0165  0.1997 -0.9844
 1565SOL    HW116328   1.439   0.616   5.532 -0.4569 -0.3889 -0.3040
 1565SOL    HW216329   1.576   0.601   5.476  1.3331 -1.9740 -1.3421
 1566SOL     OW16330   2.941   3.766   3.640 -0.2692  0.1141  0.0334
 1566SOL    HW116331   2.889   3.689   3.616 -0.2440 -0.4601  1.8637
 1566SOL    HW216332   3.026   3.723   3.652 -0.6357 -0.6645 -0.1635
 1567SOL     OW16333   0.199   1.135   3.325 -0.2262 -0.9542  0.1890
 1567SOL    HW116334   0.151   1.056   3.301 -0.1343 -0.8954 -0.1869
 1567SOL    HW216335   0.242   1.100   3.403  0.0596 -0.3346  0.3100
 1568SOL     OW16336   1.869   0.872   8.745 -0.6624 -0.1234 -0.6943
 1568SOL    HW116337   1.782   0.887   8.781 -0.2955  1.6245 -0.5788
 1568SOL    HW216338   1.893   0.960   8.718  0.9880 -0.4437 -0.3148
 1569SOL     OW16339   0.176   1.969   5.543  0.0444  0.7003  0.5694
 1569SOL    HW116340   0.253   1.939   5.592 -0.9073 -0.4246  1.3707
 1569SOL    HW216341   0.103   1.936   5.595  1.3487 -0.8508  1.4094
 1570SOL     OW16342   4.187   3.287   5.592 -0.3051  0.3214  0.8679
 1570SOL    HW116343   4.181   3.200   5.631 -1.8831  0.1834  0.3252
 1570SOL    HW216344   4.158   3.261   5.504 -1.4532 -0.8572  1.6040
 1571SOL     OW16345   4.554   1.530   7.618 -0.4885  0.7304 -0.2285
 1571SOL    HW116346   4.584   1.523   7.708 -1.5669  0.8957  0.1494
 1571SOL    HW216347   4.476   1.474   7.629  2.1231 -2.3390  2.5033
 1572SOL     OW16348   1.181   2.742   4.968 -0.0247  0.5498 -0.0623
 1572SOL    HW116349   1.218   2.692   4.895  0.9292  3.1690 -1.3429
 1572SOL    HW216350   1.257   2.765   5.021  0.2501 -1.6657  0.5064
 1573SOL     OW16351   1.532   0.326  14.892 -0.3897  0.4922  0.5466
 1573SOL    HW116352   1.506   0.261  14.958  1.5293 -0.7293  0.1024
 1573SOL    HW216353   1.627   0.319  14.905 -0.2942  1.0853  0.1564
 1574SOL     OW16354   0.160   3.970   6.536  0.0241  0.6106  0.1995
 1574SOL    HW116355   0.195   3.881   6.534 -0.9327  0.2399 -0.2900
 1574SOL    HW216356   0.121   3.986   6.449 -0.8484 -0.8754  0.3176
 1575SOL     OW16357   4.331   0.649   7.561  0.2109 -0.8419  0.1650
 1575SOL    HW116358   4.291   0.573   7.603 -0.0986  0.0662  1.4927
 1575SOL    HW216359   4.249   0.694   7.545  1.0245  1.2490  1.8907
 1576SOL     OW16360   4.103   0.008  15.969 -0.1104  0.2085  0.0229
 1576SOL    HW116361   4.127   0.085  15.918  0.2918 -0.6251 -1.0377
 1576SOL    HW216362   4.109   4.682  15.896  0.7287 -0.6648  0.8292
 1577SOL     OW16363   4.041   0.710   3.066 -0.2372 -0.3049 -0.6815
 1577SOL    HW116364   4.022   0.620   3.042 -0.5348  0.0228 -1.6931
 1577SOL    HW216365   4.135   0.705   3.047 -0.1043  1.2643 -0.4637
 1578SOL     OW16366   1.089   3.857   3.828 -0.1299  0.2122  0.6872
 1578SOL    HW116367   1.082   3.864   3.733  1.1399  1.2063  0.6652
 1578SOL    HW216368   1.015   3.805   3.857 -1.8771  2.0626 -0.5182
 1579SOL     OW16369   3.191   1.959  10.613 -0.0844 -0.2710  0.6740
 1579SOL    HW116370   3.153   1.878  10.580  1.5641 -0.1734 -1.4610
 1579SOL    HW216371   3.278   1.938  10.647 -0.4465 -2.3985  0.2861
 1580SOL     OW16372   1.301   2.312   5.500 -0.5225 -0.8297  0.0537
 1580SOL    HW116373   1.285   2.223   5.470 -0.1206 -0.8545 -0.0965
 1580SOL    HW216374   1.279   2.355   5.417  2.0924  0.2776 -0.0879
 1581SOL     OW16375   1.376   1.478   1.961  0.3902 -0.2873  0.2925
 1581SOL    HW116376   1.385   1.573   1.959 -0.7331 -0.2156 -1.0248
 1581SOL    HW216377   1.281   1.476   1.953  0.3118  0.9104  0.9868
 1582SOL     OW16378   4.518   4.285   6.260 -0.4250  0.0192  0.0541
 1582SOL    HW116379   4.479   4.296   6.173 -1.6060  1.3427  0.7410
 1582SOL    HW216380   4.469   4.211   6.296 -0.9509  0.8331  1.0135
 1583SOL     OW16381   2.520   3.331   3.374  0.0185  0.3459  0.4290
 1583SOL    HW116382   2.542   3.308   3.465  0.2639 -1.7779 -0.1932
 1583SOL    HW216383   2.439   3.379   3.389 -0.1682 -0.1301  0.9505
 1584SOL     OW16384   2.128   4.076   6.163  0.0443 -0.9495 -0.0240
 1584SOL    HW116385   2.170   3.990   6.164  3.1449  0.5291 -0.5740
 1584SOL    HW216386   2.045   4.058   6.118 -0.8526 -0.4768  1.4546
 1585SOL     OW16387   1.104   0.440   5.918 -0.3097 -0.5868  0.6781
 1585SOL    HW116388   1.134   0.466   5.831  1.2466  1.9833  1.9947
 1585SOL    HW216389   1.058   0.358   5.897  0.7795 -0.9554 -0.2820
 1586SOL     OW16390   3.089   1.464   4.212  0.0392  0.1376  0.2476
 1586SOL    HW116391   3.104   1.371   4.230  1.4651  0.1558 -0.8014
 1586SOL    HW216392   3.012   1.489   4.262  0.2807  1.0339  0.1826
 1587SOL     OW16393   4.535   1.105  10.370 -0.6654 -0.5116 -0.2618
 1587SOL    HW116394   4.486   1.044  10.424 -0.4394  1.2025  1.8496
 1587SOL    HW216395   4.575   1.155  10.441 -0.8063  0.5747 -0.9525
 1588SOL     OW16396   1.378   2.681   5.863  1.0566  0.2038 -0.5152
 1588SOL    HW116397   1.466   2.647   5.848  0.1720 -1.2414 -2.2999
 1588SOL    HW216398   1.331   2.606   5.828 -0.0212 -0.3836  2.2256
 1589SOL     OW16399   3.425   4.250   2.809  0.0966 -0.6559 -0.5160
 1589SOL    HW116400   3.440   4.182   2.876  0.7733  1.0704  1.1015
 1589SOL    HW216401   3.514   4.277   2.788  0.3186 -0.8462  0.1583
 1590SOL     OW16402   0.513   4.325   3.018 -0.7093  0.1127 -0.3946
 1590SOL    HW116403   0.581   4.324   3.086 -1.4473  0.0403  0.3382
 1590SOL    HW216404   0.573   4.315   2.945  2.4763  1.5789  2.0160
 1591SOL     OW16405   1.224   4.116   6.073  0.6750 -0.0347 -0.0221
 1591SOL    HW116406   1.237   4.210   6.086  1.6532 -0.7593  3.9564
 1591SOL    HW216407   1.130   4.108   6.089  0.8311  0.8767  1.3382
 1592SOL     OW16408   2.567   3.085  11.148  0.1776 -0.1398 -0.4561
 1592SOL    HW116409   2.560   3.180  11.133  0.4918  0.3129  2.1458
 1592SOL    HW216410   2.522   3.043  11.076  1.7064 -0.4568 -1.2231
 1593SOL     OW16411   1.317   0.774  13.707 -0.1521  0.0933 -0.3045
 1593SOL    HW116412   1.369   0.695  13.718  0.4893  0.3666 -1.2888
 1593SOL    HW216413   1.356   0.834  13.771  1.2403 -0.4076 -0.6803
 1594SOL     OW16414   1.027   4.433  17.592 -0.2733 -0.2707 -0.2786
 1594SOL    HW116415   0.945   4.386  17.603 -1.1072  1.1182 -0.5134
 1594SOL    HW216416   1.095   4.366  17.587 -0.9504 -0.8050 -2.1999
 1595SOL     OW16417   4.608   0.541   2.874 -0.5118  0.3264  0.7931
 1595SOL    HW116418   4.583   0.506   2.960  0.2970 -0.1867  0.8203
 1595SOL    HW216419   4.527   0.567   2.832 -0.2976  1.6643  1.2044
 1596SOL     OW16420   1.572   4.400   8.053 -1.2153  0.1449 -0.5676
 1596SOL    HW116421   1.665   4.420   8.052 -1.2712  0.3706 -1.0171
 1596SOL    HW216422   1.564   4.325   8.112  2.2068 -2.9555 -4.1338
 1597SOL     OW16423   3.240   3.494   5.213  0.2094 -0.3161 -0.4703
 1597SOL    HW116424   3.249   3.580   5.170 -1.7790 -0.0589 -0.3459
 1597SOL    HW216425   3.209   3.520   5.300 -0.3133  1.2540 -1.1154
 1598SOL     OW16426   0.759   2.850   8.818 -0.7109  0.4925  0.4243
 1598SOL    HW116427   0.804   2.920   8.770 -2.2214 -0.2390 -2.0597
 1598SOL    HW216428   0.781   2.860   8.910 -1.1150  0.1993  0.5498
 1599SOL     OW16429   3.304   0.657   6.472 -0.7408  0.1735 -0.2557
 1599SOL    HW116430   3.358   0.641   6.549 -0.7957  0.8146 -0.0843
 1599SOL    HW216431   3.273   0.747   6.481 -0.5626  0.0668  1.3499
 1600SOL     OW16432   0.371   1.462  15.892  0.3335  0.1486 -0.1339
 1600SOL    HW116433   0.310   1.531  15.868 -0.7062 -0.9242 -0.6003
 1600SOL    HW216434   0.440   1.483  15.829  1.5194  0.9905  1.4459
 1601SOL     OW16435   3.339   2.912   5.943 -0.5560  0.6111  0.0422
 1601SOL    HW116436   3.398   2.868   5.882 -0.7722 -0.1485  0.3790
 1601SOL    HW216437   3.279   2.838   5.954 -1.8465  1.5492 -0.7333
 1602SOL     OW16438   2.805   2.051   4.080  0.6119  0.1781 -0.1131
 1602SOL    HW116439   2.804   2.134   4.127  1.4670 -0.7795  1.6413
 1602SOL    HW216440   2.890   2.060   4.037  1.3669  0.1983  1.3453
 1603SOL     OW16441   1.969   4.275   6.304 -0.0428  0.1030  0.2728
 1603SOL    HW116442   1.986   4.361   6.265 -0.7208  0.4938  0.8219
 1603SOL    HW216443   2.015   4.218   6.244 -0.8482  2.3232 -2.4591
 1604SOL     OW16444   0.527   0.252   0.327  0.2672 -0.1851  0.0392
 1604SOL    HW116445   0.522   0.269   0.421  1.0910  0.6358 -0.0709
 1604SOL    HW216446   0.478   0.170   0.319 -1.7177  1.2147 -2.1425
 1605SOL     OW16447   1.363   4.564   8.027  1.0634 -0.1907  0.9007
 1605SOL    HW116448   1.437   4.504   8.026  1.6233  0.5267 -0.9608
 1605SOL    HW216449   1.351   4.579   8.121 -0.1011  0.5645  0.6289
 1606SOL     OW16450   0.794   2.917  10.928 -0.0990  0.0469  0.0775
 1606SOL    HW116451   0.700   2.904  10.920 -0.1673 -0.3761  1.6310
 1606SOL    HW216452   0.792   2.964  11.011 -2.2888  0.4148 -0.1873
 1607SOL     OW16453   0.589   1.332   8.991  0.1680 -0.4194 -0.1115
 1607SOL    HW116454   0.616   1.351   8.901  0.5394  1.9977  0.4991
 1607SOL    HW216455   0.558   1.417   9.023 -0.4182 -0.1136 -1.4805
 1608SOL     OW16456   3.023   0.956  16.872 -0.9327  0.1387 -0.4947
 1608SOL    HW116457   2.966   0.902  16.926 -0.9459 -0.3890 -1.0404
 1608SOL    HW216458   3.102   0.931  16.921 -1.4109 -0.3565  0.0239
 1609SOL     OW16459   1.753   4.715  13.096 -0.2944 -0.2130  0.0779
 1609SOL    HW116460   1.826   4.697  13.155  0.7768  2.4467 -0.4340
 1609SOL    HW216461   1.685   4.669  13.146  0.0483  0.5982  1.2839
 1610SOL     OW16462   0.699   2.163  15.710  0.1725 -0.0996 -0.0919
 1610SOL    HW116463   0.695   2.140  15.803  1.3517  0.3408  0.0696
 1610SOL    HW216464   0.771   2.227  15.712  1.9314 -2.0574 -1.2219
 1611SOL     OW16465   1.314   4.357   1.233 -0.0221  0.4549  0.5621
 1611SOL    HW116466   1.271   4.280   1.270 -2.1184  1.1235 -0.4827
 1611SOL    HW216467   1.383   4.317   1.181  0.2830  2.7884 -0.8451
 1612SOL     OW16468   0.501   3.487   3.789  0.0095 -0.8515  0.4084
 1612SOL    HW116469   0.497   3.394   3.810 -0.0357 -1.7109 -3.3759
 1612SOL    HW216470   0.470   3.530   3.869 -0.9333 -2.5559  0.9590
 1613SOL     OW16471   0.110   4.045   8.322 -0.9012  0.1079  0.2985
 1613SOL    HW116472   0.023   4.012   8.344 -2.4425  0.8007 -4.8499
 1613SOL    HW216473   0.148   3.959   8.341 -1.8474 -0.4246 -0.2269
 1614SOL     OW16474   3.345   2.922  11.535 -0.3091  0.0749  0.1291
 1614SOL    HW116475   3.318   2.918  11.444 -0.5168 -1.0753  0.2395
 1614SOL    HW216476   3.271   2.892  11.588  0.8854  0.0017  1.7447
 1615SOL     OW16477   2.486   4.503  16.430  0.4536 -1.1459 -0.0783
 1615SOL    HW116478   2.570   4.522  16.388  0.6621  0.9906  1.2982
 1615SOL    HW216479   2.449   4.591  16.426  0.9325 -1.1043 -4.4463
 1616SOL     OW16480   4.040   4.473   3.148 -0.4708  0.3032 -0.2204
 1616SOL    HW116481   4.134   4.464   3.164 -0.6190  1.3315  1.1387
 1616SOL    HW216482   4.029   4.567   3.157 -2.3372 -0.1019  1.6127
 1617SOL     OW16483   0.908   1.832   6.643 -0.1543  0.4121 -0.1698
 1617SOL    HW116484   0.822   1.875   6.653 -1.6589 -2.0763 -2.3717
 1617SOL    HW216485   0.933   1.881   6.564  1.5493 -1.0442 -0.5078
 1618SOL     OW16486   4.460   0.293   3.346  0.4856  0.2860 -0.3132
 1618SOL    HW116487   4.397   0.235   3.303  0.1744  0.5335 -0.1887
 1618SOL    HW216488   4.425   0.274   3.433 -1.0231  1.8145 -0.5796
 1619SOL     OW16489   1.285   4.203   6.406  0.0044 -0.0009  0.4368
 1619SOL    HW116490   1.235   4.272   6.450 -0.0516  0.8167 -0.8966
 1619SOL    HW216491   1.325   4.260   6.340 -0.9469 -1.1008 -1.1100
 1620SOL     OW16492   2.967   1.778   1.376  0.4097 -0.0436  0.4186
 1620SOL    HW116493   2.939   1.718   1.445  0.3461 -1.4218 -0.8229
 1620SOL    HW216494   3.006   1.717   1.314 -0.5846  2.0299 -2.2181
 1621SOL     OW16495   2.022   0.894   9.922  0.1467 -0.2697  0.4097
 1621SOL    HW116496   2.040   0.838   9.997  0.1211 -3.7264 -2.1689
 1621SOL    HW216497   2.002   0.978   9.963 -2.4660 -0.1922 -0.9977
 1622SOL     OW16498   1.863   0.392   7.222 -0.0715 -0.7257  0.1000
 1622SOL    HW116499   1.808   0.466   7.195  0.4135 -0.1564  0.6964
 1622SOL    HW216500   1.828   0.342   7.295 -2.8324 -1.4958 -1.7323
 1623SOL     OW16501   4.509   3.242   8.277  0.1821 -0.1516  0.0549
 1623SOL    HW116502   4.563   3.228   8.199  0.5800 -0.0493  0.3114
 1623SOL    HW216503   4.419   3.249   8.244  0.1884  1.3549  0.3602
 1624SOL     OW16504   4.197   2.716  12.335 -0.2273 -0.3804  0.2822
 1624SOL    HW116505   4.231   2.633  12.370  1.7730 -0.3091 -1.5183
 1624SOL    HW216506   4.273   2.774  12.343 -1.2405  1.2403 -1.9328
 1625SOL     OW16507   1.647   1.920   1.495 -0.2419  0.4166 -0.1151
 1625SOL    HW116508   1.611   2.008   1.489 -1.6456 -0.2298 -1.1132
 1625SOL    HW216509   1.741   1.933   1.479  0.4495 -2.6350  1.2800
 1626SOL     OW16510   4.544   2.565   9.449 -0.9041 -0.6268 -0.5150
 1626SOL    HW116511   4.600   2.625   9.401 -1.3422 -0.2251 -0.5207
 1626SOL    HW216512   4.472   2.550   9.387 -0.1415  0.8880 -1.7309
 1627SOL     OW16513   3.770   1.338   4.073  0.2693 -0.3928  0.2563
 1627SOL    HW116514   3.861   1.347   4.098  0.4888  1.5402 -1.1927
 1627SOL    HW216515   3.758   1.243   4.064 -1.1773 -0.0551 -1.4754
 1628SOL     OW16516   1.927   2.543   2.790 -0.6189 -0.2925  0.2087
 1628SOL    HW116517   1.866   2.565   2.861  1.1615  3.7060  0.5300
 1628SOL    HW216518   1.873   2.583   2.723 -0.9877  2.7268  2.2940
 1629SOL     OW16519   3.685   2.094  16.798 -0.3326  0.3815  0.1041
 1629SOL    HW116520   3.769   2.141  16.797 -0.4311  0.5598  0.1582
 1629SOL    HW216521   3.627   2.159  16.758  1.5703  2.6281  1.0177
 1630SOL     OW16522   2.253   3.308  10.916  0.0356 -0.7340 -0.2506
 1630SOL    HW116523   2.225   3.243  10.980  0.6095 -0.6389  0.0996
 1630SOL    HW216524   2.211   3.264  10.842  2.7062 -2.2466 -0.8761
 1631SOL     OW16525   2.264   4.481   2.706 -0.0114  0.4175 -0.5862
 1631SOL    HW116526   2.269   4.565   2.660 -1.8695  0.2161 -1.1319
 1631SOL    HW216527   2.282   4.413   2.641 -0.7615  0.3287 -0.6905
 1632SOL     OW16528   4.585   2.643   9.705 -0.8573  0.1536  0.6327
 1632SOL    HW116529   4.574   2.622   9.613 -0.0677 -1.2018  0.8563
 1632SOL    HW216530   4.554   2.733   9.715  0.2097  0.8334 -2.2044
 1633SOL     OW16531   3.420   3.437  14.281  0.4814 -0.3314  0.1274
 1633SOL    HW116532   3.413   3.506  14.347 -0.9360 -1.6324  1.3381
 1633SOL    HW216533   3.332   3.404  14.261  0.6354  0.3526 -1.6515
 1634SOL     OW16534   0.893   1.184   1.670  0.6749 -0.4541  0.4990
 1634SOL    HW116535   0.823   1.144   1.619  1.4890 -0.2729 -0.7519
 1634SOL    HW216536   0.853   1.236   1.740  1.3877  0.7291  0.0294
 1635SOL     OW16537   0.060   1.314   2.642 -0.1928  0.3431 -0.0435
 1635SOL    HW116538   4.707   1.320   2.604 -0.3366 -0.2747  0.1802
 1635SOL    HW216539   0.054   1.355   2.729 -3.4753 -0.4042  0.0987
 1636SOL     OW16540   1.966   2.485   8.510 -0.1647  0.6112  0.3358
 1636SOL    HW116541   2.014   2.567   8.518  0.9394  0.0488 -0.5899
 1636SOL    HW216542   2.010   2.437   8.579 -1.1816  2.4724  2.2711
 1637SOL     OW16543   1.225   3.913   8.727 -0.7831 -0.1348 -0.1406
 1637SOL    HW116544   1.226   3.842   8.791  0.8269  0.8738  0.9361
 1637SOL    HW216545   1.312   3.952   8.734 -0.9192  0.4709 -1.6863
 1638SOL     OW16546   2.282   1.046   0.257 -0.2173  1.0578 -0.5062
 1638SOL    HW116547   2.348   1.036   0.188 -0.6104 -1.1335 -0.5801
 1638SOL    HW216548   2.231   0.968   0.235 -1.2657  1.8829 -0.9971
 1639SOL     OW16549   1.168   1.133   4.495  0.6250  0.0757  0.6471
 1639SOL    HW116550   1.214   1.125   4.579 -0.4119 -1.5277  1.0716
 1639SOL    HW216551   1.121   1.049   4.495  0.4483  0.1713  2.0582
 1640SOL     OW16552   2.247   3.487   4.280 -0.2829 -0.2799  0.5912
 1640SOL    HW116553   2.223   3.405   4.237  3.6545 -0.8381 -0.5585
 1640SOL    HW216554   2.184   3.490   4.352 -1.2084  1.0744 -0.2850
 1641SOL     OW16555   0.659   1.013   6.613  0.6642  0.1705  0.3977
 1641SOL    HW116556   0.740   0.974   6.580  0.6792 -0.3677  1.0767
 1641SOL    HW216557   0.606   0.996   6.535  1.4790 -1.4442  0.1906
 1642SOL     OW16558   0.416   1.332   3.344 -0.2674  0.1786  0.2456
 1642SOL    HW116559   0.338   1.279   3.327 -0.4390  0.6258 -0.3693
 1642SOL    HW216560   0.465   1.266   3.394  1.4368 -0.1340 -1.8404
 1643SOL     OW16561   0.301   2.236   7.400  0.4505 -0.0196  0.1671
 1643SOL    HW116562   0.220   2.219   7.448 -0.5255  0.2006 -1.4039
 1643SOL    HW216563   0.288   2.187   7.318  1.1010 -0.0184  0.0621
 1644SOL     OW16564   3.308   3.638   3.993 -0.3166 -0.5739 -0.1620
 1644SOL    HW116565   3.245   3.579   3.953 -2.0259  1.3368 -0.2539
 1644SOL    HW216566   3.387   3.584   3.987 -0.6843 -1.0559 -0.6266
 1645SOL     OW16567   0.579   2.170  14.760  0.2508  0.5426  0.1385
 1645SOL    HW116568   0.558   2.228  14.687 -1.1918  0.6653  0.6519
 1645SOL    HW216569   0.494   2.133  14.783  0.8103 -1.2499 -0.6843
 1646SOL     OW16570   2.238   2.411   7.274  0.3085 -0.0868 -0.6196
 1646SOL    HW116571   2.165   2.371   7.320  1.3652  1.0169  2.0432
 1646SOL    HW216572   2.200   2.492   7.241 -0.0386  0.5980  1.4184
 1647SOL     OW16573   2.788   0.342   3.376 -0.1913  0.1239 -0.3444
 1647SOL    HW116574   2.743   0.312   3.297 -0.8430  2.0451 -0.7037
 1647SOL    HW216575   2.715   0.378   3.427 -1.6583 -1.0383 -1.6342
 1648SOL     OW16576   1.855   0.024   6.851 -0.1830  0.0130 -0.4274
 1648SOL    HW116577   1.920   4.717   6.794  2.2879  0.1412  2.3554
 1648SOL    HW216578   1.821   0.094   6.795 -2.7021 -0.2717  0.7407
 1649SOL     OW16579   0.450   4.429   7.440  0.6509 -0.4308 -0.4519
 1649SOL    HW116580   0.450   4.518   7.476  0.5298 -0.6449  0.0759
 1649SOL    HW216581   0.432   4.379   7.519  1.1607 -0.3201 -0.2627
 1650SOL     OW16582   0.853   2.055   5.167  0.1357 -0.2718  0.0452
 1650SOL    HW116583   0.843   1.991   5.237  1.2832  1.9512  2.2242
 1650SOL    HW216584   0.916   2.009   5.112 -0.3905 -0.3298 -0.5130
 1651SOL     OW16585   2.707   2.099  13.591 -0.4268 -0.0867  0.0027
 1651SOL    HW116586   2.643   2.051  13.538 -0.3486  0.2566 -0.4013
 1651SOL    HW216587   2.775   2.032  13.593 -1.4198 -1.1303 -0.8399
 1652SOL     OW16588   4.517   0.400  15.817  0.0299 -0.1546  0.5007
 1652SOL    HW116589   4.508   0.411  15.723 -0.6809  0.7033  0.6731
 1652SOL    HW216590   4.606   0.424  15.841  0.0832 -0.6184  0.7728
 1653SOL     OW16591   0.223   1.195   4.898  0.2809  0.1809 -0.6492
 1653SOL    HW116592   0.135   1.232   4.906 -0.5782 -2.9351  4.2898
 1653SOL    HW216593   0.236   1.209   4.804 -0.8561 -0.6835 -0.9460
 1654SOL     OW16594   1.500   4.691  15.353 -0.3224 -0.7513  0.2307
 1654SOL    HW116595   1.475   4.610  15.308 -0.1830 -0.9267  0.4619
 1654SOL    HW216596   1.571   4.659  15.409 -0.7714 -1.1261  0.5898
 1655SOL     OW16597   2.496   0.765   2.885  0.6599 -0.2423 -0.3910
 1655SOL    HW116598   2.417   0.756   2.938  1.0401 -0.6326  0.1096
 1655SOL    HW216599   2.551   0.692   2.914 -2.6818 -2.4414  0.3239
 1656SOL     OW16600   1.747   1.612   2.093  0.1593  0.0073  0.1544
 1656SOL    HW116601   1.710   1.699   2.109 -2.5835 -1.0397 -0.5274
 1656SOL    HW216602   1.820   1.625   2.154  0.7022 -0.6659 -0.3456
 1657SOL     OW16603   3.658   3.010   4.458  0.0315 -0.0897  0.1023
 1657SOL    HW116604   3.735   3.028   4.404 -1.0881  0.1096 -1.4387
 1657SOL    HW216605   3.681   3.006   4.551 -0.8006  1.2430  0.3622
 1658SOL     OW16606   3.828   1.288   3.746 -0.2475 -0.0156 -0.1348
 1658SOL    HW116607   3.881   1.223   3.793  0.9202  0.9040 -0.1872
 1658SOL    HW216608   3.784   1.335   3.817 -1.4831  0.8949 -1.5054
 1659SOL     OW16609   1.407   2.087   5.180 -0.0852  0.1652  0.2763
 1659SOL    HW116610   1.435   2.017   5.239  0.3561 -0.4249 -0.6277
 1659SOL    HW216611   1.313   2.103   5.188 -0.1811  0.4708 -1.3904
 1660SOL     OW16612   0.873   3.889   2.429  0.2195  0.1375 -0.8191
 1660SOL    HW116613   0.779   3.891   2.409 -0.4269 -0.2035  2.0956
 1660SOL    HW216614   0.908   3.977   2.443  0.0061  0.1225 -0.1848
 1661SOL     OW16615   1.432   1.698   8.597  0.0933  0.3266  0.1741
 1661SOL    HW116616   1.360   1.637   8.610 -0.2514  0.1775 -2.5178
 1661SOL    HW216617   1.393   1.763   8.538  0.4337  1.6693  1.4395
 1662SOL     OW16618   4.420   1.227  16.560 -0.1323  0.0440 -0.2820
 1662SOL    HW116619   4.419   1.304  16.617 -0.9632  0.5212 -0.9392
 1662SOL    HW216620   4.441   1.275  16.480 -0.8944 -1.9501 -1.6848
 1663SOL     OW16621   3.334   1.928   3.692 -0.0205 -0.5394 -0.3714
 1663SOL    HW116622   3.289   2.008   3.718 -0.5971 -0.5248 -1.4100
 1663SOL    HW216623   3.260   1.868   3.698 -0.5872  0.2664  0.6741
 1664SOL     OW16624   3.414   3.014   3.572 -0.4728  0.2538 -0.5892
 1664SOL    HW116625   3.493   3.002   3.519 -0.0110  1.2884 -0.1252
 1664SOL    HW216626   3.368   3.078   3.517 -0.9503  0.2534 -0.1927
 1665SOL     OW16627   3.586   4.635   4.912 -0.0503  0.0618 -1.1245
 1665SOL    HW116628   3.531   4.619   4.835  1.1879  1.2270 -2.2489
 1665SOL    HW216629   3.566   4.553   4.957  1.9943  0.1568 -0.0438
 1666SOL     OW16630   2.104   2.381   8.717  0.3403  0.3910 -0.2626
 1666SOL    HW116631   2.034   2.316   8.709 -0.1033  0.9732 -1.0237
 1666SOL    HW216632   2.076   2.425   8.797 -0.4778 -0.4673 -0.0763
 1667SOL     OW16633   4.324   2.615  11.698  0.4459 -0.2276 -0.2161
 1667SOL    HW116634   4.236   2.653  11.694  0.1164 -0.9142  0.5305
 1667SOL    HW216635   4.342   2.599  11.606 -1.4290 -0.8369 -0.4940
 1668SOL     OW16636   2.018   1.377   8.798  0.4747 -0.1609 -0.0044
 1668SOL    HW116637   2.095   1.433   8.801  1.3848 -1.4688  0.9464
 1668SOL    HW216638   1.948   1.438   8.821  0.2251  0.1233 -1.5253
 1669SOL     OW16639   1.970   4.360   7.073 -0.0657  0.6215 -0.0427
 1669SOL    HW116640   2.035   4.352   7.004 -0.6183  0.1735 -0.5104
 1669SOL    HW216641   1.905   4.418   7.033 -0.7809 -0.3431 -0.2705
 1670SOL     OW16642   2.947   3.415   2.472 -0.7604 -0.3192 -0.2568
 1670SOL    HW116643   2.957   3.321   2.455  0.6145 -0.0357 -0.9931
 1670SOL    HW216644   3.031   3.449   2.442 -1.3517  0.6662 -0.8216
 1671SOL     OW16645   4.682   2.725  16.189 -0.6012  0.4285 -0.0656
 1671SOL    HW116646   0.014   2.778  16.144 -1.9811  0.5306 -2.0204
 1671SOL    HW216647   4.610   2.782  16.218 -1.4965 -0.1215 -1.1945
 1672SOL     OW16648   4.250   4.344  15.490  0.4318 -0.0720  0.1076
 1672SOL    HW116649   4.303   4.313  15.564  1.7738  0.9730 -0.4240
 1672SOL    HW216650   4.298   4.421  15.462  1.2588 -0.8183 -0.5283
 1673SOL     OW16651   4.226   3.686   5.129  0.3147 -0.0494 -0.5480
 1673SOL    HW116652   4.206   3.779   5.142 -0.4997 -0.5526  1.6787
 1673SOL    HW216653   4.302   3.700   5.185 -0.8559  1.3849  0.6880
 1674SOL     OW16654   2.731   1.990  12.500  0.2306  0.3849 -0.1392
 1674SOL    HW116655   2.641   1.958  12.498  0.7111 -1.0250  0.2929
 1674SOL    HW216656   2.748   1.958  12.589  1.0340 -1.7140 -1.0428
 1675SOL     OW16657   2.299   1.916   5.320 -0.0777 -0.3461 -0.4332
 1675SOL    HW116658   2.373   1.861   5.345 -2.3113 -2.9752  0.3921
 1675SOL    HW216659   2.329   1.958   5.239  0.1062 -1.9738 -1.2277
 1676SOL     OW16660   3.561   0.443   5.431  0.2117 -0.1511  0.3271
 1676SOL    HW116661   3.475   0.425   5.468 -0.9762 -1.1961 -2.9648
 1676SOL    HW216662   3.542   0.426   5.339 -0.4887  1.0033  0.2530
 1677SOL     OW16663   3.067   2.408   0.845 -0.6045 -0.1866  0.2162
 1677SOL    HW116664   3.068   2.337   0.910  1.1134 -1.2245 -0.9152
 1677SOL    HW216665   3.031   2.483   0.891  0.0621  1.2690 -1.6299
 1678SOL     OW16666   2.206   2.535   3.895 -0.0047  0.2015  0.6304
 1678SOL    HW116667   2.177   2.582   3.974  2.0361  1.7397  0.4604
 1678SOL    HW216668   2.143   2.565   3.829 -0.3820 -0.4651  0.6815
 1679SOL     OW16669   1.634   4.243   1.732 -0.9492 -0.2068 -1.2686
 1679SOL    HW116670   1.580   4.166   1.749  0.4453 -0.1748  3.2282
 1679SOL    HW216671   1.569   4.313   1.727 -1.3816 -0.4286  1.2319
 1680SOL     OW16672   2.716   4.587  16.301 -0.5375 -0.5813 -0.8429
 1680SOL    HW116673   2.791   4.529  16.318 -1.5659 -1.5982  0.1808
 1680SOL    HW216674   2.740   4.606  16.211 -2.9728  0.0770 -1.3464
 1681SOL     OW16675   4.439   1.800   2.149 -0.1696 -0.1482 -0.0106
 1681SOL    HW116676   4.503   1.733   2.126  0.4391  0.4523 -0.0781
 1681SOL    HW216677   4.361   1.751   2.173 -0.3705  1.1970  2.0574
 1682SOL     OW16678   3.582   1.885   2.201  0.2456  0.0832 -0.3747
 1682SOL    HW116679   3.672   1.897   2.170  0.2932  1.3351  0.2439
 1682SOL    HW216680   3.553   1.835   2.125 -0.3370 -1.2495  0.7251
 1683SOL     OW16681   1.947   4.030   0.667  0.0185 -0.2237 -0.6137
 1683SOL    HW116682   1.993   3.977   0.602 -0.3337  1.1428 -1.9863
 1683SOL    HW216683   2.017   4.071   0.717 -0.3666 -0.0660 -0.1988
 1684SOL     OW16684   1.187   4.053   5.590 -0.0099 -0.4989  0.4364
 1684SOL    HW116685   1.253   4.121   5.605 -1.4815  0.8298  0.8297
 1684SOL    HW216686   1.229   4.027   5.508 -0.7146  1.2666 -0.4766
 1685SOL     OW16687   4.635   0.724   7.272 -0.3587 -0.3526  0.2290
 1685SOL    HW116688   4.572   0.791   7.246 -0.4607 -0.5228  0.0333
 1685SOL    HW216689   4.672   0.763   7.351 -0.4121  1.0787 -0.4522
 1686SOL     OW16690   2.877   3.941   9.404 -0.3685 -0.1370  0.1984
 1686SOL    HW116691   2.816   3.886   9.453 -0.7197 -0.0168 -0.1007
 1686SOL    HW216692   2.941   3.880   9.367  0.4185  1.4140 -1.0154
 1687SOL     OW16693   4.087   1.781   1.242  0.3536 -0.3312 -0.4632
 1687SOL    HW116694   4.083   1.729   1.161 -1.3806 -1.3402  0.2756
 1687SOL    HW216695   4.175   1.759   1.272  0.6064  1.7958  0.3493
 1688SOL     OW16696   4.254   4.364  16.979 -0.2416  0.0155  0.1921
 1688SOL    HW116697   4.308   4.294  16.940  1.5146  0.6604  1.5169
 1688SOL    HW216698   4.312   4.387  17.051  0.4734  1.2646 -0.7860
 1689SOL     OW16699   2.554   0.962   6.516  0.3978  0.1683 -0.7982
 1689SOL    HW116700   2.479   0.913   6.550  0.1379  0.2997 -1.1783
 1689SOL    HW216701   2.630   0.905   6.530 -0.6453 -0.3597  2.7199
 1690SOL     OW16702   4.136   4.556   8.019 -0.0933  0.0717  0.1145
 1690SOL    HW116703   4.064   4.527   8.075  1.1094 -0.9072  1.1670
 1690SOL    HW216704   4.098   4.623   7.963 -0.7759 -0.6487 -0.2849
 1691SOL     OW16705   3.847   2.344   9.795 -0.6185  0.4403 -0.4083
 1691SOL    HW116706   3.884   2.287   9.727 -1.8988  1.0250 -1.6152
 1691SOL    HW216707   3.839   2.269   9.855 -1.6235  1.0797  0.2475
 1692SOL     OW16708   1.527   1.897  17.429  0.5450 -0.4126  0.1515
 1692SOL    HW116709   1.495   1.859  17.347  3.2351  1.7911 -1.8767
 1692SOL    HW216710   1.616   1.868  17.444  0.2882 -1.5556 -0.5859
 1693SOL     OW16711   3.132   4.405   7.403 -0.4873  0.3764 -0.4274
 1693SOL    HW116712   3.121   4.361   7.318  0.9211 -0.1233 -0.3524
 1693SOL    HW216713   3.043   4.401   7.438 -0.5886 -0.1916 -0.7497
 1694SOL     OW16714   3.483   1.156   2.007 -0.0477  0.5477 -0.4945
 1694SOL    HW116715   3.412   1.135   1.947 -1.1041  0.1404  0.8887
 1694SOL    HW216716   3.446   1.117   2.086 -1.0175  2.6844  0.0883
 1695SOL     OW16717   2.139   3.494   2.284 -0.5818 -0.2064 -0.1609
 1695SOL    HW116718   2.227   3.471   2.254 -0.9722  0.4217 -1.7919
 1695SOL    HW216719   2.087   3.492   2.204 -2.2502 -0.4152  0.9327
 1696SOL     OW16720   4.562   0.065   9.704  0.1424 -0.2415  0.2183
 1696SOL    HW116721   4.478   0.096   9.670 -0.5235 -1.1182  1.0382
 1696SOL    HW216722   4.620   0.078   9.629  0.4921 -1.0229  0.3506
 1697SOL     OW16723   0.834   3.842   4.790  1.1934 -0.4019  0.7180
 1697SOL    HW116724   0.910   3.898   4.776  0.7659  0.0819  0.3066
 1697SOL    HW216725   0.840   3.794   4.872  3.1756 -1.7959 -0.2648
 1698SOL     OW16726   1.928   2.406   1.267 -0.2934 -0.0868 -0.7727
 1698SOL    HW116727   1.925   2.313   1.289  4.7117 -0.4839 -1.8117
 1698SOL    HW216728   1.997   2.448   1.317  0.5603 -0.2846 -1.7705
 1699SOL     OW16729   4.337   4.052  12.486  0.4395 -0.2173 -0.1483
 1699SOL    HW116730   4.388   3.988  12.535  1.3409 -0.9338 -2.0154
 1699SOL    HW216731   4.286   4.088  12.559  1.7509  1.8112 -0.2514
 1700SOL     OW16732   3.015   3.321  15.971 -0.4180  0.4184  0.1604
 1700SOL    HW116733   2.926   3.287  15.967 -0.7474  0.9351  2.7856
 1700SOL    HW216734   3.001   3.404  16.017  1.0769  0.5251  0.4436
 1701SOL     OW16735   4.260   2.221  11.539 -0.7894  0.1235  0.1274
 1701SOL    HW116736   4.314   2.208  11.461 -0.5298  0.9046  0.1817
 1701SOL    HW216737   4.206   2.142  11.533  2.3149 -1.7057 -3.7967
 1702SOL     OW16738   2.775   1.899   7.960 -0.4890 -0.0586  0.6429
 1702SOL    HW116739   2.765   1.877   7.867  0.9847 -1.3804  0.7950
 1702SOL    HW216740   2.795   1.811   7.993  0.4620 -0.6280 -1.4203
 1703SOL     OW16741   2.580   1.031   7.809 -0.1192  0.4002  0.0302
 1703SOL    HW116742   2.572   0.951   7.862 -0.5376  0.7428  0.4852
 1703SOL    HW216743   2.662   1.067   7.843  0.5267 -0.3554 -0.7198
 1704SOL     OW16744   0.310   2.682   6.133 -0.1635 -0.0152  0.0307
 1704SOL    HW116745   0.284   2.715   6.047 -1.3950  1.3897  0.9325
 1704SOL    HW216746   0.263   2.599   6.137 -1.1372  0.6071  1.4218
 1705SOL     OW16747   3.038   3.741   9.268  0.3760  0.1959 -0.3001
 1705SOL    HW116748   3.074   3.655   9.289 -1.6090 -0.7065 -0.5773
 1705SOL    HW216749   3.091   3.765   9.192  0.1526 -0.2094 -0.5889
 1706SOL     OW16750   2.340   1.430   5.891 -0.1581 -0.0146  0.2887
 1706SOL    HW116751   2.313   1.522   5.893  0.9989  0.3137  0.6040
 1706SOL    HW216752   2.261   1.383   5.918 -1.6326  2.7221  0.7089
 1707SOL     OW16753   4.721   4.445   7.839  0.5884  0.1377  0.4193
 1707SOL    HW116754   4.662   4.441   7.763  2.2297  0.8984 -0.8918
 1707SOL    HW216755   4.667   4.405   7.907  0.0143 -1.7140 -1.0975
 1708SOL     OW16756   4.320   1.015   1.113  0.1483  0.3891  0.1214
 1708SOL    HW116757   4.372   1.084   1.071  0.7137  0.3426  0.7396
 1708SOL    HW216758   4.275   0.992   1.031 -0.0731 -2.0491  0.9436
 1709SOL     OW16759   1.731   1.036   0.243 -1.0316  0.4267 -0.1588
 1709SOL    HW116760   1.687   1.025   0.159  0.4307 -2.6506 -0.5191
 1709SOL    HW216761   1.651   1.027   0.295 -0.9214  3.7641  0.5913
 1710SOL     OW16762   4.214   4.074   2.989  0.0345 -0.5886 -0.2157
 1710SOL    HW116763   4.167   4.132   2.929 -1.3834 -1.0612  0.4224
 1710SOL    HW216764   4.182   3.986   2.967  0.7301 -0.9417  0.1969
 1711SOL     OW16765   2.160   2.789  13.648 -0.3577 -0.0531 -0.3920
 1711SOL    HW116766   2.066   2.798  13.665 -0.2430  0.1138  0.1717
 1711SOL    HW216767   2.154   2.799  13.553 -0.3269  2.3756 -0.1427
 1712SOL     OW16768   3.045   1.052   1.799 -0.0159 -0.1151 -0.4236
 1712SOL    HW116769   3.104   0.985   1.763 -0.9116 -0.7745 -0.6617
 1712SOL    HW216770   3.009   1.102   1.725 -1.1829 -0.7340 -0.2743
 1713SOL     OW16771   1.705   0.563   8.104  0.1638 -0.1832  0.2001
 1713SOL    HW116772   1.635   0.569   8.039  0.3640  1.7389  0.1720
 1713SOL    HW216773   1.671   0.612   8.179 -3.4011 -1.2474 -0.7028
 1714SOL     OW16774   0.038   2.510   5.085 -0.1245 -0.9192  0.1723
 1714SOL    HW116775   0.059   2.489   5.176 -0.6050 -0.7495  0.3258
 1714SOL    HW216776   0.063   2.602   5.092 -1.5768 -0.5329  0.3619
 1715SOL     OW16777   4.462   2.356   8.046  0.1352  0.1727 -0.1032
 1715SOL    HW116778   4.534   2.409   8.081  0.9366 -1.4118  0.6726
 1715SOL    HW216779   4.425   2.324   8.128  1.2270  0.4721  0.5117
 1716SOL     OW16780   0.194   1.881   9.700  0.1740  0.7792  0.2171
 1716SOL    HW116781   0.126   1.816   9.682  1.3737 -1.3773  3.3683
 1716SOL    HW216782   0.273   1.834   9.729  0.5363  0.3677 -1.4293
 1717SOL     OW16783   2.965   1.981   8.160 -0.0505 -0.0029  0.3278
 1717SOL    HW116784   2.909   1.980   8.083  2.2615  1.2451 -1.3767
 1717SOL    HW216785   2.949   1.893   8.196  0.3752 -0.1372  0.1865
 1718SOL     OW16786   2.577   3.339   6.405  0.5833 -0.0049  0.2206
 1718SOL    HW116787   2.627   3.421   6.411  0.9741 -0.2160 -0.1350
 1718SOL    HW216788   2.617   3.309   6.324  0.9577  0.0659  0.3794
 1719SOL     OW16789   0.468   0.955  11.803 -1.2468  0.6946 -0.1390
 1719SOL    HW116790   0.473   1.001  11.887  1.9050  1.1815 -0.5663
 1719SOL    HW216791   0.394   0.898  11.821  0.8385 -1.2150  2.3700
 1720SOL     OW16792   3.521   3.597   5.225  0.5946  0.3658  0.4150
 1720SOL    HW116793   3.447   3.536   5.220 -0.1949  1.3506  0.0272
 1720SOL    HW216794   3.524   3.615   5.319 -1.6682 -0.7597  0.7112
 1721SOL     OW16795   4.511   4.084   5.470 -0.0037  0.4294  0.2991
 1721SOL    HW116796   4.437   4.110   5.415  0.1502  0.8512  0.2916
 1721SOL    HW216797   4.573   4.146   5.431  1.8689 -2.4567 -1.3522
 1722SOL     OW16798   1.320   1.731  11.411 -0.8278 -0.2187  0.3949
 1722SOL    HW116799   1.278   1.817  11.406 -3.8306 -1.6556  1.1645
 1722SOL    HW216800   1.347   1.723  11.503 -0.1298 -1.2109  0.0952
 1723SOL     OW16801   4.548   0.562   6.983  0.0649  0.1717  0.1860
 1723SOL    HW116802   4.543   0.630   7.050  1.0324 -0.1434  0.5804
 1723SOL    HW216803   4.465   0.515   6.988 -0.3684  0.7540 -1.5484
 1724SOL     OW16804   2.546   3.010   5.469  0.3900 -0.3180 -0.1215
 1724SOL    HW116805   2.497   3.048   5.397  1.4151 -1.7818 -1.5866
 1724SOL    HW216806   2.487   2.948   5.510 -0.5381  0.2531 -0.6083
 1725SOL     OW16807   2.363   3.613   8.831 -0.6064 -0.7148 -0.4686
 1725SOL    HW116808   2.419   3.551   8.876 -0.6271 -1.1098 -0.9826
 1725SOL    HW216809   2.418   3.637   8.756  0.5423 -1.4718  0.1442
 1726SOL     OW16810   4.366   2.216   8.246  0.3493  0.0866  0.1225
 1726SOL    HW116811   4.348   2.273   8.320  0.1560  0.5689 -0.2986
 1726SOL    HW216812   4.285   2.209   8.196  0.9098 -0.9367 -0.6634
 1727SOL     OW16813   1.029   4.295   7.177  0.6148  0.2492 -0.1229
 1727SOL    HW116814   1.060   4.205   7.168  1.0365  0.3365  0.4614
 1727SOL    HW216815   1.071   4.341   7.104 -0.9826  1.1922 -0.4536
 1728SOL     OW16816   1.358   0.161   7.875 -0.2402  0.0541  0.8748
 1728SOL    HW116817   1.353   0.245   7.829  0.4656 -0.1725  0.3896
 1728SOL    HW216818   1.324   0.095   7.816  2.4332 -0.6840  0.1677
 1729SOL     OW16819   3.494   3.107  10.364 -0.8967 -0.0203 -0.4336
 1729SOL    HW116820   3.449   3.026  10.388 -1.2451  0.6021  1.0273
 1729SOL    HW216821   3.437   3.162  10.419 -0.0542  0.7980 -0.3834
 1730SOL     OW16822   1.060   3.654   8.336  0.1647 -0.4789 -0.6395
 1730SOL    HW116823   1.070   3.712   8.261 -0.1670  0.4449  0.0220
 1730SOL    HW216824   1.140   3.676   8.383  0.0321 -0.2963 -0.4987
 1731SOL     OW16825   3.579   0.438   9.106  0.1176  0.3178 -0.4259
 1731SOL    HW116826   3.527   0.363   9.135 -0.1575 -0.6576 -3.4441
 1731SOL    HW216827   3.545   0.454   9.018 -0.2345  1.2555 -0.1181
 1732SOL     OW16828   3.182   4.596  12.601 -1.0433  0.6677 -0.4127
 1732SOL    HW116829   3.237   4.571  12.527 -0.7217  2.4330 -0.7714
 1732SOL    HW216830   3.130   4.518  12.619 -0.1087  0.3443  0.8217
 1733SOL     OW16831   3.819   3.643  13.263  0.3010 -0.2551  0.3799
 1733SOL    HW116832   3.799   3.622  13.172 -0.2839  1.0307  0.2082
 1733SOL    HW216833   3.744   3.595  13.296  0.9771 -1.3001  0.3959
 1734SOL     OW16834   2.343   0.952   5.031 -0.5687  0.0689 -0.2215
 1734SOL    HW116835   2.341   1.027   4.972 -1.6252  0.7464  0.6939
 1734SOL    HW216836   2.413   0.897   4.995 -0.4337 -0.2835  0.5884
 1735SOL     OW16837   2.738   1.623   9.288 -0.1116  0.1410 -0.4168
 1735SOL    HW116838   2.695   1.628   9.373  1.5840  0.8444  0.3930
 1735SOL    HW216839   2.765   1.531   9.287  1.3344  0.5544  2.3682
 1736SOL     OW16840   2.988   0.756  12.119  0.0272  0.1393 -0.6585
 1736SOL    HW116841   3.038   0.838  12.117 -0.2598  0.3479  0.5369
 1736SOL    HW216842   2.981   0.740  12.213  1.3765 -1.3636 -0.8282
 1737SOL     OW16843   0.806   2.963  12.071  0.4549  0.3447  0.0713
 1737SOL    HW116844   0.891   2.974  12.113 -0.3493  0.1536  1.7351
 1737SOL    HW216845   0.762   3.006  12.144  1.7594  0.1809  0.9482
 1738SOL     OW16846   0.235   2.505   7.061  0.4492 -0.0183  0.0136
 1738SOL    HW116847   0.164   2.563   7.087  1.1120  0.4356  0.8021
 1738SOL    HW216848   0.273   2.503   7.149 -2.4478 -0.1666  1.2484
 1739SOL     OW16849   2.707   4.557   9.654 -0.0234 -0.1456 -0.3462
 1739SOL    HW116850   2.620   4.549   9.692 -0.8558  0.2170 -2.2034
 1739SOL    HW216851   2.735   4.643   9.683  0.4721 -0.8426  1.2284
 1740SOL     OW16852   0.130   4.098  16.974  0.2584  0.1176  0.0687
 1740SOL    HW116853   0.122   4.177  17.029  1.1511  0.6552 -0.5675
 1740SOL    HW216854   0.079   4.039  17.029  0.3484  0.9872  1.0800
 1741SOL     OW16855   2.707   0.897   8.885  0.2603 -0.5069  1.0107
 1741SOL    HW116856   2.623   0.857   8.906 -1.6295  2.8717 -0.2267
 1741SOL    HW216857   2.708   0.882   8.790  0.9929 -0.9048  1.0819
 1742SOL     OW16858   2.303   1.097   5.634  0.1894  0.0089  0.1115
 1742SOL    HW116859   2.234   1.036   5.609 -0.6943  0.4211  1.5130
 1742SOL    HW216860   2.246   1.165   5.671  0.3330 -1.2500  2.6767
 1743SOL     OW16861   4.051   0.379   2.617 -0.1147 -0.1462  0.4051
 1743SOL    HW116862   4.021   0.459   2.659  1.2910  1.4077 -1.5256
 1743SOL    HW216863   3.977   0.353   2.562  0.4706 -1.7447  0.3675
 1744SOL     OW16864   1.514   2.989   4.027 -0.2882 -0.5420 -0.1357
 1744SOL    HW116865   1.494   2.940   4.106  2.4241  2.1291  2.2268
 1744SOL    HW216866   1.573   3.047   4.076  2.1211 -2.4524 -0.7901
 1745SOL     OW16867   0.916   3.615  11.168  0.2551 -0.1961 -0.1181
 1745SOL    HW116868   0.963   3.695  11.190 -1.7415  0.9707 -0.0153
 1745SOL    HW216869   0.945   3.559  11.240 -1.1983 -0.4944  0.2497
 1746SOL     OW16870   3.134   2.211   9.346  0.5220 -0.2238  0.0195
 1746SOL    HW116871   3.104   2.167   9.266  2.7169 -0.1034 -0.8634
 1746SOL    HW216872   3.157   2.134   9.399  3.0557  0.1236 -0.6314
 1747SOL     OW16873   1.577   3.064   6.143  0.0525 -0.2158 -0.2219
 1747SOL    HW116874   1.485   3.038   6.145  0.4061 -1.5082 -1.1777
 1747SOL    HW216875   1.590   3.103   6.229  0.8749  0.1988 -0.5299
 1748SOL     OW16876   2.496   3.664  15.326 -0.2011  0.8356  0.0528
 1748SOL    HW116877   2.416   3.651  15.377 -2.1034  1.9314 -2.6024
 1748SOL    HW216878   2.456   3.654  15.239 -1.7361 -0.8472  0.9676
 1749SOL     OW16879   0.414   3.680  13.075  0.1897  0.7041 -0.2978
 1749SOL    HW116880   0.490   3.738  13.075  0.1624  0.7401 -1.3288
 1749SOL    HW216881   0.452   3.600  13.110  1.3470  0.5246 -1.9922
 1750SOL     OW16882   3.952   3.606   5.161  0.1653  0.2611 -0.3213
 1750SOL    HW116883   4.046   3.611   5.140  0.6520 -1.1989  1.4980
 1750SOL    HW216884   3.943   3.549   5.237  0.5853  1.0167  0.2852
 1751SOL     OW16885   0.517   2.742   9.522  0.0250 -0.3361  0.5125
 1751SOL    HW116886   0.564   2.741   9.605 -0.5183  1.9385  0.8604
 1751SOL    HW216887   0.522   2.649   9.499  2.0167 -0.1555  0.2293
 1752SOL     OW16888   2.832   0.062  11.890 -0.1339  0.4544  0.1598
 1752SOL    HW116889   2.901   4.730  11.893  0.1345  0.6366 -2.8399
 1752SOL    HW216890   2.757   0.003  11.897  1.4185 -1.4291  0.8216
 1753SOL     OW16891   4.660   2.548  12.341 -0.3198  0.0314 -0.5180
 1753SOL    HW116892   4.638   2.525  12.431 -2.6391 -1.2363 -1.4135
 1753SOL    HW216893   4.572   2.547  12.305 -0.7052 -0.9461  0.4526
 1754SOL     OW16894   0.779   0.679   7.798  0.0206  0.4651 -0.0934
 1754SOL    HW116895   0.684   0.673   7.787  0.1483 -1.2883 -0.2085
 1754SOL    HW216896   0.804   0.615   7.732  2.0121  1.1835 -0.0320
 1755SOL     OW16897   0.208   2.162   4.060  0.4272 -0.1825  0.2471
 1755SOL    HW116898   0.219   2.247   4.104  0.6994 -0.1161  0.0508
 1755SOL    HW216899   0.297   2.132   4.078  0.4487 -0.1505  0.1944
 1756SOL     OW16900   3.919   2.913   9.860  0.0182 -0.5651 -0.3444
 1756SOL    HW116901   3.989   2.977   9.870 -0.6651  0.0965  0.1175
 1756SOL    HW216902   3.845   2.973   9.864 -0.6327 -1.3926  0.0159
 1757SOL     OW16903   2.599   2.377   9.209 -0.4369  0.0143 -0.2194
 1757SOL    HW116904   2.633   2.464   9.228  0.2364 -0.3482  0.2503
 1757SOL    HW216905   2.556   2.387   9.124 -0.6922 -0.0679 -0.1020
 1758SOL     OW16906   4.697   4.729   0.459 -0.2590  0.1728  0.2827
 1758SOL    HW116907   4.657   0.076   0.431  1.7478  0.9762 -0.2734
 1758SOL    HW216908   4.621   4.688   0.499  0.5983 -3.1837 -1.5472
 1759SOL     OW16909   0.286   1.165   7.010  0.0911  0.2821  0.2268
 1759SOL    HW116910   0.248   1.079   7.030  0.8513  0.1837  1.2639
 1759SOL    HW216911   0.341   1.149   6.933 -1.2559  0.3229 -0.7339
 1760SOL     OW16912   4.318   2.766   9.049  0.3739  0.3655 -1.2479
 1760SOL    HW116913   4.254   2.769   9.121  0.2271 -0.2007 -1.3555
 1760SOL    HW216914   4.330   2.861   9.050  0.1679  0.3739  2.0690
 1761SOL     OW16915   3.317   0.125  13.698  0.2958 -0.1399  0.2854
 1761SOL    HW116916   3.224   0.122  13.676 -0.0724  0.8559  1.7484
 1761SOL    HW216917   3.328   0.034  13.728  1.4061 -0.1353 -0.1295
 1762SOL     OW16918   0.141   0.549   4.994  0.1489 -0.3386  0.0332
 1762SOL    HW116919   0.125   0.457   4.973  0.6222 -0.2419 -0.7798
 1762SOL    HW216920   0.204   0.540   5.066 -1.3423  1.4550  1.5572
 1763SOL     OW16921   1.391   4.224  10.588  0.1515 -0.0834  0.3963
 1763SOL    HW116922   1.377   4.318  10.574  1.9411 -0.3283 -2.8668
 1763SOL    HW216923   1.306   4.189  10.560 -0.4842  1.8845 -0.1314
 1764SOL     OW16924   1.718   2.470   8.384 -0.5041 -0.1992 -0.7360
 1764SOL    HW116925   1.754   2.517   8.309 -0.4615 -0.8603 -1.1292
 1764SOL    HW216926   1.798   2.471   8.437 -1.0249 -0.5312  0.0501
 1765SOL     OW16927   0.531   1.521   9.210 -0.5048 -0.0613 -0.4965
 1765SOL    HW116928   0.463   1.572   9.252  0.1771 -0.1793  0.7618
 1765SOL    HW216929   0.557   1.586   9.145 -2.9174  2.6214  1.2451
 1766SOL     OW16930   0.671   0.687   5.758 -0.2854 -0.2993  0.4361
 1766SOL    HW116931   0.624   0.719   5.835 -1.8020  0.3475 -0.7552
 1766SOL    HW216932   0.742   0.751   5.756 -0.6751  0.1195 -0.0604
 1767SOL     OW16933   4.196   0.074   1.844 -0.2935  0.2214  0.3745
 1767SOL    HW116934   4.292   0.079   1.851 -0.0761 -1.1698 -1.4895
 1767SOL    HW216935   4.185   0.122   1.763 -1.6410 -0.2572  0.2849
 1768SOL     OW16936   2.769   0.591   1.500  0.0948  0.1484  0.1857
 1768SOL    HW116937   2.827   0.580   1.575  0.9816  0.2483 -0.4922
 1768SOL    HW216938   2.693   0.639   1.534  0.0406 -1.4050  2.2136
 1769SOL     OW16939   2.155   4.683   3.618 -0.2458 -0.3268  0.7146
 1769SOL    HW116940   2.061   4.675   3.631 -0.2877 -1.8417 -0.5686
 1769SOL    HW216941   2.166   0.039   3.593  0.8585 -0.8444 -0.6775
 1770SOL     OW16942   2.213   1.396   3.759  0.1844 -0.1349  0.0900
 1770SOL    HW116943   2.263   1.320   3.729 -1.6686 -1.1344 -0.4923
 1770SOL    HW216944   2.262   1.473   3.730 -0.4316  0.7072  1.3013
 1771SOL     OW16945   2.038   2.816   6.475 -0.1985  0.2393 -0.3141
 1771SOL    HW116946   1.983   2.737   6.474 -1.0867  0.8870 -1.8084
 1771SOL    HW216947   2.071   2.817   6.385  0.3900  0.7280 -0.0921
 1772SOL     OW16948   0.578   0.552   5.024 -0.0734 -0.2891  0.2505
 1772SOL    HW116949   0.495   0.589   5.053  0.0339  1.0637 -1.1610
 1772SOL    HW216950   0.618   0.632   4.991 -0.8065 -0.1235 -0.2556
 1773SOL     OW16951   1.988   0.666  16.977 -0.3542 -0.6530  0.3023
 1773SOL    HW116952   1.894   0.652  16.964 -0.9024  3.4956 -0.0928
 1773SOL    HW216953   1.993   0.645  17.071 -0.8072 -1.6575  0.1097
 1774SOL     OW16954   3.362   1.609   7.788 -0.1882 -0.6759  0.0852
 1774SOL    HW116955   3.360   1.691   7.738  0.0608 -0.7233 -0.0003
 1774SOL    HW216956   3.359   1.656   7.872  0.6330  1.0936 -0.8593
 1775SOL     OW16957   1.718   2.909   6.784 -0.5366  0.8925  0.4710
 1775SOL    HW116958   1.707   3.003   6.773  0.6454  0.9767  0.0471
 1775SOL    HW216959   1.791   2.907   6.846 -2.2590  0.0295  2.4838
 1776SOL     OW16960   0.462   2.386   2.619 -0.4843  0.8123 -0.2208
 1776SOL    HW116961   0.387   2.346   2.575  0.1310 -1.3598  0.7068
 1776SOL    HW216962   0.484   2.466   2.572  0.8373 -0.2838 -1.4866
 1777SOL     OW16963   2.885   0.505   5.255 -0.3231 -0.0683 -0.3114
 1777SOL    HW116964   2.893   0.493   5.350  1.2469  3.0560 -0.0584
 1777SOL    HW216965   2.852   0.595   5.255 -2.8107 -0.9698  1.1675
 1778SOL     OW16966   3.814   0.981   2.293  0.1092 -0.2270 -0.1030
 1778SOL    HW116967   3.760   0.952   2.220 -0.1026 -0.2002  0.0415
 1778SOL    HW216968   3.766   1.040   2.352  0.0814 -0.1404 -0.2123
 1779SOL     OW16969   0.316   3.070   3.392 -0.5376 -0.4689  0.7479
 1779SOL    HW116970   0.304   3.114   3.475  0.7067  0.3242  0.5114
 1779SOL    HW216971   0.369   2.994   3.416 -0.4634 -0.0136  2.0151
 1780SOL     OW16972   4.439   4.077   1.743  0.5576 -0.2316  0.1495
 1780SOL    HW116973   4.379   4.115   1.807  0.3088 -0.1869 -0.1131
 1780SOL    HW216974   4.471   3.998   1.786 -2.3470 -0.1911  2.3756
 1781SOL     OW16975   0.559   1.891   5.503 -0.4640  0.2535 -0.1902
 1781SOL    HW116976   0.577   1.969   5.451 -3.4369 -0.6868 -2.6605
 1781SOL    HW216977   0.647   1.889   5.540 -0.4288 -1.2006 -0.3583
 1782SOL     OW16978   0.375   2.186   3.068  0.2218  0.2174 -0.0356
 1782SOL    HW116979   0.361   2.113   3.008 -0.4330  0.6173 -0.3612
 1782SOL    HW216980   0.428   2.235   3.005  2.2848 -0.7286  0.9660
 1783SOL     OW16981   3.894   4.024   4.992  0.5630 -0.4253 -0.1801
 1783SOL    HW116982   3.832   4.097   4.992 -1.2549 -1.9711  0.6541
 1783SOL    HW216983   3.836   3.949   4.976  2.0437 -1.3952 -0.9251
 1784SOL     OW16984   4.005   1.173   2.453  0.3518  0.2810  0.7983
 1784SOL    HW116985   4.033   1.082   2.439 -1.2668  0.2698 -2.4023
 1784SOL    HW216986   3.959   1.188   2.371  0.3874 -1.1669  0.5018
 1785SOL     OW16987   4.006   0.111  10.588  0.0768  0.6414 -0.0068
 1785SOL    HW116988   3.944   0.182  10.570 -0.8859 -0.2269 -0.1666
 1785SOL    HW216989   4.003   0.071  10.501  0.8587 -1.5717  0.9866
 1786SOL     OW16990   3.805   3.323   8.684  0.3998 -0.1185 -0.6803
 1786SOL    HW116991   3.822   3.343   8.776  1.6773 -2.5683 -0.4102
 1786SOL    HW216992   3.710   3.328   8.679  0.5204  2.2325 -0.8688
 1787SOL     OW16993   0.990   0.636  13.825  0.0621  0.5576  0.4179
 1787SOL    HW116994   0.908   0.645  13.873  0.6576 -1.9226  1.8936
 1787SOL    HW216995   1.047   0.606  13.895  2.1807 -0.0850 -1.5716
 1788SOL     OW16996   1.321   3.004   9.083  0.4854 -0.4901  0.2508
 1788SOL    HW116997   1.360   3.086   9.113 -0.7102  0.6025 -1.1910
 1788SOL    HW216998   1.244   2.996   9.139  0.6351 -0.3269  0.4827
 1789SOL     OW16999   2.859   2.951  14.168 -0.4603  0.4211 -0.2440
 1789SOL    HW117000   2.833   2.859  14.164 -0.2367  0.3511 -0.1332
 1789SOL    HW217001   2.848   2.970  14.261 -1.6453  0.6600 -0.4399
 1790SOL     OW17002   3.181   4.035   6.354 -0.3202 -0.3578 -0.3577
 1790SOL    HW117003   3.252   4.064   6.411  1.0716  0.3191 -2.4229
 1790SOL    HW217004   3.233   4.018   6.275 -0.0235 -1.0001 -0.0251
 1791SOL     OW17005   0.127   0.367   7.882 -0.5756  0.2896  0.0064
 1791SOL    HW117006   0.217   0.391   7.905 -0.4763  0.4771 -0.5841
 1791SOL    HW217007   0.081   0.446   7.911  0.0483 -0.0955  2.0886
 1792SOL     OW17008   4.306   0.407   6.419  0.1337  0.3646 -0.0667
 1792SOL    HW117009   4.395   0.438   6.405  0.5248 -1.1262 -0.9063
 1792SOL    HW217010   4.312   0.378   6.510 -0.7104 -0.9110 -0.4146
 1793SOL     OW17011   4.281   1.299   5.221 -0.7038 -0.0771  0.2500
 1793SOL    HW117012   4.335   1.350   5.281 -0.5841  0.5121 -0.3472
 1793SOL    HW217013   4.283   1.213   5.262  0.6653 -1.4002 -2.5892
 1794SOL     OW17014   3.450   4.495   3.215 -0.1476 -0.1753  0.4207
 1794SOL    HW117015   3.530   4.535   3.248 -0.0842 -0.4619  0.6136
 1794SOL    HW217016   3.437   4.436   3.290 -0.3169 -1.6218 -0.7393
 1795SOL     OW17017   3.224   3.235   4.263  0.2853 -0.4631 -0.5224
 1795SOL    HW117018   3.256   3.172   4.328 -0.1898 -2.1566 -1.9373
 1795SOL    HW217019   3.131   3.233   4.284  0.3530  1.6002  0.0567
 1796SOL     OW17020   4.581   0.054   6.410  0.8672 -0.1192 -0.3357
 1796SOL    HW117021   4.547   4.700   6.414 -0.1514  0.1437 -3.1699
 1796SOL    HW217022   4.614   0.057   6.320 -1.4838  0.1473 -1.1893
 1797SOL     OW17023   1.814   3.261   8.986 -0.0554  0.2491 -0.1410
 1797SOL    HW117024   1.869   3.219   8.919 -1.7069 -1.4413 -0.4177
 1797SOL    HW217025   1.780   3.344   8.953  0.8893  0.7164  0.0722
 1798SOL     OW17026   4.615   3.761   5.136  0.1872  0.2011 -0.1742
 1798SOL    HW117027   4.602   3.853   5.112 -0.2303 -0.5076 -2.6403
 1798SOL    HW217028   4.545   3.742   5.199 -0.0204  1.3080 -0.0699
 1799SOL     OW17029   2.560   1.227   3.345  0.1173 -0.0400  0.2103
 1799SOL    HW117030   2.644   1.231   3.389 -1.3755 -0.8640  3.1352
 1799SOL    HW217031   2.580   1.294   3.280  0.7440  0.9953  1.4709
 1800SOL     OW17032   3.967   2.862   9.424 -0.8573  0.5778  0.2945
 1800SOL    HW117033   3.949   2.839   9.516  0.7503  0.9740  0.7150
 1800SOL    HW217034   3.882   2.872   9.382 -0.5231 -2.1641 -1.0187
 1801SOL     OW17035   3.976   1.155   2.068 -0.2122  0.3545  0.4169
 1801SOL    HW117036   3.898   1.104   2.089  0.0210 -0.1363  0.1090
 1801SOL    HW217037   3.944   1.244   2.056  0.7017  1.0224  2.9120
 1802SOL     OW17038   3.661   4.294   4.480 -0.1785  0.4055 -0.3881
 1802SOL    HW117039   3.689   4.218   4.429  0.0609  0.6199 -0.5783
 1802SOL    HW217040   3.619   4.257   4.557  1.0909 -0.0789  0.0741
 1803SOL     OW17041   0.880   1.938  11.672  0.1711 -0.0276  0.5023
 1803SOL    HW117042   0.960   1.933  11.724  2.4273  0.4042 -2.9875
 1803SOL    HW217043   0.892   1.861  11.617 -2.2625  2.4804 -3.5084
 1804SOL     OW17044   2.473   0.107   7.106 -0.2094 -0.1081  0.4605
 1804SOL    HW117045   2.381   0.080   7.108 -0.1548 -0.2327  1.0541
 1804SOL    HW217046   2.515   0.039   7.158  1.0206 -0.0566 -0.4544
 1805SOL     OW17047   1.609   3.500   7.097  0.2703  0.0741  0.1238
 1805SOL    HW117048   1.659   3.582   7.088  0.7046 -0.0843  1.1632
 1805SOL    HW217049   1.578   3.486   7.008 -0.5320  0.6323  0.3133
 1806SOL     OW17050   3.860   4.101   1.266 -0.5054 -0.1500 -0.6155
 1806SOL    HW117051   3.785   4.161   1.272 -1.8331 -1.8976  0.6384
 1806SOL    HW217052   3.855   4.077   1.174 -2.4612  0.3763 -0.6637
 1807SOL     OW17053   3.195   1.492   0.972 -0.3393 -0.4363 -0.2241
 1807SOL    HW117054   3.234   1.542   0.901 -1.6974  1.5879  0.4432
 1807SOL    HW217055   3.102   1.505   0.950 -1.0643 -0.3832  2.8437
 1808SOL     OW17056   1.705   0.850  14.148 -0.4000  0.0364 -0.4177
 1808SOL    HW117057   1.778   0.857  14.209 -1.2867 -0.1831  0.6611
 1808SOL    HW217058   1.753   0.828  14.068  0.8506  1.0435  0.0590
 1809SOL     OW17059   1.150   1.953   8.017  0.4207 -0.3338 -0.1071
 1809SOL    HW117060   1.241   1.923   8.012  1.4010  2.0572  3.3123
 1809SOL    HW217061   1.152   2.017   7.947 -1.6449 -1.2446 -0.9892
 1810SOL     OW17062   4.593   2.552   7.446  0.3371  0.0333 -0.1505
 1810SOL    HW117063   4.571   2.491   7.516 -3.9401  1.1604 -0.5398
 1810SOL    HW217064   4.517   2.609   7.440 -0.0077 -0.4174 -0.0678
 1811SOL     OW17065   0.013   0.675   7.714 -0.1351 -0.0185 -0.0827
 1811SOL    HW117066   0.091   0.703   7.667 -0.0270 -1.3661 -0.7215
 1811SOL    HW217067   4.708   0.609   7.657 -1.8703  0.1916  0.8953
 1812SOL     OW17068   0.566   1.494   9.897 -0.1554 -0.0391  0.5480
 1812SOL    HW117069   0.592   1.422   9.840 -3.7131 -0.7993 -0.1261
 1812SOL    HW217070   0.568   1.448   9.981 -2.1494  0.1978  0.7307
 1813SOL     OW17071   4.488   3.382   6.192 -1.0612  0.2389 -0.4922
 1813SOL    HW117072   4.417   3.418   6.138 -1.5661  0.8722  0.5907
 1813SOL    HW217073   4.536   3.322   6.135  0.4778  1.7528 -0.7824
 1814SOL     OW17074   0.128   0.721   5.725  0.2637 -0.0615  0.5212
 1814SOL    HW117075   0.185   0.766   5.661  1.0240 -1.2321  0.3725
 1814SOL    HW217076   0.099   0.795   5.778  1.0118  0.4897  0.1718
 1815SOL     OW17077   1.406   0.045  16.073  0.1033 -0.2764  0.0594
 1815SOL    HW117078   1.392   0.076  16.163 -0.2999  0.2330 -0.1805
 1815SOL    HW217079   1.448   4.695  16.087 -0.0161 -0.1875  0.9538
 1816SOL     OW17080   0.179   0.503   6.850 -0.4003  0.7497  0.0072
 1816SOL    HW117081   0.249   0.438   6.848 -0.1364  1.1205 -2.6006
 1816SOL    HW217082   0.109   0.438   6.854 -1.6819  1.9447 -2.8363
 1817SOL     OW17083   1.286   0.668   6.041  0.1157 -0.1354  0.6951
 1817SOL    HW117084   1.215   0.704   5.989  0.8461 -1.7913 -1.4570
 1817SOL    HW217085   1.298   0.728   6.115  2.1202 -0.4884  0.6597
 1818SOL     OW17086   3.920   0.105   0.340  0.2499  0.3231 -0.1979
 1818SOL    HW117087   3.993   0.167   0.343  0.8072 -0.4222  1.6075
 1818SOL    HW217088   3.882   0.129   0.425  1.0712 -0.4692  0.3921
 1819SOL     OW17089   3.979   3.790   1.307 -0.2295 -0.0250  0.1784
 1819SOL    HW117090   3.916   3.850   1.268 -1.6773 -1.4764  0.2501
 1819SOL    HW217091   3.929   3.774   1.387  1.6015  2.9840  1.9064
 1820SOL     OW17092   0.877   1.433  14.700 -0.3320 -0.3176  0.2898
 1820SOL    HW117093   0.953   1.409  14.647  0.6061 -0.5477  1.7293
 1820SOL    HW217094   0.806   1.384  14.658  0.4994 -1.0753 -0.2590
 1821SOL     OW17095   0.672   2.818   4.810  0.1900  0.7044 -0.1218
 1821SOL    HW117096   0.660   2.783   4.722 -0.0475 -1.2981  0.7122
 1821SOL    HW217097   0.749   2.875   4.808  0.8173 -0.1574 -0.4509
 1822SOL     OW17098   4.318   3.099   7.401 -0.2339 -0.1366  0.8180
 1822SOL    HW117099   4.311   3.194   7.400 -3.1904 -0.3680 -0.0429
 1822SOL    HW217100   4.234   3.056   7.382  0.2232 -0.7154  0.0863
 1823SOL     OW17101   3.510   3.314   8.745  0.0232  0.2883  1.0297
 1823SOL    HW117102   3.477   3.232   8.708 -1.4923  1.6029 -0.5315
 1823SOL    HW217103   3.436   3.337   8.801  0.1485  3.0250  0.0732
 1824SOL     OW17104   3.179   0.228   8.933  0.0899 -0.0940  0.0675
 1824SOL    HW117105   3.243   0.184   8.988 -0.7110 -0.7672  0.4544
 1824SOL    HW217106   3.106   0.234   8.994 -0.7946 -0.8526 -0.9138
 1825SOL     OW17107   4.377   0.748   6.662 -0.3103  0.2365  0.1602
 1825SOL    HW117108   4.289   0.715   6.682  0.2782  0.3565  3.0330
 1825SOL    HW217109   4.369   0.837   6.698 -0.2487 -0.8446  2.8607
 1826SOL     OW17110   0.344   0.246   2.812 -0.6204 -0.5355  0.2701
 1826SOL    HW117111   0.253   0.271   2.823 -0.5041 -0.7372  1.6905
 1826SOL    HW217112   0.380   0.333   2.791  0.8531 -1.6719 -1.8699
 1827SOL     OW17113   2.067   0.370  17.467  0.1662  0.5394 -0.6295
 1827SOL    HW117114   2.119   0.289  17.469  0.1559  0.5294 -0.7753
 1827SOL    HW217115   2.095   0.415  17.547 -0.4573  0.8446 -0.5884
 1828SOL     OW17116   4.432   1.516   7.172  0.0177  0.0570  0.1349
 1828SOL    HW117117   4.372   1.546   7.240  0.9668  0.7504  0.6631
 1828SOL    HW217118   4.509   1.489   7.221 -0.8124  1.7025  2.3304
 1829SOL     OW17119   0.274   3.910   2.520  0.1777  0.0551 -0.5243
 1829SOL    HW117120   0.267   3.835   2.579 -2.4652  0.3405 -0.4991
 1829SOL    HW217121   0.320   3.976   2.573  1.9649  1.2000 -3.4895
 1830SOL     OW17122   2.569   1.945  17.346  0.5647 -0.3169  0.4277
 1830SOL    HW117123   2.490   1.894  17.364 -0.3073  0.6038 -0.8312
 1830SOL    HW217124   2.637   1.879  17.334 -0.5189 -1.2774 -0.3074
 1831SOL     OW17125   4.297   4.437   8.420  0.3528  0.4284 -0.0396
 1831SOL    HW117126   4.316   4.493   8.344  0.8561 -0.9687 -0.9416
 1831SOL    HW217127   4.383   4.432   8.460  0.2729 -2.2166 -0.1873
 1832SOL     OW17128   1.224   1.605  17.525 -0.2248 -0.3696  0.2177
 1832SOL    HW117129   1.200   1.569  17.439  0.2749 -1.0915  0.3863
 1832SOL    HW217130   1.218   1.528  17.580  0.7767  0.2534  1.1946
 1833SOL     OW17131   0.527   1.890   7.715 -0.0921 -0.0226 -0.9044
 1833SOL    HW117132   0.472   1.827   7.760 -0.2760  0.4920 -0.4150
 1833SOL    HW217133   0.498   1.974   7.750  0.1023 -0.5373  0.4924
 1834SOL     OW17134   2.650   3.925   3.146  0.1788 -0.1125  0.0343
 1834SOL    HW117135   2.557   3.901   3.155  0.3808 -0.8998  0.0021
 1834SOL    HW217136   2.684   3.836   3.144  0.8707  0.1459  0.2041
 1835SOL     OW17137   0.265   2.867  15.665  0.5881 -0.5559  0.1100
 1835SOL    HW117138   0.322   2.872  15.588 -1.5169  0.1967 -1.4110
 1835SOL    HW217139   0.258   2.772  15.673 -1.3474 -0.4018  0.2224
 1836SOL     OW17140   0.394   3.562   4.616 -0.0843 -0.1901 -0.6083
 1836SOL    HW117141   0.455   3.519   4.676  1.8976  1.8593 -1.1467
 1836SOL    HW217142   0.373   3.502   4.544  0.5805 -0.9789 -0.1473
 1837SOL     OW17143   1.204   3.909   6.926  0.1615  0.1943  0.4582
 1837SOL    HW117144   1.229   3.817   6.914 -2.0162 -0.1008 -1.7204
 1837SOL    HW217145   1.126   3.909   6.871  0.0404  0.7297  0.6371
 1838SOL     OW17146   0.184   2.558   9.239 -0.2537 -0.4582 -0.0650
 1838SOL    HW117147   0.250   2.610   9.194 -0.5824 -1.4168 -1.6249
 1838SOL    HW217148   0.194   2.596   9.327 -0.7346 -0.0430 -0.1912
 1839SOL     OW17149   3.776   3.444   3.577 -0.3525 -0.5623 -0.0478
 1839SOL    HW117150   3.807   3.383   3.509 -0.9982 -0.4916 -0.4044
 1839SOL    HW217151   3.682   3.447   3.562 -0.6801  1.0018  2.4536
 1840SOL     OW17152   2.282   3.904   2.267 -0.1550  0.0625  0.3314
 1840SOL    HW117153   2.359   3.898   2.210  0.8250 -0.9130  1.7545
 1840SOL    HW217154   2.311   3.861   2.347  0.1614 -2.1882 -0.9875
 1841SOL     OW17155   2.287   1.289   5.212 -0.3240  0.4599  0.0961
 1841SOL    HW117156   2.310   1.239   5.133  0.4519  0.2486  0.4536
 1841SOL    HW217157   2.221   1.351   5.180 -1.1814 -0.8092 -0.6117
 1842SOL     OW17158   0.050   1.331  16.788 -0.5017  0.7131  0.0807
 1842SOL    HW117159   0.060   1.238  16.769 -1.9924  0.3810  0.9287
 1842SOL    HW217160   0.041   1.363  16.698  0.5886 -1.3644 -0.7690
 1843SOL     OW17161   3.212   3.947   9.845 -0.2723  0.4479  0.7288
 1843SOL    HW117162   3.167   3.905   9.772  1.0255 -2.2368  1.4505
 1843SOL    HW217163   3.183   3.889   9.915 -0.1287  0.3620  0.7190
 1844SOL     OW17164   4.031   2.441   6.530  0.0857  0.2603  0.0471
 1844SOL    HW117165   3.955   2.495   6.510  1.0505  2.1876  1.6781
 1844SOL    HW217166   3.983   2.389   6.594  0.4819 -1.2901 -0.8939
 1845SOL     OW17167   3.338   2.006   4.581 -0.2372 -0.4297  0.0327
 1845SOL    HW117168   3.291   1.985   4.500  2.0001 -1.3567 -1.0046
 1845SOL    HW217169   3.289   1.944   4.635 -1.4085  0.9998  0.6392
 1846SOL     OW17170   2.869   4.702   2.446 -0.1147  0.0286 -0.0689
 1846SOL    HW117171   2.816   4.623   2.448  2.6644 -1.8250 -0.1921
 1846SOL    HW217172   2.810   0.032   2.407 -0.9422 -1.0384 -0.5890
 1847SOL     OW17173   2.074   4.564  17.688 -0.3771 -0.5015  0.5069
 1847SOL    HW117174   2.077   4.646  17.738  1.0913  0.5177 -1.2466
 1847SOL    HW217175   2.042   4.499   0.011 -0.2697 -0.0154  1.0673
 1848SOL     OW17176   3.707   3.571   8.368  0.5589  0.1036  0.4320
 1848SOL    HW117177   3.759   3.639   8.411  0.5532 -0.7727  1.8001
 1848SOL    HW217178   3.645   3.631   8.325  1.0308 -0.4322 -0.9937
 1849SOL     OW17179   1.631   0.068   1.145  0.7588  0.2845  0.0927
 1849SOL    HW117180   1.553   0.060   1.090  1.1495  0.0932 -0.4300
 1849SOL    HW217181   1.645   4.709   1.143 -0.4702  0.0739  1.0009
 1850SOL     OW17182   1.139   2.631   4.601 -0.1683 -0.3702  0.0518
 1850SOL    HW117183   1.064   2.606   4.655  0.1417  0.1002  0.7090
 1850SOL    HW217184   1.129   2.726   4.592 -3.0166 -0.4373  2.5722
 1851SOL     OW17185   0.972   3.442  16.022 -0.3129  0.1276 -0.2717
 1851SOL    HW117186   1.002   3.447  16.113 -1.2012 -3.8429  0.2646
 1851SOL    HW217187   1.010   3.360  15.991 -1.3311 -0.6305  0.4550
 1852SOL     OW17188   0.786   0.083   1.894  0.3120  0.0156 -0.0553
 1852SOL    HW117189   0.694   0.102   1.910  0.7857  0.0076  2.7986
 1852SOL    HW217190   0.804   0.025   1.968  0.5624  1.6840  1.1987
 1853SOL     OW17191   2.014   3.574   7.889  0.1646 -0.6809 -0.6988
 1853SOL    HW117192   2.003   3.669   7.898 -0.3248 -0.9069  1.1906
 1853SOL    HW217193   2.109   3.573   7.900  0.0742  2.2381  0.2269
 1854SOL     OW17194   0.919   3.202   4.373  0.2436 -0.0334 -0.0796
 1854SOL    HW117195   0.978   3.139   4.414 -1.5454 -0.2637  2.1225
 1854SOL    HW217196   0.979   3.238   4.308 -0.5661 -0.9294 -1.3209
 1855SOL     OW17197   0.882   3.271   3.663 -0.3535 -0.0580  0.2422
 1855SOL    HW117198   0.837   3.261   3.746 -1.3589 -0.5471 -0.3541
 1855SOL    HW217199   0.963   3.224   3.682 -0.1303  0.2684  0.0984
 1856SOL     OW17200   1.302   1.196   5.604  0.1532 -0.1326  0.2709
 1856SOL    HW117201   1.320   1.103   5.612  1.6934  0.2431  1.3259
 1856SOL    HW217202   1.365   1.231   5.668  1.1039  1.0658 -1.3043
 1857SOL     OW17203   1.989   3.412   3.157 -0.1737  0.5378  0.8291
 1857SOL    HW117204   1.944   3.471   3.218  2.8542  0.6154  2.9599
 1857SOL    HW217205   1.955   3.434   3.070  0.7988 -1.5502 -0.0719
 1858SOL     OW17206   1.587   0.049   6.271  0.3814  0.5343  0.0945
 1858SOL    HW117207   1.638   0.106   6.214  0.1513  1.9254  1.2925
 1858SOL    HW217208   1.537   0.109   6.326  0.1106 -1.5840  2.1615
 1859SOL     OW17209   4.351   0.151   1.183 -0.1161 -0.0635 -0.2751
 1859SOL    HW117210   4.333   0.132   1.275 -0.7369  0.7065 -0.2424
 1859SOL    HW217211   4.403   0.229   1.201  0.5758 -0.6017  0.1044
 1860SOL     OW17212   0.063   3.993   6.289  0.7058  0.1546  0.5026
 1860SOL    HW117213   0.041   4.028   6.203  1.2569  0.0769  0.3287
 1860SOL    HW217214   4.718   3.946   6.312  0.4877  0.7119  0.8695
 1861SOL     OW17215   4.465   1.218  11.295 -0.8879  0.1778  0.0507
 1861SOL    HW117216   4.422   1.180  11.371 -1.3928  0.8175  0.0912
 1861SOL    HW217217   4.559   1.213  11.314 -1.5974  1.5275  4.0279
 1862SOL     OW17218   1.666   3.028  17.321 -0.1487  0.1461  0.1184
 1862SOL    HW117219   1.749   3.038  17.369  0.2864  0.1655 -0.6480
 1862SOL    HW217220   1.694   2.964  17.256 -1.2775  1.5010 -1.6989
 1863SOL     OW17221   4.046   0.373   4.548  0.1694  0.0066 -0.2713
 1863SOL    HW117222   3.961   0.368   4.505  0.7122 -0.6222 -1.2832
 1863SOL    HW217223   4.020   0.395   4.637 -1.7502 -0.9579 -0.6015
 1864SOL     OW17224   3.412   2.600   2.783  0.6567 -0.7507 -0.1622
 1864SOL    HW117225   3.398   2.630   2.873 -1.6620 -2.6187  0.1118
 1864SOL    HW217226   3.502   2.629   2.770 -0.1114  1.5855 -0.3242
 1865SOL     OW17227   2.379   1.847   7.947  0.2430  0.0051  0.5019
 1865SOL    HW117228   2.372   1.786   8.020 -1.3887 -1.4443 -0.9000
 1865SOL    HW217229   2.442   1.801   7.891  1.7793  1.3925  1.0580
 1866SOL     OW17230   3.751   3.146  12.148  0.3843  0.1499 -0.0067
 1866SOL    HW117231   3.752   3.116  12.057  0.6399  1.0477 -0.3056
 1866SOL    HW217232   3.844   3.129  12.162 -0.0936 -2.7218 -0.3733
 1867SOL     OW17233   1.746   0.893   3.271 -0.1192  0.5762 -0.0876
 1867SOL    HW117234   1.727   0.820   3.212  0.0960 -0.6581  1.3622
 1867SOL    HW217235   1.784   0.841   3.341  1.9685  2.4229  0.1638
 1868SOL     OW17236   3.191   2.185   3.728 -0.3465  0.0076 -0.2092
 1868SOL    HW117237   3.197   2.278   3.707 -0.7637  0.6688  2.5366
 1868SOL    HW217238   3.140   2.192   3.809 -0.8095  1.3691 -0.6198
 1869SOL     OW17239   4.065   3.847  17.677  0.1464  0.0872 -0.0904
 1869SOL    HW117240   4.098   3.935  17.695 -0.5891  0.4828 -0.6439
 1869SOL    HW217241   4.139   3.788  17.691 -1.5867 -2.2133 -0.6643
 1870SOL     OW17242   2.478   1.948   5.076 -0.1703 -0.3514  0.2926
 1870SOL    HW117243   2.454   1.923   4.987  0.3137 -1.5020  0.4775
 1870SOL    HW217244   2.474   1.859   5.112  0.3468 -0.7837 -0.7115
 1871SOL     OW17245   1.525   0.994   5.425  0.0742  0.2392  0.3016
 1871SOL    HW117246   1.584   0.988   5.350 -0.3391 -0.1965  0.0191
 1871SOL    HW217247   1.524   1.090   5.434 -0.0020  0.2129  0.5799
 1872SOL     OW17248   2.639   2.650   0.385  0.2715 -0.0653  0.3549
 1872SOL    HW117249   2.546   2.673   0.382  0.1375 -0.4425  1.4107
 1872SOL    HW217250   2.625   2.556   0.393 -1.9439 -0.0316 -3.1797
 1873SOL     OW17251   3.579   1.113   6.085  0.4685  0.3687  0.0892
 1873SOL    HW117252   3.568   1.051   6.156  1.1835 -0.0393 -0.1515
 1873SOL    HW217253   3.511   1.086   6.023  1.7551  1.3826 -1.7734
 1874SOL     OW17254   0.427   0.498   0.947  0.1957 -0.1474  0.6890
 1874SOL    HW117255   0.508   0.481   0.994 -0.1919 -1.2095  0.9841
 1874SOL    HW217256   0.410   0.421   0.891 -0.3912 -0.1940  0.9289
 1875SOL     OW17257   4.359   1.820   1.319  0.8406  0.4297  0.0437
 1875SOL    HW117258   4.341   1.737   1.364 -4.4070  2.4949  1.7190
 1875SOL    HW217259   4.451   1.831   1.341  0.7842 -1.9241  1.5107
 1876SOL     OW17260   2.000   0.859   4.344  0.5496 -0.0772 -0.2417
 1876SOL    HW117261   2.013   0.915   4.421  0.2193 -0.7381  0.2899
 1876SOL    HW217262   1.941   0.903   4.283 -1.7636 -1.5065  0.9957
 1877SOL     OW17263   0.862   2.150  11.482 -0.3103 -0.6779 -0.1773
 1877SOL    HW117264   0.893   2.133  11.393 -0.3772 -2.7692  0.1769
 1877SOL    HW217265   0.892   2.073  11.530  0.2350 -1.6278 -2.0110
 1878SOL     OW17266   0.659   2.395   1.040 -0.2997 -0.1221  0.6219
 1878SOL    HW117267   0.623   2.345   0.967 -0.0995  0.6291  0.0085
 1878SOL    HW217268   0.595   2.465   1.052 -0.8581 -0.0097 -3.0583
 1879SOL     OW17269   0.776   3.987  11.869 -0.2268 -0.3843 -0.6040
 1879SOL    HW117270   0.828   3.934  11.929 -0.3835  0.0258 -0.1051
 1879SOL    HW217271   0.744   4.059  11.922  0.9820  0.2044 -0.6730
 1880SOL     OW17272   0.771   1.775   4.025 -0.2906 -0.4676 -0.1877
 1880SOL    HW117273   0.676   1.767   4.023 -0.4988  1.9236  0.5992
 1880SOL    HW217274   0.785   1.747   4.116 -0.6469  0.0377  0.0191
 1881SOL     OW17275   0.758   4.577   9.142 -0.3293 -0.0289 -0.2463
 1881SOL    HW117276   0.810   4.508   9.182 -1.0196 -1.0308 -1.0900
 1881SOL    HW217277   0.811   4.656   9.153 -0.1739 -0.6356  3.3804
 1882SOL     OW17278   4.058   3.287   4.408  0.4818 -0.0271  0.3921
 1882SOL    HW117279   4.076   3.225   4.478 -3.4167  0.3502  1.7185
 1882SOL    HW217280   3.994   3.343   4.454 -0.0423  2.7012 -3.6402
 1883SOL     OW17281   0.136   3.168   0.952  1.0154  0.4048 -0.4828
 1883SOL    HW117282   0.081   3.111   0.897  0.4269  1.4755 -0.9965
 1883SOL    HW217283   0.107   3.134   1.036  1.1581 -0.3730 -0.7462
 1884SOL     OW17284   1.086   0.021   3.612  0.0770 -0.3334 -0.1622
 1884SOL    HW117285   1.089   0.004   3.518 -0.1911 -1.0682 -0.0402
 1884SOL    HW217286   1.176   4.733   3.635 -0.3999 -1.1429  0.9273
 1885SOL     OW17287   0.885   0.394   4.794 -0.0922  0.4556 -0.0546
 1885SOL    HW117288   0.937   0.411   4.715  0.7478  1.7150  0.7733
 1885SOL    HW217289   0.801   0.361   4.762 -0.6516 -0.3244  2.2470
 1886SOL     OW17290   4.285   2.293   9.377  0.0883 -0.2394  0.6553
 1886SOL    HW117291   4.300   2.386   9.360 -2.5406 -0.2042 -1.3850
 1886SOL    HW217292   4.339   2.248   9.312  0.3958  1.6918 -0.4349
 1887SOL     OW17293   3.084   2.451   9.115 -0.0980  0.2004  0.4605
 1887SOL    HW117294   3.087   2.542   9.084  3.3224 -0.3056 -0.7269
 1887SOL    HW217295   2.990   2.435   9.107  0.6144 -2.5178 -2.8664
 1888SOL     OW17296   4.193   4.598   6.321 -0.1496  0.3380 -0.0366
 1888SOL    HW117297   4.122   4.554   6.367 -0.7914  0.2418 -1.1131
 1888SOL    HW217298   4.154   4.685   6.313 -0.8139  0.0442  0.0177
 1889SOL     OW17299   2.316   1.561   4.970 -0.3861  0.1321 -0.2639
 1889SOL    HW117300   2.259   1.616   5.025  1.5410  0.6281  1.2150
 1889SOL    HW217301   2.308   1.472   5.003 -0.9245  0.8577  1.5685
 1890SOL     OW17302   4.679   4.543   0.868 -0.0991  0.2949 -0.3254
 1890SOL    HW117303   4.600   4.549   0.921 -1.2930 -0.5027 -1.9878
 1890SOL    HW217304   0.010   4.588   0.920  1.2501 -0.9955 -0.9057
 1891SOL     OW17305   0.970   0.845  12.566  0.2536 -0.5084  0.1104
 1891SOL    HW117306   0.887   0.892  12.568  0.6083  0.1398 -0.5357
 1891SOL    HW217307   1.019   0.885  12.638  0.5308 -1.7405  0.6018
 1892SOL     OW17308   4.390   2.548   2.427 -0.1632  0.4597 -0.0574
 1892SOL    HW117309   4.449   2.579   2.495  0.0165  1.2532 -0.5768
 1892SOL    HW217310   4.404   2.609   2.355 -3.1458  1.4505  0.1662
 1893SOL     OW17311   1.996   4.142   7.741  0.3946  0.2345 -0.5760
 1893SOL    HW117312   2.066   4.097   7.694 -0.0949  0.3988 -1.4773
 1893SOL    HW217313   1.959   4.182   7.662 -2.0017 -0.2295  0.3034
 1894SOL     OW17314   2.449   3.132   6.537  0.3013  0.2315 -0.0244
 1894SOL    HW117315   2.499   3.202   6.495  2.5156 -1.6671 -0.5210
 1894SOL    HW217316   2.403   3.177   6.608  2.2214  0.5723  0.9841
 1895SOL     OW17317   4.619   4.635   1.721 -0.6434  0.2117 -0.2063
 1895SOL    HW117318   4.553   4.597   1.779  0.4651 -2.6330 -0.7840
 1895SOL    HW217319   4.683   4.673   1.781 -1.7065 -2.0346  2.3761
 1896SOL     OW17320   3.651   2.993   3.436  0.1337  0.1638  0.0873
 1896SOL    HW117321   3.672   2.984   3.529  3.3955 -1.3937 -0.8038
 1896SOL    HW217322   3.667   2.902   3.412 -1.8547  0.4306 -2.2373
 1897SOL     OW17323   0.726   2.876   3.738 -0.3622 -0.1081 -0.6583
 1897SOL    HW117324   0.739   2.785   3.764  0.9221  0.2136 -0.1435
 1897SOL    HW217325   0.807   2.893   3.689 -2.2789  1.5069 -3.2516
 1898SOL     OW17326   0.707   2.439   6.458  0.5025  0.1792 -0.5006
 1898SOL    HW117327   0.703   2.396   6.372  0.6973  0.3788 -0.6090
 1898SOL    HW217328   0.777   2.398   6.508 -0.5690  0.6825  1.3814
 1899SOL     OW17329   2.629   4.171   3.801  0.3943 -0.6041  0.5575
 1899SOL    HW117330   2.617   4.248   3.746 -0.9101  1.0258  3.1249
 1899SOL    HW217331   2.677   4.101   3.756 -2.1200 -2.6592  1.1067
 1900SOL     OW17332   0.020   2.866  11.097  0.2019  0.5785  0.2553
 1900SOL    HW117333   4.706   2.794  11.058  1.9318  0.5569 -1.8782
 1900SOL    HW217334   4.727   2.939  11.043  1.9750  0.4220 -0.8681
 1901SOL     OW17335   3.527   0.627  12.578 -0.4766 -0.0795  0.3477
 1901SOL    HW117336   3.585   0.625  12.655 -2.4826  0.2194  1.8635
 1901SOL    HW217337   3.447   0.630  12.631 -0.4753 -1.6802  0.4561
 1902SOL     OW17338   3.875   4.584   5.174 -0.0305  0.3838 -0.1124
 1902SOL    HW117339   3.848   4.492   5.179 -2.9107  1.3261  1.4932
 1902SOL    HW217340   3.819   4.619   5.104  0.2432  0.2757 -0.3846
 1903SOL     OW17341   1.149   3.605   1.892  0.5622 -0.1846 -0.0394
 1903SOL    HW117342   1.241   3.620   1.912  0.8476 -1.3211 -0.4561
 1903SOL    HW217343   1.154   3.624   1.798 -0.0397  1.9153  0.3561
 1904SOL     OW17344   2.039   0.723   5.999 -0.5060 -0.0436 -0.0143
 1904SOL    HW117345   2.089   0.733   6.081 -1.9127  2.0450  0.5979
 1904SOL    HW217346   1.953   0.707   6.039 -0.5127  2.2394  0.8922
 1905SOL     OW17347   3.688   0.550  11.834 -0.1972 -0.2163  0.3280
 1905SOL    HW117348   3.684   0.527  11.927  0.6044  1.5853  0.8283
 1905SOL    HW217349   3.672   0.465  11.794 -0.4584 -1.0757  2.2557
 1906SOL     OW17350   2.022   2.952  13.344 -0.1382 -0.4714  0.0739
 1906SOL    HW117351   2.069   2.872  13.319  2.0540  0.7125  0.3739
 1906SOL    HW217352   2.026   2.991  13.257  1.0259 -0.7982 -0.0288
 1907SOL     OW17353   2.607   0.807   1.227  0.2255 -0.8807 -0.0736
 1907SOL    HW117354   2.669   0.794   1.155  3.3487  2.1768  2.0690
 1907SOL    HW217355   2.595   0.720   1.265  0.0417 -0.8082  0.0295
 1908SOL     OW17356   3.178   2.590   2.367 -0.1976 -0.0902  0.1140
 1908SOL    HW117357   3.221   2.565   2.285 -1.6465 -0.3628 -0.5704
 1908SOL    HW217358   3.090   2.578   2.332  0.9359 -0.0284 -2.7751
 1909SOL     OW17359   0.299   3.583   8.753  0.6874  0.2589  0.2071
 1909SOL    HW117360   0.369   3.591   8.689 -1.3068  1.8299 -1.7808
 1909SOL    HW217361   0.329   3.626   8.833  0.8467  0.3113  0.1194
 1910SOL     OW17362   0.260   0.822   6.932  0.0162  0.1498 -0.3115
 1910SOL    HW117363   0.185   0.849   6.985  0.3659 -0.0111  0.2644
 1910SOL    HW217364   0.232   0.739   6.893  0.5764 -0.7122  1.1026
 1911SOL     OW17365   4.674   0.809   1.949  0.2289 -0.2555 -0.3970
 1911SOL    HW117366   4.714   0.846   2.028  1.6209  1.6140 -2.0208
 1911SOL    HW217367   4.581   0.830   1.965  0.5863  0.6181  0.5390
 1912SOL     OW17368   2.111   1.468  12.345  0.0764 -0.2630 -0.6916
 1912SOL    HW117369   2.085   1.379  12.324  1.2218 -1.2825  2.2290
 1912SOL    HW217370   2.202   1.468  12.377 -0.2757  1.4407  0.3287
 1913SOL     OW17371   1.442   3.824   5.565  0.3744  0.2866 -0.3145
 1913SOL    HW117372   1.499   3.791   5.495 -1.3383  0.3311 -1.7285
 1913SOL    HW217373   1.463   3.917   5.574  1.4144  0.0361 -0.2197
 1914SOL     OW17374   1.800   3.192  11.570  0.0601 -0.1742 -0.3341
 1914SOL    HW117375   1.714   3.158  11.595 -0.9221  2.3342 -0.3106
 1914SOL    HW217376   1.776   3.201  11.478  2.3755 -1.2610 -1.0392
 1915SOL     OW17377   3.098   2.084   5.044  0.1841 -1.1678 -0.1156
 1915SOL    HW117378   3.078   2.125   5.128 -0.5298  0.5036 -1.1197
 1915SOL    HW217379   3.126   1.999   5.078  0.7311 -0.6921  0.6387
 1916SOL     OW17380   0.372   2.836  13.783 -0.4474 -0.2756  0.0269
 1916SOL    HW117381   0.404   2.925  13.801  1.6219 -0.9538 -0.2752
 1916SOL    HW217382   0.349   2.844  13.691 -3.1528 -0.4232  0.6800
 1917SOL     OW17383   0.502   1.372   2.813  0.4930 -0.5909 -0.4142
 1917SOL    HW117384   0.492   1.466   2.825 -1.1126 -0.6032 -1.6448
 1917SOL    HW217385   0.435   1.334   2.871 -0.3115 -1.2439 -1.7583
 1918SOL     OW17386   1.565   3.902   1.837 -0.2771  0.3546 -0.1547
 1918SOL    HW117387   1.517   3.985   1.840 -0.8720  0.0122 -0.1862
 1918SOL    HW217388   1.631   3.920   1.904  0.0680 -0.1193 -0.3676
 1919SOL     OW17389   1.284   3.765   8.968 -0.0224  0.3756 -0.6329
 1919SOL    HW117390   1.304   3.780   9.060 -1.1412 -0.1235 -0.3119
 1919SOL    HW217391   1.372   3.747   8.933 -0.1832 -0.9225 -0.3422
 1920SOL     OW17392   0.210   1.427   1.965 -0.1328 -0.0186 -0.0417
 1920SOL    HW117393   0.159   1.403   1.888  0.9449 -1.0698 -0.4311
 1920SOL    HW217394   0.271   1.484   1.918 -2.3689  2.3943 -0.0084
 1921SOL     OW17395   1.252   4.305   5.734 -0.2357 -0.3849 -0.5258
 1921SOL    HW117396   1.260   4.364   5.659 -1.5723 -0.1128 -0.4593
 1921SOL    HW217397   1.179   4.343   5.783 -0.8614 -1.5332 -0.5882
 1922SOL     OW17398   2.612   2.637   2.695 -0.5028 -0.0082 -0.3081
 1922SOL    HW117399   2.646   2.684   2.619  0.5182  1.5446  1.1128
 1922SOL    HW217400   2.521   2.663   2.683  0.0596  2.7333  1.2808
 1923SOL     OW17401   2.193   1.918   5.964 -0.0148  0.0426  0.6238
 1923SOL    HW117402   2.109   1.965   5.967 -1.3848 -2.3567  0.1943
 1923SOL    HW217403   2.217   1.944   5.875 -0.1409 -0.0659  0.5571
 1924SOL     OW17404   3.992   1.960   8.532  0.1061  0.0986  0.0406
 1924SOL    HW117405   4.053   1.898   8.491 -1.7892 -2.3480  1.0174
 1924SOL    HW217406   4.018   2.049   8.506  0.3734 -0.4936 -1.7119
 1925SOL     OW17407   0.189   2.431  12.551  0.4967 -0.2562  0.3422
 1925SOL    HW117408   0.127   2.499  12.579  2.5580  1.0431  1.7315
 1925SOL    HW217409   0.138   2.351  12.536  0.4279 -0.1047 -0.2308
 1926SOL     OW17410   1.410   4.139   6.885  0.4632  0.6045  0.2625
 1926SOL    HW117411   1.476   4.169   6.947  1.9582  0.1267 -1.0723
 1926SOL    HW217412   1.364   4.219   6.861 -0.1200  0.3242  0.4539
 1927SOL     OW17413   0.875   2.239   5.419 -0.0406 -0.2761  0.0425
 1927SOL    HW117414   0.899   2.331   5.407  3.1473 -0.5761  4.0472
 1927SOL    HW217415   0.919   2.196   5.345 -1.8094  0.5814 -1.4924
 1928SOL     OW17416   1.655   4.576  13.314 -0.2921 -0.0589 -0.4669
 1928SOL    HW117417   1.573   4.595  13.361 -0.1888  0.9961 -0.7134
 1928SOL    HW217418   1.661   4.481  13.322  5.3188  0.3721  0.4831
 1929SOL     OW17419   0.296   0.924  17.252 -0.2638  0.4395  0.2933
 1929SOL    HW117420   0.268   0.868  17.325  0.9498 -0.2689  0.2044
 1929SOL    HW217421   0.376   0.890  17.212  0.1100 -0.2485  1.6549
 1930SOL     OW17422   3.533   4.357   8.747  0.3735 -0.0827 -0.2229
 1930SOL    HW117423   3.488   4.421   8.691 -0.9869  0.4276  1.4562
 1930SOL    HW217424   3.460   4.334   8.805  2.1914 -1.9218  1.3440
 1931SOL     OW17425   4.146   1.243   4.493 -0.0197  0.1790  0.0882
 1931SOL    HW117426   4.156   1.319   4.550  3.3055  1.1763 -1.8010
 1931SOL    HW217427   4.124   1.284   4.409 -1.2138  0.0332  0.3310
 1932SOL     OW17428   2.146   4.081   9.024 -0.9239  0.2271 -0.2671
 1932SOL    HW117429   2.236   4.111   9.007 -1.2177  0.9193 -0.5995
 1932SOL    HW217430   2.172   3.991   9.043 -0.7070 -0.0029 -1.6490
 1933SOL     OW17431   0.560   3.749  17.069 -0.2782 -0.3169 -0.4631
 1933SOL    HW117432   0.467   3.773  17.070  0.0766  0.9594  0.7206
 1933SOL    HW217433   0.601   3.822  17.114 -1.9159 -0.0532  0.5788
 1934SOL     OW17434   4.085   2.419  14.963 -0.0778 -0.0913 -0.0141
 1934SOL    HW117435   4.158   2.475  14.938 -1.4870  1.2077 -1.2271
 1934SOL    HW217436   4.084   2.434  15.057  0.5379 -0.2926  0.0253
 1935SOL     OW17437   2.445   4.724   4.155 -0.0455  0.0076 -0.0701
 1935SOL    HW117438   2.408   0.045   4.223 -1.5265  0.3732 -1.1788
 1935SOL    HW217439   2.540   4.727   4.166 -0.0774  2.3099 -0.3115
 1936SOL     OW17440   0.448   1.072   0.722  0.6055 -0.4674  0.0604
 1936SOL    HW117441   0.490   1.026   0.650  0.9996 -0.5729  0.3578
 1936SOL    HW217442   0.512   1.135   0.753 -0.2973  0.9326 -0.9319
 1937SOL     OW17443   1.808   1.300   4.113 -0.1782 -0.1460  0.0561
 1937SOL    HW117444   1.751   1.262   4.046 -0.1320 -1.6892  0.9002
 1937SOL    HW217445   1.756   1.340   4.183  0.4828  0.8590 -0.0290
 1938SOL     OW17446   2.613   1.425   8.944 -0.3775  0.1524 -0.2009
 1938SOL    HW117447   2.623   1.386   9.031 -0.4033 -2.1147 -1.1984
 1938SOL    HW217448   2.605   1.516   8.970  0.8138  0.7649 -1.9752
 1939SOL     OW17449   3.616   1.871  12.626 -0.1918  0.3645 -0.1253
 1939SOL    HW117450   3.687   1.842  12.684 -0.5142  2.8934  1.5355
 1939SOL    HW217451   3.573   1.939  12.678  2.0270  1.3394  0.4625
 1940SOL     OW17452   2.839   4.224   9.306 -0.2270 -0.1307 -0.0626
 1940SOL    HW117453   2.888   4.156   9.353 -0.7871 -0.7607 -0.3864
 1940SOL    HW217454   2.771   4.171   9.264 -0.4506  0.1492 -0.0552
 1941SOL     OW17455   4.688   3.481   6.369 -0.2803  0.2822 -0.4213
 1941SOL    HW117456   4.637   3.458   6.291  0.9961 -3.3439 -0.1446
 1941SOL    HW217457   4.695   3.391   6.400  0.4688  1.4216  2.6569
 1942SOL     OW17458   4.519   0.695   1.689 -0.8098 -0.0948 -0.1055
 1942SOL    HW117459   4.481   0.736   1.766  1.6848  0.1089  1.0415
 1942SOL    HW217460   4.553   0.772   1.643  0.3099 -1.2002 -1.1228
 1943SOL     OW17461   3.131   3.933   6.758  0.7544 -0.2936 -0.0642
 1943SOL    HW117462   3.067   3.963   6.694  2.1477  3.3311  0.2250
 1943SOL    HW217463   3.143   4.017   6.803  0.0830 -0.3546  0.2191
 1944SOL     OW17464   2.321   3.196  10.526  0.1845 -0.3390 -0.1154
 1944SOL    HW117465   2.246   3.208  10.583  0.1003 -0.5104 -0.1921
 1944SOL    HW217466   2.382   3.181  10.598  0.0504 -0.2207  0.0228
 1945SOL     OW17467   3.228   3.649   6.513  0.0103 -0.6315 -0.5097
 1945SOL    HW117468   3.248   3.597   6.591 -1.2649  1.6131  1.3155
 1945SOL    HW217469   3.306   3.704   6.505 -0.6587  0.4788  0.7708
 1946SOL     OW17470   2.207   2.396   4.346 -0.2391 -0.8076  0.2125
 1946SOL    HW117471   2.222   2.364   4.257  0.3208 -1.2711  0.4731
 1946SOL    HW217472   2.271   2.347   4.397 -0.5533 -2.9728 -1.4277
 1947SOL     OW17473   3.309   1.081   4.259 -0.0673  0.0324 -0.0628
 1947SOL    HW117474   3.355   1.048   4.336  0.7576  0.3960 -0.4040
 1947SOL    HW217475   3.237   1.018   4.256 -0.1593  0.2652 -2.5371
 1948SOL     OW17476   4.382   1.347   6.154 -0.4442  0.4429  0.3852
 1948SOL    HW117477   4.348   1.425   6.197  2.3090  1.5034  0.6095
 1948SOL    HW217478   4.302   1.300   6.130 -0.2396  0.0800  0.4212
 1949SOL     OW17479   4.728   0.013  10.707 -0.0950  0.0139  0.0930
 1949SOL    HW117480   0.084   0.027  10.734 -0.5013  0.9099  1.0215
 1949SOL    HW217481   0.006   4.718  10.618 -1.2290  0.9535 -0.3871
 1950SOL     OW17482   2.694   0.918  17.357 -0.2410 -0.1273  0.1998
 1950SOL    HW117483   2.652   0.913  17.443  0.2040  1.6720  0.5283
 1950SOL    HW217484   2.669   0.997  17.310  0.9534  0.7293  1.0009
 1951SOL     OW17485   2.026   0.016  15.444  0.1122  0.1175 -0.1833
 1951SOL    HW117486   2.045   4.657  15.444 -0.4053  0.0107  0.1427
 1951SOL    HW217487   2.086   0.044  15.376 -0.2897  2.3813  0.4117
 1952SOL     OW17488   2.363   1.782   3.168  0.0774 -0.0380 -0.6756
 1952SOL    HW117489   2.445   1.759   3.211 -1.3753  0.0499  2.1014
 1952SOL    HW217490   2.307   1.744   3.235 -0.0371 -0.3481 -0.9435
 1953SOL     OW17491   3.437   0.595   3.195 -0.3664  0.3825  0.2385
 1953SOL    HW117492   3.472   0.538   3.127 -0.8884  1.0191 -0.5607
 1953SOL    HW217493   3.344   0.575   3.184 -0.6108  1.9362 -0.3732
 1954SOL     OW17494   1.990   1.410   4.330 -0.0467 -0.1022  0.5126
 1954SOL    HW117495   2.027   1.341   4.274 -0.9299 -1.0126  1.0443
 1954SOL    HW217496   1.898   1.406   4.303  0.3837  0.4599 -1.0060
 1955SOL     OW17497   3.147   2.525  11.788  0.2489 -0.0529  0.5419
 1955SOL    HW117498   3.157   2.617  11.813 -0.4388  0.6483 -1.7181
 1955SOL    HW217499   3.127   2.486  11.873  0.2643  2.0773  1.5282
 1956SOL     OW17500   4.075   2.005   9.656  0.1230 -0.0069 -0.0229
 1956SOL    HW117501   4.023   1.929   9.682  0.4601 -0.5265 -0.8378
 1956SOL    HW217502   4.010   2.056   9.608  0.2695  3.1848  3.1444
 1957SOL     OW17503   4.348   2.908   9.477  0.2667  0.5231 -0.2833
 1957SOL    HW117504   4.394   2.871   9.552 -2.1536 -1.0734  0.4340
 1957SOL    HW217505   4.321   2.829   9.430 -0.8141  0.1761  0.9449
 1958SOL     OW17506   4.207   3.112   3.298  0.6765  0.1962 -0.0043
 1958SOL    HW117507   4.157   3.112   3.216  1.2365  1.3697 -0.3373
 1958SOL    HW217508   4.286   3.156   3.269  0.2088  1.0338 -0.0225
 1959SOL     OW17509   1.450   0.513   2.676  0.8888 -0.2638  0.2488
 1959SOL    HW117510   1.512   0.582   2.652  1.5805 -0.5023  1.3774
 1959SOL    HW217511   1.409   0.548   2.755 -2.7682 -0.5484 -1.5254
 1960SOL     OW17512   3.719   0.647   3.324 -0.0430  0.3941  0.3058
 1960SOL    HW117513   3.657   0.679   3.389 -1.6263 -2.5761  0.2714
 1960SOL    HW217514   3.673   0.674   3.244  1.1863 -0.0114 -0.5519
 1961SOL     OW17515   2.799   3.985   8.370  0.4947 -0.2979 -0.1444
 1961SOL    HW117516   2.793   3.971   8.276  2.8012  0.3121 -0.3908
 1961SOL    HW217517   2.882   3.941   8.391  1.7977  1.7432 -0.9747
 1962SOL     OW17518   0.598   4.439  10.757  0.0099 -0.6310  0.7556
 1962SOL    HW117519   0.515   4.482  10.780  1.2940  3.0558 -1.3895
 1962SOL    HW217520   0.657   4.499  10.803 -0.9939  0.3766  0.7558
 1963SOL     OW17521   2.071   2.752   8.547  0.3363  0.2638  0.3909
 1963SOL    HW117522   2.146   2.743   8.605  1.2859 -2.2773 -1.2116
 1963SOL    HW217523   1.996   2.781   8.599  1.4270  0.5278  1.8163
 1964SOL     OW17524   2.353   4.690   5.779  0.2923 -0.3807 -0.2515
 1964SOL    HW117525   2.321   4.702   5.690  0.7163  0.9419 -0.2182
 1964SOL    HW217526   2.355   0.048   5.801 -0.3413 -0.4042 -0.0951
 1965SOL     OW17527   4.710   2.825   4.860 -0.1966 -0.1193 -0.2528
 1965SOL    HW117528   4.647   2.758   4.887 -0.4107  0.4839  0.7409
 1965SOL    HW217529   0.023   2.785   4.787  1.2092  0.6036  0.2772
 1966SOL     OW17530   3.659   0.957   9.247 -0.1447 -0.4720  0.2551
 1966SOL    HW117531   3.578   0.945   9.296 -0.2311 -3.2802 -0.5761
 1966SOL    HW217532   3.714   0.894   9.294 -0.3354 -1.4034 -0.7799
 1967SOL     OW17533   4.136   4.587   4.380  0.1165 -0.0617 -0.1997
 1967SOL    HW117534   4.093   4.531   4.445  0.6676  0.5490  0.6791
 1967SOL    HW217535   4.096   4.672   4.395 -1.5386 -0.9090  0.2112
 1968SOL     OW17536   2.916   0.897   9.078  0.9325  0.4419 -0.2418
 1968SOL    HW117537   2.859   0.938   9.144  0.8330 -1.9616  1.1703
 1968SOL    HW217538   2.854   0.898   9.005  0.5260 -0.0172  0.0931
 1969SOL     OW17539   1.040   2.874   7.999  0.2651  0.0209  0.6141
 1969SOL    HW117540   0.948   2.852   7.986  0.3631 -1.1769  1.9979
 1969SOL    HW217541   1.078   2.789   8.021  0.1245 -0.3216 -0.4777
 1970SOL     OW17542   3.826   3.655   6.785  0.4031 -0.4114 -0.1647
 1970SOL    HW117543   3.831   3.693   6.697 -2.0049 -0.1885 -0.1849
 1970SOL    HW217544   3.919   3.651   6.809  0.3420  0.1432  0.1468
 1971SOL     OW17545   1.431   4.551  15.646 -0.2517  0.0371  0.0982
 1971SOL    HW117546   1.418   4.585  15.558 -0.1366 -3.6006 -1.2902
 1971SOL    HW217547   1.447   4.632  15.694  1.9547 -1.5843  2.0959
 1972SOL     OW17548   3.410   4.718  10.048 -0.1631  0.1989  0.1285
 1972SOL    HW117549   3.388   0.075  10.061 -0.7989 -0.1197  1.3343
 1972SOL    HW217550   3.464   4.732   9.970 -0.2528  0.5238  0.1273
 1973SOL     OW17551   3.733   2.915  17.117 -0.6309 -0.1372  0.0693
 1973SOL    HW117552   3.777   2.846  17.069  1.2181  0.6967  0.5784
 1973SOL    HW217553   3.659   2.931  17.058 -0.4850  0.4931  0.0501
 1974SOL     OW17554   3.743   0.091  10.857  0.1216 -0.0850 -0.1297
 1974SOL    HW117555   3.746   0.132  10.944 -1.5848  1.3462 -0.7494
 1974SOL    HW217556   3.701   0.006  10.871 -0.6692  0.0814 -1.5110
 1975SOL     OW17557   2.771   2.595   9.231 -0.7546  0.4506 -0.7942
 1975SOL    HW117558   2.828   2.617   9.157  0.2631  0.0421 -0.1303
 1975SOL    HW217559   2.691   2.647   9.217 -1.7003 -0.5309  0.9276
 1976SOL     OW17560   0.397   1.761   5.328 -0.6709 -0.1066 -0.0763
 1976SOL    HW117561   0.347   1.832   5.288  0.2374  0.3985 -0.3122
 1976SOL    HW217562   0.448   1.815   5.388 -0.2949 -0.9754  0.3796
 1977SOL     OW17563   2.474   1.334   1.490  0.0120 -0.2859 -0.0538
 1977SOL    HW117564   2.417   1.364   1.561 -1.0660  1.2077 -1.5373
 1977SOL    HW217565   2.431   1.381   1.418  0.2970  0.2358  0.1125
 1978SOL     OW17566   1.027   2.413   5.645 -0.5311  0.0904 -0.3104
 1978SOL    HW117567   1.039   2.450   5.557 -1.5998 -1.1178 -0.9616
 1978SOL    HW217568   1.007   2.494   5.692 -0.3768  0.3095 -0.6219
 1979SOL     OW17569   0.277   4.435  17.602  0.6704 -0.5526  0.0235
 1979SOL    HW117570   0.372   4.433  17.592  0.6095 -0.6280 -0.5307
 1979SOL    HW217571   0.274   4.396  17.690  0.1735  2.2703  1.2556
 1980SOL     OW17572   2.459   3.930  11.689 -0.0688 -0.1764 -0.6045
 1980SOL    HW117573   2.510   3.910  11.767  0.2601  0.6981 -0.5924
 1980SOL    HW217574   2.387   3.868  11.704 -0.8062  0.7346 -0.3379
 1981SOL     OW17575   0.841   0.556   0.433  0.1128  0.7953 -0.4687
 1981SOL    HW117576   0.758   0.540   0.478  0.7456 -0.8100  0.0961
 1981SOL    HW217577   0.853   0.479   0.377  3.5877 -0.0089  1.4117
 1982SOL     OW17578   1.303   3.834  14.926 -0.0414 -0.3123 -0.4772
 1982SOL    HW117579   1.280   3.797  14.841  0.5726 -1.5962 -0.0886
 1982SOL    HW217580   1.309   3.749  14.971 -0.6033 -0.4279 -0.6209
 1983SOL     OW17581   3.392   0.311   3.861  0.0146 -0.2159  0.2862
 1983SOL    HW117582   3.482   0.342   3.861  0.0619 -0.3451  1.9678
 1983SOL    HW217583   3.351   0.366   3.795 -1.9412 -0.3783  1.3497
 1984SOL     OW17584   2.709   4.658  12.681  0.2584  0.0887  0.5085
 1984SOL    HW117585   2.693   0.018  12.686 -2.3257 -0.3656  1.0311
 1984SOL    HW217586   2.787   4.657  12.735  0.1674 -0.2324  0.6347
 1985SOL     OW17587   1.854   2.450  13.087  0.1963 -0.5649 -0.7280
 1985SOL    HW117588   1.834   2.394  13.012  0.7685 -0.4377 -0.9757
 1985SOL    HW217589   1.866   2.536  13.046  1.0476 -1.3611 -2.1701
 1986SOL     OW17590   1.098   0.101   7.955 -0.5288  0.0581  0.2482
 1986SOL    HW117591   1.089   0.013   7.919 -0.2314 -0.4924  1.5555
 1986SOL    HW217592   1.193   0.109   7.952 -0.7348  2.7308  0.1754
 1987SOL     OW17593   4.361   2.122   2.936  0.0762 -0.0818  0.5403
 1987SOL    HW117594   4.296   2.172   2.886  1.5995  0.3102 -1.0230
 1987SOL    HW217595   4.347   2.154   3.025 -1.2856  0.3010  0.1887
 1988SOL     OW17596   0.372   4.286   3.880  0.0338  0.2908 -0.6641
 1988SOL    HW117597   0.365   4.293   3.975 -1.8341 -3.0126 -0.5701
 1988SOL    HW217598   0.460   4.247   3.874 -0.2342 -0.5340  0.8423
 1989SOL     OW17599   2.045   4.687  12.968  0.3103 -0.1710 -0.4193
 1989SOL    HW117600   2.024   4.689  13.061  0.9752  0.6491 -0.2869
 1989SOL    HW217601   1.970   4.734  12.932  1.7390  0.8922 -2.0407
 1990SOL     OW17602   1.107   1.447   1.928  0.5137 -0.2733  0.2803
 1990SOL    HW117603   1.029   1.436   1.873  0.4024  1.0810  0.1734
 1990SOL    HW217604   1.073   1.487   2.008 -0.2936  0.3194 -0.3648
 1991SOL     OW17605   4.494   0.578   8.888  0.2717  0.0090  0.0716
 1991SOL    HW117606   4.448   0.635   8.949  0.7010  0.8506 -0.3861
 1991SOL    HW217607   4.582   0.587   8.925 -0.5935 -0.3597  2.1956
 1992SOL     OW17608   0.043   4.637   2.574  0.1170 -0.4086 -0.5336
 1992SOL    HW117609   0.072   4.696   2.504 -0.2722 -0.1215 -0.4515
 1992SOL    HW217610   0.055   4.698   2.646 -1.3831 -0.0143 -0.6254
 1993SOL     OW17611   2.210   1.209   1.821  0.1439 -0.1800 -0.3259
 1993SOL    HW117612   2.223   1.116   1.802  2.4352  0.0820 -0.0890
 1993SOL    HW217613   2.211   1.199   1.917 -1.4140  1.0031 -0.1886
 1994SOL     OW17614   1.105   2.818   7.719  0.7159 -0.0164 -0.4204
 1994SOL    HW117615   1.081   2.854   7.805  1.3818  1.4578 -0.8510
 1994SOL    HW217616   1.036   2.753   7.705  0.4996  0.2741 -0.7244
 1995SOL     OW17617   2.504   2.734   7.536 -0.3922 -0.6103  0.3689
 1995SOL    HW117618   2.576   2.710   7.477 -1.2462 -0.2885 -0.8079
 1995SOL    HW217619   2.456   2.795   7.479  1.6163 -0.3414 -1.0226
 1996SOL     OW17620   1.692   0.170  11.105  0.5599  0.0427 -0.0706
 1996SOL    HW117621   1.647   0.089  11.131 -0.8195  1.1960  1.1424
 1996SOL    HW217622   1.778   0.144  11.073  0.7407 -0.2757  0.6671
 1997SOL     OW17623   0.359   2.119   3.349  0.2151  0.8989  0.2985
 1997SOL    HW117624   0.340   2.150   3.261  1.1233 -1.0787 -0.5926
 1997SOL    HW217625   0.452   2.097   3.351  0.2991  1.3605  1.3690
 1998SOL     OW17626   0.483   1.068   3.046 -0.7129 -0.0762 -0.3852
 1998SOL    HW117627   0.455   1.030   3.130  1.9124  1.0606  1.0208
 1998SOL    HW217628   0.565   1.022   3.030 -2.2399 -2.4541 -1.3066
 1999SOL     OW17629   1.555   1.125   7.508 -0.1728 -0.3680  0.2279
 1999SOL    HW117630   1.485   1.149   7.448  0.2765 -1.0487 -0.5767
 1999SOL    HW217631   1.514   1.141   7.593  1.7974 -1.1003  1.3267
 2000SOL     OW17632   2.860   4.312  16.978  0.5850  0.3269  0.6743
 2000SOL    HW117633   2.828   4.392  17.020 -0.6268  0.1364  0.1245
 2000SOL    HW217634   2.952   4.321  17.000  0.7319  1.5076 -0.4368
 2001SOL     OW17635   0.794   0.559   1.889 -0.3562 -0.4180  0.4288
 2001SOL    HW117636   0.699   0.558   1.904 -0.9718 -0.7837 -3.2638
 2001SOL    HW217637   0.818   0.470   1.863 -1.1582  0.2233 -2.5982
 2002SOL     OW17638   4.048   0.904   4.388  0.4636 -0.5500  0.0072
 2002SOL    HW117639   4.141   0.907   4.409  0.3747 -1.3195  0.4926
 2002SOL    HW217640   4.004   0.971   4.441 -0.6227  0.5050 -2.1972
 2003SOL     OW17641   3.378   0.359   5.008 -0.1706 -0.3189  0.4986
 2003SOL    HW117642   3.288   0.388   5.021  0.4624  1.4198  0.9472
 2003SOL    HW217643   3.380   0.333   4.915  2.7132 -0.3488  0.5450
 2004SOL     OW17644   1.425   2.916   7.304 -0.1928 -0.4245 -0.1881
 2004SOL    HW117645   1.343   2.901   7.350 -0.8881 -0.5981 -1.4776
 2004SOL    HW217646   1.459   3.004   7.324 -0.4066 -0.3043 -0.3450
 2005SOL     OW17647   0.007   0.662   0.887 -0.2112 -0.4880  0.1264
 2005SOL    HW117648   4.690   0.590   0.852 -1.1551  0.6397 -0.7734
 2005SOL    HW217649   0.061   0.624   0.956  1.1957 -1.5849 -1.5892
 2006SOL     OW17650   2.769   0.459   6.701  0.1040  0.2445  0.2058
 2006SOL    HW117651   2.843   0.519   6.688  0.4479 -0.2946 -0.3489
 2006SOL    HW217652   2.702   0.522   6.673 -1.0967  0.3044  3.2111
 2007SOL     OW17653   4.278   0.853   5.776 -0.3300 -0.4038 -0.4065
 2007SOL    HW117654   4.346   0.889   5.834 -0.3922 -0.0028 -0.5876
 2007SOL    HW217655   4.246   0.786   5.836 -0.2766  1.1862  1.3841
 2008SOL     OW17656   1.454   1.038   3.509 -0.1294 -0.4081  0.1579
 2008SOL    HW117657   1.433   0.945   3.503  0.1956 -0.4934  0.3564
 2008SOL    HW217658   1.514   1.045   3.583  0.7402  1.6979 -0.7356
 2009SOL     OW17659   1.548   4.146  10.371 -0.0180 -0.5313 -0.1932
 2009SOL    HW117660   1.494   4.164  10.447 -2.5909 -0.5057 -2.0376
 2009SOL    HW217661   1.626   4.106  10.409 -1.4633 -1.4965  1.7498
 2010SOL     OW17662   4.273   1.552   6.374  0.0214 -0.4193 -0.1972
 2010SOL    HW117663   4.309   1.515   6.455  3.5545  0.1451 -1.4978
 2010SOL    HW217664   4.222   1.620   6.418  0.9325  0.3004 -0.2677
 2011SOL     OW17665   2.855   2.986  13.202 -0.4296  0.0900 -0.3517
 2011SOL    HW117666   2.800   3.061  13.180 -1.4439 -0.0136  1.9298
 2011SOL    HW217667   2.903   2.975  13.119 -3.4612 -1.2487 -1.9414
 2012SOL     OW17668   1.407   3.539   7.416 -0.5830  0.0280  0.1274
 2012SOL    HW117669   1.499   3.548   7.392 -1.1188 -0.8303 -2.2789
 2012SOL    HW217670   1.360   3.597   7.355  1.7299  0.2929 -1.3961
 2013SOL     OW17671   1.277   4.086   7.622 -0.1316 -0.1045 -0.6204
 2013SOL    HW117672   1.328   4.037   7.687  1.4570 -0.0975 -1.8489
 2013SOL    HW217673   1.334   4.060   7.549  1.6129 -0.1897  0.7783
 2014SOL     OW17674   2.569   1.427   4.886  0.5926  0.4059 -0.0777
 2014SOL    HW117675   2.647   1.474   4.855 -0.6546  1.4978 -1.5225
 2014SOL    HW217676   2.505   1.497   4.876 -0.7287 -0.9980 -1.4887
 2015SOL     OW17677   0.596   4.055   8.828  0.2426 -1.2552  0.2627
 2015SOL    HW117678   0.510   4.019   8.808 -0.5266  1.4390 -1.2493
 2015SOL    HW217679   0.585   4.133   8.775  2.9988 -0.5235  0.7544
 2016SOL     OW17680   0.249   1.513   6.998 -0.0924 -0.2619 -0.8058
 2016SOL    HW117681   0.258   1.489   7.091  1.5257 -0.9541 -1.1512
 2016SOL    HW217682   0.245   1.608   7.008  0.4765 -0.4609  1.4386
 2017SOL     OW17683   2.860   3.246   3.922  0.3573  0.5526  0.2155
 2017SOL    HW117684   2.927   3.247   3.854 -1.5779  0.6485 -1.6717
 2017SOL    HW217685   2.816   3.320   3.880  0.5362  0.5168 -0.0345
 2018SOL     OW17686   2.650   0.489   4.043 -0.0611 -0.5555  0.4413
 2018SOL    HW117687   2.580   0.502   3.979 -0.0920 -0.8378  0.4178
 2018SOL    HW217688   2.653   0.394   4.043  0.9642 -0.5250 -1.3317
 2019SOL     OW17689   4.289   3.609   0.434  0.6963 -0.0063 -0.7163
 2019SOL    HW117690   4.306   3.576   0.346  0.8929  1.8910 -1.3738
 2019SOL    HW217691   4.359   3.565   0.483 -0.0053  1.4427  1.5801
 2020SOL     OW17692   3.128   2.761  10.891 -0.2697 -0.6637 -0.0931
 2020SOL    HW117693   3.109   2.753  10.797 -2.4041  0.4535  0.2586
 2020SOL    HW217694   3.118   2.855  10.900  1.7555 -0.5086  0.6118
 2021SOL     OW17695   2.055   3.767   7.485 -0.6137 -1.0059 -0.6110
 2021SOL    HW117696   2.030   3.820   7.408  1.0134  0.4808 -0.1318
 2021SOL    HW217697   1.973   3.758   7.534 -0.8960  0.6572 -0.7680
 2022SOL     OW17698   3.719   3.094   9.812  0.5065  0.2627 -0.7183
 2022SOL    HW117699   3.669   3.012   9.819  1.3422 -0.0642  1.3866
 2022SOL    HW217700   3.689   3.143   9.888 -1.9084 -2.5268  0.1671
 2023SOL     OW17701   0.243   2.370   9.437  0.0140 -0.7872 -0.2394
 2023SOL    HW117702   0.245   2.409   9.524 -1.4223  1.3535 -1.1474
 2023SOL    HW217703   0.260   2.437   9.370  1.0556  1.2372  2.0607
 2024SOL     OW17704   0.990   4.542   9.612 -0.2860 -0.0067 -0.2164
 2024SOL    HW117705   1.027   4.515   9.528 -2.3067 -1.6488 -0.5676
 2024SOL    HW217706   0.925   4.474   9.631 -0.7168 -0.0705 -1.9049
 2025SOL     OW17707   4.527   2.054   4.330 -0.0145 -0.5402  0.3896
 2025SOL    HW117708   4.464   2.125   4.344 -3.4261 -3.8558  1.9884
 2025SOL    HW217709   4.557   2.070   4.241 -0.9500 -0.5570  0.0791
 2026SOL     OW17710   3.813   3.384   6.889 -0.3950  0.6300 -0.2031
 2026SOL    HW117711   3.769   3.459   6.848  0.6662  0.4931 -1.5981
 2026SOL    HW217712   3.901   3.396   6.852  0.1486 -0.1853  0.8306
 2027SOL     OW17713   1.913   2.704  12.976 -0.2745 -0.1058  0.6104
 2027SOL    HW117714   1.858   2.732  12.903 -3.0118 -1.0709  2.3072
 2027SOL    HW217715   1.987   2.764  12.961 -1.4503  1.4329  0.9930
 2028SOL     OW17716   0.198   4.483   2.256  0.4031 -0.6345 -0.1122
 2028SOL    HW117717   0.211   4.407   2.198 -1.3129 -1.4518  0.5468
 2028SOL    HW217718   0.215   4.450   2.344  0.6333  2.2355  0.8976
 2029SOL     OW17719   3.580   3.871   5.153 -0.4920 -0.0644  0.5540
 2029SOL    HW117720   3.540   3.800   5.204  0.4757 -0.9190  0.1214
 2029SOL    HW217721   3.515   3.877   5.084  0.0072  1.7352  0.2499
 2030SOL     OW17722   2.280   3.344  11.957  0.3442 -0.1411 -0.6527
 2030SOL    HW117723   2.199   3.333  11.906  1.0862 -0.7126 -1.6905
 2030SOL    HW217724   2.331   3.390  11.890  1.5228 -1.5725 -0.7152
 2031SOL     OW17725   3.028   3.334   0.582 -0.4175  0.7662  0.3064
 2031SOL    HW117726   3.063   3.394   0.516 -1.7321  1.2642  0.0404
 2031SOL    HW217727   2.935   3.331   0.559  0.0945  1.6163 -1.8276
 2032SOL     OW17728   3.885   3.369   5.485 -0.6618 -0.2364  0.4732
 2032SOL    HW117729   3.957   3.306   5.492 -0.5136  0.3176  3.7134
 2032SOL    HW217730   3.820   3.298   5.486  0.7341 -1.4949  1.1309
 2033SOL     OW17731   3.293   3.749   8.497 -0.2419 -0.5813  0.0771
 2033SOL    HW117732   3.314   3.830   8.544 -0.0358 -0.2038 -0.6652
 2033SOL    HW217733   3.320   3.690   8.568 -2.4971  2.8952  3.7956
 2034SOL     OW17734   2.723   2.720   4.319 -0.1881  0.3271 -0.2304
 2034SOL    HW117735   2.737   2.812   4.339 -0.8236  0.1097  1.1761
 2034SOL    HW217736   2.810   2.680   4.327  0.4253  1.8639  0.8913
 2035SOL     OW17737   3.356   2.005   2.552 -0.4999  0.0042  0.1354
 2035SOL    HW117738   3.318   1.975   2.634 -0.9410 -1.8058 -0.7255
 2035SOL    HW217739   3.309   2.086   2.532  0.2103  0.2571 -0.5133
 2036SOL     OW17740   4.269   3.670   5.552  0.1636  0.4873 -0.5745
 2036SOL    HW117741   4.193   3.728   5.539  1.4587  2.1418 -0.8539
 2036SOL    HW217742   4.319   3.738   5.598 -0.5127  1.0246 -0.6368
 2037SOL     OW17743   3.617   0.682   6.947 -0.5554 -0.2983 -0.4573
 2037SOL    HW117744   3.566   0.678   7.027  1.6754  0.7610  1.0204
 2037SOL    HW217745   3.658   0.767   6.963 -1.5267  0.1224 -0.1922
 2038SOL     OW17746   3.709   2.571   5.128  0.5271  0.0344  0.3065
 2038SOL    HW117747   3.719   2.589   5.221  1.6775 -2.8350  0.7351
 2038SOL    HW217748   3.779   2.506   5.116  2.0434  2.1787 -2.5167
 2039SOL     OW17749   0.883   3.182  11.916  0.5387  0.6975  0.1785
 2039SOL    HW117750   0.870   3.096  11.956 -0.3156  0.7867  0.0982
 2039SOL    HW217751   0.823   3.241  11.961  2.5308  1.8587  1.2933
 2040SOL     OW17752   2.303   4.653   3.257 -0.1236 -0.5207 -0.1536
 2040SOL    HW117753   2.337   4.570   3.223  0.0218 -0.0819 -1.0721
 2040SOL    HW217754   2.216   4.646   3.218 -1.0287  0.7165  1.6354
 2041SOL     OW17755   0.636   0.496   0.609  0.1798 -0.3791 -0.2261
 2041SOL    HW117756   0.592   0.581   0.607 -2.3355 -1.7031 -1.2215
 2041SOL    HW217757   0.563   0.437   0.629 -0.8433  0.8139 -0.3748
 2042SOL     OW17758   2.224   1.618   7.894 -0.2094 -0.5536  0.4872
 2042SOL    HW117759   2.248   1.531   7.926 -1.9602 -1.6147 -1.0828
 2042SOL    HW217760   2.291   1.620   7.825 -1.0245 -1.0338 -0.3113
 2043SOL     OW17761   1.996   1.745   4.217 -1.0404 -0.0759  0.2293
 2043SOL    HW117762   2.061   1.710   4.278 -1.0154  1.6222  1.1669
 2043SOL    HW217763   1.937   1.672   4.195  0.5242 -1.5229  0.8203
 2044SOL     OW17764   4.509   0.388  17.436  0.0976  0.0092 -0.1426
 2044SOL    HW117765   4.581   0.379  17.374  2.0288  1.5462  1.8629
 2044SOL    HW217766   4.494   0.296  17.459 -0.3892  0.2557  0.5330
 2045SOL     OW17767   2.357   3.044   6.298  0.5646 -0.3913  0.4217
 2045SOL    HW117768   2.366   3.083   6.385 -0.7786  0.1425  0.3188
 2045SOL    HW217769   2.383   2.953   6.314  0.7870 -0.6829 -1.6244
 2046SOL     OW17770   2.358   3.661  17.043  0.0188 -0.0659 -0.2337
 2046SOL    HW117771   2.384   3.701  17.126 -1.1107  0.8140 -0.3019
 2046SOL    HW217772   2.435   3.669  16.986 -0.7644 -0.1155 -1.2936
 2047SOL     OW17773   2.935   4.564  13.536  0.4995 -0.0858 -0.3267
 2047SOL    HW117774   2.859   4.508  13.552  0.5363 -0.5095 -1.6029
 2047SOL    HW217775   2.950   4.567  13.441  0.2664 -1.7657 -0.4087
 2048SOL     OW17776   0.993   4.416   0.459 -0.6742 -0.6418  0.5908
 2048SOL    HW117777   0.963   4.363   0.533  1.0332  0.1734  1.8597
 2048SOL    HW217778   1.061   4.361   0.420 -2.9499 -2.5761 -0.6689
 2049SOL     OW17779   1.517   2.138  15.168 -0.2063  0.3726 -0.2301
 2049SOL    HW117780   1.479   2.193  15.236 -0.0896 -1.0637  1.0110
 2049SOL    HW217781   1.521   2.182  15.083 -2.7026  1.4433  0.2070
 2050SOL     OW17782   4.008   2.262   9.203  0.0228  0.4066 -0.4677
 2050SOL    HW117783   3.974   2.173   9.192 -1.3536  1.0084 -1.1193
 2050SOL    HW217784   4.078   2.245   9.140  0.7424  1.4450  0.0635
 2051SOL     OW17785   0.557   4.309   5.452 -0.1051  0.2208 -0.1486
 2051SOL    HW117786   0.527   4.303   5.543 -0.9007 -2.2591 -0.5576
 2051SOL    HW217787   0.554   4.403   5.433 -0.7470  0.2338  0.0107
 2052SOL     OW17788   1.334   2.931   6.193  0.0233  0.1438 -0.1201
 2052SOL    HW117789   1.315   2.934   6.099 -0.1146 -0.8680 -0.1182
 2052SOL    HW217790   1.245   2.921   6.227 -0.7053  0.8144 -1.8054
 2053SOL     OW17791   2.787   2.378  10.396 -0.5630  1.0368 -0.4337
 2053SOL    HW117792   2.739   2.346  10.319 -1.4613 -0.2762  0.6667
 2053SOL    HW217793   2.777   2.297  10.447 -1.1072  1.2493 -0.2027
 2054SOL     OW17794   3.020   0.870   0.353  0.1367  0.4728  0.2727
 2054SOL    HW117795   2.975   0.793   0.390 -0.7339  0.5932 -0.5358
 2054SOL    HW217796   3.108   0.837   0.335  0.4828  1.2172  0.6212
 2055SOL     OW17797   3.959   4.276   2.301  0.7198  0.6796  0.5179
 2055SOL    HW117798   3.986   4.351   2.249  1.0777 -0.7140 -1.3131
 2055SOL    HW217799   4.043   4.242   2.333  0.9052  0.8804  0.2427
 2056SOL     OW17800   0.758   0.115   4.267 -0.1677 -0.6292  0.7203
 2056SOL    HW117801   0.771   0.182   4.200 -1.4739 -2.1821 -1.0631
 2056SOL    HW217802   0.810   0.048   4.224 -1.3198  0.6539 -2.6936
 2057SOL     OW17803   4.717   2.344  10.832 -0.1372 -0.4573  0.2050
 2057SOL    HW117804   0.012   2.303  10.751  0.3630 -0.3416  0.3300
 2057SOL    HW217805   0.048   2.308  10.891 -0.0266 -0.9008 -0.1879
 2058SOL     OW17806   3.711   3.126  15.441  0.0699  0.3876  0.1422
 2058SOL    HW117807   3.774   3.198  15.448 -0.0310  0.5678 -0.8089
 2058SOL    HW217808   3.763   3.057  15.483 -0.0914  0.2035  0.0385
 2059SOL     OW17809   3.773   1.306   1.852  0.1786 -0.8853 -0.0130
 2059SOL    HW117810   3.710   1.336   1.918  1.2810 -0.0131  0.6363
 2059SOL    HW217811   3.726   1.295   1.769  0.7980  1.6861 -0.7182
 2060SOL     OW17812   4.066   4.577   9.015  0.1765 -0.1588  0.3260
 2060SOL    HW117813   4.054   4.531   8.932  0.1377  1.2717 -0.4596
 2060SOL    HW217814   4.055   4.500   9.071  1.2604  2.1398  3.7155
 2061SOL     OW17815   1.650   1.705  15.756 -0.4263  0.2655 -0.7272
 2061SOL    HW117816   1.716   1.698  15.686  2.0585 -1.0338  1.7289
 2061SOL    HW217817   1.666   1.623  15.803 -0.1755  1.4354  1.2319
 2062SOL     OW17818   1.144   0.063   4.320 -0.2067 -0.4654  0.1870
 2062SOL    HW117819   1.092   0.127   4.369  1.2664  0.3733  0.6353
 2062SOL    HW217820   1.218   0.113   4.285  0.4934 -0.0269  2.2981
 2063SOL     OW17821   3.155   3.660  11.892  0.3248 -0.0139 -0.3397
 2063SOL    HW117822   3.178   3.725  11.825  0.8950 -0.5351 -0.6452
 2063SOL    HW217823   3.223   3.670  11.958  0.3194 -0.5919 -0.2488
 2064SOL     OW17824   1.546   1.375   2.167 -0.2493 -0.0569  0.1772
 2064SOL    HW117825   1.494   1.425   2.103 -2.6035 -1.7153  0.7589
 2064SOL    HW217826   1.599   1.448   2.198 -0.5940  0.1475  0.2951
 2065SOL     OW17827   2.965   4.631  12.791 -0.9372 -0.2471  0.6479
 2065SOL    HW117828   3.038   4.639  12.729 -0.0197  0.0573  1.7674
 2065SOL    HW217829   3.006   4.569  12.851 -0.2138 -0.2066  0.1901
 2066SOL     OW17830   1.226   2.357  13.453 -0.2913  0.4464  0.2931
 2066SOL    HW117831   1.165   2.318  13.390  0.6398  0.0998 -0.3888
 2066SOL    HW217832   1.295   2.291  13.452 -1.1406 -0.4196 -1.4435
 2067SOL     OW17833   1.948   0.504   8.410  0.8559 -0.3886 -0.1860
 2067SOL    HW117834   1.960   0.597   8.390 -0.6510 -0.1177  0.1122
 2067SOL    HW217835   1.977   0.510   8.501  2.4557 -1.1567 -0.6485
 2068SOL     OW17836   0.311   4.505  12.258  0.6400  0.0011  0.3512
 2068SOL    HW117837   0.357   4.587  12.270 -0.4566  0.8175 -1.0395
 2068SOL    HW217838   0.250   4.512  12.332  0.2797  2.0690 -0.1444
 2069SOL     OW17839   4.162   1.731   9.434  0.1882  0.1756 -0.1730
 2069SOL    HW117840   4.161   1.827   9.425 -0.4390  0.5283  3.6393
 2069SOL    HW217841   4.074   1.715   9.398 -1.4527  1.2201  3.3243
 2070SOL     OW17842   2.518   3.951  13.721 -0.3285 -0.0912  0.3280
 2070SOL    HW117843   2.514   3.875  13.663 -0.0226 -1.1107  1.6405
 2070SOL    HW217844   2.552   3.909  13.800 -1.0877 -0.5104  0.4266
 2071SOL     OW17845   4.009   4.176   8.014  0.2475  0.1484  0.3444
 2071SOL    HW117846   4.021   4.081   8.007  1.8938  0.3669  0.2069
 2071SOL    HW217847   4.101   4.201   8.008  0.0546 -0.0943 -3.4031
 2072SOL     OW17848   3.356   3.918   7.563  0.0587  0.0262  0.1123
 2072SOL    HW117849   3.405   3.836   7.552 -1.1208 -0.8473  1.3537
 2072SOL    HW217850   3.401   3.977   7.503  0.2774  2.3437  2.5359
 2073SOL     OW17851   4.592   2.183   6.772 -0.0206  0.4312  0.1755
 2073SOL    HW117852   4.583   2.255   6.710  0.8257 -0.7401 -1.2746
 2073SOL    HW217853   4.620   2.239   6.845 -0.6394 -0.0220  0.7672
 2074SOL     OW17854   1.004   0.769   5.229  0.2004  0.4317 -0.3188
 2074SOL    HW117855   1.002   0.681   5.267 -1.6170 -0.2500 -1.9930
 2074SOL    HW217856   0.959   0.748   5.147 -2.0549 -0.2783  1.0910
 2075SOL     OW17857   1.815   1.547   9.146 -0.4916 -0.6589  0.5323
 2075SOL    HW117858   1.806   1.552   9.051 -1.0494 -3.0179  0.4546
 2075SOL    HW217859   1.728   1.548   9.186 -0.8145  1.6200 -0.2842
 2076SOL     OW17860   2.842   3.966   7.854  0.1117  0.8452  0.5755
 2076SOL    HW117861   2.894   3.963   7.934 -0.6096 -0.8787  0.9611
 2076SOL    HW217862   2.924   3.977   7.805 -0.6867 -0.9821 -1.1424
 2077SOL     OW17863   2.179   2.001   8.910  0.4850 -0.0461  0.4153
 2077SOL    HW117864   2.196   2.064   8.980  2.2791 -1.0642  0.9016
 2077SOL    HW217865   2.154   1.927   8.966 -0.5524  0.0526  0.0872
 2078SOL     OW17866   2.452   3.609   7.063  0.4309 -0.0562 -0.1749
 2078SOL    HW117867   2.446   3.647   6.975 -1.3691 -3.0186 -1.3737
 2078SOL    HW217868   2.363   3.616   7.097  0.3248  0.1921 -0.5051
 2079SOL     OW17869   1.730   1.700  16.121  0.0222 -1.1294  0.4927
 2079SOL    HW117870   1.735   1.624  16.179  3.9603 -1.8405 -0.7830
 2079SOL    HW217871   1.743   1.653  16.038 -0.5996  0.4753 -0.5086
 2080SOL     OW17872   2.493   0.794   4.824 -0.0458  0.0924 -0.0428
 2080SOL    HW117873   2.431   0.784   4.751 -1.5196  1.4258  1.0293
 2080SOL    HW217874   2.535   0.873   4.792 -0.3916  0.3486  0.1353
 2081SOL     OW17875   2.736   2.995  10.433 -0.5609 -0.5385  0.1039
 2081SOL    HW117876   2.645   2.974  10.409 -0.8731 -1.1307  1.8558
 2081SOL    HW217877   2.782   2.922  10.391 -0.1360  0.8702 -1.9030
 2082SOL     OW17878   1.463   1.195   1.618  0.2005 -0.1767 -0.2519
 2082SOL    HW117879   1.400   1.219   1.550 -0.1759 -0.0395  0.1428
 2082SOL    HW217880   1.526   1.267   1.622 -1.0639  0.8443  1.5249
 2083SOL     OW17881   2.530   0.316  12.969 -0.3035 -0.4892  0.2109
 2083SOL    HW117882   2.526   0.389  12.908  0.2632 -1.8913 -1.5051
 2083SOL    HW217883   2.529   0.356  13.056 -4.4388  0.4964 -0.3021
 2084SOL     OW17884   3.067   3.028  16.910 -0.5925  0.0098 -0.1065
 2084SOL    HW117885   3.008   3.103  16.919  0.0476  0.6299 -1.1498
 2084SOL    HW217886   3.155   3.062  16.926 -0.4749  0.6521 -2.1237
 2085SOL     OW17887   0.181   4.324   8.278 -0.0205  0.0829  0.7401
 2085SOL    HW117888   0.208   4.318   8.186 -1.9735  1.2294  0.0834
 2085SOL    HW217889   0.176   4.233   8.308  2.4074  0.2435  1.6023
 2086SOL     OW17890   3.331   3.175   5.162  0.1700 -0.0575 -0.0227
 2086SOL    HW117891   3.252   3.223   5.136 -1.2356 -2.9954 -1.1461
 2086SOL    HW217892   3.397   3.242   5.143  1.0069 -1.3421 -1.7179
 2087SOL     OW17893   3.493   4.250  11.236  0.6258  0.4569  0.4000
 2087SOL    HW117894   3.467   4.325  11.289 -1.7686 -0.9625  1.2378
 2087SOL    HW217895   3.477   4.289  11.150  2.3690  0.2407 -0.0146
 2088SOL     OW17896   0.759   4.594  10.916 -0.2795  0.5532 -0.0192
 2088SOL    HW117897   0.725   4.599  11.006  2.1776  2.5705  0.7925
 2088SOL    HW217898   0.852   4.585  10.936  0.1032 -0.2558 -2.2461
 2089SOL     OW17899   1.444   0.089   3.651  0.0746 -0.0889 -0.1293
 2089SOL    HW117900   1.509   0.058   3.588 -0.3314  0.7959 -0.9826
 2089SOL    HW217901   1.407   0.164   3.604  0.6626  0.3596  0.1304
 2090SOL     OW17902   2.017   3.966   5.699  0.0664 -0.4413 -0.3729
 2090SOL    HW117903   2.013   4.060   5.718  0.2756 -0.6270  0.5964
 2090SOL    HW217904   1.926   3.936   5.706  0.3549 -1.2498 -0.0572
 2091SOL     OW17905   0.839   2.294   9.437 -0.4420  0.3047 -0.0047
 2091SOL    HW117906   0.767   2.233   9.452 -0.9669  0.6163 -1.2260
 2091SOL    HW217907   0.912   2.255   9.485 -1.3293 -0.6634  0.5579
 2092SOL     OW17908   3.282   4.166   8.812  0.1412 -0.2705  0.2596
 2092SOL    HW117909   3.245   4.079   8.801 -1.2118  0.2409  0.7739
 2092SOL    HW217910   3.314   4.161   8.902  2.1974 -1.4577 -0.5475
 2093SOL     OW17911   4.166   0.906  15.577  0.2593 -0.3784 -0.0234
 2093SOL    HW117912   4.202   0.927  15.663 -3.2966  1.8746  0.9504
 2093SOL    HW217913   4.078   0.944  15.587  0.1891  0.1595 -2.6645
 2094SOL     OW17914   1.978   3.596   6.963  0.1017  0.6774 -0.3133
 2094SOL    HW117915   2.022   3.533   7.019  1.3143  0.3984 -1.5677
 2094SOL    HW217916   2.049   3.640   6.916  1.9210 -2.3099 -0.3994
 2095SOL     OW17917   0.104   2.716   4.307  0.1895 -0.3330 -0.2581
 2095SOL    HW117918   0.142   2.755   4.228 -1.1142  0.7050 -0.3778
 2095SOL    HW217919   0.067   2.794   4.347  0.9508 -1.7731  3.2180
 2096SOL     OW17920   3.349   1.621  17.475  0.0321  0.3110 -0.0470
 2096SOL    HW117921   3.324   1.705  17.513  0.3396  0.0351  0.7510
 2096SOL    HW217922   3.313   1.626  17.386  2.8339 -1.2037 -1.2913
 2097SOL     OW17923   3.274   2.779   4.143  0.1003 -0.2612 -0.8812
 2097SOL    HW117924   3.264   2.790   4.238  1.2305 -0.9362 -0.6819
 2097SOL    HW217925   3.366   2.804   4.134  0.2301 -0.3594  0.0938
 2098SOL     OW17926   3.603   3.414  11.659 -0.4017 -0.8259  0.0653
 2098SOL    HW117927   3.529   3.378  11.707  0.3900 -3.2312 -0.5116
 2098SOL    HW217928   3.655   3.442  11.734 -1.3303  1.4412 -0.1349
 2099SOL     OW17929   0.950   2.122   7.718 -0.1637  0.0861  0.6225
 2099SOL    HW117930   0.950   2.057   7.647 -1.7539  0.7372  0.0330
 2099SOL    HW217931   0.864   2.110   7.758 -0.8782  0.0395 -0.9335
 2100SOL     OW17932   3.914   1.820  12.433  0.1144 -0.1858 -0.5442
 2100SOL    HW117933   3.973   1.834  12.359  0.7815 -0.0274  0.0156
 2100SOL    HW217934   3.920   1.899  12.487  1.5210 -0.1024 -0.8149
 2101SOL     OW17935   0.654   1.235   0.777  0.0761 -0.6424  0.0868
 2101SOL    HW117936   0.727   1.187   0.815  0.3226  0.1021  0.5559
 2101SOL    HW217937   0.697   1.320   0.786 -1.1482  0.0046 -0.1304
 2102SOL     OW17938   2.896   0.394   8.398  0.1909 -0.2161 -0.4611
 2102SOL    HW117939   2.817   0.419   8.446 -0.1522 -2.7817  0.3214
 2102SOL    HW217940   2.915   0.309   8.438 -1.0281  0.3182  1.2355
 2103SOL     OW17941   1.773   3.908   8.710  0.0254 -0.8781  0.3254
 2103SOL    HW117942   1.695   3.946   8.669  0.4864 -0.9189 -0.5865
 2103SOL    HW217943   1.833   3.979   8.733  0.9859 -0.8524 -2.3093
 2104SOL     OW17944   1.760   2.026   8.019  0.5461 -0.1600 -0.0964
 2104SOL    HW117945   1.830   1.986   8.069 -0.0832 -1.3879 -0.2175
 2104SOL    HW217946   1.816   2.038   7.942  0.6873 -1.1142 -0.1394
 2105SOL     OW17947   1.692   2.214   7.185  0.3437 -0.3130 -0.4294
 2105SOL    HW117948   1.711   2.306   7.168  3.4190 -0.9300 -0.3386
 2105SOL    HW217949   1.687   2.207   7.281 -0.4484 -0.4145 -0.4794
 2106SOL     OW17950   4.631   3.943   9.797 -0.1759 -0.1094 -0.3673
 2106SOL    HW117951   4.635   3.862   9.747  0.4167  0.2857 -0.9535
 2106SOL    HW217952   4.618   4.006   9.727 -3.1663  1.5760  1.7077
 2107SOL     OW17953   2.771   4.319   8.347 -0.0376 -0.4855  0.3947
 2107SOL    HW117954   2.833   4.389   8.325  0.8684 -1.6443 -0.7241
 2107SOL    HW217955   2.788   4.257   8.276  1.5341  0.1727  0.2068
 2108SOL     OW17956   2.770   1.438  17.668  0.3965 -0.0419  0.1276
 2108SOL    HW117957   2.826   1.465  17.596 -0.6197 -0.0049 -0.6568
 2108SOL    HW217958   2.715   1.516  17.672  0.5218  0.0321  0.3978
 2109SOL     OW17959   2.235   1.361   7.964 -0.5296 -0.3135 -0.0935
 2109SOL    HW117960   2.287   1.331   8.038 -0.0287 -1.0718 -0.7667
 2109SOL    HW217961   2.268   1.319   7.885 -0.2721  0.4056 -0.3660
 2110SOL     OW17962   1.953   3.670   4.186 -0.3307  0.3043  0.1725
 2110SOL    HW117963   1.951   3.709   4.273  2.2884 -0.9402  0.7943
 2110SOL    HW217964   2.038   3.694   4.148  0.7198 -1.8466  1.1734
 2111SOL     OW17965   2.941   4.145   8.957  0.6449  0.0670 -0.3402
 2111SOL    HW117966   2.915   4.072   9.013  0.4955 -1.1332 -2.0139
 2111SOL    HW217967   2.981   4.098   8.885  1.2572  0.0687 -0.0067
 2112SOL     OW17968   0.596   0.239   6.763  0.4915 -0.9178 -0.4062
 2112SOL    HW117969   0.599   0.171   6.831  0.2114 -0.9953 -0.4722
 2112SOL    HW217970   0.655   0.307   6.796 -2.5017  2.0194 -1.1792
 2113SOL     OW17971   4.045   1.687   5.774 -0.2255  0.6799 -0.2260
 2113SOL    HW117972   3.959   1.644   5.783 -0.4982  1.5799  1.3977
 2113SOL    HW217973   4.075   1.641   5.695  0.6276 -0.1276  0.5692
 2114SOL     OW17974   0.558   1.428   6.960  0.2131  0.1146  0.3348
 2114SOL    HW117975   0.470   1.462   6.946 -0.2088 -0.0784  2.6211
 2114SOL    HW217976   0.563   1.451   7.053 -1.0024 -0.4075  0.5286
 2115SOL     OW17977   1.078   3.151   3.966 -0.3064  0.3018 -0.4573
 2115SOL    HW117978   0.995   3.198   3.966 -0.4146  0.0947 -1.5460
 2115SOL    HW217979   1.103   3.174   3.877  1.6520 -0.7529 -0.1861
 2116SOL     OW17980   1.498   3.167   3.475  0.4148  0.3261 -0.3976
 2116SOL    HW117981   1.526   3.236   3.535  0.4349 -1.3311  1.4779
 2116SOL    HW217982   1.405   3.187   3.468  0.7380  2.2028  0.7859
 2117SOL     OW17983   0.596   2.990  17.651  0.0033 -0.1912 -0.3520
 2117SOL    HW117984   0.607   3.008  17.558 -0.8426  0.7794 -0.2665
 2117SOL    HW217985   0.549   2.909  17.635 -0.3354  0.1556 -1.0982
 2118SOL     OW17986   2.350   2.956   3.212 -0.4452 -0.0047  0.3263
 2118SOL    HW117987   2.436   2.999   3.210 -1.9071  2.8079 -2.1540
 2118SOL    HW217988   2.368   2.865   3.189 -0.3452 -0.1284  0.9054
 2119SOL     OW17989   0.934   3.849   9.093  0.2165  0.2002 -0.3148
 2119SOL    HW117990   0.903   3.840   9.003  0.6997  0.4605 -0.5114
 2119SOL    HW217991   0.850   3.852   9.138  0.0905 -0.2668 -0.5209
 2120SOL     OW17992   0.651   3.258  12.830 -0.7495 -0.9595  0.3394
 2120SOL    HW117993   0.604   3.184  12.869  0.2159 -0.7606  1.8647
 2120SOL    HW217994   0.692   3.205  12.762 -1.1644  0.6673 -1.1727
 2121SOL     OW17995   0.500   3.515   7.398  0.6825  0.2192 -0.3334
 2121SOL    HW117996   0.489   3.503   7.493  1.1323 -1.2392 -0.4561
 2121SOL    HW217997   0.525   3.425   7.376  1.0010  0.4482 -0.8802
 2122SOL     OW17998   2.207   0.032   4.550 -0.1801 -0.0946  0.6184
 2122SOL    HW117999   2.154   4.702   4.597 -1.3901  0.4051 -0.0603
 2122SOL    HW218000   2.277   4.708   4.523 -0.0871  0.9145 -1.2718
 2123SOL     OW18001   4.179   0.668  12.540 -0.0528  0.4065 -0.1862
 2123SOL    HW118002   4.261   0.642  12.583  0.2456  1.7187  0.0358
 2123SOL    HW218003   4.195   0.631  12.453 -2.6874  0.0729 -0.5295
 2124SOL     OW18004   4.699   3.176   8.095 -0.2478  0.3021 -0.1073
 2124SOL    HW118005   4.682   3.100   8.040  0.3840  0.0109  0.0971
 2124SOL    HW218006   0.047   3.160   8.140 -0.4469 -2.5747 -0.7808
 2125SOL     OW18007   4.041   0.826   9.382 -0.4682 -0.0768 -0.1786
 2125SOL    HW118008   3.957   0.796   9.415 -0.8296  1.6093  0.4546
 2125SOL    HW218009   4.025   0.920   9.372  0.4030 -0.1068 -1.7834
 2126SOL     OW18010   1.471   0.862  12.843 -0.1084 -0.2683 -0.3096
 2126SOL    HW118011   1.423   0.844  12.762  1.0596  1.4517 -1.3730
 2126SOL    HW218012   1.432   0.946  12.866 -2.3766 -1.1245 -1.1089
 2127SOL     OW18013   4.231   0.777   9.182 -0.3998  0.7592  0.5714
 2127SOL    HW118014   4.204   0.732   9.102  2.7951  0.2181 -0.1772
 2127SOL    HW218015   4.157   0.763   9.241  0.6090  1.7495  2.0632
 2128SOL     OW18016   1.007   3.394   0.478 -0.1211  0.0768 -0.4259
 2128SOL    HW118017   0.996   3.324   0.413 -3.1136 -1.6564  1.9770
 2128SOL    HW218018   1.014   3.350   0.562 -2.2148 -0.7208 -0.6736
 2129SOL     OW18019   4.486   4.056   2.921 -0.4837  0.4205 -0.6647
 2129SOL    HW118020   4.501   4.121   2.852  0.9291 -0.7097 -1.4061
 2129SOL    HW218021   4.395   4.070   2.947  0.4318  0.5938  2.4500
 2130SOL     OW18022   3.937   3.105  17.136  0.1983  0.5100  0.1330
 2130SOL    HW118023   3.908   3.022  17.173  2.7380 -0.3305  0.2477
 2130SOL    HW218024   3.864   3.167  17.136  0.1491  0.4518  0.1890
 2131SOL     OW18025   1.297   3.589   4.184 -0.2619 -0.2279  0.4189
 2131SOL    HW118026   1.242   3.596   4.262 -0.4189  0.9288  0.2005
 2131SOL    HW218027   1.318   3.680   4.162  0.6482 -0.7668 -0.9426
 2132SOL     OW18028   2.247   4.222   3.794  0.0485  0.2663  0.1708
 2132SOL    HW118029   2.156   4.248   3.781  0.4814  1.2323 -0.9443
 2132SOL    HW218030   2.279   4.286   3.731 -0.9426  1.4894  0.9186
 2133SOL     OW18031   4.528   3.608   4.870 -0.2317  0.0037  0.0483
 2133SOL    HW118032   4.497   3.656   4.946 -1.4701 -0.0257 -0.4292
 2133SOL    HW218033   4.582   3.539   4.907  0.1625  1.4130  2.1076
 2134SOL     OW18034   3.761   1.891   3.311 -0.4428 -0.3288 -0.6097
 2134SOL    HW118035   3.784   1.834   3.384 -0.1174  3.3323  2.1795
 2134SOL    HW218036   3.757   1.974   3.360  1.5050  0.6743 -2.1380
 2135SOL     OW18037   2.340   2.677   7.004  0.2457 -0.0151  0.1547
 2135SOL    HW118038   2.293   2.617   6.946 -0.6020  0.0914  0.7352
 2135SOL    HW218039   2.411   2.706   6.948 -0.5518 -0.5523 -1.1329
 2136SOL     OW18040   4.170   2.089   8.722 -0.5680 -0.3140  0.6336
 2136SOL    HW118041   4.156   1.999   8.690 -1.7859 -0.1855  0.7929
 2136SOL    HW218042   4.162   2.136   8.639  1.2927 -0.3226  0.4408
 2137SOL     OW18043   2.504   3.331  16.518  0.4338  0.0472  0.0242
 2137SOL    HW118044   2.429   3.359  16.465  1.6402  0.0916 -1.6485
 2137SOL    HW218045   2.536   3.415  16.552 -0.6183  0.2914  0.4079
 2138SOL     OW18046   2.203   3.443   2.756 -0.3085  0.1128  0.0702
 2138SOL    HW118047   2.177   3.519   2.808 -2.5564  0.5150 -1.6325
 2138SOL    HW218048   2.239   3.488   2.680 -2.2211  0.9235 -0.3473
 2139SOL     OW18049   3.984   3.263  13.663 -0.4322 -0.6385 -0.2727
 2139SOL    HW118050   3.990   3.172  13.633  0.3705 -0.5509 -0.3732
 2139SOL    HW218051   3.895   3.288  13.637 -0.8563 -1.3585  0.5144
 2140SOL     OW18052   2.090   1.049  16.057  0.0235  0.0799 -0.2332
 2140SOL    HW118053   2.182   1.028  16.041  0.3585  2.0372 -0.9095
 2140SOL    HW218054   2.062   1.087  15.974 -1.2410  1.0296  0.6296
 2141SOL     OW18055   3.900   4.041  10.877 -0.2750  0.3186 -0.0474
 2141SOL    HW118056   3.869   4.119  10.923 -3.2001 -0.6247 -0.4379
 2141SOL    HW218057   3.913   3.993  10.959  0.8538 -1.1619 -1.0889
 2142SOL     OW18058   2.548   0.059   2.603  0.2133  0.6106  0.1436
 2142SOL    HW118059   2.504   0.062   2.518  3.9865  1.7398 -1.7314
 2142SOL    HW218060   2.479   0.088   2.663  0.2762  0.9527  0.0470
 2143SOL     OW18061   4.270   0.486  13.345  0.2497 -0.0854 -0.0270
 2143SOL    HW118062   4.324   0.426  13.397  0.4912  3.2158  3.5234
 2143SOL    HW218063   4.338   0.551  13.333  1.0845 -0.9356  0.1184
 2144SOL     OW18064   3.261   4.065  10.869  0.2672  0.7794 -0.1329
 2144SOL    HW118065   3.200   3.992  10.882  2.3077 -0.7165  1.1796
 2144SOL    HW218066   3.262   4.108  10.955 -1.3301 -1.3184  0.9597
 2145SOL     OW18067   2.567   0.862   7.488 -0.2426 -0.2236 -0.4399
 2145SOL    HW118068   2.653   0.841   7.525 -0.3016 -1.8415 -1.2304
 2145SOL    HW218069   2.588   0.846   7.396 -0.3799  3.1711 -1.0560
 2146SOL     OW18070   2.749   0.920  14.758  0.5215  0.3698 -0.6614
 2146SOL    HW118071   2.801   0.937  14.836  0.8879 -0.2190 -0.7724
 2146SOL    HW218072   2.662   0.905  14.795  0.2200  0.1736 -1.4521
 2147SOL     OW18073   0.275   4.276   8.011  0.7762 -0.2690 -0.0644
 2147SOL    HW118074   0.270   4.183   7.992  0.1553 -0.0988 -0.7311
 2147SOL    HW218075   0.257   4.310   7.924  0.5796 -2.3088 -0.8160
 2148SOL     OW18076   2.154   2.837   6.735  0.2906  0.5621  0.0896
 2148SOL    HW118077   2.128   2.883   6.655 -0.7594 -2.3896 -1.2796
 2148SOL    HW218078   2.236   2.798   6.703  0.6744 -1.2276  3.3227
 2149SOL     OW18079   1.557   3.108   2.862  0.4324 -0.0487  0.2360
 2149SOL    HW118080   1.486   3.157   2.821 -0.5686 -1.9285 -0.2274
 2149SOL    HW218081   1.611   3.080   2.788 -1.1063 -0.8945 -0.5663
 2150SOL     OW18082   4.424   2.813   7.412  0.1341 -0.2020  0.4484
 2150SOL    HW118083   4.515   2.825   7.440 -1.1563  1.9318  3.7195
 2150SOL    HW218084   4.410   2.904   7.387  0.9578 -0.3922 -0.7188
 2151SOL     OW18085   4.548   1.017   5.182 -0.1728 -0.1177  0.2341
 2151SOL    HW118086   4.631   0.969   5.187 -0.0383 -0.1152 -2.0952
 2151SOL    HW218087   4.577   1.097   5.137 -0.3734  0.1519  0.5756
 2152SOL     OW18088   3.475   1.182   1.187 -0.2587 -0.4392 -0.0797
 2152SOL    HW118089   3.535   1.221   1.124 -0.7407  0.3801 -0.0205
 2152SOL    HW218090   3.416   1.131   1.131  0.1726 -1.9190  0.7987
 2153SOL     OW18091   1.662   2.497  13.286  0.0710  0.1864  0.2208
 2153SOL    HW118092   1.690   2.489  13.377  0.4609  1.0909  0.1812
 2153SOL    HW218093   1.738   2.475  13.233 -0.4113 -1.1509  0.0744
 2154SOL     OW18094   2.122   0.464   5.833 -0.4490  0.1979 -0.0451
 2154SOL    HW118095   2.035   0.428   5.815  0.5233 -2.6254  0.9514
 2154SOL    HW218096   2.102   0.550   5.869  0.7229 -0.9024  3.1891
 2155SOL     OW18097   4.351   0.080   7.458  0.2625  0.2302  0.6262
 2155SOL    HW118098   4.264   0.044   7.471 -0.3011  1.1656 -0.5240
 2155SOL    HW218099   4.388   0.017   7.396 -0.2712 -0.3596  0.9084
 2156SOL     OW18100   3.878   2.883  17.394  0.1238 -0.7817  0.0405
 2156SOL    HW118101   3.928   2.824  17.338  0.0511 -1.4421  0.6712
 2156SOL    HW218102   3.935   2.879  17.471  1.0244 -1.9487 -0.6868
 2157SOL     OW18103   0.301   1.318   2.420 -0.5126  0.5633  0.1696
 2157SOL    HW118104   0.298   1.381   2.492  0.8940 -0.2286  0.9190
 2157SOL    HW218105   0.382   1.273   2.442 -1.1584 -1.4972 -1.6766
 2158SOL     OW18106   4.237   1.714  12.883  0.1131 -0.5336 -0.0185
 2158SOL    HW118107   4.235   1.727  12.788 -2.4844  0.2121  0.1630
 2158SOL    HW218108   4.320   1.759  12.897 -0.5613  0.7374 -0.1762
 2159SOL     OW18109   4.154   3.177   5.271 -0.0044  0.7908 -0.0674
 2159SOL    HW118110   4.063   3.193   5.249 -0.1126  0.0877 -0.1034
 2159SOL    HW218111   4.177   3.100   5.220 -1.4277 -1.1138  2.1881
 2160SOL     OW18112   3.352   1.185  13.149  0.7648 -0.2849 -0.1766
 2160SOL    HW118113   3.335   1.098  13.111 -1.9867 -0.2630  1.0145
 2160SOL    HW218114   3.441   1.196  13.117  0.7204 -1.2341 -0.6470
 2161SOL     OW18115   3.767   4.683   6.225  0.0439 -0.0546  0.2543
 2161SOL    HW118116   3.744   0.002   6.301  0.5014  1.0408 -0.3791
 2161SOL    HW218117   3.684   4.699   6.181  1.3903  0.2255 -2.2076
 2162SOL     OW18118   4.311   1.127   3.088  0.1953  0.1840 -0.7939
 2162SOL    HW118119   4.373   1.181   3.038  1.8363 -1.1490 -0.2144
 2162SOL    HW218120   4.382   1.076   3.129 -0.6405  0.9297  1.5387
 2163SOL     OW18121   2.073   0.661   0.004  0.6193  0.0080  0.4687
 2163SOL    HW118122   2.163   0.692  17.738  0.8761 -1.1149 -1.9458
 2163SOL    HW218123   2.087   0.566   0.007 -0.0974 -0.0431  2.2723
 2164SOL     OW18124   4.031   1.205  12.933  0.1828 -0.0364 -0.0935
 2164SOL    HW118125   4.063   1.283  12.887  0.6521  0.6011  1.3006
 2164SOL    HW218126   4.093   1.143  12.895  2.1271  2.3885 -0.9000
 2165SOL     OW18127   3.069   3.478   8.422  0.1284  0.0623  0.4596
 2165SOL    HW118128   3.054   3.402   8.478 -0.3299  0.2232  0.5563
 2165SOL    HW218129   2.987   3.527   8.429 -0.5673 -1.0108 -0.1045
 2166SOL     OW18130   4.096   3.534   4.172 -0.5483 -0.2238 -0.4828
 2166SOL    HW118131   4.145   3.466   4.125  0.9209 -0.1096  0.8971
 2166SOL    HW218132   4.179   3.575   4.197 -0.6879  0.6796 -1.5030
 2167SOL     OW18133   3.471   2.373   7.138 -0.5636 -0.1128 -0.3210
 2167SOL    HW118134   3.516   2.388   7.221  0.3048 -1.7636 -0.4915
 2167SOL    HW218135   3.523   2.423   7.077 -0.2098  0.3156  0.3304
 2168SOL     OW18136   2.168   3.031   8.749 -0.2117 -0.2144 -0.4103
 2168SOL    HW118137   2.080   3.069   8.760  0.1756  0.8529 -1.0352
 2168SOL    HW218138   2.187   3.054   8.658  1.0017  1.1029  0.1823
 2169SOL     OW18139   4.650   1.353   2.143  0.7115  0.1294  0.1206
 2169SOL    HW118140   4.651   1.303   2.062  0.2842  2.3643 -1.2584
 2169SOL    HW218141   4.623   1.434   2.101 -0.1220 -1.5149 -2.4858
 2170SOL     OW18142   4.363   4.417  13.788  0.2382  0.4183  0.2160
 2170SOL    HW118143   4.438   4.373  13.747  0.7496  1.3638  0.1376
 2170SOL    HW218144   4.391   4.413  13.880  0.9529 -1.1827 -0.0647
 2171SOL     OW18145   3.045   0.573   0.979  0.2580 -0.2560 -0.0536
 2171SOL    HW118146   3.006   0.526   1.053 -1.1404  0.2069 -0.4982
 2171SOL    HW218147   2.992   0.653   0.972 -1.7017 -1.6568 -1.1703
 2172SOL     OW18148   3.433   2.645   3.885 -0.2899  0.4978 -0.0893
 2172SOL    HW118149   3.361   2.673   3.941 -0.1729 -1.1131  0.8535
 2172SOL    HW218150   3.401   2.659   3.796  0.4775 -0.4846 -0.5238
 2173SOL     OW18151   1.954   3.800  16.874  0.8122  0.4025 -0.3321
 2173SOL    HW118152   2.030   3.832  16.824  0.5930  0.3355 -0.7041
 2173SOL    HW218153   1.917   3.730  16.821  1.7657  0.3162 -0.8996
 2174SOL     OW18154   0.324   4.708   1.207  0.4247  0.4055  0.0604
 2174SOL    HW118155   0.418   4.723   1.220  0.8931 -2.8218  0.3572
 2174SOL    HW218156   0.282   0.042   1.259 -1.4393 -0.0803 -0.7957
 2175SOL     OW18157   4.143   2.208  16.193 -0.0035 -0.4769  0.0343
 2175SOL    HW118158   4.075   2.163  16.242  0.9434 -1.2824  0.6023
 2175SOL    HW218159   4.162   2.144  16.124  0.3681  0.7607 -1.0349
 2176SOL     OW18160   3.248   2.464   8.248  0.1594 -0.3447 -0.0308
 2176SOL    HW118161   3.216   2.404   8.181 -0.2373 -0.9287  0.6758
 2176SOL    HW218162   3.257   2.410   8.327 -0.4500 -2.6356 -1.5348
 2177SOL     OW18163   1.272   4.712   1.282 -0.4430 -0.2591  0.0564
 2177SOL    HW118164   1.313   4.707   1.196  0.9421 -2.9038  0.8608
 2177SOL    HW218165   1.233   4.625   1.287  0.2533 -0.5720  0.1104
 2178SOL     OW18166   1.546   2.633   4.132  0.2622  0.3127  0.3216
 2178SOL    HW118167   1.469   2.596   4.174 -0.1303 -0.9432 -1.4678
 2178SOL    HW218168   1.613   2.628   4.200  0.0966  0.6457  0.5092
 2179SOL     OW18169   3.191   1.935   4.355 -0.0313  0.2793  0.0104
 2179SOL    HW118170   3.173   1.926   4.261 -1.5338  0.5306  0.2757
 2179SOL    HW218171   3.196   1.846   4.390  2.7109  0.0895 -0.8336
 2180SOL     OW18172   4.061   2.156   4.394 -0.2790 -0.1657  0.2778
 2180SOL    HW118173   3.974   2.195   4.384 -0.5288  0.1946  4.1163
 2180SOL    HW218174   4.044   2.062   4.395  0.4731 -0.3154 -0.5087
 2181SOL     OW18175   4.312   0.137   4.562 -0.4970  0.5105 -0.1189
 2181SOL    HW118176   4.301   0.227   4.533 -0.1249  0.2338 -1.1380
 2181SOL    HW218177   4.234   0.099   4.520 -1.0452  1.1610  0.3113
 2182SOL     OW18178   3.179   3.228   1.377  0.0446  0.2561 -0.1118
 2182SOL    HW118179   3.211   3.312   1.411  0.8789  0.1103 -0.5273
 2182SOL    HW218180   3.250   3.223   1.313 -0.2008  3.4220 -0.6484
 2183SOL     OW18181   1.668   1.924   2.868 -0.1981  0.2713  0.0706
 2183SOL    HW118182   1.621   1.863   2.811  1.4157  1.0650 -2.1484
 2183SOL    HW218183   1.748   1.873   2.879 -0.1023  0.4725  0.2846
 2184SOL     OW18184   4.204   2.912   5.210  0.4970 -0.4471  0.1325
 2184SOL    HW118185   4.266   2.848   5.175 -0.6052 -1.4765  0.0947
 2184SOL    HW218186   4.124   2.870   5.178 -0.6148  1.6237  0.1943
 2185SOL     OW18187   2.581   4.713   6.090 -0.2906  0.0656  0.5360
 2185SOL    HW118188   2.670   0.013   6.099  0.4654 -2.2445  2.0438
 2185SOL    HW218189   2.540   0.007   6.171  0.0191 -1.2943  1.1748
 2186SOL     OW18190   2.029   4.362   9.049  1.0749  0.3205 -0.2001
 2186SOL    HW118191   2.101   4.369   8.986  0.4010  1.0908 -0.8794
 2186SOL    HW218192   1.992   4.274   9.043  4.1886 -1.0881  1.1561
 2187SOL     OW18193   1.251   1.843   6.455  0.3373  0.2060 -0.0766
 2187SOL    HW118194   1.165   1.823   6.418 -0.1137  2.9908 -0.5785
 2187SOL    HW218195   1.248   1.781   6.528 -2.7292 -0.0826 -0.4370
 2188SOL     OW18196   2.382   1.936   4.524  0.6171 -0.0943  0.2966
 2188SOL    HW118197   2.302   1.957   4.572  0.4952  2.4888 -1.0608
 2188SOL    HW218198   2.450   1.993   4.561 -0.2277  1.3072 -0.3490
 2189SOL     OW18199   1.706   1.500  15.939  0.7480 -0.5555  0.5186
 2189SOL    HW118200   1.625   1.459  15.969  0.5145 -0.8414 -0.4818
 2189SOL    HW218201   1.762   1.423  15.927  0.4215 -0.7640  0.3474
 2190SOL     OW18202   4.609   3.596  13.679  0.0309  0.9295 -0.1824
 2190SOL    HW118203   4.556   3.675  13.684 -1.6416 -0.1503 -1.1548
 2190SOL    HW218204   4.559   3.547  13.614  0.2092  1.0962 -0.4442
 2191SOL     OW18205   3.411   4.434  10.298  0.4496  0.3860 -0.7154
 2191SOL    HW118206   3.412   4.361  10.360  0.8567  0.6575 -0.4086
 2191SOL    HW218207   3.315   4.438  10.294  0.4744  0.4784 -1.2316
 2192SOL     OW18208   4.155   3.536   6.619 -0.8340 -0.4954  0.0413
 2192SOL    HW118209   4.142   3.442   6.631 -1.1843 -0.7241 -2.0264
 2192SOL    HW218210   4.070   3.556   6.579 -0.4793  2.5830  0.8452
 2193SOL     OW18211   2.257   2.254   2.130  0.0063 -0.2299 -0.5657
 2193SOL    HW118212   2.210   2.334   2.110 -0.1217 -0.1516  0.0341
 2193SOL    HW218213   2.286   2.282   2.217  0.9813  0.0274 -0.9692
 2194SOL     OW18214   4.440   3.701   9.218 -0.1809 -0.1460 -0.5226
 2194SOL    HW118215   4.523   3.678   9.176 -1.4394 -1.8775 -2.1022
 2194SOL    HW218216   4.379   3.638   9.179 -1.6321 -0.0054  1.5634
 2195SOL     OW18217   2.722   1.623  10.810 -0.4194 -0.4393 -0.5571
 2195SOL    HW118218   2.690   1.701  10.856  0.0347 -1.5644  1.6438
 2195SOL    HW218219   2.650   1.562  10.827 -0.5663  0.1720  0.9866
 2196SOL     OW18220   2.648   0.232   4.025 -0.0397  0.4626  0.2796
 2196SOL    HW118221   2.742   0.237   4.014  0.1590 -2.7706  0.6101
 2196SOL    HW218222   2.640   0.143   4.058 -2.0736  1.0786  1.4495
 2197SOL     OW18223   4.310   4.093   9.956  0.7544  0.2190  0.0944
 2197SOL    HW118224   4.262   4.110   9.875 -2.0025 -2.5959  1.1403
 2197SOL    HW218225   4.264   4.014   9.984  1.6177 -0.1346  0.5261
 2198SOL     OW18226   0.324   1.292   1.548 -0.0896 -0.6302 -0.3580
 2198SOL    HW118227   0.266   1.367   1.540  1.7548  0.5167 -2.7551
 2198SOL    HW218228   0.279   1.218   1.507  0.5347 -1.5582  0.6334
 2199SOL     OW18229   4.644   4.514  10.819 -0.1997 -0.1948 -0.1434
 2199SOL    HW118230   4.659   4.535  10.911  0.2799 -0.0323 -0.2550
 2199SOL    HW218231   4.652   4.603  10.786 -1.0536  1.2694  3.6421
 2200SOL     OW18232   2.205   3.720   4.108 -0.1131 -0.0803 -0.3341
 2200SOL    HW118233   2.229   3.812   4.120  3.3385 -1.1078  0.7612
 2200SOL    HW218234   2.287   3.683   4.141 -0.9095 -0.2666  1.4143
 2201SOL     OW18235   3.205   3.892   3.988  0.6722  0.2590  0.2083
 2201SOL    HW118236   3.122   3.883   4.035  0.0810  1.0507 -0.6990
 2201SOL    HW218237   3.241   3.804   3.981  0.7491  0.2483  0.7374
 2202SOL     OW18238   2.554   2.735   9.177  0.2324  0.1865  0.3203
 2202SOL    HW118239   2.466   2.715   9.145  0.8718 -1.3552 -0.4774
 2202SOL    HW218240   2.556   2.831   9.178  0.3420  0.2024 -1.1369
 2203SOL     OW18241   4.033   0.371   7.071 -0.3885  0.2296 -0.2470
 2203SOL    HW118242   4.058   0.286   7.037 -0.4484 -0.0597  0.4348
 2203SOL    HW218243   4.046   0.368   7.165  1.4527  0.9634 -0.4839
 2204SOL     OW18244   2.828   0.025   7.366  0.2174  0.2838 -0.4460
 2204SOL    HW118245   2.816   0.111   7.325  0.8406  1.2324  1.3516
 2204SOL    HW218246   2.777   0.042   7.445 -0.4643 -0.7359 -0.6753
 2205SOL     OW18247   3.510   3.673   8.170  0.2756  0.5006  0.4982
 2205SOL    HW118248   3.484   3.741   8.107 -1.4916 -1.2041 -0.6230
 2205SOL    HW218249   3.424   3.643   8.201  1.2805 -1.2490  1.5898
 2206SOL     OW18250   1.063   4.428   9.963  0.2478  0.8314  0.0106
 2206SOL    HW118251   1.126   4.366  10.001  0.3819  0.1700 -1.3123
 2206SOL    HW218252   1.055   4.486  10.039  0.6738  1.3642 -0.3491
 2207SOL     OW18253   0.426   2.504   7.473 -0.3974  0.0970  0.2981
 2207SOL    HW118254   0.485   2.458   7.414  0.2321  1.4315 -0.1206
 2207SOL    HW218255   0.342   2.504   7.428  0.4463 -0.8442 -1.2663
 2208SOL     OW18256   1.116   1.378   5.610 -0.3434 -0.3655  0.0293
 2208SOL    HW118257   1.173   1.302   5.601  1.6358  1.3971 -2.4615
 2208SOL    HW218258   1.128   1.426   5.528 -2.0867  0.4644  0.2513
 2209SOL     OW18259   3.921   3.857   3.167  0.0425  0.3911 -0.2949
 2209SOL    HW118260   3.989   3.873   3.102  0.3091  0.9741  0.1218
 2209SOL    HW218261   3.892   3.944   3.197  1.0090  0.5111  0.3142
 2210SOL     OW18262   1.689   2.832   6.062  0.5894 -0.4177 -0.5444
 2210SOL    HW118263   1.726   2.800   6.144  1.0900  0.3307 -0.4761
 2210SOL    HW218264   1.632   2.898   6.101  1.3835 -0.6612  1.0097
 2211SOL     OW18265   4.353   2.047   1.109  0.2636  0.7245 -0.3633
 2211SOL    HW118266   4.305   2.014   1.034  0.9912  3.1864 -1.9236
 2211SOL    HW218267   4.356   1.968   1.162 -1.9481  0.9447  0.0783
 2212SOL     OW18268   0.939   2.785   1.211  0.1995  0.5126  0.0659
 2212SOL    HW118269   0.957   2.837   1.133 -0.9803  1.6872  0.5651
 2212SOL    HW218270   0.848   2.760   1.194  0.1225  1.5238 -1.0429
 2213SOL     OW18271   3.781   3.822   6.556 -0.0114  0.3632 -0.0084
 2213SOL    HW118272   3.867   3.863   6.547 -0.4356  1.7104  2.0675
 2213SOL    HW218273   3.816   3.736   6.531 -1.7673 -0.5794  0.8276
 2214SOL     OW18274   1.861   0.559   1.023 -0.2554 -0.2508 -0.4816
 2214SOL    HW118275   1.856   0.652   1.002  0.7851  0.2472  1.4911
 2214SOL    HW218276   1.775   0.543   1.061  0.7824 -0.1053  1.9349
 2215SOL     OW18277   2.529   3.655   6.071  0.1129  0.5760  0.9566
 2215SOL    HW118278   2.499   3.675   5.982  1.6597  3.1137  1.0073
 2215SOL    HW218279   2.457   3.694   6.119 -0.7599 -0.5146  0.5456
 2216SOL     OW18280   3.200   1.683  11.663  0.7937  0.1565 -0.3544
 2216SOL    HW118281   3.203   1.694  11.568  2.3085  1.9270 -0.0814
 2216SOL    HW218282   3.285   1.639  11.669  0.6907 -0.3398 -2.6324
 2217SOL     OW18283   0.147   0.503  14.244  0.1959 -0.2776 -0.2396
 2217SOL    HW118284   0.095   0.426  14.223 -0.6704  0.2232  0.0771
 2217SOL    HW218285   0.227   0.497  14.192  0.0394  2.2316 -0.7540
 2218SOL     OW18286   0.018   0.892   2.200  0.0555 -0.2285 -0.3254
 2218SOL    HW118287   0.028   0.966   2.260  0.3158  0.5090 -1.2729
 2218SOL    HW218288   0.019   0.816   2.257  1.8018 -0.8478 -1.2060
 2219SOL     OW18289   1.943   3.823  12.367  0.0756  0.1803  0.1378
 2219SOL    HW118290   1.890   3.892  12.327 -0.2589 -1.5533 -2.4189
 2219SOL    HW218291   2.022   3.871  12.392 -1.2127  1.8308  1.0774
 2220SOL     OW18292   2.441   3.470   5.139  0.4859 -0.0476 -0.2016
 2220SOL    HW118293   2.372   3.468   5.206 -2.4435  0.3050 -3.2484
 2220SOL    HW218294   2.448   3.565   5.130 -2.5212  0.1004 -1.1238
 2221SOL     OW18295   2.222   0.208   5.200  0.1302 -0.4288 -0.1794
 2221SOL    HW118296   2.297   0.158   5.167  0.8425  1.8623 -2.0353
 2221SOL    HW218297   2.260   0.295   5.197 -0.2226 -0.3289 -1.8875
 2222SOL     OW18298   4.330   2.847   6.390 -0.2542 -0.0397  1.3920
 2222SOL    HW118299   4.359   2.759   6.367  2.1481  0.9797  0.4648
 2222SOL    HW218300   4.401   2.906   6.363  0.8699 -1.4882  1.2036
 2223SOL     OW18301   1.489   3.737   9.533 -0.1243 -0.3804 -0.5624
 2223SOL    HW118302   1.407   3.691   9.515 -0.6590 -0.1740  1.3728
 2223SOL    HW218303   1.472   3.760   9.624 -0.1216  1.3720 -1.0181
 2224SOL     OW18304   3.089   1.651   6.841  0.1889  0.4288 -0.4246
 2224SOL    HW118305   3.103   1.683   6.752  0.9664 -0.0897 -0.4862
 2224SOL    HW218306   3.125   1.723   6.894 -1.7057  1.0836 -0.0352
 2225SOL     OW18307   0.939   0.811   7.969  0.0606 -0.1375 -0.7507
 2225SOL    HW118308   1.005   0.742   7.972 -0.5270 -0.6980 -0.7804
 2225SOL    HW218309   0.868   0.775   7.916  0.0393 -1.5302  0.2227
 2226SOL     OW18310   3.156   1.842   4.680 -0.4997  0.0412 -0.1163
 2226SOL    HW118311   3.139   1.777   4.748 -0.0208  0.3562  0.2982
 2226SOL    HW218312   3.123   1.788   4.608 -1.7560 -0.7731  1.0760
 2227SOL     OW18313   0.842   1.129   2.107 -0.0974  0.3723  0.3638
 2227SOL    HW118314   0.795   1.161   2.184  0.6962  2.4816 -0.0070
 2227SOL    HW218315   0.922   1.087   2.138  0.7931  1.2192 -0.7475
 2228SOL     OW18316   4.023   2.880   7.870 -0.0555  0.1918  0.4706
 2228SOL    HW118317   4.052   2.910   7.956  0.9657  3.7468 -1.1324
 2228SOL    HW218318   3.929   2.893   7.876 -0.2184 -0.9429  0.4220
 2229SOL     OW18319   0.058   0.485   7.176  0.1428 -0.5111  0.0635
 2229SOL    HW118320   0.001   0.562   7.176  0.6748 -0.1076 -1.6546
 2229SOL    HW218321   0.023   0.442   7.098  0.3435  0.8110 -0.7606
 2230SOL     OW18322   0.751   4.591   2.803 -0.0849  0.0712 -0.0585
 2230SOL    HW118323   0.748   4.604   2.708  1.3594 -1.8578 -0.3575
 2230SOL    HW218324   0.699   4.511   2.810  1.2938 -0.7880  0.3658
 2231SOL     OW18325   2.945   2.314   8.626 -0.0247  0.0310  0.2261
 2231SOL    HW118326   2.936   2.297   8.533  1.5475 -1.3853  0.3148
 2231SOL    HW218327   2.854   2.311   8.654 -0.6421 -1.4709 -1.9407
 2232SOL     OW18328   3.483   0.658  10.873 -0.0709 -0.2632  0.4191
 2232SOL    HW118329   3.551   0.669  10.939 -0.4792  0.4402  0.7197
 2232SOL    HW218330   3.511   0.580  10.825  0.2839 -0.2687  0.6329
 2233SOL     OW18331   3.626   2.376   7.355 -0.4975  0.0749  0.0345
 2233SOL    HW118332   3.676   2.345   7.430 -1.2371  0.5030  0.6994
 2233SOL    HW218333   3.586   2.457   7.387 -0.4795 -0.3223  1.0460
 2234SOL     OW18334   2.490   0.057   2.275  0.2304  0.5010  0.2918
 2234SOL    HW118335   2.445   0.111   2.210  0.7076 -2.2831 -2.3502
 2234SOL    HW218336   2.530   4.726   2.217 -0.3177  1.0627 -0.7180
 2235SOL     OW18337   4.561   2.597  13.641  0.0341 -0.1246 -0.3849
 2235SOL    HW118338   4.590   2.608  13.550 -1.1162 -3.5428 -1.1784
 2235SOL    HW218339   4.639   2.554  13.674 -0.8307 -1.1335  0.3219
 2236SOL     OW18340   3.369   1.007   5.925  0.0676 -0.2306  0.0248
 2236SOL    HW118341   3.379   0.916   5.898 -1.7305 -0.7001  0.9772
 2236SOL    HW218342   3.318   0.995   6.005 -0.6078 -0.9794 -0.5256
 2237SOL     OW18343   2.383   3.771   5.824 -0.4403  0.1720  0.1148
 2237SOL    HW118344   2.296   3.740   5.847 -0.0822 -1.6686 -1.0380
 2237SOL    HW218345   2.382   3.724   5.741 -2.3897 -0.4850  0.5112
 2238SOL     OW18346   2.717   1.324  14.427 -1.3989 -0.2721  0.3005
 2238SOL    HW118347   2.725   1.380  14.504  0.4033  1.5348 -1.2118
 2238SOL    HW218348   2.777   1.257  14.462 -1.5517 -0.8052 -0.4627
 2239SOL     OW18349   3.787   0.315  10.555  0.4648  0.0606  0.0589
 2239SOL    HW118350   3.783   0.334  10.648 -0.9622 -1.1292  0.2429
 2239SOL    HW218351   3.788   0.408  10.532  0.1031 -0.1872 -0.9508
 2240SOL     OW18352   1.833   2.764   8.683  0.4229 -0.5156  0.5697
 2240SOL    HW118353   1.800   2.675   8.694  0.6504 -0.9595 -2.5400
 2240SOL    HW218354   1.789   2.808   8.757  2.7389 -0.3816  1.8741
 2241SOL     OW18355   2.839   4.094   7.560 -0.1273 -0.0098  0.0615
 2241SOL    HW118356   2.788   4.022   7.523  1.3611 -0.1281 -1.7855
 2241SOL    HW218357   2.796   4.164   7.510 -3.2354 -1.5829  0.5081
 2242SOL     OW18358   0.998   1.362   6.849 -0.0760 -0.1616  0.1671
 2242SOL    HW118359   0.972   1.453   6.836  0.7113  0.0302 -0.0346
 2242SOL    HW218360   0.983   1.361   6.944 -1.6102  0.4353 -0.0704
 2243SOL     OW18361   4.017   4.084   0.749 -0.4946 -0.2434  0.5326
 2243SOL    HW118362   4.104   4.045   0.755  0.5058  1.4808 -2.6322
 2243SOL    HW218363   4.031   4.155   0.686 -0.2862  0.1452  1.0179
 2244SOL     OW18364   1.857   0.716  15.095 -0.4275  0.2003 -0.5353
 2244SOL    HW118365   1.845   0.791  15.037  0.2942 -1.1473 -2.4206
 2244SOL    HW218366   1.894   0.651  15.035 -0.2559  2.1147 -2.5311
 2245SOL     OW18367   2.871   2.404   9.880  0.7024  0.5084  0.3158
 2245SOL    HW118368   2.817   2.357   9.817  1.4815 -2.6457  2.0182
 2245SOL    HW218369   2.837   2.489   9.850 -3.2076 -1.3937 -0.5822
 2246SOL     OW18370   0.345   2.829   6.399 -0.6105 -0.0663  0.0498
 2246SOL    HW118371   0.431   2.788   6.405  0.3470  1.6231 -2.0183
 2246SOL    HW218372   0.308   2.802   6.315  0.1332  1.2430 -0.7010
 2247SOL     OW18373   4.359   0.077   1.450  0.1845  0.3166  1.2391
 2247SOL    HW118374   4.451   0.063   1.428  0.2119 -0.1447  1.6449
 2247SOL    HW218375   4.331   4.724   1.477  0.6553 -0.4561 -0.7592
 2248SOL     OW18376   1.909   2.121   1.935 -0.4043  0.0154  0.2444
 2248SOL    HW118377   1.895   2.178   1.859  1.5683 -0.4594 -0.4863
 2248SOL    HW218378   1.842   2.165   1.987 -0.3584 -1.0066  1.1483
 2249SOL     OW18379   0.160   1.417  15.051 -0.0324  0.3254  0.1002
 2249SOL    HW118380   0.186   1.381  15.136  0.0942 -0.2314 -0.1798
 2249SOL    HW218381   0.237   1.463  15.018  1.7306 -1.8623  1.2500
 2250SOL     OW18382   0.384   1.902   6.349 -0.2307  0.2226 -0.5987
 2250SOL    HW118383   0.353   1.841   6.282 -0.2416 -0.8693  0.3952
 2250SOL    HW218384   0.447   1.955   6.300  2.1529 -0.8692  1.3068
 2251SOL     OW18385   0.891   0.450   4.483 -0.2948 -0.1248  1.4136
 2251SOL    HW118386   0.923   0.538   4.462  1.5030 -0.3436  3.1679
 2251SOL    HW218387   0.801   0.459   4.453  0.5651  0.5158 -0.9713
 2252SOL     OW18388   2.832   3.913  14.098 -0.0831  0.8097  0.6147
 2252SOL    HW118389   2.887   3.986  14.123  0.8222  0.1446  0.5560
 2252SOL    HW218390   2.881   3.892  14.019 -0.4622 -1.9422  1.1000
 2253SOL     OW18391   2.779   0.020   5.860 -0.2371  0.2752  0.3384
 2253SOL    HW118392   2.718   4.723   5.793 -0.0704  0.5898  0.0381
 2253SOL    HW218393   2.771   0.115   5.869 -2.2593  0.1770 -0.3188
 2254SOL     OW18394   0.904   1.800   2.531  0.3429 -0.2302 -0.2699
 2254SOL    HW118395   0.979   1.860   2.532 -0.7201  1.0768  2.1705
 2254SOL    HW218396   0.839   1.864   2.504 -2.8079 -1.7962  3.6986
 2255SOL     OW18397   0.936   0.863   2.271 -0.0485  0.4041  0.1426
 2255SOL    HW118398   0.976   0.786   2.230 -2.2764 -0.2279 -0.8178
 2255SOL    HW218399   0.860   0.869   2.214  0.5691 -2.1864 -0.9769
 2256SOL     OW18400   1.766   0.026   8.412 -0.0155 -0.0210  0.6620
 2256SOL    HW118401   1.757   0.121   8.423 -0.4903  0.1146 -0.8540
 2256SOL    HW218402   1.710   0.003   8.338 -1.2506  1.4737  1.1310
 2257SOL     OW18403   3.099   3.715   2.902 -0.3122 -0.0862  0.3200
 2257SOL    HW118404   3.063   3.649   2.961 -0.7498 -0.8942 -0.8504
 2257SOL    HW218405   3.022   3.771   2.914 -1.3253 -1.5861  0.8326
 2258SOL     OW18406   0.653   3.701   4.100  0.3961 -0.5248  0.4713
 2258SOL    HW118407   0.734   3.681   4.053  1.8360  0.2680  2.6450
 2258SOL    HW218408   0.585   3.708   4.032  0.8562 -2.6900 -0.2166
 2259SOL     OW18409   0.737   2.943   8.385  0.8295 -0.0109  0.0108
 2259SOL    HW118410   0.698   2.882   8.448 -0.3355 -1.7546 -2.3884
 2259SOL    HW218411   0.828   2.939   8.416  0.3245  1.0353  1.5968
 2260SOL     OW18412   2.471   2.087   9.030 -0.3212  0.8924  0.0267
 2260SOL    HW118413   2.563   2.067   9.051 -0.1821  3.0167  1.4781
 2260SOL    HW218414   2.478   2.153   8.960  0.4279 -0.4829 -1.2068
 2261SOL     OW18415   3.255   0.416  16.200 -0.1470 -0.1476 -0.2567
 2261SOL    HW118416   3.252   0.334  16.250 -3.0374  0.4694  0.5829
 2261SOL    HW218417   3.349   0.417  16.183  0.0695 -0.2341  0.9870
 2262SOL     OW18418   1.087   0.318   4.008 -0.0244  0.6453  0.1179
 2262SOL    HW118419   1.168   0.283   4.044 -0.4532 -0.4201  0.0431
 2262SOL    HW218420   1.105   0.412   4.009  0.3806  0.6064 -2.9832
 2263SOL     OW18421   1.215   0.057   7.409  0.1646 -0.5089 -0.3760
 2263SOL    HW118422   1.254   4.724   7.354 -1.3509 -1.6512 -0.0484
 2263SOL    HW218423   1.121   0.040   7.416  0.1918 -0.5225 -0.0845
 2264SOL     OW18424   1.497   1.048  15.966  0.6216 -0.2214 -0.1279
 2264SOL    HW118425   1.486   1.143  15.975  0.9798 -0.0490 -1.5672
 2264SOL    HW218426   1.537   1.046  15.879  1.5708  1.1945  0.2676
 2265SOL     OW18427   2.831   0.959  10.471  0.4555 -0.1342 -0.0802
 2265SOL    HW118428   2.855   0.966  10.564  2.3336  1.3649 -0.6926
 2265SOL    HW218429   2.851   1.044  10.432 -1.6479  0.4559  0.1143
 2266SOL     OW18430   1.944   2.278   8.067 -0.3929  0.1022 -0.0279
 2266SOL    HW118431   1.948   2.293   7.972  0.9585  0.1251  0.0436
 2266SOL    HW218432   2.020   2.222   8.080 -0.5467 -0.0746  0.1257
 2267SOL     OW18433   1.383   4.246   2.856  0.3462 -0.2388  0.1181
 2267SOL    HW118434   1.437   4.323   2.871  0.8092 -0.8419  1.4594
 2267SOL    HW218435   1.423   4.187   2.920 -0.3370 -1.9634 -1.0355
 2268SOL     OW18436   3.148   3.294  12.635  0.0030  0.5633 -0.0994
 2268SOL    HW118437   3.238   3.297  12.601 -0.5943 -1.0948 -1.7676
 2268SOL    HW218438   3.105   3.373  12.601 -2.1469 -0.0224  1.2911
 2269SOL     OW18439   0.506   0.618   6.893 -0.0743 -0.5547 -0.0843
 2269SOL    HW118440   0.579   0.557   6.902 -0.4690 -1.1602 -0.9849
 2269SOL    HW218441   0.438   0.582   6.949 -1.4919  2.0695 -0.1364
 2270SOL     OW18442   0.557   0.940  17.123  0.2711  0.8412 -0.5261
 2270SOL    HW118443   0.632   0.935  17.064  0.7172  2.9260 -0.1216
 2270SOL    HW218444   0.599   0.965  17.205  1.5719 -2.3210 -0.2279
 2271SOL     OW18445   1.064   0.045   2.479  0.2902 -0.3244 -0.3619
 2271SOL    HW118446   1.150   0.025   2.517  0.3346 -0.9204 -0.7813
 2271SOL    HW218447   1.033   4.690   2.482  0.7241 -0.4419  0.4882
 2272SOL     OW18448   2.908   4.717   5.223  0.0170  0.1914 -0.1298
 2272SOL    HW118449   2.986   4.681   5.181  1.9120  1.1319  2.6501
 2272SOL    HW218450   2.917   0.076   5.213 -1.4375  0.4307  0.8337
 2273SOL     OW18451   4.001   3.729   0.453 -0.4765 -0.2239 -0.1505
 2273SOL    HW118452   4.088   3.719   0.414 -0.5323 -1.8877  0.1400
 2273SOL    HW218453   3.950   3.668   0.401 -0.8323  2.6943 -3.2210
 2274SOL     OW18454   0.283   3.568   3.232  0.6656  0.9750 -0.1423
 2274SOL    HW118455   0.263   3.661   3.237 -1.9251  0.5513 -2.2511
 2274SOL    HW218456   0.256   3.548   3.322 -1.7010  1.7664 -0.6637
 2275SOL     OW18457   0.557   2.661   5.551 -0.0057 -0.1812 -0.3348
 2275SOL    HW118458   0.522   2.749   5.560 -1.7360 -0.9183  0.0095
 2275SOL    HW218459   0.588   2.673   5.461  0.5638  0.5949 -0.0308
 2276SOL     OW18460   2.744   4.281  10.287 -0.3653  0.0037 -0.0505
 2276SOL    HW118461   2.692   4.300  10.364 -0.6615 -1.0170  0.0037
 2276SOL    HW218462   2.829   4.268  10.330 -1.1374  0.1426  1.5043
 2277SOL     OW18463   2.292   1.654   4.172  0.2047  0.0991  0.0865
 2277SOL    HW118464   2.331   1.742   4.171  1.9542 -0.6918 -0.7848
 2277SOL    HW218465   2.248   1.645   4.257 -0.3380 -0.0696 -0.2117
 2278SOL     OW18466   2.355   0.400   1.369 -0.2597  0.5801 -0.1231
 2278SOL    HW118467   2.333   0.307   1.373  0.3833  0.5565  3.5673
 2278SOL    HW218468   2.385   0.412   1.279 -1.2078 -0.7944 -0.6223
 2279SOL     OW18469   3.168   3.448   9.136 -0.2402 -0.4682  0.0340
 2279SOL    HW118470   3.164   3.492   9.221 -0.2891 -1.7063  0.6661
 2279SOL    HW218471   3.248   3.492   9.108  0.1147 -1.3054 -0.2794
 2280SOL     OW18472   2.340   1.093   2.370 -0.6358  0.2474  0.4107
 2280SOL    HW118473   2.376   1.181   2.361  1.5818 -0.7849 -0.6725
 2280SOL    HW218474   2.410   1.034   2.344 -1.3661 -0.0798 -0.8337
 2281SOL     OW18475   2.698   4.324   8.957 -0.9863 -0.0010  0.2131
 2281SOL    HW118476   2.769   4.261   8.971 -0.3329  0.8656  0.8437
 2281SOL    HW218477   2.627   4.310   9.019 -1.3575 -2.8019 -0.8481
 2282SOL     OW18478   0.692   2.068   4.931 -0.4836 -0.5371  0.1792
 2282SOL    HW118479   0.732   2.154   4.942 -0.1118 -0.7819  0.7799
 2282SOL    HW218480   0.718   2.037   5.018  0.3887 -0.0402  0.0887
 2283SOL     OW18481   4.494   0.460   8.233 -0.5030  0.1445 -0.6596
 2283SOL    HW118482   4.566   0.435   8.175 -1.5928  0.7088 -2.2652
 2283SOL    HW218483   4.537   0.525   8.289 -3.7230  2.1083 -0.4603
 2284SOL     OW18484   2.426   0.588  16.714  0.0609  0.3738  0.4224
 2284SOL    HW118485   2.396   0.571  16.625  0.9826  1.0425 -0.0194
 2284SOL    HW218486   2.504   0.642  16.704 -0.0733  0.6508  0.8360
 2285SOL     OW18487   1.618   2.689   8.162 -0.1086 -0.2346  0.0912
 2285SOL    HW118488   1.672   2.742   8.221  0.7469 -1.1251  0.1003
 2285SOL    HW218489   1.654   2.601   8.174 -0.5232 -0.2555  1.1768
 2286SOL     OW18490   2.803   3.697   8.855 -0.0563  0.0841  0.2112
 2286SOL    HW118491   2.747   3.643   8.801  0.0451  0.0358  0.1556
 2286SOL    HW218492   2.840   3.631   8.914 -0.1978  1.3818  1.7745
 2287SOL     OW18493   4.347   1.474  13.040  0.0790  0.0211 -0.0952
 2287SOL    HW118494   4.284   1.539  13.010 -0.2478 -0.4774 -0.4976
 2287SOL    HW218495   4.423   1.531  13.050  1.3633 -1.4610 -1.4626
 2288SOL     OW18496   3.109   3.936   3.191 -0.4198 -0.8275  0.2463
 2288SOL    HW118497   3.138   3.953   3.281 -0.5255  3.8979 -0.6384
 2288SOL    HW218498   3.170   3.869   3.161 -1.1311 -1.7503  0.8479
 2289SOL     OW18499   2.970   4.500   8.313  0.0240 -0.0358  0.6356
 2289SOL    HW118500   2.972   4.517   8.219 -0.4036 -1.4514  0.3677
 2289SOL    HW218501   2.915   4.571   8.347  2.8703  2.5652 -0.1808
 2290SOL     OW18502   4.511   4.574   6.047 -0.4684 -0.4101  0.4904
 2290SOL    HW118503   4.538   4.633   5.977 -1.7676  0.8737  1.0857
 2290SOL    HW218504   4.591   4.559   6.099 -1.6530  0.7232  2.6496
 2291SOL     OW18505   1.143   0.670  17.545 -0.2789  0.2640 -0.0783
 2291SOL    HW118506   1.185   0.696  17.627  0.6714 -0.4526 -0.3495
 2291SOL    HW218507   1.212   0.620  17.502 -0.1507  1.4754 -1.2709
 2292SOL     OW18508   0.571   4.501  17.591 -0.1679 -0.4057 -0.1922
 2292SOL    HW118509   0.613   4.505  17.505  0.8429 -0.1988  0.3198
 2292SOL    HW218510   0.645   4.478  17.646  1.3113  1.7704 -1.2625
 2293SOL     OW18511   3.406   4.527   0.258 -0.7347 -0.1761 -0.2464
 2293SOL    HW118512   3.485   4.578   0.275 -0.9933 -0.5310  2.0207
 2293SOL    HW218513   3.411   4.461   0.327 -0.5973  0.8895  0.7506
 2294SOL     OW18514   0.965   0.250   6.349 -0.2233 -0.1199  0.3815
 2294SOL    HW118515   1.008   0.306   6.415  1.0584  1.1338 -1.5334
 2294SOL    HW218516   0.874   0.259   6.378 -0.1088 -3.9145  1.9502
 2295SOL     OW18517   1.585   4.127  11.240 -0.3332  0.1264  0.1751
 2295SOL    HW118518   1.498   4.131  11.281 -0.2688 -0.1604  0.3440
 2295SOL    HW218519   1.648   4.068  11.282  2.3484  3.2343  0.4471
 2296SOL     OW18520   2.415   2.724   3.612 -0.2070  0.1664  0.1506
 2296SOL    HW118521   2.356   2.798   3.600  0.9456  1.3079  1.6170
 2296SOL    HW218522   2.421   2.728   3.707  0.4432 -0.3871  0.1317
 2297SOL     OW18523   2.009   4.215   8.001  0.3621 -0.0182 -0.4417
 2297SOL    HW118524   2.009   4.195   7.907 -0.4519 -1.9867 -0.0275
 2297SOL    HW218525   2.057   4.136   8.027 -0.5552 -1.3808 -2.8995
 2298SOL     OW18526   4.424   4.345   4.687  0.2515 -0.2004  0.3877
 2298SOL    HW118527   4.404   4.370   4.597 -1.8927 -1.0465  0.6454
 2298SOL    HW218528   4.342   4.305   4.713 -0.7104  0.5060 -1.5899
 2299SOL     OW18529   0.845   1.286   6.102 -0.0359  1.1804 -0.1836
 2299SOL    HW118530   0.768   1.235   6.127  1.0269 -1.2344 -1.8031
 2299SOL    HW218531   0.917   1.229   6.130 -0.3504  1.2173  0.6957
 2300SOL     OW18532   2.182   0.489  16.131  0.6044  0.3470 -0.3696
 2300SOL    HW118533   2.169   0.568  16.182  1.9556  1.2027 -1.3653
 2300SOL    HW218534   2.211   0.433  16.203 -2.5948 -0.8701  0.0050
 2301SOL     OW18535   2.307   0.391   6.107 -0.0592 -0.2410 -0.4562
 2301SOL    HW118536   2.313   0.342   6.189 -0.8145  0.9893  0.3348
 2301SOL    HW218537   2.313   0.480   6.142  0.6151 -0.0975 -0.9325
 2302SOL     OW18538   0.589   2.977  12.536 -0.6183  0.4102  0.2995
 2302SOL    HW118539   0.587   2.901  12.478  0.3661  0.2329  0.4846
 2302SOL    HW218540   0.556   2.941  12.618  0.0120  0.9861  0.8094
 2303SOL     OW18541   1.175   3.259  16.103  0.3593 -0.2532  0.4860
 2303SOL    HW118542   1.183   3.169  16.132  0.9801 -1.1157 -2.3635
 2303SOL    HW218543   1.257   3.267  16.054 -1.0887 -0.8486 -2.0678
 2304SOL     OW18544   2.236   1.462   6.680  0.2939 -0.0114  0.0223
 2304SOL    HW118545   2.316   1.410   6.684 -1.6808 -3.0196  0.7596
 2304SOL    HW218546   2.182   1.385   6.664 -0.8880  0.6721  0.7377
 2305SOL     OW18547   3.512   3.429   3.090  0.4182 -0.1303 -0.2206
 2305SOL    HW118548   3.565   3.500   3.054  2.1296 -0.5672  1.4818
 2305SOL    HW218549   3.567   3.351   3.080  1.0948  0.5113 -1.5071
 2306SOL     OW18550   2.010   1.016   1.314  0.3343  0.0376 -0.1269
 2306SOL    HW118551   1.917   1.033   1.303  0.2957 -1.0724 -1.4310
 2306SOL    HW218552   2.029   1.097   1.362 -1.1950 -0.3568  1.1404
 2307SOL     OW18553   3.906   3.714   4.421 -0.8276 -0.0379  0.3826
 2307SOL    HW118554   3.994   3.743   4.446 -0.4393  0.6269 -1.7761
 2307SOL    HW218555   3.923   3.629   4.379  1.2700  1.1399 -1.1306
 2308SOL     OW18556   2.236   2.468   6.842  0.3309  0.6400  0.2875
 2308SOL    HW118557   2.240   2.419   6.760 -0.2707 -1.1793  1.3484
 2308SOL    HW218558   2.142   2.488   6.835  0.4144 -0.0762 -2.5941
 2309SOL     OW18559   4.342   0.243   2.797  0.1826  0.2405  0.2987
 2309SOL    HW118560   4.359   0.154   2.828  1.8004 -0.2596 -2.0313
 2309SOL    HW218561   4.303   0.300   2.864 -1.7911  2.0113 -2.3377
 2310SOL     OW18562   2.391   1.976   3.536 -0.2400  0.0865  0.2659
 2310SOL    HW118563   2.436   1.964   3.452  0.3968  0.3943  0.5622
 2310SOL    HW218564   2.459   2.025   3.582 -0.9603 -0.0996  1.5125
 2311SOL     OW18565   1.529   1.270  14.709 -0.5024  0.0950  0.6956
 2311SOL    HW118566   1.567   1.241  14.792  0.7582 -1.7417 -0.5228
 2311SOL    HW218567   1.501   1.193  14.661 -2.1064  1.3220 -0.3563
 2312SOL     OW18568   3.857   1.442   4.457  0.5393 -0.0479 -0.3936
 2312SOL    HW118569   3.928   1.457   4.519  1.2927 -0.3911 -1.1648
 2312SOL    HW218570   3.898   1.390   4.388 -2.6041 -1.4272 -1.2525
 2313SOL     OW18571   3.981   2.009   2.422 -0.4282  0.7432  0.5420
 2313SOL    HW118572   3.894   2.034   2.391 -0.7104 -3.2914 -1.9273
 2313SOL    HW218573   4.004   2.091   2.465 -0.6857  0.9969  0.1971
 2314SOL     OW18574   2.829   0.248   7.213  0.5928 -0.8425 -0.7075
 2314SOL    HW118575   2.823   0.259   7.118  0.8162  0.4122 -0.5754
 2314SOL    HW218576   2.818   0.339   7.238 -1.8075 -0.6006 -2.7088
 2315SOL     OW18577   2.085   1.159   5.364 -0.0266 -0.2588  0.1973
 2315SOL    HW118578   2.179   1.146   5.376 -0.0770  0.8745  1.8210
 2315SOL    HW218579   2.075   1.120   5.278  0.1339  2.5926 -1.1294
 2316SOL     OW18580   0.487   0.865   1.923 -0.1135 -0.3366 -0.0823
 2316SOL    HW118581   0.461   0.926   1.991 -1.0377 -1.9358  1.0086
 2316SOL    HW218582   0.468   0.917   1.846  3.0627  0.3817 -0.3797
 2317SOL     OW18583   4.446   4.265  15.670 -0.7571  0.7705 -0.1114
 2317SOL    HW118584   4.410   4.180  15.644  0.5838  0.8505 -2.2334
 2317SOL    HW218585   4.427   4.252  15.763  2.1906 -2.2874  0.0655
 2318SOL     OW18586   1.387   1.482   7.359  0.0045  0.0215 -1.0387
 2318SOL    HW118587   1.453   1.439   7.414 -0.4219 -1.1122 -1.4042
 2318SOL    HW218588   1.316   1.418   7.348 -0.1838  0.3349 -1.6194
 2319SOL     OW18589   3.200   3.501   2.297  0.4851 -0.2644  0.0388
 2319SOL    HW118590   3.272   3.474   2.354  1.2283 -0.3695 -0.9580
 2319SOL    HW218591   3.251   3.531   2.221  1.4046 -0.9243  0.3899
 2320SOL     OW18592   3.012   1.881   3.838 -0.4789  0.1169  0.5248
 2320SOL    HW118593   2.925   1.842   3.848  1.3807 -4.0913  0.0185
 2320SOL    HW218594   2.988   1.966   3.800  1.1446  0.3415  0.0321
 2321SOL     OW18595   3.531   0.612   4.412  0.0870 -0.1443 -0.3355
 2321SOL    HW118596   3.499   0.562   4.337  0.1053  0.0525 -0.4769
 2321SOL    HW218597   3.547   0.701   4.378 -0.2379  0.5678  1.3561
 2322SOL     OW18598   4.068   3.352  11.670 -0.1533 -0.3512  0.4785
 2322SOL    HW118599   4.032   3.362  11.758 -0.4660 -0.7542  0.3962
 2322SOL    HW218600   3.996   3.393  11.622  0.6756  0.7092  0.1297
 2323SOL     OW18601   0.177   2.696   1.661 -0.4413 -0.1197  0.0861
 2323SOL    HW118602   0.227   2.748   1.723 -2.2425  2.3811 -0.5649
 2323SOL    HW218603   0.089   2.685   1.699 -0.0074 -2.6244  0.4193
 2324SOL     OW18604   1.288   4.609   2.947 -0.1016  0.3023  0.3353
 2324SOL    HW118605   1.290   4.560   3.029  1.2381  1.0253  0.7344
 2324SOL    HW218606   1.264   4.545   2.881 -0.1119 -2.6419  3.2061
 2325SOL     OW18607   4.646   4.310   5.375 -0.3302  0.0939  0.0589
 2325SOL    HW118608   4.687   4.373   5.317 -0.8366  1.8399  1.6061
 2325SOL    HW218609   4.670   4.358   5.454 -2.1264  0.1815  0.5573
 2326SOL     OW18610   3.236   2.413   3.268  0.2438 -0.2207 -0.2382
 2326SOL    HW118611   3.263   2.429   3.358  2.0253 -2.5051 -0.3862
 2326SOL    HW218612   3.317   2.378   3.231 -0.6250 -2.7924  0.2779
 2327SOL     OW18613   4.135   0.265  15.838  0.2423 -0.4694 -0.0482
 2327SOL    HW118614   4.058   0.308  15.800  0.1323 -0.1003  0.5876
 2327SOL    HW218615   4.162   0.215  15.760 -0.0673 -1.1096  0.2590
 2328SOL     OW18616   3.026   3.292   5.645  0.2170 -0.2938 -0.5942
 2328SOL    HW118617   2.975   3.250   5.714  1.9462 -0.1464  0.7506
 2328SOL    HW218618   3.111   3.250   5.659 -0.0475 -0.3892  0.7182
 2329SOL     OW18619   3.377   1.099  16.699 -0.1042 -0.1977 -0.6670
 2329SOL    HW118620   3.430   1.021  16.684 -0.1086 -0.2559 -0.3808
 2329SOL    HW218621   3.442   1.168  16.704 -0.7117  0.1791  1.9428
 2330SOL     OW18622   0.105   2.380   7.795 -0.8033 -0.2626 -0.2835
 2330SOL    HW118623   0.109   2.472   7.820 -0.2960  0.0223 -1.4111
 2330SOL    HW218624   0.168   2.346   7.859  0.4788 -1.3631 -2.1398
 2331SOL     OW18625   4.609   4.104   7.113 -0.7584  0.2461 -0.2507
 2331SOL    HW118626   4.700   4.131   7.123  0.0118 -1.4161 -2.9187
 2331SOL    HW218627   4.622   4.011   7.130 -0.8098  0.4202  0.7382
 2332SOL     OW18628   2.804   1.528   4.072 -0.3268 -0.8463 -0.0174
 2332SOL    HW118629   2.868   1.529   4.001  2.8517 -1.1845  2.8029
 2332SOL    HW218630   2.736   1.592   4.050 -0.0710 -0.3227  0.6835
 2333SOL     OW18631   2.903   4.321   3.580  0.2534  0.4903 -0.1748
 2333SOL    HW118632   2.892   4.401   3.632 -1.2991  0.4855 -0.5051
 2333SOL    HW218633   2.815   4.284   3.572 -0.1479  0.8571  2.4022
 2334SOL     OW18634   0.840   2.325   4.573  0.4328  0.3504 -0.3500
 2334SOL    HW118635   0.818   2.344   4.664 -0.4123  0.5660 -0.5936
 2334SOL    HW218636   0.782   2.250   4.557  0.0072  0.6377 -0.1776
 2335SOL     OW18637   1.040   3.908   3.306 -0.2423  0.2368 -0.1424
 2335SOL    HW118638   0.979   3.970   3.266  0.1796  1.1967  0.7060
 2335SOL    HW218639   1.065   3.851   3.233 -1.0962 -0.2848 -0.0334
 2336SOL     OW18640   3.376   2.694   8.853 -0.3460 -0.2903 -0.2010
 2336SOL    HW118641   3.367   2.687   8.758 -0.8193 -0.1592 -0.1681
 2336SOL    HW218642   3.425   2.615   8.874 -1.6728 -0.9715  0.3230
 2337SOL     OW18643   0.035   3.354   9.150  0.5959  0.0389  0.2162
 2337SOL    HW118644   0.050   3.273   9.102 -1.2343  0.1461 -0.5281
 2337SOL    HW218645   0.102   3.353   9.219  1.0472 -1.1565 -0.2380
 2338SOL     OW18646   3.884   0.046   8.969 -0.4089  0.4025 -0.0939
 2338SOL    HW118647   3.956   4.730   9.007 -2.0549 -0.2320  2.2131
 2338SOL    HW218648   3.933   0.125   8.946  1.1018 -0.3495  0.4821
 2339SOL     OW18649   0.575   1.005   0.066  0.0399  0.3342  0.2915
 2339SOL    HW118650   0.529   0.992  17.722  0.7292  0.7563 -0.1550
 2339SOL    HW218651   0.534   0.935   0.117  1.3752  1.4586  2.8658
 2340SOL     OW18652   4.132   2.839  12.085  0.4870  0.1454  0.3424
 2340SOL    HW118653   4.140   2.770  12.151  0.1176  1.7840  2.1104
 2340SOL    HW218654   4.218   2.825  12.046  0.6204 -1.0527  1.0660
 2341SOL     OW18655   1.864   0.382  12.262  0.1372  0.3588 -0.0106
 2341SOL    HW118656   1.883   0.472  12.234  1.4276 -0.8475 -2.9458
 2341SOL    HW218657   1.885   0.324  12.189 -2.2482 -1.0887  0.4589
 2342SOL     OW18658   1.485   3.782   3.651  0.4988  0.3601 -0.4938
 2342SOL    HW118659   1.413   3.785   3.588 -0.0478  1.2256  0.1692
 2342SOL    HW218660   1.443   3.776   3.738  0.4415 -1.4686 -0.6347
 2343SOL     OW18661   2.777   3.994   4.430  0.0352 -0.1279 -0.0775
 2343SOL    HW118662   2.762   4.053   4.356 -2.7239 -0.9104 -0.1553
 2343SOL    HW218663   2.788   4.049   4.508  0.5074 -1.8850  1.0962
 2344SOL     OW18664   1.328   1.512   7.021  0.4361 -0.0306 -0.0577
 2344SOL    HW118665   1.409   1.524   7.069  0.1193 -0.9249  0.6884
 2344SOL    HW218666   1.350   1.446   6.956  0.8432  2.4095 -2.3870
 2345SOL     OW18667   0.023   0.324   1.238 -0.1356 -0.2567 -0.0769
 2345SOL    HW118668   4.711   0.264   1.179  0.5614 -0.3315 -0.5635
 2345SOL    HW218669   4.724   0.284   1.318 -1.3300  0.1161 -0.4016
 2346SOL     OW18670   3.595   1.883   3.737  0.1117  0.1343 -0.1566
 2346SOL    HW118671   3.502   1.892   3.719  0.1358  1.5134  0.3970
 2346SOL    HW218672   3.610   1.964   3.784 -2.1818  0.8142 -0.6157
 2347SOL     OW18673   2.376   2.644   4.171 -0.1378  0.8326  0.2132
 2347SOL    HW118674   2.377   2.664   4.078 -1.0264 -0.3450 -0.0401
 2347SOL    HW218675   2.289   2.609   4.188 -0.1050  0.4110 -0.5362
 2348SOL     OW18676   2.220   3.335  15.548  0.2676 -0.2880  0.4518
 2348SOL    HW118677   2.234   3.244  15.523 -0.5888  0.1839 -1.7891
 2348SOL    HW218678   2.128   3.321  15.573 -0.7251  1.5682 -2.0570
 2349SOL     OW18679   2.770   3.662   3.079 -0.0779 -0.1069 -0.6094
 2349SOL    HW118680   2.717   3.591   3.115  1.0140 -0.5093  0.2194
 2349SOL    HW218681   2.826   3.608   3.023 -0.3534 -0.7067 -0.3000
 2350SOL     OW18682   1.031   3.436  12.104  0.1205 -0.2910 -0.6008
 2350SOL    HW118683   1.020   3.474  12.017  1.7513  1.0860 -0.1969
 2350SOL    HW218684   1.002   3.514  12.150  1.1913 -0.6358  0.6489
 2351SOL     OW18685   3.242   1.374   7.908 -0.8198  0.1824  0.4401
 2351SOL    HW118686   3.303   1.439   7.874 -0.2537  0.1818  1.4532
 2351SOL    HW218687   3.297   1.296   7.902  0.7758  1.1862  2.0509
 2352SOL     OW18688   1.818   4.141   3.138 -0.2251  0.0124  0.1236
 2352SOL    HW118689   1.750   4.208   3.132  1.6362  1.9447  0.5050
 2352SOL    HW218690   1.769   4.070   3.178 -1.1421 -0.1510 -1.2695
 2353SOL     OW18691   4.660   2.064   5.391  0.1341 -0.4080  0.3750
 2353SOL    HW118692   4.604   2.087   5.465 -0.7186 -1.7238  0.1276
 2353SOL    HW218693   0.005   2.032   5.433 -0.2923 -0.5707  1.0581
 2354SOL     OW18694   3.583   2.850   2.561  0.0034  0.1145 -0.6620
 2354SOL    HW118695   3.490   2.831   2.574  0.4288 -2.0374 -0.7721
 2354SOL    HW218696   3.581   2.938   2.523 -1.7537  0.2228 -0.2805
 2355SOL     OW18697   3.780   2.825   6.534 -0.3818 -0.6648 -0.0050
 2355SOL    HW118698   3.867   2.795   6.510 -0.2626 -0.6668  0.4295
 2355SOL    HW218699   3.782   2.806   6.628  0.4712  0.9841  0.3191
 2356SOL     OW18700   0.520   3.547   7.947  0.1080  0.2135 -0.3307
 2356SOL    HW118701   0.587   3.588   8.002  0.7092 -1.0705 -0.1133
 2356SOL    HW218702   0.570   3.496   7.883  0.3156  1.2585 -1.0069
 2357SOL     OW18703   1.956   0.777   6.952 -0.2374 -0.0211  0.9347
 2357SOL    HW118704   1.902   0.738   6.884 -1.8980 -0.2673  2.4004
 2357SOL    HW218705   2.016   0.706   6.975  1.0375  0.9273  0.5286
 2358SOL     OW18706   3.192   1.402   6.843 -0.1103 -0.1831  0.4336
 2358SOL    HW118707   3.167   1.494   6.846 -0.0166 -0.1528  0.3179
 2358SOL    HW218708   3.271   1.400   6.789 -1.0682  0.5089 -0.9735
 2359SOL     OW18709   0.848   0.940   8.198 -0.2720 -0.1815 -0.6273
 2359SOL    HW118710   0.885   0.901   8.119  0.5513  0.1033 -0.3747
 2359SOL    HW218711   0.802   0.865   8.236 -0.2132 -0.5974 -1.3910
 2360SOL     OW18712   2.085   2.913   4.724  0.3051 -0.7389  0.2821
 2360SOL    HW118713   2.132   2.955   4.652 -1.0907  1.9192  0.8998
 2360SOL    HW218714   2.132   2.832   4.742  3.3960  0.4435 -2.4094
 2361SOL     OW18715   0.867   3.646   6.675 -0.3997 -0.2253  0.4553
 2361SOL    HW118716   0.809   3.619   6.604 -1.4062 -0.4957  1.3797
 2361SOL    HW218717   0.900   3.557   6.690  0.4291  0.1797  1.0137
 2362SOL     OW18718   3.496   3.836  15.965  0.6407 -0.0743 -0.0534
 2362SOL    HW118719   3.479   3.774  16.036 -0.4152 -0.3254 -0.5235
 2362SOL    HW218720   3.410   3.878  15.968  1.3543  1.3119  0.5588
 2363SOL     OW18721   0.629   3.874   3.161  0.0852 -0.2066 -0.3967
 2363SOL    HW118722   0.645   3.838   3.249  0.1422 -0.5232 -0.5383
 2363SOL    HW218723   0.667   3.799   3.116 -0.1371  0.2468 -1.3381
 2364SOL     OW18724   2.096   2.994   3.094  0.1049 -0.2583  0.6465
 2364SOL    HW118725   2.192   2.994   3.091  0.1458 -0.4440  1.8037
 2364SOL    HW218726   2.078   2.952   3.178  1.9226  2.0257  2.2003
 2365SOL     OW18727   2.866   3.856   2.890 -0.4714  0.5330  0.1375
 2365SOL    HW118728   2.818   3.808   2.958 -0.6741  0.0639 -0.3306
 2365SOL    HW218729   2.843   3.797   2.818 -3.1749  1.1233  0.5129
 2366SOL     OW18730   1.675   4.559   1.427  0.3425 -0.0019  0.7322
 2366SOL    HW118731   1.675   4.645   1.470  0.1765 -1.4399  3.5923
 2366SOL    HW218732   1.661   4.578   1.334  0.1672 -0.1580  0.7275
 2367SOL     OW18733   2.376   1.865  10.022 -0.5861 -0.4265  0.1982
 2367SOL    HW118734   2.436   1.913   9.966  0.0299  0.5127  1.6494
 2367SOL    HW218735   2.297   1.864   9.968 -0.5540 -1.8676  0.1632
 2368SOL     OW18736   1.093   1.319   5.871  0.2213 -0.1802  0.1195
 2368SOL    HW118737   1.015   1.375   5.876  0.1996 -0.0920 -1.0034
 2368SOL    HW218738   1.111   1.340   5.779  1.3460 -0.8827  0.1858
 2369SOL     OW18739   0.552   2.272  10.362  0.4628  0.1179  0.0814
 2369SOL    HW118740   0.505   2.224  10.430  0.1707  1.5897  0.9269
 2369SOL    HW218741   0.531   2.366  10.363 -0.0895 -0.0067  0.1222
 2370SOL     OW18742   0.025   0.079   2.358 -0.4006  0.3265  0.2437
 2370SOL    HW118743   0.021   0.039   2.271 -3.4859  2.2579 -0.5105
 2370SOL    HW218744   4.666   0.091   2.371 -0.8602  1.0735 -4.0153
 2371SOL     OW18745   3.264   2.807   7.882 -0.0157  0.0447  0.0459
 2371SOL    HW118746   3.238   2.772   7.967  1.9370  1.0054  1.0562
 2371SOL    HW218747   3.255   2.902   7.891 -1.1323 -0.0167 -0.4810
 2372SOL     OW18748   3.743   1.646   1.867  0.3115 -0.6457  0.2173
 2372SOL    HW118749   3.657   1.680   1.892 -0.2018 -2.0817  0.3627
 2372SOL    HW218750   3.779   1.668   1.953  1.4864 -0.3679 -0.3473
 2373SOL     OW18751   4.538   0.477  10.286 -0.3691  0.8480 -0.2406
 2373SOL    HW118752   4.513   0.475  10.193 -1.9784 -0.6405  0.2432
 2373SOL    HW218753   4.617   0.530  10.271  0.0290  0.4577  0.4901
 2374SOL     OW18754   4.207   0.080   8.995  0.7325 -0.2828  0.1051
 2374SOL    HW118755   4.167   4.728   9.005  0.9928 -0.6090 -1.6587
 2374SOL    HW218756   4.301   0.063   8.995  0.7510 -0.1815 -0.1349
 2375SOL     OW18757   1.191   3.100   4.885  0.5608 -0.3978  0.2177
 2375SOL    HW118758   1.255   3.114   4.955  1.0120  0.3148 -0.3460
 2375SOL    HW218759   1.152   3.186   4.872  0.6488 -0.6244 -1.5050
 2376SOL     OW18760   0.750   3.612   9.163  0.5266 -0.2775  0.3633
 2376SOL    HW118761   0.716   3.681   9.220  1.9037 -1.5196  2.7151
 2376SOL    HW218762   0.716   3.529   9.198  0.3695 -0.9702 -1.4490
 2377SOL     OW18763   1.577   3.105   8.817 -0.3756 -0.1438 -0.1859
 2377SOL    HW118764   1.616   3.192   8.809  0.0605 -0.2871  0.3828
 2377SOL    HW218765   1.485   3.122   8.798 -0.7637 -3.0229 -0.8533
 2378SOL     OW18766   1.873   3.095  10.639  0.5186  0.2003 -0.4842
 2378SOL    HW118767   1.784   3.060  10.644  0.3507  0.6354 -0.3917
 2378SOL    HW218768   1.928   3.024  10.671  0.1808  1.3028  2.5801
 2379SOL     OW18769   1.341   1.405   0.867  0.2291  0.6421  0.1625
 2379SOL    HW118770   1.374   1.464   0.799  0.8814 -0.9765 -0.9241
 2379SOL    HW218771   1.389   1.434   0.944 -3.0861  3.2911  1.2297
 2380SOL     OW18772   4.149   3.833   5.836 -0.3836 -0.3101 -0.3799
 2380SOL    HW118773   4.118   3.744   5.817  1.8740 -0.6609 -2.5282
 2380SOL    HW218774   4.228   3.818   5.889  0.0181  0.4466 -0.7591
 2381SOL     OW18775   4.484   4.568   6.964  0.3708  0.2679 -0.0224
 2381SOL    HW118776   4.398   4.532   6.986  0.6153 -1.0566 -1.2690
 2381SOL    HW218777   4.474   4.596   6.873 -1.8536  1.0037  0.4368
 2382SOL     OW18778   1.737   1.250   5.358  0.3549 -0.2440  0.3462
 2382SOL    HW118779   1.678   1.297   5.416 -0.1571  1.1338 -1.2902
 2382SOL    HW218780   1.818   1.250   5.408 -1.4076 -0.9064  3.2049
 2383SOL     OW18781   2.513   1.719  15.813 -0.3408 -0.0067  0.4499
 2383SOL    HW118782   2.532   1.648  15.750 -3.1080 -0.1099 -0.2791
 2383SOL    HW218783   2.604   1.740  15.830  0.0238 -0.1958 -1.2078
 2384SOL     OW18784   0.066   4.018   3.435 -0.5711 -0.1042 -0.2873
 2384SOL    HW118785   0.105   4.100   3.467 -1.3951  0.1358  0.0911
 2384SOL    HW218786   4.729   4.010   3.498  1.9435  1.4798  2.8307
 2385SOL     OW18787   3.541   1.390   4.354  0.6788  0.1872 -0.7099
 2385SOL    HW118788   3.468   1.402   4.415  0.2829 -2.2774 -0.7305
 2385SOL    HW218789   3.612   1.408   4.417  0.4347 -1.8998  0.1615
 2386SOL     OW18790   4.415   2.416   2.147 -0.3781  0.1983 -0.4409
 2386SOL    HW118791   4.415   2.499   2.193  0.1397 -1.9066  3.3175
 2386SOL    HW218792   4.506   2.392   2.163 -0.5604  0.5303  1.0780
 2387SOL     OW18793   3.947   1.068   4.605 -0.3847  0.2188 -0.4196
 2387SOL    HW118794   4.007   1.025   4.666 -1.3002  0.4740  0.6499
 2387SOL    HW218795   3.998   1.136   4.559 -0.0217 -0.7669 -1.4698
 2388SOL     OW18796   0.718   3.582  16.172  0.0948 -0.0869 -0.0771
 2388SOL    HW118797   0.721   3.675  16.194  2.8060 -0.0432 -0.6833
 2388SOL    HW218798   0.795   3.556  16.222 -0.1761 -2.2376 -0.7651
 2389SOL     OW18799   2.143   0.856   8.901 -0.4814 -0.1841 -0.4751
 2389SOL    HW118800   2.059   0.895   8.874 -0.5229 -1.7213 -2.5460
 2389SOL    HW218801   2.129   0.836   8.994  0.0414  2.1339  0.1042
 2390SOL     OW18802   2.797   3.761  12.357 -0.5816 -0.3304 -0.1178
 2390SOL    HW118803   2.791   3.823  12.284 -0.5209  0.3106  0.4247
 2390SOL    HW218804   2.839   3.680  12.327  0.0944 -0.3025  0.7692
 2391SOL     OW18805   4.016   2.413   7.579 -0.1028  0.0890  0.5635
 2391SOL    HW118806   3.936   2.447   7.621  0.3856 -0.4706  1.9532
 2391SOL    HW218807   4.081   2.413   7.649  0.2817 -1.7295  0.1996
 2392SOL     OW18808   0.155   0.491  17.405  0.6526  0.7222  0.3038
 2392SOL    HW118809   0.082   0.431  17.386  1.1603  0.5683 -1.1449
 2392SOL    HW218810   0.223   0.442  17.358  1.4664  0.7768  1.4232
 2393SOL     OW18811   2.970   1.241  13.017  0.3362 -0.1978  0.1993
 2393SOL    HW118812   2.874   1.237  13.011  0.5098 -1.5956 -1.8254
 2393SOL    HW218813   2.980   1.334  13.036  1.2149 -0.3685  0.5628
 2394SOL     OW18814   2.882   2.260  16.901 -0.4762 -0.5760 -0.0154
 2394SOL    HW118815   2.828   2.324  16.856  0.8316  0.2051 -0.4666
 2394SOL    HW218816   2.813   2.209  16.944 -1.5646  0.5657 -0.4226
 2395SOL     OW18817   2.754   3.295  15.853 -0.6375 -0.3424 -0.0988
 2395SOL    HW118818   2.700   3.257  15.922  0.7622 -2.4328 -0.1782
 2395SOL    HW218819   2.721   3.385  15.849 -0.9589 -0.4926 -0.9458
 2396SOL     OW18820   1.244   1.685   6.667 -0.0388 -0.7155 -0.0637
 2396SOL    HW118821   1.245   1.605   6.720  4.1315  1.5514  3.2404
 2396SOL    HW218822   1.256   1.746   6.739 -1.3145  1.8087 -2.0020
 2397SOL     OW18823   3.166   2.935   2.799  0.2081 -0.0773  0.2645
 2397SOL    HW118824   3.124   2.868   2.852 -0.0573 -0.0229  0.1230
 2397SOL    HW218825   3.085   2.981   2.778  1.0995  1.9585  1.3797
 2398SOL     OW18826   1.007   4.418  16.973 -0.0036 -0.5703 -0.3138
 2398SOL    HW118827   1.043   4.362  16.903 -1.4480  1.0539 -2.3475
 2398SOL    HW218828   1.011   4.497  16.919 -0.7250  0.3669  1.0320
 2399SOL     OW18829   2.337   3.951   4.167 -0.7546 -0.0168  0.0531
 2399SOL    HW118830   2.421   3.933   4.208 -0.8259 -1.9391 -0.6787
 2399SOL    HW218831   2.371   4.010   4.101 -0.8197  0.5898  0.5554
 2400SOL     OW18832   3.783   4.454  15.964  0.5586 -0.0187  0.5543
 2400SOL    HW118833   3.780   4.379  15.905  2.1257  0.7625 -0.5416
 2400SOL    HW218834   3.691   4.467  15.989  0.8609 -1.4380  2.3566
 2401SOL     OW18835   0.504   0.114   3.258 -0.8418  0.1621 -0.6753
 2401SOL    HW118836   0.509   0.036   3.202 -2.7592  0.4035 -1.1565
 2401SOL    HW218837   0.447   0.072   3.323 -2.5243  1.0307 -1.6006
 2402SOL     OW18838   4.420   2.925   3.646 -0.0608 -0.0736 -0.0181
 2402SOL    HW118839   4.471   2.845   3.640 -0.5668 -0.3917 -0.1077
 2402SOL    HW218840   4.362   2.921   3.569 -0.6602  1.5213  0.3404
 2403SOL     OW18841   3.921   2.819   5.557 -0.2730 -0.0277 -0.2451
 2403SOL    HW118842   3.979   2.893   5.542  0.7217 -0.7433  0.1096
 2403SOL    HW218843   3.958   2.754   5.498 -3.7089 -0.5684 -1.7883
 2404SOL     OW18844   3.250   1.450   5.253  0.3655 -0.0562  0.6712
 2404SOL    HW118845   3.265   1.431   5.160 -2.7670  1.8616 -0.2260
 2404SOL    HW218846   3.255   1.366   5.299 -1.1693 -0.9607 -0.8012
 2405SOL     OW18847   3.419   3.483  13.848 -0.4503  0.9668 -0.1294
 2405SOL    HW118848   3.498   3.502  13.899 -0.3426  1.6679 -0.5498
 2405SOL    HW218849   3.450   3.518  13.765  1.4137 -2.2601 -0.7855
 2406SOL     OW18850   0.794   3.590  17.098  0.2703  0.2132  0.3200
 2406SOL    HW118851   0.711   3.631  17.074  0.0685  0.5775  1.6309
 2406SOL    HW218852   0.849   3.669  17.092  1.4668 -0.4605  2.4636
 2407SOL     OW18853   3.420   2.366   5.290  0.1370 -0.0479 -0.0913
 2407SOL    HW118854   3.490   2.302   5.280 -0.5951 -0.9309  0.4366
 2407SOL    HW218855   3.421   2.375   5.386  1.3687  1.1559 -0.2180
 2408SOL     OW18856   3.992   1.519   7.484 -0.2184  0.0735 -0.0290
 2408SOL    HW118857   3.928   1.578   7.445 -2.5801 -2.4501 -0.0045
 2408SOL    HW218858   3.933   1.453   7.522  1.1600 -1.0680  0.1159
 2409SOL     OW18859   0.781   1.652   6.212  0.0711  0.0584  0.0220
 2409SOL    HW118860   0.841   1.726   6.208  0.5130 -0.3050  0.0074
 2409SOL    HW218861   0.795   1.615   6.299  1.1189 -0.9378 -0.5718
 2410SOL     OW18862   0.292   3.462   9.607  0.4362 -0.5750 -0.1091
 2410SOL    HW118863   0.258   3.464   9.696  2.3892 -2.2429  0.6707
 2410SOL    HW218864   0.384   3.444   9.625  0.3814 -0.8169 -0.0775
 2411SOL     OW18865   4.387   2.477   5.910 -0.4214 -0.2408  0.2762
 2411SOL    HW118866   4.482   2.481   5.917 -0.2632 -0.0551 -2.0439
 2411SOL    HW218867   4.370   2.383   5.925 -0.6134  0.2479  3.0904
 2412SOL     OW18868   1.835   0.761   2.194  0.0802  0.1076 -0.0547
 2412SOL    HW118869   1.874   0.674   2.199  0.3852  0.2067 -0.7294
 2412SOL    HW218870   1.910   0.816   2.170 -1.6214  1.5246 -2.0511
 2413SOL     OW18871   3.411   0.697   4.084 -0.1302 -0.8393  0.0280
 2413SOL    HW118872   3.369   0.673   4.167  0.8550 -2.1140  0.1643
 2413SOL    HW218873   3.337   0.730   4.033  0.6075  0.3801 -0.2722
 2414SOL     OW18874   0.887   0.972   5.487 -0.1974 -0.3568 -0.4159
 2414SOL    HW118875   0.806   1.016   5.513 -1.7150 -3.1360 -0.4976
 2414SOL    HW218876   0.841   0.888   5.482 -1.2352  0.1744  0.1997
 2415SOL     OW18877   0.533   0.456   8.863  0.2322 -0.6439  0.1235
 2415SOL    HW118878   0.518   0.532   8.806  1.2447 -1.6939 -1.5419
 2415SOL    HW218879   0.448   0.460   8.907  0.4605  0.5563  0.4651
 2416SOL     OW18880   4.433   1.507  10.845 -0.5585  0.7334 -0.3600
 2416SOL    HW118881   4.460   1.594  10.875  2.3060 -0.1456 -0.4173
 2416SOL    HW218882   4.455   1.454  10.922 -1.7821  1.3809  0.4398
 2417SOL     OW18883   1.305   4.652   6.889 -0.2581  0.4695 -0.0726
 2417SOL    HW118884   1.224   4.602   6.901  0.0121  0.0476 -0.0079
 2417SOL    HW218885   1.329   4.668   6.981  0.7996 -1.3500 -0.0375
 2418SOL     OW18886   4.613   1.775   7.549  0.6877  0.5802 -0.5160
 2418SOL    HW118887   4.604   1.681   7.565  0.9623  0.7521  0.6424
 2418SOL    HW218888   4.545   1.814   7.605 -0.7533  1.0914 -2.6218
 2419SOL     OW18889   2.806   4.186  16.710  0.4372  0.1814  0.3026
 2419SOL    HW118890   2.841   4.097  16.716 -1.0697 -0.0687  5.1561
 2419SOL    HW218891   2.840   4.247  16.775  1.9631  0.6037 -0.8969
 2420SOL     OW18892   1.510   3.576   1.168  1.0429  0.1438 -0.0196
 2420SOL    HW118893   1.586   3.546   1.219  0.0119 -1.2018  0.7385
 2420SOL    HW218894   1.448   3.559   1.238  2.1853 -2.4078  0.3807
 2421SOL     OW18895   3.277   2.875   7.080  0.2217 -0.2708 -0.2740
 2421SOL    HW118896   3.273   2.917   7.166  1.3205 -1.5725  0.4206
 2421SOL    HW218897   3.191   2.887   7.040 -0.8080  2.5699  2.7764
 2422SOL     OW18898   3.543   4.233  10.727  0.3210 -0.2743 -0.0125
 2422SOL    HW118899   3.525   4.263  10.816  1.1858  0.0194  0.0620
 2422SOL    HW218900   3.634   4.252  10.707 -0.2629  2.1163 -0.4634
 2423SOL     OW18901   0.325   1.298   2.993  0.0448 -0.3194 -0.2771
 2423SOL    HW118902   0.331   1.362   3.064 -0.7340  2.0815 -2.3712
 2423SOL    HW218903   0.377   1.222   3.019 -0.7518 -0.2160  1.6091
 2424SOL     OW18904   0.549   1.874   6.093  0.2524 -0.1270 -0.7410
 2424SOL    HW118905   0.621   1.862   6.031  1.0431 -0.7367  0.3019
 2424SOL    HW218906   0.475   1.828   6.053 -1.0007 -0.2268  1.6857
 2425SOL     OW18907   2.307   2.991  11.810  0.1357  0.3720 -0.0112
 2425SOL    HW118908   2.339   3.014  11.897 -1.4695  1.1081  0.3742
 2425SOL    HW218909   2.367   3.030  11.746  0.9529 -2.6848 -1.0959
 2426SOL     OW18910   2.925   2.808   4.550 -0.0844  0.1590 -0.1291
 2426SOL    HW118911   2.984   2.766   4.487  0.9348  0.4558  0.6472
 2426SOL    HW218912   2.879   2.879   4.505 -0.0639  0.3179  0.1063
 2427SOL     OW18913   1.884   0.608   6.736 -0.4491  0.0936  0.8585
 2427SOL    HW118914   1.820   0.607   6.665  0.5307 -2.6787  0.0128
 2427SOL    HW218915   1.895   0.514   6.749  0.7458  0.4682  2.5480
 2428SOL     OW18916   1.040   2.466   2.327  0.7755 -0.1229  0.0660
 2428SOL    HW118917   1.065   2.379   2.296  1.1080  1.1476 -3.2619
 2428SOL    HW218918   0.952   2.452   2.363 -0.2386  0.7316 -2.0484
 2429SOL     OW18919   2.912   4.054   5.581  0.0509  0.6857  0.5967
 2429SOL    HW118920   2.893   4.028   5.671  0.1373  3.1304  1.3132
 2429SOL    HW218921   2.978   4.122   5.592 -1.0011  1.8517 -0.2540
 2430SOL     OW18922   1.850   4.216   7.517  0.2382 -0.3357  0.5098
 2430SOL    HW118923   1.881   4.270   7.445 -1.5112  0.5343  0.4132
 2430SOL    HW218924   1.797   4.275   7.571  0.0565 -1.0774  1.1433
 2431SOL     OW18925   3.189   4.652   4.874 -0.0762 -0.8498 -0.3906
 2431SOL    HW118926   3.168   4.559   4.875 -3.6755 -0.0133 -0.0199
 2431SOL    HW218927   3.178   4.671   4.968  0.7097 -0.6665 -0.3342
 2432SOL     OW18928   0.461   2.860   3.138 -0.3465  0.0601 -0.1990
 2432SOL    HW118929   0.525   2.816   3.082  0.9098 -0.8298  1.9259
 2432SOL    HW218930   0.453   2.945   3.095 -0.8466 -1.5180 -3.2743
 2433SOL     OW18931   1.560   4.072   3.014 -0.0918 -0.8117 -0.5010
 2433SOL    HW118932   1.626   4.036   2.955 -0.3795 -0.9669 -0.7257
 2433SOL    HW218933   1.556   4.021   3.095  0.2817  0.6634  0.4496
 2434SOL     OW18934   4.181   0.739   4.923 -0.0134 -0.0532  0.1684
 2434SOL    HW118935   4.174   0.834   4.931 -0.9919 -0.1774  0.7362
 2434SOL    HW218936   4.125   0.721   4.998  1.1814 -3.2199  0.3162
 2435SOL     OW18937   2.490   3.276   8.648  0.2398  0.4787  0.0952
 2435SOL    HW118938   2.466   3.243   8.734 -0.3874  0.3992 -0.1028
 2435SOL    HW218939   2.506   3.197   8.597 -0.3109  0.8181 -0.6083
 2436SOL     OW18940   2.186   2.146   3.683  0.6022  0.1453 -0.1284
 2436SOL    HW118941   2.217   2.231   3.651 -1.9845  0.8425 -0.7972
 2436SOL    HW218942   2.234   2.081   3.632  0.2560 -0.3636  0.1925
 2437SOL     OW18943   4.350   1.055   5.358 -0.1590 -0.3896 -0.2319
 2437SOL    HW118944   4.430   1.041   5.308 -0.1837 -0.9969 -0.1063
 2437SOL    HW218945   4.361   0.978   5.415 -0.6342  1.1876  2.0229
 2438SOL     OW18946   4.291   1.033   4.391  0.0429 -0.0876  0.0705
 2438SOL    HW118947   4.240   1.093   4.446 -0.7839  0.4571 -1.2879
 2438SOL    HW218948   4.316   1.094   4.322  1.5139  0.2594  0.9128
 2439SOL     OW18949   0.488   3.876   3.926 -0.5147 -0.3009  0.4817
 2439SOL    HW118950   0.449   3.926   3.998  0.0840 -0.5735  1.0016
 2439SOL    HW218951   0.416   3.888   3.864 -0.2860 -0.8611  0.1095
 2440SOL     OW18952   3.758   4.545   8.899  0.5919  0.1331  0.0688
 2440SOL    HW118953   3.788   4.635   8.916 -0.7424  0.5831  0.1064
 2440SOL    HW218954   3.788   4.538   8.808  0.0390  2.5744 -0.3189
 2441SOL     OW18955   3.585   4.689  17.122 -0.2907  0.1144  0.0881
 2441SOL    HW118956   3.673   4.702  17.158 -0.6560  0.0167  1.0142
 2441SOL    HW218957   3.606   4.636  17.045 -0.8313  1.4947 -1.0100
 2442SOL     OW18958   1.606   0.302   1.286  0.3137  0.2174 -0.5136
 2442SOL    HW118959   1.540   0.287   1.354  1.3960 -0.7343  0.3293
 2442SOL    HW218960   1.598   0.219   1.240  2.3805 -1.2495  1.7607
 2443SOL     OW18961   3.938   2.241   6.899 -0.2025 -0.2971  0.2875
 2443SOL    HW118962   3.999   2.196   6.957  0.3570  0.9482  0.6671
 2443SOL    HW218963   3.894   2.168   6.856  1.9300 -2.1126  1.1871
 2444SOL     OW18964   4.350   4.037   3.484  0.4159  0.4529  0.2123
 2444SOL    HW118965   4.283   4.001   3.543  1.3507  1.7770  2.0673
 2444SOL    HW218966   4.298   4.038   3.404  0.5554 -3.3585  0.0823
 2445SOL     OW18967   0.910   1.121  17.649  0.5124  0.2047  0.0442
 2445SOL    HW118968   0.846   1.051  17.663  0.6265 -0.2474 -1.6615
 2445SOL    HW218969   0.947   1.095  17.564  1.5571 -0.8736  0.8302
 2446SOL     OW18970   2.742   4.285   2.217  0.5908 -0.5435  0.5568
 2446SOL    HW118971   2.723   4.191   2.219 -2.6692  0.1313  1.0844
 2446SOL    HW218972   2.790   4.286   2.300  2.1036  0.2186 -0.3334
 2447SOL     OW18973   3.080   0.432   6.443  0.1451 -0.2226  0.1072
 2447SOL    HW118974   3.067   0.368   6.373  2.3915 -0.4154 -0.1174
 2447SOL    HW218975   3.165   0.467   6.418 -0.5784  0.3482 -1.5833
 2448SOL     OW18976   0.435   0.272   7.302  0.0369 -0.6930 -0.1090
 2448SOL    HW118977   0.392   0.187   7.302  2.0738 -1.7383  0.3431
 2448SOL    HW218978   0.422   0.300   7.392 -1.2926  0.3945 -0.6397
 2449SOL     OW18979   4.148   2.656   2.142 -0.3414 -0.0567 -0.0853
 2449SOL    HW118980   4.095   2.598   2.087 -0.9926 -0.4176  0.9110
 2449SOL    HW218981   4.126   2.621   2.228 -0.3004 -0.8647 -0.3951
 2450SOL     OW18982   2.670   4.014   2.298 -0.4306  0.2483 -0.0178
 2450SOL    HW118983   2.730   3.949   2.334 -1.1459 -0.3100  0.1597
 2450SOL    HW218984   2.635   4.070   2.367  0.7123 -0.9651  1.5529
 2451SOL     OW18985   1.032   3.586  12.519 -0.3036 -0.3748 -0.1836
 2451SOL    HW118986   0.986   3.544  12.592 -1.7120  1.0195 -0.2704
 2451SOL    HW218987   1.093   3.513  12.510  0.1311  0.1856 -1.7296
 2452SOL     OW18988   3.835   1.296   7.540 -0.0796  0.7547  0.4393
 2452SOL    HW118989   3.872   1.275   7.454 -0.3761 -1.1247  0.7639
 2452SOL    HW218990   3.745   1.264   7.534 -0.1112  1.0189 -0.4336
 2453SOL     OW18991   3.631   3.399  11.210 -0.5224 -0.5114 -0.0754
 2453SOL    HW118992   3.648   3.400  11.116 -0.7874 -0.0154 -0.1128
 2453SOL    HW218993   3.681   3.322  11.238 -0.1708  0.2409  1.3682
 2454SOL     OW18994   0.721   3.979  10.507  0.6007  0.4404  0.1021
 2454SOL    HW118995   0.728   4.069  10.473  1.5952 -0.0843 -1.0808
 2454SOL    HW218996   0.676   4.001  10.588 -0.8461 -1.3668 -0.2150
 2455SOL     OW18997   3.219   1.969   6.528  0.0266 -0.9097  0.4052
 2455SOL    HW118998   3.269   2.051   6.531  1.5862 -1.6970 -3.7752
 2455SOL    HW218999   3.138   2.004   6.565  0.2568 -2.2524  2.1369
 2456SOL     OW19000   3.335   0.880  16.073 -0.6831 -0.8165  0.7165
 2456SOL    HW119001   3.320   0.859  16.165  0.1013 -2.6858  0.4267
 2456SOL    HW219002   3.309   0.797  16.033  0.0664 -0.4284 -0.6004
 2457SOL     OW19003   3.149   1.242  16.625  0.1655  0.1701  0.2496
 2457SOL    HW119004   3.199   1.162  16.641 -1.0413 -0.2905  1.7757
 2457SOL    HW219005   3.222   1.302  16.640  0.4596 -0.1545  0.1065
 2458SOL     OW19006   0.292   0.174   5.692  0.0320 -0.3839  0.4628
 2458SOL    HW119007   0.359   0.227   5.648  0.3691 -1.4397 -0.3096
 2458SOL    HW219008   0.270   0.219   5.773  1.6176 -1.1901  1.3498
 2459SOL     OW19009   3.404   1.627   8.473  0.0976  0.4754 -0.1158
 2459SOL    HW119010   3.334   1.666   8.420  1.7546  2.5480 -0.7969
 2459SOL    HW219011   3.365   1.649   8.558  3.0600  0.6416  1.1898
 2460SOL     OW19012   3.365   1.658   8.759 -0.2274 -0.1453  0.1676
 2460SOL    HW119013   3.449   1.613   8.763 -0.0545  0.2819  1.5081
 2460SOL    HW219014   3.362   1.689   8.850 -4.1777  0.3884 -0.1169
 2461SOL     OW19015   2.410   3.982   6.322 -0.2587  0.5133 -0.0612
 2461SOL    HW119016   2.399   4.064   6.273  0.8577  0.5630 -0.2305
 2461SOL    HW219017   2.502   3.962   6.304 -1.0613 -1.3527 -2.1371
 2462SOL     OW19018   2.435   3.681   6.807 -0.0437  0.6196  0.3080
 2462SOL    HW119019   2.530   3.681   6.819 -0.1491 -0.3373  1.1486
 2462SOL    HW219020   2.431   3.717   6.718 -2.0499  0.4014  0.3185
 2463SOL     OW19021   1.087   0.470   0.104 -0.1079 -0.2100 -0.0839
 2463SOL    HW119022   1.116   0.423   0.026  0.6574 -1.4413  0.9654
 2463SOL    HW219023   0.993   0.451   0.097 -0.0465 -0.3505 -0.5290
 2464SOL     OW19024   2.437   0.312   6.765 -0.3933 -0.2176 -0.2564
 2464SOL    HW119025   2.499   0.239   6.757  1.3240  1.1394  0.5840
 2464SOL    HW219026   2.356   0.263   6.778  0.7902 -1.7309  1.5221
 2465SOL     OW19027   0.325   1.319   6.492  0.4646  0.3813  0.2030
 2465SOL    HW119028   0.368   1.393   6.534  0.5264 -0.2008  1.1851
 2465SOL    HW219029   0.284   1.287   6.573  0.6645 -1.1245 -0.2972
 2466SOL     OW19030   1.977   4.077   5.379 -0.1397  0.3534  0.2051
 2466SOL    HW119031   1.900   4.096   5.433  0.4915  3.4906 -0.0565
 2466SOL    HW219032   2.032   4.153   5.396  0.5511  0.1011 -0.9305
 2467SOL     OW19033   1.191   2.182   8.663 -0.6633 -0.2727 -0.0918
 2467SOL    HW119034   1.281   2.158   8.639 -0.2879  0.9809  0.0830
 2467SOL    HW219035   1.169   2.223   8.579 -1.5081 -1.4199 -0.4322
 2468SOL     OW19036   2.954   2.222   3.895  0.1384  0.0835  0.4497
 2468SOL    HW119037   2.928   2.282   3.825  1.3003 -0.5770 -0.5315
 2468SOL    HW219038   2.888   2.246   3.961  0.0845 -0.6329  0.6590
 2469SOL     OW19039   0.199   3.959   9.608 -1.1206  0.4964 -0.2690
 2469SOL    HW119040   0.195   3.879   9.557 -1.0929 -1.1627  2.3183
 2469SOL    HW219041   0.189   3.922   9.696  0.9851  2.0567  0.6164
 2470SOL     OW19042   0.950   2.047   6.447 -0.4190  0.3325  0.7488
 2470SOL    HW119043   0.862   2.041   6.411  0.1566  1.4690 -0.8102
 2470SOL    HW219044   0.996   2.113   6.396 -1.3479 -0.5769 -1.2323
 2471SOL     OW19045   4.452   0.521   0.821  0.1746 -0.9123  0.4513
 2471SOL    HW119046   4.483   0.573   0.747 -0.6581  0.8428  1.3404
 2471SOL    HW219047   4.473   0.431   0.795  0.7635  0.0035 -2.2980
 2472SOL     OW19048   0.657   0.286   4.706  0.1880  0.2109 -0.3971
 2472SOL    HW119049   0.629   0.224   4.774  2.0923  0.9938  1.1033
 2472SOL    HW219050   0.635   0.231   4.631  0.2830  0.1230 -0.3605
 2473SOL     OW19051   1.527   1.229   3.323 -0.5952 -0.4928  0.1278
 2473SOL    HW119052   1.583   1.299   3.356 -1.4863  1.0520 -1.6879
 2473SOL    HW219053   1.526   1.177   3.404 -0.3630 -1.4870 -0.5101
 2474SOL     OW19054   3.278   0.680   4.531 -0.8032  0.2274  0.1960
 2474SOL    HW119055   3.347   0.709   4.591  0.8075 -0.6361 -1.2308
 2474SOL    HW219056   3.329   0.612   4.487 -0.2953  0.6473  0.1353
 2475SOL     OW19057   4.428   3.746   8.642 -0.3739 -1.0448  0.0197
 2475SOL    HW119058   4.377   3.686   8.587  0.2813  0.2953 -2.0932
 2475SOL    HW219059   4.458   3.687   8.710  1.5548 -1.1425 -0.9141
 2476SOL     OW19060   2.730   2.263  12.667  0.1469  0.0413  0.5583
 2476SOL    HW119061   2.703   2.251  12.576  0.5102  1.4271  0.2639
 2476SOL    HW219062   2.644   2.261  12.708 -0.0805  0.1622  0.0949
 2477SOL     OW19063   0.468   2.142   7.095  0.2921  0.0487 -0.2372
 2477SOL    HW119064   0.381   2.165   7.130 -0.1185 -0.6684 -0.7881
 2477SOL    HW219065   0.454   2.055   7.059  2.9155 -0.7244  0.6095
 2478SOL     OW19066   0.671   3.593   8.908 -0.0585  0.4293  0.7685
 2478SOL    HW119067   0.578   3.610   8.921  0.6818  4.3393  0.9832
 2478SOL    HW219068   0.700   3.597   8.999 -0.7512 -1.2916  1.0593
 2479SOL     OW19069   3.808   2.558  13.842  0.5263 -0.5195 -0.1010
 2479SOL    HW119070   3.845   2.551  13.754  2.0757  2.0522  0.3732
 2479SOL    HW219071   3.890   2.576  13.887  0.1694  3.1063 -0.9097
 2480SOL     OW19072   4.461   2.627   8.206  0.0204  0.0995 -0.0334
 2480SOL    HW119073   4.530   2.625   8.140  1.0107  1.5656  0.9685
 2480SOL    HW219074   4.384   2.593   8.159 -0.1106  0.2411  0.0769
 2481SOL     OW19075   4.026   4.025   1.671 -0.1017 -0.0089 -0.4473
 2481SOL    HW119076   4.095   4.068   1.620 -1.1306 -0.3382 -2.1322
 2481SOL    HW219077   3.960   4.094   1.661 -1.1522 -0.9015  0.3864
 2482SOL     OW19078   3.344   2.473  12.055 -0.3741 -0.2416  0.5500
 2482SOL    HW119079   3.250   2.493  12.048 -0.4292 -1.2497 -1.5976
 2482SOL    HW219080   3.340   2.412  12.129  1.6498 -1.9781 -0.7906
 2483SOL     OW19081   0.595   4.269  10.954  0.1341 -0.1958 -0.1843
 2483SOL    HW119082   0.601   4.316  10.871 -2.3960 -0.0179 -0.2491
 2483SOL    HW219083   0.655   4.311  11.016 -0.3452 -0.8259  0.7092
 2484SOL     OW19084   2.796   2.205   7.211  0.3978  0.0952  0.1889
 2484SOL    HW119085   2.858   2.183   7.281 -0.3068 -1.7650  0.2197
 2484SOL    HW219086   2.723   2.231   7.267  2.2334  2.2008  1.6161
 2485SOL     OW19087   0.268   3.232   3.152 -0.1792 -0.3875 -0.1567
 2485SOL    HW119088   0.274   3.190   3.237  0.1324 -1.6979 -0.8220
 2485SOL    HW219089   0.179   3.211   3.123 -0.9951  0.5048  1.7200
 2486SOL     OW19090   1.803   0.662  12.928  0.4359 -0.2597 -0.1507
 2486SOL    HW119091   1.867   0.730  12.949  0.1062 -0.2959  0.9582
 2486SOL    HW219092   1.842   0.585  12.971  1.7620  1.3266  1.4955
 2487SOL     OW19093   1.285   0.199   8.458 -0.8457 -0.5233 -0.1426
 2487SOL    HW119094   1.229   0.268   8.494  0.7453  1.2807 -1.0849
 2487SOL    HW219095   1.332   0.255   8.396 -1.0855  0.9317  0.9742
 2488SOL     OW19096   4.588   1.603  13.160 -0.0931  0.1492  0.3570
 2488SOL    HW119097   4.653   1.603  13.231 -2.2255 -1.0012  2.3025
 2488SOL    HW219098   4.630   1.659  13.095 -0.6226 -2.2262 -2.0471
 2489SOL     OW19099   3.333   2.298  12.280  0.3474 -0.2696 -0.4593
 2489SOL    HW119100   3.352   2.206  12.297 -2.5884 -0.6759  0.7143
 2489SOL    HW219101   3.237   2.301  12.291  0.0158 -2.2417 -2.9100
 2490SOL     OW19102   2.554   3.039   8.518 -0.5295  0.4875  0.2887
 2490SOL    HW119103   2.567   3.057   8.425 -0.5093  3.1043  0.7927
 2490SOL    HW219104   2.486   2.971   8.517  1.4599 -1.4839 -1.0868
 2491SOL     OW19105   4.512   1.963   6.975  0.0121  0.2942 -0.0426
 2491SOL    HW119106   4.511   2.005   6.889  0.1389  0.7444  0.1761
 2491SOL    HW219107   4.448   1.892   6.983  1.3994 -0.8878  0.6609
 2492SOL     OW19108   2.206   2.362   2.901  0.4971  0.6358 -0.3477
 2492SOL    HW119109   2.179   2.365   2.809  0.5684  0.9608 -0.3618
 2492SOL    HW219110   2.119   2.356   2.940 -0.4750 -0.4662 -2.6866
 2493SOL     OW19111   3.168   3.600   3.639 -0.1753  0.4489  0.5707
 2493SOL    HW119112   3.245   3.656   3.647 -0.6921  0.8695  2.4040
 2493SOL    HW219113   3.190   3.520   3.687  0.8205  1.6529  2.0889
 2494SOL     OW19114   3.909   1.186   6.940  0.0545 -0.5145  0.2023
 2494SOL    HW119115   3.877   1.257   6.996  1.4869 -0.6666  1.2277
 2494SOL    HW219116   3.888   1.214   6.851  0.3717  1.6496  0.8051
 2495SOL     OW19117   3.104   2.828   2.436  0.2158 -0.1807 -0.5483
 2495SOL    HW119118   3.137   2.739   2.429 -1.6237 -0.8691 -0.3262
 2495SOL    HW219119   3.014   2.807   2.412  0.3209 -1.6416  0.3416
 2496SOL     OW19120   2.826   3.656   2.728  0.5714 -0.1266  0.6261
 2496SOL    HW119121   2.814   3.577   2.781 -1.5401 -0.8151 -0.8817
 2496SOL    HW219122   2.786   3.621   2.649 -1.6890  0.1464  1.6427
 2497SOL     OW19123   3.004   2.857   5.544 -0.2658  0.0439 -0.0269
 2497SOL    HW119124   2.945   2.910   5.491  0.9902  2.2833  0.8218
 2497SOL    HW219125   3.083   2.847   5.491 -0.5953 -1.0396 -0.3172
 2498SOL     OW19126   1.120   2.387   3.905 -0.1026 -0.0015 -0.6055
 2498SOL    HW119127   1.089   2.369   3.994 -0.6858 -0.6382 -0.9389
 2498SOL    HW219128   1.085   2.307   3.866  2.2171 -3.0120  3.4341
 2499SOL     OW19129   2.556   1.822  10.608 -0.1143  0.0515 -0.0060
 2499SOL    HW119130   2.607   1.819  10.688  0.1609 -1.0611 -0.2188
 2499SOL    HW219131   2.479   1.871  10.637  1.0496  1.3779  0.7977
 2500SOL     OW19132   2.529   3.933  13.380 -0.2129 -0.3677  0.0521
 2500SOL    HW119133   2.510   3.856  13.433  2.6914 -1.9118 -1.1832
 2500SOL    HW219134   2.443   3.970  13.358 -0.1212  0.1341  0.5196
 2501SOL     OW19135   2.356   0.453   6.537  0.4621  0.0598 -0.2159
 2501SOL    HW119136   2.376   0.397   6.612  1.5225 -0.6686 -1.0428
 2501SOL    HW219137   2.278   0.503   6.561 -0.2138 -0.0117 -2.3087
 2502SOL     OW19138   1.015   1.266   7.149  0.1054  0.3859  0.1809
 2502SOL    HW119139   0.957   1.216   7.206  0.2633  0.0107  0.0082
 2502SOL    HW219140   0.972   1.352   7.138 -3.7238 -1.7061 -1.3536
 2503SOL     OW19141   0.060   2.093  12.859 -0.1061  0.3667  0.3253
 2503SOL    HW119142   4.709   2.063  12.888  0.5767 -1.6513  0.2419
 2503SOL    HW219143   0.070   2.181  12.894  0.9006  0.5680 -0.4621
 2504SOL     OW19144   1.368   1.521   4.688 -0.0199 -0.3965  0.2657
 2504SOL    HW119145   1.365   1.612   4.660 -0.3006 -0.8356 -1.1806
 2504SOL    HW219146   1.287   1.525   4.740 -0.3080 -1.1364 -0.1145
 2505SOL     OW19147   4.054   0.142   2.780  0.1059 -0.3654  0.7558
 2505SOL    HW119148   4.071   0.232   2.753  0.3197 -0.1729  1.5443
 2505SOL    HW219149   4.128   0.096   2.739 -1.1887 -1.2904 -0.5606
 2506SOL     OW19150   2.946   1.482  10.840  0.3238  0.4168 -0.3603
 2506SOL    HW119151   2.888   1.406  10.838  0.9651 -0.0635 -0.7467
 2506SOL    HW219152   2.883   1.554  10.840  2.5963  2.4140  0.2704
 2507SOL     OW19153   1.911   2.376  10.969 -0.2552  0.3701 -0.1330
 2507SOL    HW119154   1.847   2.447  10.970  1.4623  1.9469 -1.3638
 2507SOL    HW219155   1.853   2.305  10.994 -0.6603  0.5171 -0.6560
 2508SOL     OW19156   0.688   3.534  12.436 -0.1523 -0.8037 -0.0790
 2508SOL    HW119157   0.630   3.542  12.511 -1.2395  0.7720 -1.0760
 2508SOL    HW219158   0.769   3.562  12.479  0.6599 -1.6651 -1.0472
 2509SOL     OW19159   0.864   2.746   6.449  0.4671  0.3457  0.1830
 2509SOL    HW119160   0.934   2.764   6.512  0.6951 -1.6091  0.4752
 2509SOL    HW219161   0.815   2.828   6.449 -2.3397 -1.3445  0.0614
 2510SOL     OW19162   0.012   1.416  16.530  0.2897 -0.1961 -0.7610
 2510SOL    HW119163   0.040   1.507  16.537  0.2970 -0.2327 -0.3014
 2510SOL    HW219164   4.655   1.436  16.510  0.9926  3.9096  0.1383
 2511SOL     OW19165   1.396   4.197   2.200 -0.2273 -0.9008 -0.4013
 2511SOL    HW119166   1.434   4.109   2.201 -0.1648 -0.8779 -1.1097
 2511SOL    HW219167   1.465   4.244   2.153  1.3686 -0.4632  2.3470
 2512SOL     OW19168   4.149   1.496  16.658  0.0795 -0.1578  0.6892
 2512SOL    HW119169   4.209   1.545  16.602 -1.7800  1.6152  0.2861
 2512SOL    HW219170   4.204   1.462  16.729  1.9153 -1.2558 -1.2656
 2513SOL     OW19171   4.364   2.419   6.788  0.3081  0.2633  0.6329
 2513SOL    HW119172   4.450   2.382   6.808 -0.3794 -1.1248  1.0244
 2513SOL    HW219173   4.367   2.437   6.694  1.1101 -1.5245  0.3089
 2514SOL     OW19174   2.595   4.161  16.527  0.2751 -0.1091  0.3568
 2514SOL    HW119175   2.669   4.188  16.581  1.2751  0.7904 -1.4349
 2514SOL    HW219176   2.527   4.201  16.580  0.2231 -0.5319  0.6128
 2515SOL     OW19177   2.829   2.724   6.424 -0.1991 -0.1060  0.5445
 2515SOL    HW119178   2.746   2.764   6.450  0.0238  1.6797 -1.4627
 2515SOL    HW219179   2.885   2.783   6.474 -0.3128 -0.0651  0.6227
 2516SOL     OW19180   1.908   1.596   3.148  0.2605  0.3884  0.0114
 2516SOL    HW119181   1.837   1.542   3.115  0.6786  0.5105 -1.0761
 2516SOL    HW219182   1.979   1.532   3.155 -1.9778 -1.9939  0.9388
 2517SOL     OW19183   0.667   1.201  14.417  0.4674 -0.5550  0.3247
 2517SOL    HW119184   0.634   1.116  14.390  0.8281 -0.5886 -0.0126
 2517SOL    HW219185   0.669   1.246  14.332 -0.7051 -0.3202  0.4323
 2518SOL     OW19186   2.838   2.149   0.772  0.3179  0.2365 -0.6483
 2518SOL    HW119187   2.757   2.191   0.740 -1.5026 -2.3780  0.5507
 2518SOL    HW219188   2.893   2.180   0.700  0.5286 -0.1755 -0.6625
 2519SOL     OW19189   1.986   1.933   8.238  0.0149  0.1813 -0.5185
 2519SOL    HW119190   2.045   1.953   8.311 -0.4353  3.4290 -1.0534
 2519SOL    HW219191   1.911   1.896   8.284  0.7163  0.9436  1.2080
 2520SOL     OW19192   0.346   1.868  15.076  0.0122 -0.0303  0.9622
 2520SOL    HW119193   0.312   1.871  14.987 -0.9623 -2.3097  1.2583
 2520SOL    HW219194   0.383   1.956  15.069 -0.5359  0.0258 -1.2474
 2521SOL     OW19195   2.880   2.649   4.788 -1.0633  0.3760  0.2465
 2521SOL    HW119196   2.904   2.719   4.848 -1.8234 -1.1064  2.2917
 2521SOL    HW219197   2.886   2.690   4.701  4.6728 -0.1409  0.4482
 2522SOL     OW19198   2.420   2.594  10.364 -0.1158  0.2544  0.0670
 2522SOL    HW119199   2.382   2.557  10.285  0.0274 -0.1280  0.1746
 2522SOL    HW219200   2.414   2.520  10.425 -0.2486  0.2951  0.1037
 2523SOL     OW19201   3.516   3.668   4.657 -0.2593 -0.1035  0.0652
 2523SOL    HW119202   3.428   3.690   4.689 -1.0919 -1.7952 -1.0636
 2523SOL    HW219203   3.517   3.573   4.667 -0.3471 -0.0038  1.0129
 2524SOL     OW19204   1.328   2.306  10.856 -0.0198 -0.3696 -0.2312
 2524SOL    HW119205   1.326   2.319  10.950  3.7109  0.4678 -0.2804
 2524SOL    HW219206   1.317   2.211  10.852 -0.7959 -0.2573 -0.8132
 2525SOL     OW19207   3.953   0.065   2.442  0.0212 -0.3055  0.3084
 2525SOL    HW119208   3.884   0.065   2.509  1.3807 -1.0111  1.7157
 2525SOL    HW219209   3.898   0.093   2.369  2.6812 -1.5021 -2.1651
 2526SOL     OW19210   3.318   2.872   2.583  0.3330 -1.0118  0.4563
 2526SOL    HW119211   3.237   2.857   2.534 -0.7085 -0.4771  2.0178
 2526SOL    HW219212   3.281   2.887   2.670 -0.9559 -0.2646 -0.2123
 2527SOL     OW19213   1.130   2.682  12.376  1.1139  0.5971  0.0188
 2527SOL    HW119214   1.116   2.742  12.449  0.2991  2.4094 -1.6315
 2527SOL    HW219215   1.043   2.683  12.337  0.3806 -1.4469  1.5948
 2528SOL     OW19216   4.055   4.430   4.590  0.5577  0.2184  0.4839
 2528SOL    HW119217   4.093   4.356   4.638 -1.8431  0.1417  2.2637
 2528SOL    HW219218   4.119   4.495   4.619 -0.0550  0.5252  1.1507
 2529SOL     OW19219   2.889   0.741  17.407  0.5401  0.4460 -0.0583
 2529SOL    HW119220   2.980   0.764  17.387 -0.1983  1.5975 -2.1785
 2529SOL    HW219221   2.835   0.817  17.385 -0.4926 -0.8154 -1.8859
 2530SOL     OW19222   1.543   0.908   4.734 -0.1292  0.5682  0.1979
 2530SOL    HW119223   1.518   0.978   4.794 -1.1236 -0.1790  0.6509
 2530SOL    HW219224   1.535   0.963   4.656  1.1133  1.2679  0.5608
 2531SOL     OW19225   2.525   2.157   7.661  0.2007 -0.1071 -0.2182
 2531SOL    HW119226   2.438   2.183   7.632 -0.5113  0.9658  2.8770
 2531SOL    HW219227   2.499   2.116   7.743 -4.2019  0.1781 -1.5075
 2532SOL     OW19228   3.459   0.160   3.198 -0.6351 -0.2418  0.0928
 2532SOL    HW119229   3.530   0.108   3.236  0.0345  0.9658  0.5044
 2532SOL    HW219230   3.396   0.174   3.269 -1.2617  0.0243 -0.5155
 2533SOL     OW19231   0.882   3.613  10.377  0.0018 -0.1244 -0.3033
 2533SOL    HW119232   0.811   3.669  10.345  0.3256  0.8757  0.7506
 2533SOL    HW219233   0.858   3.604  10.469 -3.3604  0.5955 -1.1107
 2534SOL     OW19234   4.699   1.590   5.833 -0.5258 -0.2737  0.0305
 2534SOL    HW119235   4.604   1.600   5.834 -0.4454  0.6953 -1.7283
 2534SOL    HW219236   4.717   1.647   5.907  0.0393  0.0279 -0.3383
 2535SOL     OW19237   0.455   2.795   7.476  0.6127  0.4285  0.1611
 2535SOL    HW119238   0.382   2.809   7.416 -0.6311  0.3088  1.6429
 2535SOL    HW219239   0.463   2.699   7.475 -2.6731  0.1513 -0.9105
 2536SOL     OW19240   3.126   0.516   8.480 -0.2335 -0.0475 -0.5535
 2536SOL    HW119241   3.038   0.491   8.452  0.0039 -0.9149 -0.5296
 2536SOL    HW219242   3.128   0.490   8.572 -1.2553 -1.4548 -0.9379
 2537SOL     OW19243   1.544   1.358   2.588 -0.1734 -0.1932 -0.6766
 2537SOL    HW119244   1.482   1.307   2.640  0.1248  1.5937  1.4628
 2537SOL    HW219245   1.516   1.441   2.628  3.1515  0.3542  0.5989
 2538SOL     OW19246   1.943   3.129   4.496  0.1422 -0.1806 -0.3442
 2538SOL    HW119247   2.027   3.153   4.535  0.5971  1.7412 -2.5085
 2538SOL    HW219248   1.888   3.196   4.536 -0.2964 -0.5165 -0.3840
 2539SOL     OW19249   4.150   1.604  10.623 -0.2758  0.0767 -0.2429
 2539SOL    HW119250   4.203   1.538  10.578 -0.3254  1.3966 -2.2460
 2539SOL    HW219251   4.142   1.566  10.710 -0.6590  1.4087  0.2974
 2540SOL     OW19252   3.707   1.337  11.902 -0.1779 -0.0017  0.3414
 2540SOL    HW119253   3.613   1.347  11.886  0.0618 -1.9177 -2.4332
 2540SOL    HW219254   3.703   1.338  11.997  1.0666  0.0825  0.3930
 2541SOL     OW19255   3.529   4.600   8.124 -1.0302 -0.6680  0.3859
 2541SOL    HW119256   3.435   4.614   8.129 -1.2269 -2.1898  1.2711
 2541SOL    HW219257   3.539   4.510   8.156 -2.1773  0.0198  2.6565
 2542SOL     OW19258   1.063   2.159   5.757  0.1224  0.1038  0.0574
 2542SOL    HW119259   1.052   2.240   5.707 -0.6455  1.0749  1.7815
 2542SOL    HW219260   1.039   2.090   5.696  0.4838  0.0853 -0.0633
 2543SOL     OW19261   0.068   1.314   9.090  0.1292  0.3659 -0.0290
 2543SOL    HW119262   0.039   1.374   9.021 -1.8476 -0.5036  0.0592
 2543SOL    HW219263   4.724   1.293   9.139 -0.5733  0.3260 -1.1873
 2544SOL     OW19264   1.266   2.821  16.702 -0.6749 -0.2516  0.1417
 2544SOL    HW119265   1.180   2.830  16.744 -0.6203 -1.0741  0.4439
 2544SOL    HW219266   1.282   2.726  16.701  1.2522  0.0610  1.0026
 2545SOL     OW19267   1.613   4.175   7.070 -0.0831  0.9790 -0.4373
 2545SOL    HW119268   1.702   4.183   7.034  0.5144 -1.6303  0.4298
 2545SOL    HW219269   1.592   4.263   7.101  0.8535  0.8406  0.5794
 2546SOL     OW19270   1.321   0.695   2.103  0.3109  0.3115  0.1660
 2546SOL    HW119271   1.393   0.679   2.164  0.1365  2.0044  0.8002
 2546SOL    HW219272   1.326   0.791   2.105 -0.4629  0.3466  0.1951
 2547SOL     OW19273   2.177   3.114   2.860 -0.0255 -0.3347  0.1006
 2547SOL    HW119274   2.117   3.177   2.820 -0.3577 -1.4860 -1.2099
 2547SOL    HW219275   2.125   3.071   2.928 -3.0481  1.5739 -1.0169
 2548SOL     OW19276   2.648   2.224   6.175  0.1198  0.2052  0.2551
 2548SOL    HW119277   2.619   2.261   6.258 -2.2280  1.3054 -1.0379
 2548SOL    HW219278   2.675   2.135   6.195  0.4373  0.3935  0.6561
 2549SOL     OW19279   4.195   3.603   8.915 -0.4102 -0.3457  0.4052
 2549SOL    HW119280   4.290   3.614   8.921 -0.1063 -2.2184 -1.1595
 2549SOL    HW219281   4.158   3.692   8.916 -0.2628 -0.2563 -2.7421
 2550SOL     OW19282   0.037   4.247   4.060  0.0470 -0.3933  0.2445
 2550SOL    HW119283   0.124   4.281   4.078 -0.2203  0.4044  0.0562
 2550SOL    HW219284   4.728   4.299   4.128 -0.6298 -0.8384  0.1493
 2551SOL     OW19285   2.570   1.025   4.706  0.1351 -0.7379 -0.1110
 2551SOL    HW119286   2.621   1.020   4.625  2.5301 -2.2140  1.5088
 2551SOL    HW219287   2.634   1.061   4.767  0.0652  0.8437 -0.9555
 2552SOL     OW19288   1.181   3.242   6.436 -0.0756  0.5299  0.3221
 2552SOL    HW119289   1.188   3.317   6.496  0.6535  0.6878  0.0431
 2552SOL    HW219290   1.183   3.288   6.352 -2.4091  1.4494  0.7674
 2553SOL     OW19291   1.404   1.950   6.241 -1.0302  0.4176  0.3731
 2553SOL    HW119292   1.359   2.034   6.234  0.0662  0.8854 -1.0056
 2553SOL    HW219293   1.345   1.903   6.300 -0.2462  0.8012  1.4573
 2554SOL     OW19294   4.719   2.487   1.762 -0.1368 -0.2745  0.1518
 2554SOL    HW119295   0.035   2.426   1.708 -1.7175  1.3053 -3.1219
 2554SOL    HW219296   4.673   2.422   1.813 -2.6047  0.8303 -0.6834
 2555SOL     OW19297   0.791   3.916  17.240 -0.0187  0.6416  0.2866
 2555SOL    HW119298   0.724   3.936  17.305  0.2604  0.5209  0.6130
 2555SOL    HW219299   0.836   3.998  17.220 -0.1813  0.5468 -0.4705
 2556SOL     OW19300   2.393   3.249   4.606 -0.3812  0.5343 -0.2899
 2556SOL    HW119301   2.447   3.324   4.629 -1.1807  1.0142  0.0092
 2556SOL    HW219302   2.303   3.282   4.604  0.5520  3.0527 -0.7248
 2557SOL     OW19303   1.409   2.298  15.370 -0.3612 -0.1144  0.4911
 2557SOL    HW119304   1.335   2.250  15.407 -0.2073 -1.3719 -0.8209
 2557SOL    HW219305   1.380   2.389  15.367 -0.3438 -0.1093  0.4777
 2558SOL     OW19306   0.207   3.865   8.543  0.0539  0.3008  0.5740
 2558SOL    HW119307   0.200   3.787   8.598  0.2513 -0.3941 -0.3657
 2558SOL    HW219308   0.112   3.879   8.550 -0.2097 -2.3385  2.2452
 2559SOL     OW19309   3.243   4.314  12.275 -0.2030 -0.3011 -0.4690
 2559SOL    HW119310   3.301   4.349  12.342  0.5035 -0.7926 -0.8210
 2559SOL    HW219311   3.156   4.313  12.315  0.1074  2.4784  0.2511
 2560SOL     OW19312   0.317   0.451   8.384 -0.7081  0.4511 -0.8741
 2560SOL    HW119313   0.357   0.398   8.452 -2.6735 -0.4525 -0.4269
 2560SOL    HW219314   0.225   0.431   8.400 -0.3329 -1.6743 -1.3704
 2561SOL     OW19315   4.335   3.194   4.747  0.0155  0.0270 -0.3283
 2561SOL    HW119316   4.335   3.281   4.786  1.6716 -1.3591  2.7161
 2561SOL    HW219317   4.268   3.151   4.800 -0.0820 -1.2430 -1.4615
 2562SOL     OW19318   3.098   1.502  13.711  0.4394 -0.1399  0.2603
 2562SOL    HW119319   3.102   1.429  13.773 -1.0195 -1.2910 -1.0078
 2562SOL    HW219320   3.179   1.552  13.724 -0.3169  0.8634  1.0957
 2563SOL     OW19321   4.075   1.619   2.720  0.6280  0.0957  0.5213
 2563SOL    HW119322   4.101   1.531   2.694 -3.5430 -1.4359  1.4943
 2563SOL    HW219323   4.003   1.590   2.775 -0.3474 -0.1702 -0.8796
 2564SOL     OW19324   2.881   4.631  16.086  0.1255  0.4453 -0.4466
 2564SOL    HW119325   2.847   4.681  16.012 -0.5569  1.7996  0.7802
 2564SOL    HW219326   2.966   4.604  16.054  0.9657  2.0488  0.4535
 2565SOL     OW19327   1.109   0.382  15.576 -0.2462  0.0374  0.7145
 2565SOL    HW119328   1.039   0.400  15.513  1.3877 -0.4995 -1.2633
 2565SOL    HW219329   1.120   0.463  15.626  0.0606  0.5982 -0.2678
 2566SOL     OW19330   4.037   3.130  12.126 -0.2443  0.2242  0.1066
 2566SOL    HW119331   4.079   3.049  12.099 -0.9822 -1.1805  3.1994
 2566SOL    HW219332   4.116   3.179  12.149  1.4518 -1.2397 -2.6910
 2567SOL     OW19333   0.454   2.744   7.767  0.5103 -0.2393 -0.1157
 2567SOL    HW119334   0.450   2.648   7.766  0.2360 -0.1958 -1.9510
 2567SOL    HW219335   0.492   2.763   7.682  0.9954  1.3232  0.4521
 2568SOL     OW19336   1.897   3.924   3.453 -0.4267 -0.5738 -0.0552
 2568SOL    HW119337   1.835   3.855   3.429 -1.5494  0.4402 -0.0694
 2568SOL    HW219338   1.831   3.987   3.482  0.4460  0.3271 -0.0321
 2569SOL     OW19339   2.004   0.224   3.371 -0.1875  0.3324 -0.6045
 2569SOL    HW119340   1.969   0.156   3.313  0.5993 -1.2774  0.7912
 2569SOL    HW219341   1.943   0.206   3.443  0.0708  1.3782 -0.1359
 2570SOL     OW19342   3.827   0.288  14.721 -0.0793 -0.9797  0.3659
 2570SOL    HW119343   3.821   0.291  14.816  0.0961  0.6099  0.3252
 2570SOL    HW219344   3.871   0.369  14.696 -3.1671  0.9367  1.0306
 2571SOL     OW19345   2.385   2.686   6.649  0.0567  0.0499 -0.8940
 2571SOL    HW119346   2.458   2.634   6.682  1.2734  1.8067 -0.8218
 2571SOL    HW219347   2.342   2.607   6.616 -0.7941  0.3102 -0.4298
 2572SOL     OW19348   1.178   0.578  12.527 -0.0594 -0.0553  0.0357
 2572SOL    HW119349   1.172   0.665  12.487 -0.1821  0.3129  0.8530
 2572SOL    HW219350   1.271   0.573  12.545  0.4940  1.1085 -2.5130
 2573SOL     OW19351   3.234   0.465   2.525  0.2253  0.3966  0.3532
 2573SOL    HW119352   3.147   0.451   2.487  0.7996 -0.2691 -0.7458
 2573SOL    HW219353   3.224   0.429   2.613  0.4032  0.2435  0.3111
 2574SOL     OW19354   3.972   0.340  11.547 -0.1394 -0.0012  0.2881
 2574SOL    HW119355   4.016   0.412  11.502 -1.4349 -0.7445 -2.1556
 2574SOL    HW219356   4.045   0.295  11.589  0.0564  0.5687  0.5635
 2575SOL     OW19357   0.117   0.411   1.782 -0.1465 -0.6537 -0.3563
 2575SOL    HW119358   0.163   0.340   1.828 -1.2930  0.6003  2.7665
 2575SOL    HW219359   0.097   0.469   1.855  0.5104 -0.8018 -0.0549
 2576SOL     OW19360   3.774   1.516   1.139 -0.3285  0.1446 -0.0108
 2576SOL    HW119361   3.715   1.590   1.125 -0.3050  0.1933  0.1437
 2576SOL    HW219362   3.723   1.445   1.101  1.7739 -2.2242  1.5899
 2577SOL     OW19363   2.904   1.143   8.158 -0.0205  0.0044  0.4078
 2577SOL    HW119364   2.982   1.102   8.121  0.6315  0.2460  1.5331
 2577SOL    HW219365   2.847   1.070   8.134 -0.0378  0.2066 -0.1859
 2578SOL     OW19366   3.882   2.575  15.505 -0.0275 -0.3632  0.0927
 2578SOL    HW119367   3.791   2.598  15.483 -0.9659 -1.3953  2.9698
 2578SOL    HW219368   3.864   2.491  15.547  0.9303 -1.1371 -1.0578
 2579SOL     OW19369   1.744   2.501  10.541  0.1290 -0.1428 -0.5854
 2579SOL    HW119370   1.696   2.469  10.618  0.3327 -0.2410 -0.4998
 2579SOL    HW219371   1.678   2.497  10.472 -1.3043 -1.9493  0.8777
 2580SOL     OW19372   4.599   2.435   8.442  0.1151  0.5285 -0.4472
 2580SOL    HW119373   4.690   2.423   8.469  0.1319 -1.6162 -1.5083
 2580SOL    HW219374   4.595   2.455   8.348  2.2190  1.7737 -0.2834
 2581SOL     OW19375   3.107   3.947   8.784  0.0676 -0.6365 -0.2901
 2581SOL    HW119376   3.114   3.857   8.754  0.1600 -1.2310  1.4831
 2581SOL    HW219377   3.025   3.978   8.745  0.0016 -0.5257 -0.0661
 2582SOL     OW19378   3.887   2.384   8.617  0.0856  0.4360  0.0189
 2582SOL    HW119379   3.980   2.400   8.627  0.4227 -1.5353  0.1530
 2582SOL    HW219380   3.869   2.436   8.539 -2.6007  1.1100  1.0477
 2583SOL     OW19381   3.384   0.075   2.551 -0.1654  0.1684 -0.1352
 2583SOL    HW119382   3.416   0.161   2.523  1.8477 -0.3799  0.4732
 2583SOL    HW219383   3.291   0.077   2.527 -0.9413 -0.7181  2.7868
 2584SOL     OW19384   0.438   3.081   6.489  0.1435 -0.0059 -0.1438
 2584SOL    HW119385   0.368   3.089   6.554 -1.0657  0.3847 -1.5023
 2584SOL    HW219386   0.413   2.997   6.451  2.7361 -0.0898 -1.6913
 2585SOL     OW19387   1.436   4.569   6.421 -0.0353  0.0909 -0.1350
 2585SOL    HW119388   1.437   4.492   6.364 -0.5503  0.2843 -0.4076
 2585SOL    HW219389   1.449   4.634   6.353  1.0030  0.2218  0.1877
 2586SOL     OW19390   2.858   4.637   9.145  0.1292 -0.1463 -0.1068
 2586SOL    HW119391   2.840   4.612   9.236 -1.4646 -1.7415 -0.8690
 2586SOL    HW219392   2.868   4.547   9.115 -1.0645  0.4107 -2.1885
 2587SOL     OW19393   4.163   4.732   5.742 -0.4643 -0.1422 -0.3958
 2587SOL    HW119394   4.244   4.696   5.778 -1.5895 -1.4898  0.7864
 2587SOL    HW219395   4.090   4.706   5.797 -0.1293  1.5811  0.8658
 2588SOL     OW19396   4.111   2.582   2.413 -0.2186 -0.1923  0.7566
 2588SOL    HW119397   4.119   2.623   2.499 -0.5974 -0.3637  0.8749
 2588SOL    HW219398   4.200   2.551   2.400  0.2004  1.3169  0.0932
 2589SOL     OW19399   3.334   1.862   0.958  0.1021 -0.3326 -0.1221
 2589SOL    HW119400   3.274   1.848   1.031  0.9414 -0.3917  0.5617
 2589SOL    HW219401   3.326   1.956   0.948  1.2603 -0.4502 -2.2325
 2590SOL     OW19402   3.411   1.109   4.830  0.2636  0.7972 -0.1545
 2590SOL    HW119403   3.425   1.118   4.924 -2.1865 -1.7907  0.4496
 2590SOL    HW219404   3.317   1.127   4.831 -0.4603 -2.9196  0.4349
 2591SOL     OW19405   4.355   3.643   7.813  0.1337 -0.7655 -0.3806
 2591SOL    HW119406   4.268   3.680   7.801  0.5669  0.3078 -0.2408
 2591SOL    HW219407   4.337   3.578   7.880 -1.6047  1.0351  0.9280
 2592SOL     OW19408   0.602   3.923   2.433 -0.4987  0.4699  0.1276
 2592SOL    HW119409   0.575   3.980   2.505 -2.6215 -0.2799 -0.0648
 2592SOL    HW219410   0.576   3.839   2.471 -0.1746  0.2328 -0.1753
 2593SOL     OW19411   2.986   2.624   4.330 -0.3523 -0.2677 -0.5943
 2593SOL    HW119412   2.979   2.555   4.264 -3.2526 -2.5974  2.1122
 2593SOL    HW219413   3.071   2.666   4.318 -0.2034  0.7636  3.8346
 2594SOL     OW19414   0.411   3.088   9.689 -0.2166  0.5494  0.3668
 2594SOL    HW119415   0.496   3.060   9.724  0.5655 -0.3865 -2.2973
 2594SOL    HW219416   0.349   3.024   9.723 -0.5340  1.3587  1.3225
 2595SOL     OW19417   2.582   2.491   8.362 -0.0431 -0.0314 -0.4627
 2595SOL    HW119418   2.648   2.424   8.382 -1.4986 -1.1231  0.6558
 2595SOL    HW219419   2.504   2.444   8.390  0.5553  1.0341  2.9070
 2596SOL     OW19420   3.332   2.551   9.248  0.2182 -0.0793  0.3130
 2596SOL    HW119421   3.407   2.496   9.270  0.5026 -0.1589 -0.8403
 2596SOL    HW219422   3.266   2.489   9.216  0.7778 -0.8461  0.6579
 2597SOL     OW19423   1.195   4.196  16.033  0.3516  1.1531 -0.6194
 2597SOL    HW119424   1.106   4.165  16.048  1.4262 -1.4005  0.7257
 2597SOL    HW219425   1.189   4.232  15.945 -0.1876  1.9446 -0.2590
 2598SOL     OW19426   1.153   2.173   6.028  0.0343  0.1668 -0.0705
 2598SOL    HW119427   1.241   2.183   6.065 -0.0341  0.7518 -0.0643
 2598SOL    HW219428   1.167   2.184   5.934  1.2968  0.4030  0.1422
 2599SOL     OW19429   1.379   2.435   8.349 -0.5509  0.3384  0.0119
 2599SOL    HW119430   1.394   2.491   8.273  0.5547 -0.0811 -0.0805
 2599SOL    HW219431   1.431   2.357   8.327  0.5649  1.1611 -0.2402
 2600SOL     OW19432   4.686   1.509   5.572 -0.8283 -0.0254 -0.1126
 2600SOL    HW119433   0.014   1.440   5.553 -1.0006  0.1519 -1.3607
 2600SOL    HW219434   4.683   1.502   5.667 -0.5684  2.0044  0.0404
 2601SOL     OW19435   3.322   0.457   6.931  0.3677  0.3061  0.6898
 2601SOL    HW119436   3.263   0.486   6.861 -2.4341 -1.2240  2.4029
 2601SOL    HW219437   3.267   0.392   6.976 -1.0868  0.1422 -1.3381
 2602SOL     OW19438   0.089   4.510   6.125  0.3589  0.3002  0.0122
 2602SOL    HW119439   0.128   4.436   6.173 -1.0594 -0.4254  0.0524
 2602SOL    HW219440   0.067   4.558   6.205  1.0873 -0.3883  0.6432
 2603SOL     OW19441   0.526   3.602  10.435 -0.2778  0.5053  0.2471
 2603SOL    HW119442   0.580   3.663  10.384  0.5467 -1.0643 -0.7895
 2603SOL    HW219443   0.443   3.649  10.445  0.4445  2.2008 -1.5988
 2604SOL     OW19444   1.840   3.188   5.832 -0.2446 -0.3266  0.2392
 2604SOL    HW119445   1.877   3.121   5.889 -1.7259  0.2823  1.9167
 2604SOL    HW219446   1.753   3.150   5.817 -0.8763  1.2962 -0.2887
 2605SOL     OW19447   1.883   0.372   5.807  0.3142 -0.3979 -0.2661
 2605SOL    HW119448   1.791   0.399   5.813  1.0039  1.9221 -0.2952
 2605SOL    HW219449   1.879   0.347   5.714 -0.3531 -1.8435  0.1478
 2606SOL     OW19450   2.998   2.504  16.107  0.1692 -0.2072  0.3949
 2606SOL    HW119451   3.038   2.427  16.148 -2.0500 -1.3790  0.3979
 2606SOL    HW219452   2.981   2.567  16.177 -1.8787  1.2736 -1.4175
 2607SOL     OW19453   3.469   0.988   3.595  0.2553 -0.1614 -0.7707
 2607SOL    HW119454   3.529   1.042   3.543  0.6348 -0.1861 -0.3536
 2607SOL    HW219455   3.438   1.047   3.663 -1.0976 -1.4936 -0.2254
 2608SOL     OW19456   2.199   2.753   7.347 -0.1240 -0.7035  0.2259
 2608SOL    HW119457   2.105   2.735   7.354 -0.4347  0.8492 -0.0167
 2608SOL    HW219458   2.231   2.699   7.418 -1.3454 -0.0367  1.2850
 2609SOL     OW19459   1.331   3.287   8.211 -0.0162  0.3034 -0.2034
 2609SOL    HW119460   1.247   3.246   8.188  0.6119 -0.3285 -1.3817
 2609SOL    HW219461   1.391   3.272   8.138  0.4408 -1.5612  0.5435
 2610SOL     OW19462   3.489   4.602   7.583  0.3981 -0.3124 -1.0210
 2610SOL    HW119463   3.429   4.542   7.626 -0.2278  0.4285 -0.8550
 2610SOL    HW219464   3.472   4.590   7.490 -1.4889  2.8099 -1.0936
 2611SOL     OW19465   0.947   2.860   4.825  0.0915 -0.7461  0.1710
 2611SOL    HW119466   1.018   2.866   4.890  1.1419 -1.3729 -0.9121
 2611SOL    HW219467   0.951   2.768   4.799  1.0100 -0.9402  0.9890
 2612SOL     OW19468   0.997   3.422   8.022 -0.5562  0.6544 -0.5278
 2612SOL    HW119469   1.059   3.374   7.968 -1.1064 -0.8996  0.2323
 2612SOL    HW219470   0.952   3.468   7.951  0.4891  1.4645 -0.6736
 2613SOL     OW19471   2.781   4.683  11.198  0.1377  0.1083 -0.1839
 2613SOL    HW119472   2.802   4.733  11.277  0.6030  0.6045 -0.6268
 2613SOL    HW219473   2.854   4.717  11.146 -1.5138  1.9367 -1.3148
 2614SOL     OW19474   1.895   1.751   2.893 -0.1375 -0.3342  0.2824
 2614SOL    HW119475   1.894   1.706   2.977 -0.5273  0.6184  0.7920
 2614SOL    HW219476   1.892   1.673   2.837 -1.2834 -1.7246  2.2964
 2615SOL     OW19477   3.322   4.553  12.379 -0.5812 -0.0835  0.1182
 2615SOL    HW119478   3.405   4.595  12.358 -1.2728 -0.2096 -2.8523
 2615SOL    HW219479   3.269   4.554  12.300  2.7017 -0.0090 -2.0743
 2616SOL     OW19480   2.109   1.639  15.538  0.2364  0.2055  0.0271
 2616SOL    HW119481   2.201   1.615  15.549  0.6317  0.5189 -2.6686
 2616SOL    HW219482   2.118   1.706  15.470  1.3605  0.9224  0.8833
 2617SOL     OW19483   1.269   3.578   8.126  0.5783  0.1147 -0.2329
 2617SOL    HW119484   1.285   3.491   8.164  0.2508 -0.1528 -0.7101
 2617SOL    HW219485   1.199   3.560   8.064  0.8239  1.6634 -0.9644
 2618SOL     OW19486   3.416   3.245   5.698 -0.1449 -1.0875  0.0575
 2618SOL    HW119487   3.354   3.172   5.695  0.1833 -1.5078  3.9818
 2618SOL    HW219488   3.490   3.207   5.651 -0.6675 -0.6425 -1.1146
 2619SOL     OW19489   1.400   2.546   9.014  0.7903 -0.2232 -0.0426
 2619SOL    HW119490   1.390   2.498   8.932 -1.8710 -0.5154  0.4444
 2619SOL    HW219491   1.407   2.634   8.978  0.3197 -0.8475 -1.6474
 2620SOL     OW19492   4.406   3.625   4.640 -0.9783 -0.4737  0.8876
 2620SOL    HW119493   4.491   3.626   4.595 -1.0266  3.8256  0.9225
 2620SOL    HW219494   4.437   3.608   4.728  0.4559  0.6940  0.6147
 2621SOL     OW19495   1.473   1.949  12.809  0.1816 -0.0059  0.4345
 2621SOL    HW119496   1.474   1.940  12.713  0.7289  2.4009  0.1973
 2621SOL    HW219497   1.554   1.995  12.830  0.6221 -0.2740 -0.6743
 2622SOL     OW19498   0.748   4.357   1.321 -0.2724 -0.2480 -0.0876
 2622SOL    HW119499   0.663   4.389   1.290 -0.4348 -0.2915  0.3041
 2622SOL    HW219500   0.731   4.263   1.317 -0.7060 -0.2717  2.3224
 2623SOL     OW19501   0.269   3.073   7.005 -0.5030 -0.4122  0.2102
 2623SOL    HW119502   0.336   3.049   7.069  2.7480  0.5025 -2.9019
 2623SOL    HW219503   0.276   3.168   7.012  1.3997 -0.5649  0.1635
 2624SOL     OW19504   3.635   2.889   0.295 -0.6840 -0.1280  0.5108
 2624SOL    HW119505   3.568   2.950   0.326  0.1983  0.9311  0.3393
 2624SOL    HW219506   3.687   2.886   0.375  1.5683 -1.5287 -0.9993
 2625SOL     OW19507   1.617   0.344  17.433  0.0891 -0.0658 -0.1501
 2625SOL    HW119508   1.665   0.418  17.471  0.5053 -0.0382 -0.7294
 2625SOL    HW219509   1.671   0.319  17.358 -0.0593 -0.4908 -0.1159
 2626SOL     OW19510   2.067   1.409   5.107  0.0631  0.2320  0.5471
 2626SOL    HW119511   2.039   1.398   5.017 -1.4868 -1.5561  1.2442
 2626SOL    HW219512   1.992   1.460   5.136 -0.1166 -0.2660  0.9689
 2627SOL     OW19513   0.421   0.373   6.313 -0.0140 -0.1841 -0.1390
 2627SOL    HW119514   0.496   0.431   6.324  1.5318 -2.3242  0.7727
 2627SOL    HW219515   0.336   0.417   6.321  0.5686  0.8777  0.1300
 2628SOL     OW19516   2.539   1.287   1.935  0.2467  0.1683 -0.3148
 2628SOL    HW119517   2.541   1.368   1.883  2.3354 -0.6593 -1.5038
 2628SOL    HW219518   2.492   1.222   1.883  0.0471  0.5986 -0.6822
 2629SOL     OW19519   1.236   2.308   9.906  0.0478 -0.1658  0.0843
 2629SOL    HW119520   1.210   2.224   9.869  2.4426  0.0626 -2.1297
 2629SOL    HW219521   1.319   2.328   9.862 -1.4101  2.5601 -1.4115
 2630SOL     OW19522   2.502   3.006   9.180  0.6066 -0.0707  0.0557
 2630SOL    HW119523   2.505   3.053   9.264  2.4973  0.4574 -0.3074
 2630SOL    HW219524   2.575   3.052   9.139  0.4665 -1.2406 -1.4928
 2631SOL     OW19525   3.477   4.518   6.814  0.0931  1.0160 -0.0321
 2631SOL    HW119526   3.463   4.498   6.721  1.1339  2.1429 -0.4378
 2631SOL    HW219527   3.526   4.440   6.840  0.3478  0.9755 -0.6304
 2632SOL     OW19528   3.430   4.581   8.644 -0.3291 -0.1604  0.0229
 2632SOL    HW119529   3.472   4.666   8.635  0.1393 -0.4829 -0.8440
 2632SOL    HW219530   3.411   4.581   8.737 -1.7758 -2.7911 -0.2737
 2633SOL     OW19531   0.171   1.803  14.133 -0.2032 -0.3504 -0.3482
 2633SOL    HW119532   0.146   1.879  14.186 -0.6344 -1.8990  1.6787
 2633SOL    HW219533   0.187   1.741  14.205 -0.8018  2.4084  2.1554
 2634SOL     OW19534   3.545   1.505   4.868  0.8503  0.1995  0.2132
 2634SOL    HW119535   3.595   1.434   4.827  1.1447 -0.1223  1.1197
 2634SOL    HW219536   3.585   1.497   4.955  0.6667  3.4943  0.5848
 2635SOL     OW19537   4.527   2.385   6.248 -0.9403 -0.5000  0.3169
 2635SOL    HW119538   4.564   2.468   6.278 -0.9511 -1.2082  2.2686
 2635SOL    HW219539   4.543   2.390   6.154  0.3349 -1.2959  0.5000
 2636SOL     OW19540   3.718   1.847   8.653 -0.2800  0.3781 -0.2165
 2636SOL    HW119541   3.743   1.830   8.745  1.3454 -3.9213 -1.4244
 2636SOL    HW219542   3.786   1.905   8.621  0.5823 -0.1353  0.6589
 2637SOL     OW19543   1.794   0.707   6.127 -0.3363 -0.1661 -0.1156
 2637SOL    HW119544   1.728   0.680   6.191  2.3865 -0.2141  2.6624
 2637SOL    HW219545   1.736   0.707   6.051 -1.2065 -1.1574  0.5314
 2638SOL     OW19546   4.206   4.485   2.815 -0.2910  0.4586 -0.1951
 2638SOL    HW119547   4.241   4.487   2.904 -2.0547  0.9387  0.4850
 2638SOL    HW219548   4.183   4.577   2.812 -1.4557  0.1693 -0.2946
 2639SOL     OW19549   1.811   1.211   1.837  0.1730  0.2497 -0.1670
 2639SOL    HW119550   1.740   1.271   1.859 -2.2525 -1.8125 -2.5651
 2639SOL    HW219551   1.882   1.248   1.890 -1.4013  3.5735 -0.3647
 2640SOL     OW19552   2.540   2.328   6.428  0.3531 -0.1819 -0.3371
 2640SOL    HW119553   2.493   2.272   6.490 -1.0127 -0.0770 -1.2801
 2640SOL    HW219554   2.626   2.342   6.470  0.9583  0.7003 -1.8872
 2641SOL     OW19555   2.513   3.386   7.403  0.2318  0.4017 -0.8051
 2641SOL    HW119556   2.441   3.401   7.464  0.8233 -1.5958  0.3733
 2641SOL    HW219557   2.587   3.351   7.452 -1.5618  0.0295  1.6627
 2642SOL     OW19558   0.737   2.064  10.586  0.2280 -0.5924 -0.0065
 2642SOL    HW119559   0.648   2.098  10.576 -0.1834 -1.4160  0.8777
 2642SOL    HW219560   0.722   1.973  10.562 -0.9992 -0.6624  0.9921
 2643SOL     OW19561   1.290   3.998   5.350  0.0453  0.2917  0.0282
 2643SOL    HW119562   1.274   4.092   5.350  2.6170  0.7492  0.4964
 2643SOL    HW219563   1.386   4.000   5.340 -0.0811  2.0317 -0.8170
 2644SOL     OW19564   0.179   1.896  17.660 -0.0412 -0.1169 -0.0823
 2644SOL    HW119565   0.264   1.857  17.637 -0.1579 -1.0211  1.0155
 2644SOL    HW219566   0.198   1.983  17.695 -1.9368 -0.5570  2.0885
 2645SOL     OW19567   4.034   4.015   3.543  0.2424 -0.5569  0.0575
 2645SOL    HW119568   3.958   4.028   3.600  0.8416  3.2564 -0.0503
 2645SOL    HW219569   4.014   4.072   3.469 -1.9585 -1.2824  0.0665
 2646SOL     OW19570   3.992   0.524  11.823  0.2463  0.3681  0.4125
 2646SOL    HW119571   3.918   0.510  11.764  1.7069 -0.4200 -1.2349
 2646SOL    HW219572   3.951   0.528  11.909 -0.0716 -1.8238  0.3694
 2647SOL     OW19573   0.125   1.835  12.764  1.1389 -0.2302 -0.5013
 2647SOL    HW119574   0.082   1.812  12.682 -0.1320  0.7352 -0.1117
 2647SOL    HW219575   0.110   1.929  12.780  1.5462  0.3621 -3.5242
 2648SOL     OW19576   4.214   0.426   8.810  0.1538 -0.2408 -0.3119
 2648SOL    HW119577   4.274   0.495   8.838 -0.8674  0.1129  0.9957
 2648SOL    HW219578   4.277   0.357   8.790  0.2315 -0.4062  0.4874
 2649SOL     OW19579   1.840   0.607   8.939 -0.0545  0.3389 -0.1992
 2649SOL    HW119580   1.818   0.692   8.902  0.6664 -0.2890 -2.1284
 2649SOL    HW219581   1.935   0.612   8.954  0.4110 -3.9095 -1.6937
 2650SOL     OW19582   2.483   2.458   7.379 -0.0515  0.3914  0.5835
 2650SOL    HW119583   2.543   2.384   7.384  0.8699  1.1906  1.1736
 2650SOL    HW219584   2.424   2.430   7.309  0.8575 -0.4282  0.1366
 2651SOL     OW19585   4.456   0.050   0.944  0.2723 -0.0096  0.0733
 2651SOL    HW119586   4.422   4.696   0.941 -0.7813  0.3083  2.0882
 2651SOL    HW219587   4.412   0.074   1.026  1.6116  1.2590  0.4281
 2652SOL     OW19588   1.502   1.967  11.029 -0.6329 -0.5784  0.0070
 2652SOL    HW119589   1.529   2.001  10.944 -1.6428 -1.9080 -0.8569
 2652SOL    HW219590   1.496   1.875  11.000  1.8738 -1.1014  1.2214
 2653SOL     OW19591   3.578   0.423   5.152  0.3015  0.4454  0.2356
 2653SOL    HW119592   3.517   0.382   5.091  1.7899  0.8966 -1.5682
 2653SOL    HW219593   3.583   0.515   5.124 -0.4929 -0.4955 -3.0627
 2654SOL     OW19594   1.179   3.821  12.473 -0.2348  0.0718 -0.2342
 2654SOL    HW119595   1.135   3.753  12.524  1.8237  1.7746  3.7931
 2654SOL    HW219596   1.264   3.818  12.518 -1.0510  0.2693  1.3114
 2655SOL     OW19597   3.518   4.244   4.077 -0.4112  0.2067  0.3426
 2655SOL    HW119598   3.446   4.222   4.137  1.4350 -0.1243  2.4272
 2655SOL    HW219599   3.522   4.167   4.020  0.2157  0.6896 -0.2568
 2656SOL     OW19600   0.662   1.433  14.547 -0.0617  0.1066  0.3267
 2656SOL    HW119601   0.602   1.479  14.489 -1.3566  0.7316  2.1866
 2656SOL    HW219602   0.655   1.347  14.506  1.8604 -0.2084  0.6703
 2657SOL     OW19603   3.823   3.793   7.937 -0.2373  0.0151  0.5851
 2657SOL    HW119604   3.823   3.697   7.934 -0.5087  0.0413 -0.4109
 2657SOL    HW219605   3.803   3.805   7.844  1.6799  1.3796  0.3368
 2658SOL     OW19606   3.416   1.660   5.962 -0.1206 -0.7300  0.1154
 2658SOL    HW119607   3.445   1.738   6.009  1.2566 -0.9961 -0.2999
 2658SOL    HW219608   3.445   1.592   6.023  2.8575 -0.8687 -1.4728
 2659SOL     OW19609   1.175   0.657   2.576  0.2741 -0.4375 -0.4741
 2659SOL    HW119610   1.169   0.735   2.521 -0.2155  0.3156  0.6523
 2659SOL    HW219611   1.142   0.688   2.660 -2.5373 -0.4010 -1.5952
 2660SOL     OW19612   4.224   2.423   7.775  0.4216  0.0620 -0.5153
 2660SOL    HW119613   4.320   2.420   7.778  0.4586  0.5362 -1.2701
 2660SOL    HW219614   4.211   2.491   7.840  0.7964 -1.6678  1.3817
 2661SOL     OW19615   2.584   2.851   6.533 -0.2138  0.5077 -0.3097
 2661SOL    HW119616   2.560   2.938   6.501 -3.0723 -0.2620 -0.2561
 2661SOL    HW219617   2.500   2.816   6.560 -0.0371  0.1187 -0.2682
 2662SOL     OW19618   2.667   3.609   8.394 -0.3385  0.0203 -0.2878
 2662SOL    HW119619   2.687   3.532   8.448  1.3003 -1.3854 -2.9154
 2662SOL    HW219620   2.760   3.632   8.389 -0.6062  1.3421  0.8189
 2663SOL     OW19621   3.462   3.120   9.381  0.0560 -0.0097 -0.2676
 2663SOL    HW119622   3.446   3.182   9.310 -1.2756 -0.3764 -0.2919
 2663SOL    HW219623   3.526   3.170   9.431 -0.4544 -0.3456  0.7180
 2664SOL     OW19624   4.619   0.689   6.752 -0.2074 -0.2471  0.1602
 2664SOL    HW119625   4.543   0.685   6.694 -0.3741  0.0895  0.3545
 2664SOL    HW219626   4.590   0.632   6.824  0.1481  0.0684  0.5505
 2665SOL     OW19627   1.767   2.673   2.584 -0.1435  0.1847 -0.1636
 2665SOL    HW119628   1.683   2.688   2.540  0.0300  1.3183 -0.0882
 2665SOL    HW219629   1.735   2.670   2.675  0.5062 -0.0643  0.0568
 2666SOL     OW19630   0.311   0.874  10.186  0.1504  0.1858  0.0045
 2666SOL    HW119631   0.394   0.916  10.207 -0.4625  0.7908  1.2295
 2666SOL    HW219632   0.334   0.782  10.203  1.7606  0.1642 -2.2494
 2667SOL     OW19633   3.061   2.782  13.416 -0.0886  0.0854  0.0350
 2667SOL    HW119634   3.010   2.727  13.356 -0.1392  0.3441 -0.1590
 2667SOL    HW219635   3.053   2.866  13.371  0.1188 -0.1175 -0.3822
 2668SOL     OW19636   3.922   2.399   5.126  0.0083 -0.2328  0.2566
 2668SOL    HW119637   4.011   2.381   5.158  0.3845  0.2260 -0.5226
 2668SOL    HW219638   3.902   2.321   5.074  1.8782 -1.0977  0.8213
 2669SOL     OW19639   0.111   4.583   4.230 -0.0581  0.1949  0.6409
 2669SOL    HW119640   0.169   4.625   4.294  1.5973  0.2342 -0.8653
 2669SOL    HW219641   0.083   4.656   4.175 -0.0964 -0.0849  0.2882
 2670SOL     OW19642   3.847   0.651  17.327  0.3614 -0.3865 -0.7935
 2670SOL    HW119643   3.822   0.698  17.248 -2.0877  1.5568  1.1008
 2670SOL    HW219644   3.892   0.576  17.289  0.4370 -0.5251 -0.4353
 2671SOL     OW19645   3.836   0.363   3.156 -0.1007 -0.3646 -0.0241
 2671SOL    HW119646   3.834   0.270   3.179 -1.0021  0.0819  1.7187
 2671SOL    HW219647   3.856   0.406   3.239  1.2508 -0.1851 -0.4371
 2672SOL     OW19648   1.267   2.507   4.139  0.2300  0.1197 -0.4031
 2672SOL    HW119649   1.231   2.486   4.053  1.5812 -2.3548 -0.3670
 2672SOL    HW219650   1.278   2.423   4.183  1.2115  0.6100  0.2981
 2673SOL     OW19651   1.537   2.418   7.550  0.7269 -0.0302 -0.4991
 2673SOL    HW119652   1.538   2.513   7.541 -0.6225  0.0031 -0.2968
 2673SOL    HW219653   1.616   2.390   7.598  1.1895  0.1748 -1.1409
 2674SOL     OW19654   4.601   2.774   4.064  0.1444 -0.0344 -0.0896
 2674SOL    HW119655   4.644   2.692   4.039 -0.7864 -0.6823  0.4348
 2674SOL    HW219656   4.567   2.754   4.151 -0.1529 -0.8069 -0.3867
 2675SOL     OW19657   0.253   3.224   2.256 -0.3533 -0.1513  0.2002
 2675SOL    HW119658   0.182   3.242   2.317 -0.4408 -2.0963  0.6787
 2675SOL    HW219659   0.320   3.290   2.273 -0.4176 -0.0232 -0.0441
 2676SOL     OW19660   4.415   2.290  12.525  0.4804  0.1549  0.3379
 2676SOL    HW119661   4.500   2.286  12.571 -0.7496 -1.1217  2.5131
 2676SOL    HW219662   4.408   2.201  12.492 -2.1602  1.1757 -1.7968
 2677SOL     OW19663   2.209   3.704  12.113  0.4741  0.2562  0.1660
 2677SOL    HW119664   2.223   3.772  12.179 -0.2908 -1.3270  1.9620
 2677SOL    HW219665   2.123   3.733  12.081 -0.7783 -1.6686  1.7796
 2678SOL     OW19666   4.038   0.055   3.088 -0.2772 -0.4916 -0.6400
 2678SOL    HW119667   3.948   0.034   3.065 -0.1569 -2.0552  0.2399
 2678SOL    HW219668   4.060   0.095   3.005 -0.1977  1.6062  0.4043
 2679SOL     OW19669   2.960   1.461   2.315 -0.0960 -0.1046  0.2374
 2679SOL    HW119670   2.938   1.454   2.408 -2.9196 -1.9987 -0.5554
 2679SOL    HW219671   2.882   1.417   2.283  1.0418 -1.0676 -1.1934
 2680SOL     OW19672   2.947   2.129   7.446 -0.1501  0.1317  0.0400
 2680SOL    HW119673   2.890   2.080   7.505  0.6254  1.0718  1.5672
 2680SOL    HW219674   2.995   2.182   7.509  0.9413 -2.2149  1.1777
 2681SOL     OW19675   3.880   1.411   2.119  0.4891  0.0862  0.0433
 2681SOL    HW119676   3.791   1.424   2.086  1.2737 -2.2835 -2.9369
 2681SOL    HW219677   3.895   1.500   2.151 -3.5416  0.2608  1.5169
 2682SOL     OW19678   3.814   3.903   4.145  0.1636  0.0568  0.1734
 2682SOL    HW119679   3.792   3.813   4.121 -0.0996  0.0355  0.4910
 2682SOL    HW219680   3.906   3.905   4.117 -0.1731 -0.7047 -0.9984
 2683SOL     OW19681   4.701   3.825   7.119  0.1910  0.3946  0.4844
 2683SOL    HW119682   4.662   3.741   7.095  0.5672 -0.3623  2.5543
 2683SOL    HW219683   0.043   3.821   7.062 -0.4593  0.1832 -0.3738
 2684SOL     OW19684   4.467   3.199   9.553  0.2739  0.1152  0.4953
 2684SOL    HW119685   4.462   3.169   9.463 -0.3331 -0.7984  0.8394
 2684SOL    HW219686   4.482   3.293   9.543 -3.4379  0.7899  1.2364
 2685SOL     OW19687   0.059   3.779   7.600  0.0870  0.1370  0.7020
 2685SOL    HW119688   0.051   3.813   7.511 -3.0341  0.8674  1.2369
 2685SOL    HW219689   4.712   3.729   7.605  1.5275 -2.1805  1.0240
 2686SOL     OW19690   3.908   3.431   1.957 -0.1152  0.2842 -0.2012
 2686SOL    HW119691   3.855   3.402   2.031 -0.7134 -1.2647 -1.2390
 2686SOL    HW219692   3.850   3.500   1.925 -2.2932 -0.9642  1.0699
 2687SOL     OW19693   3.167   1.613   2.489 -0.0559  0.3574 -0.0702
 2687SOL    HW119694   3.109   1.538   2.502 -0.5972  0.3544 -2.5503
 2687SOL    HW219695   3.118   1.678   2.539 -0.0093 -0.4664  1.0497
 2688SOL     OW19696   1.938   3.795   8.480  0.5354 -0.0153 -0.2965
 2688SOL    HW119697   1.885   3.828   8.553  1.1075  0.9561 -0.3177
 2688SOL    HW219698   1.942   3.870   8.421 -0.9735  0.5732  0.3349
 2689SOL     OW19699   3.661   2.314  13.767 -0.0128  0.4897 -0.3201
 2689SOL    HW119700   3.718   2.260  13.712 -0.5666  1.9378 -2.3178
 2689SOL    HW219701   3.713   2.393  13.778 -0.3734  0.8229 -1.0214
 2690SOL     OW19702   0.257   3.448   2.706 -0.7201  0.5005 -0.4033
 2690SOL    HW119703   0.270   3.433   2.799 -1.3668  1.1889 -0.1990
 2690SOL    HW219704   0.298   3.533   2.691  0.3810  0.0594  0.1825
 2691SOL     OW19705   1.733   1.412   1.350  0.3592 -0.4325  0.1513
 2691SOL    HW119706   1.699   1.343   1.293  0.6801  1.0274 -1.7850
 2691SOL    HW219707   1.683   1.403   1.432 -0.8970 -0.2864 -0.5993
 2692SOL     OW19708   0.796   0.746   0.887 -0.7772 -0.4098 -0.5575
 2692SOL    HW119709   0.867   0.803   0.917 -1.6451  0.0282  0.6770
 2692SOL    HW219710   0.835   0.706   0.809  0.9387  0.7896 -0.3264
 2693SOL     OW19711   2.075   4.115  12.386 -0.5297  0.0068  0.5510
 2693SOL    HW119712   2.047   4.204  12.406  0.4614 -0.3450  3.5511
 2693SOL    HW219713   2.145   4.106  12.452 -0.8388  0.4818  0.9413
 2694SOL     OW19714   0.622   1.075   7.787  0.0945 -0.2696 -0.1097
 2694SOL    HW119715   0.564   1.003   7.811 -0.6584  0.9658  1.7309
 2694SOL    HW219716   0.654   1.099   7.873  0.5179  1.7792 -0.8451
 2695SOL     OW19717   0.111   1.253   5.200 -0.0140 -0.5965 -0.3325
 2695SOL    HW119718   0.150   1.192   5.263 -0.5615  0.2913  0.8611
 2695SOL    HW219719   0.148   1.338   5.223  1.9495 -1.4354 -0.4181
 2696SOL     OW19720   4.036   3.745   1.642 -0.4813 -0.0961 -0.4546
 2696SOL    HW119721   4.098   3.715   1.575  1.4574 -0.2054  1.4008
 2696SOL    HW219722   4.057   3.838   1.654  0.6516 -0.1901 -1.5913
 2697SOL     OW19723   2.340   4.164  17.450  0.2888 -0.1461  0.3092
 2697SOL    HW119724   2.336   4.209  17.534  2.9527 -0.3840  0.5585
 2697SOL    HW219725   2.256   4.118  17.457  0.0109  0.3123 -0.0183
 2698SOL     OW19726   2.296   2.021   3.089 -0.1804 -0.1177 -0.1483
 2698SOL    HW119727   2.333   1.938   3.117 -1.3807 -1.3460 -2.1679
 2698SOL    HW219728   2.216   1.995   3.044 -0.1770 -1.2083  0.4742
 2699SOL     OW19729   2.501   3.624   1.737 -0.3940 -0.3447  0.1210
 2699SOL    HW119730   2.434   3.663   1.793  0.2701  1.3566 -0.2444
 2699SOL    HW219731   2.532   3.549   1.786  2.8467  0.1630 -1.1358
 2700SOL     OW19732   3.302   2.300   7.806  0.0766 -0.1581 -0.1274
 2700SOL    HW119733   3.317   2.279   7.898 -3.4042 -1.0351  0.2191
 2700SOL    HW219734   3.386   2.330   7.771 -0.4472  4.6729  2.7355
 2701SOL     OW19735   2.909   1.477   3.639 -0.0251  0.1521  0.7516
 2701SOL    HW119736   2.874   1.526   3.713  3.1988  1.6960  1.2728
 2701SOL    HW219737   2.833   1.427   3.610  0.5157 -0.7331  0.8566
 2702SOL     OW19738   1.925   3.079   6.525 -0.2075 -0.1950 -0.6040
 2702SOL    HW119739   1.950   3.139   6.455 -0.3304  1.8400  1.0754
 2702SOL    HW219740   1.970   3.000   6.495  0.2568  0.1563 -0.8449
 2703SOL     OW19741   4.235   3.839  12.774  0.6574  0.8657 -0.4165
 2703SOL    HW119742   4.329   3.822  12.778  0.5090 -0.0339 -0.7968
 2703SOL    HW219743   4.232   3.933  12.755 -2.2468  1.0374  0.8948
 2704SOL     OW19744   3.105   1.020   3.543  0.1141 -0.1496 -0.2573
 2704SOL    HW119745   3.116   1.026   3.638 -0.1793 -0.6685 -0.1868
 2704SOL    HW219746   3.154   1.099   3.523  1.0900 -0.0494  2.4365
 2705SOL     OW19747   2.504   0.799  16.132  0.0408 -0.1246  0.1449
 2705SOL    HW119748   2.460   0.715  16.116  0.6487 -0.1096 -1.5596
 2705SOL    HW219749   2.567   0.765  16.196 -0.0094 -1.2063 -0.3656
 2706SOL     OW19750   0.501   4.389   6.188  0.4197  0.1807  0.2840
 2706SOL    HW119751   0.469   4.473   6.221  2.3144  0.8443  0.4346
 2706SOL    HW219752   0.422   4.336   6.199  0.2760  0.2658 -0.3425
 2707SOL     OW19753   1.073   4.038   7.131  0.1582 -0.1618  0.3766
 2707SOL    HW119754   0.980   4.012   7.131 -0.4047  1.8129  1.3595
 2707SOL    HW219755   1.110   3.966   7.080 -1.5650 -0.9580  0.2273
 2708SOL     OW19756   2.559   1.138   6.891  0.2609  0.6042 -0.1311
 2708SOL    HW119757   2.603   1.053   6.882 -0.1667  0.3837 -0.1171
 2708SOL    HW219758   2.530   1.159   6.802  1.4667 -2.3986 -1.2291
 2709SOL     OW19759   1.706   1.582  14.475 -0.8176 -0.2470 -0.3648
 2709SOL    HW119760   1.732   1.615  14.389  1.1506 -1.5258 -0.2682
 2709SOL    HW219761   1.732   1.654  14.532 -0.3296 -0.4635 -0.3167
 2710SOL     OW19762   2.207   3.085   3.409 -0.1315 -0.2415 -0.0485
 2710SOL    HW119763   2.253   3.044   3.336  0.3923  0.0799  0.0937
 2710SOL    HW219764   2.260   3.165   3.414 -0.1437 -0.1952 -0.6551
 2711SOL     OW19765   4.694   3.074   8.400  0.3988 -0.0644  0.2457
 2711SOL    HW119766   4.634   3.142   8.370 -1.4290 -1.3883  0.9198
 2711SOL    HW219767   4.659   3.003   8.346 -0.5091  0.3629  0.2668
 2712SOL     OW19768   0.755   1.133   8.018 -0.0911  0.4922 -0.0770
 2712SOL    HW119769   0.791   1.069   8.079 -0.4983  1.5853  1.3200
 2712SOL    HW219770   0.837   1.154   7.974 -0.7821  1.7164 -0.7782
 2713SOL     OW19771   1.796   0.443   7.813  0.0047 -0.1147 -0.3796
 2713SOL    HW119772   1.739   0.372   7.781 -1.7333  1.7303 -1.4097
 2713SOL    HW219773   1.857   0.393   7.866  0.2883  1.8360  1.1091
 2714SOL     OW19774   0.141   4.583   0.285  0.3071 -0.7285 -0.3392
 2714SOL    HW119775   0.069   4.585   0.348 -0.5119  0.4283 -1.2981
 2714SOL    HW219776   0.180   4.668   0.306 -1.3278 -0.1189  0.2339
 2715SOL     OW19777   4.192   0.840   0.940  0.0801 -0.1194  0.6852
 2715SOL    HW119778   4.180   0.778   0.868 -0.8879  0.8166  0.0280
 2715SOL    HW219779   4.102   0.867   0.959 -0.6887 -0.1104 -2.8457
 2716SOL     OW19780   3.857   4.285   6.328  0.1403  0.3179  0.4536
 2716SOL    HW119781   3.837   4.301   6.236 -0.8942 -1.9886  0.2680
 2716SOL    HW219782   3.952   4.293   6.328  0.1404  0.2997  0.6612
 2717SOL     OW19783   3.395   4.299   5.219 -0.2719 -0.0919  0.5222
 2717SOL    HW119784   3.302   4.293   5.239 -0.6848 -0.4088 -1.5107
 2717SOL    HW219785   3.434   4.260   5.297  0.2066 -1.3825 -0.3599
 2718SOL     OW19786   3.637   0.322   8.316 -0.2506 -0.4051  0.0331
 2718SOL    HW119787   3.600   0.235   8.332 -1.0785 -0.3468 -1.5291
 2718SOL    HW219788   3.730   0.301   8.324 -1.0388 -3.0553  2.3076
 2719SOL     OW19789   4.550   4.148   6.824 -0.5579  0.0387  0.1940
 2719SOL    HW119790   4.588   4.153   6.912  0.3649 -0.7277 -0.1542
 2719SOL    HW219791   4.627   4.113   6.779  0.0101 -0.0504  1.2291
 2720SOL     OW19792   1.970   2.106   6.532  0.5755  0.6173  0.0159
 2720SOL    HW119793   1.920   2.089   6.612 -0.3333  0.2339 -0.6484
 2720SOL    HW219794   2.037   2.169   6.561  0.4700  0.5267  0.4660
 2721SOL     OW19795   0.142   3.696   5.525 -0.2152 -0.2221 -0.3462
 2721SOL    HW119796   0.059   3.685   5.573  0.3499 -0.1948  0.6356
 2721SOL    HW219797   0.130   3.779   5.480  1.0857 -0.0161 -0.3031
 2722SOL     OW19798   2.520   4.216  13.539 -0.0705  0.3912 -0.6427
 2722SOL    HW119799   2.445   4.223  13.480  0.6432  0.9611 -1.4880
 2722SOL    HW219800   2.533   4.122  13.531 -0.0830  0.2198  1.5031
 2723SOL     OW19801   1.219   3.749  13.576  0.1803  0.0945  0.1600
 2723SOL    HW119802   1.247   3.719  13.489  0.4665 -0.0806  0.3139
 2723SOL    HW219803   1.264   3.833  13.581 -0.0325  0.3864 -2.5327
 2724SOL     OW19804   2.687   2.868   3.477 -0.1894 -0.1070  0.1094
 2724SOL    HW119805   2.600   2.832   3.496  0.0746 -0.0790  1.3929
 2724SOL    HW219806   2.738   2.797   3.514  0.6193  1.7559  2.5572
 2725SOL     OW19807   4.446   4.168   0.960 -0.5291  0.4016 -0.6774
 2725SOL    HW119808   4.448   4.227   1.036  2.2855 -0.8249  0.2130
 2725SOL    HW219809   4.372   4.112   0.982  0.1641 -0.3692 -0.2887
 2726SOL     OW19810   2.453   4.200   7.381 -0.0728  0.4502  0.2553
 2726SOL    HW119811   2.418   4.250   7.307  0.1249  0.5005  0.1942
 2726SOL    HW219812   2.397   4.123   7.389 -0.5293  0.8675  1.0909
 2727SOL     OW19813   0.829   4.420   5.729  0.2311  0.0234  0.9731
 2727SOL    HW119814   0.914   4.440   5.768  0.6769 -0.8409  0.4436
 2727SOL    HW219815   0.846   4.341   5.678 -4.4017 -0.7311  0.6048
 2728SOL     OW19816   4.676   1.794  12.070  0.6633  0.0990 -0.1158
 2728SOL    HW119817   4.679   1.773  12.164 -3.2520 -1.7728 -0.3930
 2728SOL    HW219818   4.694   1.888  12.075  1.2506 -0.0457  0.5039
 2729SOL     OW19819   0.972   3.546   9.520 -0.3778  0.4033 -0.0958
 2729SOL    HW119820   0.921   3.472   9.554  0.1863 -0.2793 -0.7051
 2729SOL    HW219821   0.974   3.524   9.427 -0.5259 -1.5233  0.3362
 2730SOL     OW19822   3.649   4.091   2.944  0.4190  0.3147  0.2956
 2730SOL    HW119823   3.727   4.081   2.890 -0.1919 -2.4836 -0.0330
 2730SOL    HW219824   3.683   4.085   3.034 -2.8152  1.7922  1.6176
 2731SOL     OW19825   2.793   0.114   8.081  0.4997  0.3352 -0.4241
 2731SOL    HW119826   2.824   0.023   8.080  2.1486  0.9129 -1.1618
 2731SOL    HW219827   2.730   0.119   8.153  1.1302  1.2567  0.0474
 2732SOL     OW19828   0.208   0.122  13.582  0.0695  0.0958  0.1306
 2732SOL    HW119829   0.260   0.155  13.509  1.6457 -0.7968  0.8491
 2732SOL    HW219830   0.275   0.104  13.648  1.6019  0.3676 -1.3517
 2733SOL     OW19831   0.205   3.463  14.490 -0.1379  0.2803  0.2567
 2733SOL    HW119832   0.151   3.413  14.429 -0.5189  0.4331  0.4653
 2733SOL    HW219833   0.290   3.423  14.472 -0.1273  0.4781 -0.1328
 2734SOL     OW19834   4.654   2.814   1.059 -0.1024  0.0174 -0.1218
 2734SOL    HW119835   4.678   2.753   0.989 -0.3794 -0.7423  0.4440
 2734SOL    HW219836   0.000   2.805   1.110 -1.6617 -1.4956  2.1208
 2735SOL     OW19837   3.146   0.143  15.080 -0.1464  0.2267 -0.0950
 2735SOL    HW119838   3.066   0.187  15.052 -1.1145 -0.8468  0.9501
 2735SOL    HW219839   3.192   0.172  15.001  0.9361  1.0146  0.8337
 2736SOL     OW19840   0.175   3.354  11.248  0.7019  0.0705  0.0248
 2736SOL    HW119841   0.137   3.442  11.252  1.0610  0.1928  0.7750
 2736SOL    HW219842   0.110   3.298  11.291 -0.7648  1.0006 -0.9680
 2737SOL     OW19843   2.517   4.054   8.396 -0.1594  0.3252  0.5580
 2737SOL    HW119844   2.570   4.118   8.443  2.2646 -0.7264 -0.7600
 2737SOL    HW219845   2.590   4.000   8.365 -0.3940  1.4553 -1.9729
 2738SOL     OW19846   3.938   3.529  15.705 -0.1380  0.0587  0.0360
 2738SOL    HW119847   3.994   3.502  15.633 -1.3243  1.0177 -1.2409
 2738SOL    HW219848   3.871   3.576  15.656  1.4995  0.9514 -1.3474
 2739SOL     OW19849   0.774   3.385   3.258 -0.2503 -0.5340  0.6539
 2739SOL    HW119850   0.696   3.396   3.204 -0.7614  0.2495  1.5434
 2739SOL    HW219851   0.734   3.343   3.335 -1.6829  1.0103  0.7589
 2740SOL     OW19852   0.832   4.125   4.311 -0.2450 -0.4775 -0.3676
 2740SOL    HW119853   0.788   4.057   4.363  1.3033 -0.8882  0.4135
 2740SOL    HW219854   0.760   4.188   4.313  2.4977  2.6268  1.1950
 2741SOL     OW19855   2.126   1.387   2.276  0.5325  0.9192  0.3644
 2741SOL    HW119856   2.107   1.478   2.252  1.6205  1.3669  1.1691
 2741SOL    HW219857   2.193   1.396   2.344  1.3739  1.5338 -0.5501
 2742SOL     OW19858   1.573   2.426  10.872 -0.7891 -0.1116 -0.4744
 2742SOL    HW119859   1.587   2.358  10.938  1.5663 -1.0062 -1.8863
 2742SOL    HW219860   1.481   2.400  10.864 -1.0318  0.8020 -0.6144
 2743SOL     OW19861   3.949   1.960   4.152 -0.5292  0.6013 -0.4317
 2743SOL    HW119862   3.993   2.038   4.120 -0.4628  0.0853 -1.5813
 2743SOL    HW219863   4.028   1.916   4.183 -1.5898  0.8614  2.6411
 2744SOL     OW19864   3.371   2.775   3.250  0.0680 -1.4635  0.9563
 2744SOL    HW119865   3.452   2.749   3.295  1.5597 -0.1654 -0.9692
 2744SOL    HW219866   3.361   2.714   3.177  1.2145 -1.7599  1.0380
 2745SOL     OW19867   2.528   3.322   7.104  0.5231 -0.1019 -0.1268
 2745SOL    HW119868   2.584   3.364   7.039  0.3614  0.6715  0.2343
 2745SOL    HW219869   2.533   3.380   7.180  0.1232  0.5574 -0.5958
 2746SOL     OW19870   3.917   2.505   2.858  0.4840  0.2184  0.1880
 2746SOL    HW119871   3.989   2.485   2.798  2.3061  1.8140  1.8028
 2746SOL    HW219872   3.971   2.516   2.937  1.1869  1.1265 -0.4122
 2747SOL     OW19873   1.423   3.128   5.635 -0.2400  0.4681  0.2679
 2747SOL    HW119874   1.376   3.168   5.708  0.1495  0.8148  0.3334
 2747SOL    HW219875   1.468   3.205   5.598  0.2320  1.3306  2.6201
 2748SOL     OW19876   2.625   1.900  15.580 -0.5553  0.1007  0.1822
 2748SOL    HW119877   2.535   1.930  15.591 -0.8827  0.0496 -2.3492
 2748SOL    HW219878   2.635   1.875  15.488  0.2889  0.0697  0.2834
 2749SOL     OW19879   4.632   1.388   6.730  0.4059  0.3888  0.5406
 2749SOL    HW119880   4.609   1.446   6.802  0.7950  0.6321  0.4719
 2749SOL    HW219881   4.694   1.330   6.775  1.9148  2.0029  0.5555
 2750SOL     OW19882   3.362   1.005   5.578  0.6045 -0.1331  0.2625
 2750SOL    HW119883   3.427   1.050   5.632  0.5656  0.0147  0.1883
 2750SOL    HW219884   3.347   0.921   5.622  1.8326 -0.3306  0.2953
 2751SOL     OW19885   2.090   1.897   4.816 -0.2458 -0.1840  0.2678
 2751SOL    HW119886   2.035   1.890   4.738  0.8111 -0.8422 -0.4006
 2751SOL    HW219887   2.027   1.944   4.871 -0.8245 -3.0643  2.0732
 2752SOL     OW19888   1.259   0.164   9.837 -0.0356 -0.7585 -0.0106
 2752SOL    HW119889   1.317   0.116   9.779 -1.2387 -2.9602  0.5889
 2752SOL    HW219890   1.186   0.101   9.837  2.0130 -3.1138 -1.5953
 2753SOL     OW19891   1.535   3.262  11.693  0.1481 -0.5371  0.0090
 2753SOL    HW119892   1.567   3.345  11.730 -1.4164  0.4815 -0.9486
 2753SOL    HW219893   1.442   3.281  11.683  0.7172  1.1815 -2.1144
 2754SOL     OW19894   2.183   0.023  10.127 -0.1367 -1.1740  0.1237
 2754SOL    HW119895   2.110   0.058  10.076  1.5799 -1.2074 -2.3340
 2754SOL    HW219896   2.161   4.665  10.132 -0.2011 -1.0506  2.3345
 2755SOL     OW19897   1.366   4.302   5.419  0.2185 -0.0291 -0.4296
 2755SOL    HW119898   1.367   4.280   5.326  2.2490 -0.2370 -0.3543
 2755SOL    HW219899   1.298   4.369   5.424  1.5502  1.3038 -0.4028
 2756SOL     OW19900   0.622   2.696   4.284 -0.4906 -0.5345  0.3301
 2756SOL    HW119901   0.530   2.669   4.278 -0.4555 -0.1689 -1.5857
 2756SOL    HW219902   0.661   2.610   4.299 -0.9765 -1.1902 -2.2493
 2757SOL     OW19903   2.986   1.555   5.247 -0.0090 -0.2999  0.2434
 2757SOL    HW119904   2.924   1.494   5.208 -1.7432  1.1968  0.6915
 2757SOL    HW219905   3.068   1.505   5.243 -0.4369 -0.9942  0.2844
 2758SOL     OW19906   2.087   4.557   4.672 -0.1707  0.0332  0.2821
 2758SOL    HW119907   2.002   4.599   4.687  0.4920  1.7451 -0.7876
 2758SOL    HW219908   2.065   4.465   4.686 -3.6699  0.9261  0.6022
 2759SOL     OW19909   1.422   1.989  11.677 -0.1643 -0.4683  0.3292
 2759SOL    HW119910   1.459   2.019  11.760 -0.3938 -2.1224  1.0195
 2759SOL    HW219911   1.427   2.061  11.614  2.3458 -0.7645  0.1884
 2760SOL     OW19912   2.389   0.432   7.274 -0.0795  0.4987 -0.0328
 2760SOL    HW119913   2.435   0.495   7.330  2.9053 -1.9712  0.3385
 2760SOL    HW219914   2.309   0.483   7.270 -1.0667 -1.0654 -0.3800
 2761SOL     OW19915   2.886   0.397  13.133  0.1302  0.1390 -0.0008
 2761SOL    HW119916   2.887   0.491  13.113 -2.8456  0.0921 -0.3996
 2761SOL    HW219917   2.791   0.399  13.147  0.1781  1.6914  0.1180
 2762SOL     OW19918   2.507   3.743   5.543  0.2055 -0.4509 -0.8156
 2762SOL    HW119919   2.601   3.730   5.557 -0.1540 -1.2663  0.7378
 2762SOL    HW219920   2.475   3.656   5.564 -1.6091  0.5294  0.4742
 2763SOL     OW19921   3.500   1.386  17.438 -0.3738 -0.1293 -0.5469
 2763SOL    HW119922   3.463   1.473  17.422  2.0077  0.5170 -2.5820
 2763SOL    HW219923   3.437   1.339  17.492  2.2563 -2.0538  0.8268
 2764SOL     OW19924   4.460   4.715   2.046  0.7680  0.1811  0.3167
 2764SOL    HW119925   4.483   0.016   2.132  1.9462  0.1613  0.0169
 2764SOL    HW219926   4.479   0.056   1.990 -1.3482 -0.6565 -1.5022
 2765SOL     OW19927   0.659   1.912   9.371 -0.4041  0.1352  0.2057
 2765SOL    HW119928   0.755   1.919   9.372 -0.5786  2.7466 -0.5402
 2765SOL    HW219929   0.646   1.990   9.425  1.7758  0.2939  0.5052
 2766SOL     OW19930   3.078   4.250   5.651 -0.0589  0.2880 -0.0108
 2766SOL    HW119931   2.995   4.296   5.661 -0.3893 -0.8157  2.1373
 2766SOL    HW219932   3.134   4.324   5.675  0.2879  0.3695 -1.0623
 2767SOL     OW19933   0.149   0.984   7.290  0.0145 -0.6093 -0.2826
 2767SOL    HW119934   0.132   0.931   7.369 -2.8762 -2.8985 -2.4529
 2767SOL    HW219935   0.232   1.024   7.316  0.0479 -0.0282 -1.3071
 2768SOL     OW19936   2.912   2.925   6.023 -0.2120 -0.7299  0.5807
 2768SOL    HW119937   2.845   2.898   6.086 -1.7847 -0.4695 -0.9562
 2768SOL    HW219938   2.983   2.919   6.087 -0.1574 -0.7589  0.5173
 2769SOL     OW19939   2.958   1.588  17.489 -0.6345 -0.5195  0.1631
 2769SOL    HW119940   2.998   1.675  17.494 -0.8067 -0.1740 -5.1250
 2769SOL    HW219941   3.034   1.530  17.479 -0.6522 -0.6242  0.5964
 2770SOL     OW19942   4.225   0.947   6.141  0.5146  1.0380  0.1403
 2770SOL    HW119943   4.180   0.864   6.129 -0.3837  1.4217  0.8684
 2770SOL    HW219944   4.272   0.928   6.222  0.5103  1.3268  0.2119
 2771SOL     OW19945   4.220   2.124   9.851  0.1428  0.3752  0.0953
 2771SOL    HW119946   4.230   2.192   9.785  3.8379  0.1651  0.4576
 2771SOL    HW219947   4.173   2.063   9.794  2.2730 -0.7730 -0.4121
 2772SOL     OW19948   2.412   0.455   3.093 -0.3513 -0.4391 -0.3712
 2772SOL    HW119949   2.351   0.484   3.161  1.2874  1.1321  0.4356
 2772SOL    HW219950   2.427   0.364   3.117 -0.5307 -0.4228 -0.2051
 2773SOL     OW19951   3.611   3.198   7.521  0.3669  0.1290  0.4342
 2773SOL    HW119952   3.541   3.228   7.464  0.6822  0.6189  0.3120
 2773SOL    HW219953   3.664   3.145   7.461  0.9650 -1.3580  2.2519
 2774SOL     OW19954   3.728   4.071   7.560  0.3993  0.2949 -0.2935
 2774SOL    HW119955   3.780   4.040   7.486  1.1522  0.9551 -0.0309
 2774SOL    HW219956   3.677   4.145   7.525 -0.2702  0.1736  0.4244
 2775SOL     OW19957   1.417   3.612   6.301  0.6845  0.0054 -0.1466
 2775SOL    HW119958   1.480   3.551   6.341  1.3733  0.5383 -0.4076
 2775SOL    HW219959   1.461   3.697   6.299  0.3940  0.1219 -1.6372
 2776SOL     OW19960   2.003   1.165   9.488  0.0874 -0.0295  0.4988
 2776SOL    HW119961   2.010   1.189   9.395 -0.9238 -0.4947  0.3054
 2776SOL    HW219962   1.911   1.146   9.502 -0.0047 -0.1079 -0.1964
 2777SOL     OW19963   2.791   2.425  11.193  0.0467 -0.2079  0.3337
 2777SOL    HW119964   2.758   2.386  11.274  0.6136 -0.9017  0.2355
 2777SOL    HW219965   2.883   2.413  11.220 -0.4966 -3.2048  0.8016
 2778SOL     OW19966   2.040   0.455  11.946 -0.6372 -0.1441  0.0387
 2778SOL    HW119967   2.024   0.371  11.989 -2.0253 -0.5711 -1.3300
 2778SOL    HW219968   2.036   0.520  12.016  2.2064 -0.5393  0.5658
 2779SOL     OW19969   2.148   0.582   1.419  0.2408 -0.0482  0.5376
 2779SOL    HW119970   2.201   0.516   1.374 -1.8494 -0.8814 -0.6941
 2779SOL    HW219971   2.140   0.648   1.350  0.2690 -1.7625 -1.1021
 2780SOL     OW19972   2.147   0.964  17.001  0.1427 -0.2589 -0.1343
 2780SOL    HW119973   2.150   0.873  17.032  0.3110 -0.6711 -1.3517
 2780SOL    HW219974   2.223   1.004  17.042  1.1005 -0.6284 -1.5370
 2781SOL     OW19975   1.761   2.206   7.452  0.1612 -0.5316 -0.0271
 2781SOL    HW119976   1.755   2.117   7.488 -0.9246  0.7963  2.9641
 2781SOL    HW219977   1.760   2.260   7.530 -1.2985 -2.1160  1.0578
 2782SOL     OW19978   1.199   3.506   5.341  0.3742  0.3784  0.2356
 2782SOL    HW119979   1.202   3.568   5.413  1.1423  0.5103  0.0941
 2782SOL    HW219980   1.129   3.533   5.282  0.4123  1.9501  0.9034
 2783SOL     OW19981   1.773   4.464  17.549  0.2976 -0.0213  0.5661
 2783SOL    HW119982   1.783   4.374  17.519  0.4177  0.6105 -1.2741
 2783SOL    HW219983   1.679   4.479  17.549  0.3933  0.5945  0.5737
 2784SOL     OW19984   2.528   4.597   6.938  0.0049 -0.1223 -0.7565
 2784SOL    HW119985   2.436   4.619   6.920 -0.6195 -2.0295  0.2113
 2784SOL    HW219986   2.590   4.664   6.907  1.1040 -0.6819  0.2239
 2785SOL     OW19987   3.243   3.979  13.054  0.1184 -0.0529  0.1225
 2785SOL    HW119988   3.173   3.978  13.120 -1.8094 -0.1754 -1.9273
 2785SOL    HW219989   3.193   3.963  12.973  1.5023 -0.6448 -0.6108
 2786SOL     OW19990   2.631   0.063   0.627  0.2094 -0.0382 -0.3899
 2786SOL    HW119991   2.642   0.153   0.656  0.5808 -0.4339  0.6852
 2786SOL    HW219992   2.545   0.071   0.584  0.6405 -1.9971 -1.6518
 2787SOL     OW19993   3.537   3.617   6.830 -0.4552  0.2826  0.7972
 2787SOL    HW119994   3.496   3.695   6.792  0.9538  0.6265 -0.0173
 2787SOL    HW219995   3.627   3.651   6.823 -0.6822  0.7327  0.0933
 2788SOL     OW19996   0.747   4.167   9.398  0.0020 -0.1645 -0.4753
 2788SOL    HW119997   0.803   4.097   9.367  1.0666  0.0717  0.9538
 2788SOL    HW219998   0.699   4.192   9.319 -1.8790 -1.2029  0.3358
 2789SOL     OW19999   4.341   3.732   6.538 -0.6925  0.1506  0.7924
 2789SOL    HW120000   4.404   3.741   6.609 -0.2198 -1.3087  0.5619
 2789SOL    HW220001   4.279   3.665   6.564  0.2545  0.1675  3.0638
 2790SOL     OW20002   3.075   2.792   9.703  0.2727  0.5770 -0.0855
 2790SOL    HW120003   3.160   2.777   9.661 -0.1821  0.4151 -0.9593
 2790SOL    HW220004   3.045   2.701   9.694  0.1339  0.4535  1.7131
 2791SOL     OW20005   2.549   2.137  10.579  0.1056 -0.4945  0.0959
 2791SOL    HW120006   2.626   2.085  10.558 -0.1579 -0.1725 -1.7052
 2791SOL    HW220007   2.595   2.202  10.631 -1.3612  0.2389  0.4925
 2792SOL     OW20008   4.496   1.359  11.074  0.5115 -0.3633  0.1583
 2792SOL    HW120009   4.470   1.318  11.156 -1.4108  1.3384  0.3966
 2792SOL    HW220010   4.569   1.410  11.109 -1.5821  4.1112 -2.0212
 2793SOL     OW20011   2.855   1.073  13.845  0.3062  0.3839 -0.5763
 2793SOL    HW120012   2.871   0.979  13.856  0.7427  0.2091 -2.6377
 2793SOL    HW220013   2.786   1.099  13.905  1.8608  0.5798  1.1529
 2794SOL     OW20014   0.179   0.654   3.358 -0.5826 -0.0681  0.1880
 2794SOL    HW120015   0.141   0.577   3.316 -2.9778  2.0076 -1.4127
 2794SOL    HW220016   0.264   0.609   3.366 -0.6733 -0.0923  1.0137
 2795SOL     OW20017   0.070   1.082   7.633 -0.7553  0.2739 -0.3097
 2795SOL    HW120018   0.053   1.111   7.722 -1.1713  0.0861 -0.3260
 2795SOL    HW220019   0.113   1.164   7.607  1.9435 -1.0543  0.0186
 2796SOL     OW20020   2.019   2.430   5.410  0.5719  0.3117 -0.1975
 2796SOL    HW120021   2.064   2.443   5.493  0.4029  0.6293 -0.1536
 2796SOL    HW220022   2.077   2.366   5.369 -0.1258 -0.8310  0.6227
 2797SOL     OW20023   3.269   1.208   7.383  0.2829 -0.4119 -0.0376
 2797SOL    HW120024   3.302   1.277   7.440  2.2124 -0.9553 -0.4784
 2797SOL    HW220025   3.355   1.180   7.351  0.0832  1.3338 -2.1412
 2798SOL     OW20026   3.970   2.489   9.385  0.2507 -0.1574 -0.0560
 2798SOL    HW120027   4.002   2.428   9.319 -1.1087 -0.9129 -0.0091
 2798SOL    HW220028   4.045   2.488   9.445  0.5042 -0.8823 -0.3909
 2799SOL     OW20029   1.820   4.302   2.285 -0.4751  0.0955  0.4582
 2799SOL    HW120030   1.900   4.351   2.266 -1.1928  1.5506  1.1529
 2799SOL    HW220031   1.819   4.231   2.221  2.7641 -0.1672  0.6781
 2800SOL     OW20032   0.724   2.606   8.167  0.2485  0.4177  0.6252
 2800SOL    HW120033   0.731   2.696   8.197 -2.2881  0.5133  0.9592
 2800SOL    HW220034   0.788   2.595   8.098  1.1661  0.9575  1.3930
 2801SOL     OW20035   1.716   2.647  14.168  0.0040 -0.5685  0.0099
 2801SOL    HW120036   1.630   2.644  14.211 -0.9015  0.8959 -1.6785
 2801SOL    HW220037   1.724   2.739  14.144  1.4983 -0.3025  1.5068
 2802SOL     OW20038   0.108   3.136  10.188 -0.2382 -0.0643 -0.5699
 2802SOL    HW120039   0.090   3.124  10.281 -3.2197 -0.2422 -1.1910
 2802SOL    HW220040   0.057   3.213  10.164 -1.0699 -0.5685 -0.4172
 2803SOL     OW20041   4.340   4.187   4.115  0.4090  0.6799  0.2978
 2803SOL    HW120042   4.259   4.175   4.165 -0.1711  1.1485 -0.5363
 2803SOL    HW220043   4.401   4.153   4.180 -0.8240 -1.2712  0.4439
 2804SOL     OW20044   4.181   0.949  14.594 -0.1973  0.3985 -0.2424
 2804SOL    HW120045   4.088   0.961  14.612 -0.4253  0.4364 -1.4359
 2804SOL    HW220046   4.229   0.933  14.675 -1.7764  0.5631  0.7278
 2805SOL     OW20047   2.159   1.151   2.995  0.0541 -0.2106 -0.0360
 2805SOL    HW120048   2.086   1.170   2.937 -0.6482  0.4743  1.0762
 2805SOL    HW220049   2.138   1.060   3.015  2.7847 -0.7082  0.5253
 2806SOL     OW20050   2.603   2.974   2.639  0.0716  0.2431 -0.3317
 2806SOL    HW120051   2.601   2.883   2.669  1.0750  0.2287 -0.2981
 2806SOL    HW220052   2.523   3.013   2.672  2.0327  2.7869  1.4303
 2807SOL     OW20053   4.160   0.531  10.038 -0.4338  0.0969 -0.2236
 2807SOL    HW120054   4.173   0.452  10.091 -1.8549  0.1716  0.2342
 2807SOL    HW220055   4.200   0.596  10.096  2.1822 -1.2338 -0.5491
 2808SOL     OW20056   2.389   0.003   7.633  0.1248  0.1101 -0.5220
 2808SOL    HW120057   2.452   4.690   7.686 -1.3526  0.2426  1.3767
 2808SOL    HW220058   2.453   0.048   7.578  0.2564  1.9562  1.1400
 2809SOL     OW20059   2.286   4.700   6.566  0.0099  0.0370 -0.1947
 2809SOL    HW120060   2.339   4.621   6.558  1.8038  1.3887 -1.6106
 2809SOL    HW220061   2.354   0.027   6.540 -1.3119  0.5557 -2.3972
 2810SOL     OW20062   3.995   2.620  16.906  0.2902  0.6132 -0.1939
 2810SOL    HW120063   4.005   2.532  16.870  0.1819  0.3290  0.4664
 2810SOL    HW220064   3.967   2.668  16.828  0.3864  1.2492  0.1598
 2811SOL     OW20065   0.440   2.193   6.780 -0.0409  0.1994  0.0394
 2811SOL    HW120066   0.386   2.242   6.841  1.5099 -0.8378  2.2402
 2811SOL    HW220067   0.457   2.262   6.715  0.7058 -1.1726 -1.2080
 2812SOL     OW20068   4.102   2.824   8.171 -0.3090  0.1631 -0.0189
 2812SOL    HW120069   4.188   2.865   8.158  0.9583 -2.8909 -1.3096
 2812SOL    HW220070   4.053   2.898   8.207 -1.1510 -0.3999 -0.0208
 2813SOL     OW20071   0.438   3.159   8.600 -0.1247  0.4350 -0.3438
 2813SOL    HW120072   0.416   3.075   8.641 -0.5688  0.9863  0.5428
 2813SOL    HW220073   0.357   3.209   8.611 -0.6151 -0.2116 -1.0592
 2814SOL     OW20074   1.598   3.135   6.430 -0.0038  0.6221 -0.7447
 2814SOL    HW120075   1.575   3.046   6.456  0.1863  0.0692 -2.4523
 2814SOL    HW220076   1.692   3.134   6.450 -0.4181  0.7300  1.2227
 2815SOL     OW20077   0.476   4.586  15.801 -0.1721 -0.3567 -0.0081
 2815SOL    HW120078   0.484   4.661  15.743  0.7594 -0.7826 -0.4405
 2815SOL    HW220079   0.429   4.524  15.746 -1.4970  1.5001 -0.9484
 2816SOL     OW20080   0.845   3.919  12.291 -0.4171  0.4924  0.2952
 2816SOL    HW120081   0.780   3.945  12.225  0.3912 -1.5184 -1.2718
 2816SOL    HW220082   0.851   3.998  12.345  0.4273  0.9573 -0.4815
 2817SOL     OW20083   0.480   3.196   3.821  0.7069 -0.1301 -0.6055
 2817SOL    HW120084   0.487   3.157   3.735  0.6558 -0.6632 -0.3647
 2817SOL    HW220085   0.469   3.116   3.873 -1.1050 -0.3014 -1.2713
 2818SOL     OW20086   4.215   1.381   0.591 -0.5010 -0.0057  0.0518
 2818SOL    HW120087   4.181   1.323   0.658 -0.9375 -0.5184 -0.6180
 2818SOL    HW220088   4.277   1.431   0.644  1.3839  0.7578 -2.8518
 2819SOL     OW20089   1.893   2.187   4.379  0.3238  0.2454 -0.9576
 2819SOL    HW120090   1.964   2.145   4.332 -0.6105 -2.8868  0.3862
 2819SOL    HW220091   1.898   2.279   4.353  0.1217  0.3539 -0.6258
 2820SOL     OW20092   1.743   3.045   3.839 -0.9934 -0.6366  0.3473
 2820SOL    HW120093   1.651   3.033   3.818 -0.5973  0.7599 -2.2110
 2820SOL    HW220094   1.738   3.098   3.918 -0.6221  1.4315 -1.0049
 2821SOL     OW20095   2.015   3.273   7.447  0.3602 -0.0855  0.6555
 2821SOL    HW120096   1.991   3.336   7.515  0.0343 -0.7537  1.1553
 2821SOL    HW220097   1.956   3.314   7.383 -0.8046 -0.9519  1.1849
 2822SOL     OW20098   2.058   0.798  11.933  0.0331 -0.2843 -0.5054
 2822SOL    HW120099   2.129   0.802  11.869  0.9121 -0.6224  0.4432
 2822SOL    HW220100   2.109   0.799  12.014 -0.9190 -0.1662  0.0928
 2823SOL     OW20101   1.692   1.945   5.955  0.1721 -0.0530 -0.4929
 2823SOL    HW120102   1.623   1.880   5.965 -1.2152  1.1973 -2.0525
 2823SOL    HW220103   1.646   1.988   5.883 -0.5497  1.1265  0.6731
 2824SOL     OW20104   2.290   3.586  15.468 -0.4726  0.4889 -0.4378
 2824SOL    HW120105   2.352   3.578  15.540  0.1083 -0.4773 -1.0481
 2824SOL    HW220106   2.256   3.496  15.464 -0.7623  0.5584  0.5833
 2825SOL     OW20107   3.484   2.198   6.832  0.1386 -0.3343  0.2115
 2825SOL    HW120108   3.539   2.120   6.818  1.5100  1.0374 -2.0432
 2825SOL    HW220109   3.433   2.171   6.909 -1.2420  1.9292  0.0857
 2826SOL     OW20110   2.959   1.012  10.710  0.4393 -0.5246  0.1719
 2826SOL    HW120111   2.988   0.947  10.774 -1.7242  1.0714  2.7266
 2826SOL    HW220112   3.042   1.061  10.699  1.0685 -1.9572 -1.5668
 2827SOL     OW20113   0.367   2.963   4.324  0.1476 -0.4413  0.4470
 2827SOL    HW120114   0.415   3.008   4.255 -1.5659 -0.4252 -0.7313
 2827SOL    HW220115   0.297   2.935   4.264  0.6166  0.0026 -0.2977
 2828SOL     OW20116   2.611   4.556   8.819 -0.1032 -0.7893  0.5060
 2828SOL    HW120117   2.650   4.475   8.852  0.4608 -1.0353 -0.7811
 2828SOL    HW220118   2.541   4.516   8.767 -1.0927  1.7962 -0.1381
 2829SOL     OW20119   3.394   1.093   5.139  0.3746  0.4562  0.1943
 2829SOL    HW120120   3.392   1.127   5.228 -0.5887  0.8426  0.0322
 2829SOL    HW220121   3.448   1.015   5.147 -1.0151 -0.5094  0.0036
 2830SOL     OW20122   3.774   4.334   5.801  0.2115 -0.2938  0.2397
 2830SOL    HW120123   3.825   4.415   5.795  0.6918 -0.6873 -0.8904
 2830SOL    HW220124   3.721   4.352   5.879 -1.2225  0.1842 -0.8481
 2831SOL     OW20125   2.200   4.274   7.474 -0.0077  0.3071 -0.2796
 2831SOL    HW120126   2.158   4.309   7.395  0.6871  2.7367  0.4146
 2831SOL    HW220127   2.213   4.181   7.454 -1.2319 -0.0011  0.4124
 2832SOL     OW20128   0.030   1.262   4.206 -0.6500  0.0450 -0.2254
 2832SOL    HW120129   0.055   1.179   4.247 -0.6169  0.7374  1.1844
 2832SOL    HW220130   0.109   1.317   4.217 -0.5697 -0.4954  1.8785
 2833SOL     OW20131   1.841   3.712   4.870  0.3369 -0.4999  0.9258
 2833SOL    HW120132   1.860   3.747   4.957  3.5022 -2.2527  0.9543
 2833SOL    HW220133   1.764   3.656   4.880 -0.2355  0.4804  1.8911
 2834SOL     OW20134   1.711   4.000   7.402 -0.2206  0.6944 -0.0936
 2834SOL    HW120135   1.767   4.064   7.445  1.3537 -1.2922  0.7968
 2834SOL    HW220136   1.668   4.058   7.339  0.6125  0.7743 -0.5919
 2835SOL     OW20137   1.023   3.985   1.562  0.4827  0.4942  0.1399
 2835SOL    HW120138   1.110   3.999   1.526 -0.6268 -1.6470 -3.4004
 2835SOL    HW220139   0.977   4.034   1.494  0.9659  0.4214 -0.2362
 2836SOL     OW20140   3.230   2.056   8.435  0.3492 -0.0735 -0.2172
 2836SOL    HW120141   3.270   1.995   8.374  0.0240 -0.4613 -0.0449
 2836SOL    HW220142   3.204   1.995   8.505 -0.7643 -0.1077 -0.6560
 2837SOL     OW20143   1.790   4.150  13.526  0.1433 -0.7481  0.5797
 2837SOL    HW120144   1.785   4.081  13.592 -1.3466 -1.8498 -0.6855
 2837SOL    HW220145   1.885   4.149  13.529  0.0748 -2.9359  2.6892
 2838SOL     OW20146   0.579   3.358  12.251 -0.2409  0.1542  0.3394
 2838SOL    HW120147   0.629   3.419  12.306 -0.1203  1.2262 -0.9764
 2838SOL    HW220148   0.489   3.371  12.282 -0.9213  2.8732 -2.8464
 2839SOL     OW20149   0.326   0.631  16.600 -0.1498  0.6621 -0.7518
 2839SOL    HW120150   0.237   0.652  16.573 -0.1295  0.3725 -1.0406
 2839SOL    HW220151   0.358   0.587  16.522 -1.6800 -1.1938 -0.3129
 2840SOL     OW20152   3.427   3.550   9.098 -0.0193  0.1656 -0.3412
 2840SOL    HW120153   3.497   3.570   9.036 -1.2165  2.2939 -1.0165
 2840SOL    HW220154   3.462   3.588   9.179  0.7902  0.4184 -0.8075
 2841SOL     OW20155   3.523   3.136   2.784 -0.3546  1.3964  0.3934
 2841SOL    HW120156   3.568   3.171   2.861  3.1640  0.5400 -1.2419
 2841SOL    HW220157   3.436   3.134   2.824 -0.4404  0.6966  0.1805
 2842SOL     OW20158   4.575   3.076   1.413 -0.1632 -0.0638 -0.0912
 2842SOL    HW120159   4.617   2.991   1.410 -0.3710 -0.1287 -1.1197
 2842SOL    HW220160   4.656   3.125   1.422 -0.0552 -0.4372  1.0021
 2843SOL     OW20161   0.953   4.178   5.666  0.2280 -0.0423 -0.3863
 2843SOL    HW120162   0.903   4.103   5.633  0.7784  0.3927 -2.1971
 2843SOL    HW220163   1.042   4.144   5.659  0.3828  0.2358  0.2167
 2844SOL     OW20164   3.984   2.353   3.447  0.2605  0.2969 -0.1100
 2844SOL    HW120165   3.940   2.436   3.428 -1.4252 -0.3652  0.9851
 2844SOL    HW220166   3.973   2.358   3.542  1.3562 -0.2481  0.0435
 2845SOL     OW20167   2.706   4.623   5.071 -0.6519  0.0821  0.2480
 2845SOL    HW120168   2.753   4.673   5.138 -1.0736 -0.5879  1.0424
 2845SOL    HW220169   2.614   4.645   5.083 -0.7431  0.5486 -1.4205
 2846SOL     OW20170   0.064   0.909   3.316  0.2714  0.0867  0.1852
 2846SOL    HW120171   0.090   0.883   3.228 -2.6463  0.2203 -0.7206
 2846SOL    HW220172   0.078   0.826   3.362 -0.9847 -0.8773 -1.1617
 2847SOL     OW20173   1.513   2.679   7.516 -0.4964 -0.2817 -0.5449
 2847SOL    HW120174   1.531   2.759   7.566 -0.0675 -1.0387  0.5045
 2847SOL    HW220175   1.482   2.723   7.437 -2.9586  0.6800  0.9647
 2848SOL     OW20176   3.203   1.095   2.036 -0.8658  0.1924  0.6958
 2848SOL    HW120177   3.168   1.179   2.064  1.5382  1.7563 -0.9968
 2848SOL    HW220178   3.162   1.072   1.953 -1.1695 -1.0807  1.1908
 2849SOL     OW20179   4.418   2.687   2.201 -0.5083  0.0717 -0.4765
 2849SOL    HW120180   4.326   2.687   2.174 -0.0253  0.0681 -2.0834
 2849SOL    HW220181   4.433   2.777   2.173  0.6482  0.2076  0.5582
 2850SOL     OW20182   4.502   0.481   1.878  0.0411  0.1591  0.0154
 2850SOL    HW120183   4.465   0.534   1.807  0.8402 -0.9093 -1.2086
 2850SOL    HW220184   4.597   0.495   1.871  0.2521 -1.0536  0.4954
 2851SOL     OW20185   1.742   3.560  12.046 -0.1034  0.0410  0.0011
 2851SOL    HW120186   1.740   3.654  12.066 -0.4056  0.0309  0.0271
 2851SOL    HW220187   1.764   3.528  12.133 -0.1931  0.1539  0.0654
 2852SOL     OW20188   3.688   1.258   3.278  0.0534  0.1038  0.0294
 2852SOL    HW120189   3.678   1.256   3.373 -0.4839 -1.5222 -0.0679
 2852SOL    HW220190   3.779   1.235   3.259  0.0803 -0.4894  0.8819
 2853SOL     OW20191   0.647   0.225   2.869 -0.6057 -0.5456 -0.6663
 2853SOL    HW120192   0.559   0.212   2.833 -1.6816 -0.1145  1.8743
 2853SOL    HW220193   0.696   0.257   2.793  0.4856  0.8115  0.6363
 2854SOL     OW20194   0.400   2.678  11.585 -0.1425  0.1401  0.5036
 2854SOL    HW120195   0.436   2.657  11.499  1.2767  0.1608  1.0874
 2854SOL    HW220196   0.309   2.650  11.579 -0.0807 -1.0045  4.6143
 2855SOL     OW20197   0.907   4.015   1.814 -0.5194  0.2114  0.1235
 2855SOL    HW120198   0.971   3.988   1.748 -2.0720 -0.8864 -0.9138
 2855SOL    HW220199   0.827   4.040   1.768 -2.0783 -1.8181  1.7613
 2856SOL     OW20200   0.306   1.532   2.578  0.8669  0.4230 -0.6733
 2856SOL    HW120201   0.283   1.625   2.590  1.9502  0.5557  0.4056
 2856SOL    HW220202   0.285   1.496   2.664  0.9635  0.1979 -0.7446
 2857SOL     OW20203   3.752   4.501   4.609  0.0180  0.6308 -0.1295
 2857SOL    HW120204   3.833   4.465   4.644 -0.0076  1.3517  0.6597
 2857SOL    HW220205   3.726   4.420   4.564  1.8868 -0.4072  0.6693
 2858SOL     OW20206   1.659   2.865   0.893  0.4795  0.1408  0.0128
 2858SOL    HW120207   1.685   2.886   0.983 -0.8449  2.3972 -0.1192
 2858SOL    HW220208   1.646   2.955   0.863  0.6780  0.2356  0.2142
 2859SOL     OW20209   2.921   2.712   5.827 -0.6537 -0.0355 -0.3244
 2859SOL    HW120210   2.875   2.785   5.869 -0.9239 -1.9650  2.6906
 2859SOL    HW220211   2.932   2.752   5.741 -0.4889 -0.3855 -0.4639
 2860SOL     OW20212   3.531   2.143   9.505  0.0938  0.0875 -0.2608
 2860SOL    HW120213   3.476   2.198   9.560  1.1212  0.2540  0.5847
 2860SOL    HW220214   3.511   2.061   9.550  0.4773  0.1983  0.1100
 2861SOL     OW20215   0.205   4.468   4.877 -0.4748  0.1448  0.8591
 2861SOL    HW120216   0.115   4.456   4.908 -0.4947  2.4243  1.6625
 2861SOL    HW220217   0.207   4.553   4.921 -0.3027 -0.4079  1.9176
 2862SOL     OW20218   3.913   2.025   5.413 -0.4799 -0.1497 -0.3545
 2862SOL    HW120219   3.820   2.003   5.420 -0.0160 -1.7470  0.9039
 2862SOL    HW220220   3.939   2.007   5.503 -2.3361  0.5477  0.3237
 2863SOL     OW20221   0.541   4.499   2.121  0.7308 -0.5302 -0.6444
 2863SOL    HW120222   0.553   4.592   2.106  0.2373 -0.2718  0.5261
 2863SOL    HW220223   0.542   4.504   2.217  1.2859  1.4940 -0.7683
 2864SOL     OW20224   4.510   4.652   0.652  0.8488  0.3684  0.4760
 2864SOL    HW120225   4.437   4.649   0.714  0.8459  0.2648  0.4675
 2864SOL    HW220226   4.582   4.626   0.709  0.8104 -0.1028  0.3086
 2865SOL     OW20227   3.408   2.639   1.943 -0.1610  0.8502 -0.3606
 2865SOL    HW120228   3.463   2.711   1.975  1.9309 -0.5950 -0.6912
 2865SOL    HW220229   3.474   2.585   1.900 -0.4812 -0.0239  0.2381
 2866SOL     OW20230   0.538   1.419   6.307 -0.1662  0.5204  0.0380
 2866SOL    HW120231   0.615   1.438   6.360 -0.3288  1.9519 -0.2410
 2866SOL    HW220232   0.476   1.409   6.380  1.2390  0.8436  1.2741
 2867SOL     OW20233   1.622   0.911   0.735  0.2840 -0.4805 -0.0942
 2867SOL    HW120234   1.586   0.931   0.649 -2.0438  4.2493  2.0005
 2867SOL    HW220235   1.552   0.861   0.777 -1.3671  0.9219 -1.1924
 2868SOL     OW20236   1.055   1.921   3.233 -0.3381 -0.2742  0.1977
 2868SOL    HW120237   1.020   1.963   3.312 -0.9571  0.5098 -0.4971
 2868SOL    HW220238   1.150   1.921   3.245 -0.4985 -1.7923  1.5506
 2869SOL     OW20239   1.497   1.220  12.287 -0.4469  0.5694  0.1936
 2869SOL    HW120240   1.419   1.170  12.311  0.5582 -0.5971  1.0513
 2869SOL    HW220241   1.556   1.145  12.275  0.4069  1.2461  0.1685
 2870SOL     OW20242   3.181   2.164  10.039  0.1703 -0.2294 -0.6231
 2870SOL    HW120243   3.116   2.132  10.102  1.4776  0.5839  1.1678
 2870SOL    HW220244   3.262   2.150  10.089 -1.0206 -3.3187  0.4214
 2871SOL     OW20245   1.424   3.126  11.426 -0.1412  0.4387  0.3550
 2871SOL    HW120246   1.500   3.175  11.393 -0.3696  1.0353  0.7235
 2871SOL    HW220247   1.380   3.181  11.491 -1.3368  1.0038 -0.9386
 2872SOL     OW20248   2.261   0.841   4.667 -0.4145  0.1480 -0.5808
 2872SOL    HW120249   2.266   0.791   4.586  0.7287 -2.5030  1.1353
 2872SOL    HW220250   2.182   0.891   4.645 -0.9071 -0.1286  0.5437
 2873SOL     OW20251   0.613   0.833   2.444  0.3863  0.3360  0.6466
 2873SOL    HW120252   0.529   0.869   2.416  0.3533  0.9728  1.5661
 2873SOL    HW220253   0.650   0.820   2.356 -0.6761 -0.4221  0.3081
 2874SOL     OW20254   1.115   4.176  14.136  0.8526 -0.1873  0.3378
 2874SOL    HW120255   1.060   4.100  14.118  0.9821 -0.1411 -0.2656
 2874SOL    HW220256   1.152   4.179  14.048  2.1201 -1.6331  0.8285
 2875SOL     OW20257   4.633   3.687   5.667 -0.4114  0.3849  0.7163
 2875SOL    HW120258   4.541   3.715   5.659 -0.0416  1.2816 -0.4213
 2875SOL    HW220259   4.653   3.687   5.760 -1.3733  0.0259  0.9282
 2876SOL     OW20260   1.498   4.144   2.580  0.0489 -0.5116 -0.0643
 2876SOL    HW120261   1.454   4.168   2.499  5.6246 -1.1984 -3.2896
 2876SOL    HW220262   1.439   4.187   2.642  2.7711 -0.1463  2.3110
 2877SOL     OW20263   4.351   3.844   6.018  0.2708 -0.2559  0.5170
 2877SOL    HW120264   4.434   3.798   6.007  1.1686  1.6091 -0.5233
 2877SOL    HW220265   4.346   3.834   6.113 -2.0660 -1.7805  0.2280
 2878SOL     OW20266   2.039   0.223  15.645  0.3127 -0.3739 -0.0191
 2878SOL    HW120267   2.056   0.154  15.580  0.4620 -1.2064  0.9037
 2878SOL    HW220268   2.101   0.199  15.714 -0.4594  1.6828  1.3674
 2879SOL     OW20269   3.226   2.197   1.169 -0.0048  0.1298  0.1781
 2879SOL    HW120270   3.223   2.171   1.077  1.5572  1.0180 -0.1181
 2879SOL    HW220271   3.133   2.219   1.178  0.4238  1.3280  1.6064
 2880SOL     OW20272   1.139   4.285  14.664 -0.5587 -0.0421  0.3345
 2880SOL    HW120273   1.210   4.348  14.679 -2.0541  1.6614  0.3188
 2880SOL    HW220274   1.148   4.276  14.569 -1.1511 -0.8919  0.3548
 2881SOL     OW20275   4.144   0.607   6.770  0.4273  0.4684 -0.1766
 2881SOL    HW120276   4.141   0.584   6.863  1.1012 -0.8648 -0.4804
 2881SOL    HW220277   4.056   0.645   6.766 -0.0940 -0.7999 -0.8126
 2882SOL     OW20278   3.130   1.698   8.414 -0.4561  0.4677 -0.0263
 2882SOL    HW120279   3.140   1.754   8.490 -1.6015  1.5784 -0.6913
 2882SOL    HW220280   3.071   1.625   8.437  1.3683 -0.6756  1.0201
 2883SOL     OW20281   1.517   2.044   2.458 -0.3293  0.4673  0.0351
 2883SOL    HW120282   1.486   2.121   2.506 -2.4506  0.0948 -0.7350
 2883SOL    HW220283   1.599   2.070   2.417  0.3463 -0.2193  0.9576
 2884SOL     OW20284   2.742   3.443  15.551 -0.3667  0.0629  0.8235
 2884SOL    HW120285   2.808   3.499  15.592 -1.4207  1.8337  0.0981
 2884SOL    HW220286   2.804   3.380  15.514  0.9926  1.3377  0.9117
 2885SOL     OW20287   3.938   1.535   4.832  0.2824  0.3276 -0.5354
 2885SOL    HW120288   3.905   1.623   4.849 -0.0305  0.1158 -0.0492
 2885SOL    HW220289   4.018   1.537   4.885 -0.0492 -2.1072  0.0512
 2886SOL     OW20290   3.492   2.838   6.648 -0.4385 -0.0631 -0.1802
 2886SOL    HW120291   3.540   2.865   6.726 -0.8153 -0.7478  0.2920
 2886SOL    HW220292   3.412   2.890   6.653 -0.7995 -0.4129 -2.3579
 2887SOL     OW20293   0.952   4.396   3.802 -0.3423 -0.4777 -0.2491
 2887SOL    HW120294   1.021   4.392   3.737 -1.0511  0.1340 -1.0407
 2887SOL    HW220295   0.955   4.490   3.822  1.7268 -0.5609 -0.2036
 2888SOL     OW20296   0.142   3.986  11.692  0.2355 -0.7068 -0.3672
 2888SOL    HW120297   0.074   3.968  11.627  0.4443 -1.7287 -0.3009
 2888SOL    HW220298   0.110   4.065  11.737  1.3298 -0.3289 -0.2580
 2889SOL     OW20299   2.267   0.584   5.506  0.0268  0.7970  0.2903
 2889SOL    HW120300   2.298   0.567   5.417 -0.0364 -1.1658  0.6397
 2889SOL    HW220301   2.172   0.571   5.499  0.0334  1.0891 -0.3153
 2890SOL     OW20302   1.985   2.727   7.972  0.3496 -0.7183 -0.5019
 2890SOL    HW120303   1.926   2.779   7.918  0.1518 -1.2186 -0.7583
 2890SOL    HW220304   2.053   2.695   7.913  0.9435  0.1792 -0.3132
 2891SOL     OW20305   4.695   2.388   2.233  0.0902 -0.0680  0.3753
 2891SOL    HW120306   0.018   2.324   2.275  0.9117  0.0287 -0.5965
 2891SOL    HW220307   0.001   2.471   2.258  1.6196 -0.7726  0.2128
 2892SOL     OW20308   2.905   3.297   3.392  0.6590  0.0314 -0.4426
 2892SOL    HW120309   2.898   3.229   3.325 -1.5184  1.5536 -1.7214
 2892SOL    HW220310   2.820   3.285   3.435  1.0949 -0.6827  0.2320
 2893SOL     OW20311   0.556   0.459   5.357  0.4859  0.3908  0.1650
 2893SOL    HW120312   0.636   0.453   5.304  0.6193 -1.9980  0.6575
 2893SOL    HW220313   0.585   0.525   5.421 -1.9672  2.3479 -0.7694
 2894SOL     OW20314   2.005   1.364   1.371  0.1538  0.4994  0.5716
 2894SOL    HW120315   2.025   1.357   1.464  0.3967 -2.1178  0.3406
 2894SOL    HW220316   1.911   1.383   1.368  0.3190  1.6006  2.2536
 2895SOL     OW20317   1.910   0.013   5.746 -0.3700  0.1975  0.1902
 2895SOL    HW120318   1.972   0.061   5.800  2.1229 -1.6318 -1.0020
 2895SOL    HW220319   1.903   0.078   5.676  2.3372  0.2666 -0.0218
 2896SOL     OW20320   4.008   0.575  16.370  0.1203 -0.0975 -0.1365
 2896SOL    HW120321   4.101   0.576  16.348  0.4067 -0.7199  1.0695
 2896SOL    HW220322   3.982   0.485  16.387 -0.0308 -0.3724 -1.8364
 2897SOL     OW20323   1.435   3.057   8.334 -0.3411 -0.0569 -0.4065
 2897SOL    HW120324   1.413   3.138   8.289  1.0624  0.7893  0.4370
 2897SOL    HW220325   1.343   3.037   8.352 -0.5839 -0.4929 -2.1334
 2898SOL     OW20326   4.182   3.633  13.237 -0.5388  0.2043  0.1903
 2898SOL    HW120327   4.178   3.719  13.195  1.8599 -0.4861 -1.4378
 2898SOL    HW220328   4.136   3.573  13.179  1.0207 -0.5501 -0.2657
 2899SOL     OW20329   2.821   3.822  15.311  0.4845  0.3184  1.1765
 2899SOL    HW120330   2.902   3.849  15.268 -0.0113  0.7648  0.5100
 2899SOL    HW220331   2.820   3.727  15.298  0.3285  0.0888  2.9600
 2900SOL     OW20332   2.538   0.391   4.471 -1.0522 -0.4159  0.3031
 2900SOL    HW120333   2.612   0.450   4.486 -2.1687  0.9232  0.5345
 2900SOL    HW220334   2.473   0.404   4.541 -0.8265  1.7426  0.1172
 2901SOL     OW20335   0.057   3.997   2.863  0.3505 -0.0638  0.1143
 2901SOL    HW120336   4.720   4.045   2.903  1.8469  0.8142  1.7818
 2901SOL    HW220337   0.006   3.964   2.790  0.4923  0.6766 -0.3181
 2902SOL     OW20338   3.158   4.530   9.237 -0.0910  0.6871  0.5035
 2902SOL    HW120339   3.098   4.482   9.180  0.6583 -0.8846  1.0372
 2902SOL    HW220340   3.098   4.592   9.278 -2.8235 -0.2691 -2.0689
 2903SOL     OW20341   1.117   0.988   4.898 -0.3012 -0.0283 -0.2050
 2903SOL    HW120342   1.085   1.062   4.950  0.2083 -0.8291  1.2264
 2903SOL    HW220343   1.105   0.912   4.953  0.8817  0.5583  0.8694
 2904SOL     OW20344   3.831   0.828   7.969 -0.0173 -0.3326 -0.2072
 2904SOL    HW120345   3.820   0.742   8.008  2.1374 -0.9023 -0.8160
 2904SOL    HW220346   3.919   0.834   7.930  0.5800 -0.6477  1.0722
 2905SOL     OW20347   4.431   0.848   8.217  0.0152  0.0548 -0.1914
 2905SOL    HW120348   4.484   0.781   8.259 -2.4096 -1.1818  0.8984
 2905SOL    HW220349   4.357   0.804   8.175  0.4688 -1.0093  0.1343
 2906SOL     OW20350   2.137   3.720   2.874  0.2535 -0.2759 -0.0554
 2906SOL    HW120351   2.064   3.690   2.928  0.3286  0.4841  0.4823
 2906SOL    HW220352   2.177   3.780   2.937  3.1146 -0.0004 -2.1353
 2907SOL     OW20353   3.789   2.802   4.101 -0.1429  0.0889  0.1374
 2907SOL    HW120354   3.696   2.781   4.097 -0.5687  1.8998  0.8422
 2907SOL    HW220355   3.798   2.865   4.172  2.4241  2.2784 -2.1199
 2908SOL     OW20356   4.632   1.397   1.148 -0.2245 -0.4123 -0.3379
 2908SOL    HW120357   4.689   1.321   1.160  2.9414  1.8555 -1.0380
 2908SOL    HW220358   4.671   1.456   1.214 -2.0459 -0.4762  0.7975
 2909SOL     OW20359   4.079   0.456  10.762  0.2639 -0.6853 -0.0590
 2909SOL    HW120360   4.015   0.401  10.806 -1.0967  0.0782 -1.1068
 2909SOL    HW220361   4.136   0.386  10.729 -0.4114 -1.2797  0.0565
 2910SOL     OW20362   2.885   1.287  14.768  0.1787  0.0138 -0.4031
 2910SOL    HW120363   2.903   1.205  14.723  1.9813 -1.3769  2.8497
 2910SOL    HW220364   2.949   1.273  14.838  0.4533 -0.2426 -0.7098
 2911SOL     OW20365   0.585   0.056  10.168 -0.6381 -0.5794  0.0076
 2911SOL    HW120366   0.651   0.107  10.215  0.1204 -0.5366 -1.0970
 2911SOL    HW220367   0.539   0.136  10.141 -0.8822 -0.6034  0.3555
 2912SOL     OW20368   3.568   0.045   6.705  0.2701  0.2092 -0.4916
 2912SOL    HW120369   3.554   0.121   6.762  0.7848  1.3285 -1.8683
 2912SOL    HW220370   3.545   4.701   6.753  1.6577  1.1997  1.8082
 2913SOL     OW20371   4.234   2.836   3.425  0.0397 -0.1714  0.6522
 2913SOL    HW120372   4.139   2.840   3.438 -0.3144 -0.0629 -1.9059
 2913SOL    HW220373   4.232   2.920   3.378 -0.6302  0.1892  1.3103
 2914SOL     OW20374   1.411   0.190   5.686  0.5623  0.1517 -0.9325
 2914SOL    HW120375   1.395   0.152   5.600  0.5497 -1.6327 -0.1329
 2914SOL    HW220376   1.402   0.285   5.679 -0.1542  0.2738  1.7058
 2915SOL     OW20377   2.151   3.339   8.493 -0.3852 -0.1582  0.6784
 2915SOL    HW120378   2.082   3.402   8.515 -0.0406  0.3122  0.4030
 2915SOL    HW220379   2.210   3.359   8.566  0.3670  1.2385 -0.3221
 2916SOL     OW20380   4.330   4.116   6.331  0.4053 -0.5860 -0.0878
 2916SOL    HW120381   4.331   4.021   6.332 -0.7161 -0.6177 -2.1146
 2916SOL    HW220382   4.309   4.135   6.423  0.9945  1.4537 -0.3711
 2917SOL     OW20383   4.285   3.524  13.832  0.1811  0.0751  0.4944
 2917SOL    HW120384   4.327   3.595  13.783  0.5413 -0.3126  0.2401
 2917SOL    HW220385   4.253   3.563  13.914  0.3768  0.6097  0.3192
 2918SOL     OW20386   1.402   2.141   8.279 -0.1972  0.1793 -0.3471
 2918SOL    HW120387   1.449   2.131   8.361  1.7608 -0.5909 -1.5533
 2918SOL    HW220388   1.434   2.073   8.219 -1.1027  0.5957 -1.3152
 2919SOL     OW20389   2.249   3.390   3.215 -0.1051  0.5417  0.3458
 2919SOL    HW120390   2.269   3.478   3.246  2.6853 -0.3516  1.0516
 2919SOL    HW220391   2.155   3.400   3.202 -0.4841 -3.1133  0.1282
 2920SOL     OW20392   0.372   2.680   2.758 -0.6191 -0.0792 -0.1477
 2920SOL    HW120393   0.462   2.712   2.759 -1.2420  1.5962  1.4319
 2920SOL    HW220394   0.358   2.634   2.675 -0.2561 -0.4427 -0.0066
 2921SOL     OW20395   1.412   2.791   5.136 -0.2425 -0.0177 -0.2046
 2921SOL    HW120396   1.476   2.861   5.150 -0.6421  0.0171  1.3670
 2921SOL    HW220397   1.461   2.717   5.174  1.1791  0.5014 -1.0276
 2922SOL     OW20398   0.286   0.393   1.384  0.1380 -0.1909  0.2071
 2922SOL    HW120399   0.268   0.467   1.442 -0.0921  0.1119 -0.2532
 2922SOL    HW220400   0.205   0.406   1.334  1.3532  1.2233 -1.3656
 2923SOL     OW20401   1.229   1.087   5.953  0.1335 -0.1024 -0.4888
 2923SOL    HW120402   1.186   1.171   5.936  1.3249  0.6177  0.0766
 2923SOL    HW220403   1.164   1.057   6.015 -1.6787 -0.9322 -2.7969
 2924SOL     OW20404   2.516   4.179   2.832  0.4872  0.3695 -0.6206
 2924SOL    HW120405   2.448   4.202   2.895  0.7935 -1.8872  0.5154
 2924SOL    HW220406   2.600   4.187   2.879  0.2710 -1.0117 -0.0071
 2925SOL     OW20407   3.204   2.157   0.890 -0.6762  0.0295 -0.7216
 2925SOL    HW120408   3.140   2.090   0.864 -1.9721  1.1727 -0.5001
 2925SOL    HW220409   3.208   2.197   0.803  0.3988  2.0395  0.2570
 2926SOL     OW20410   2.571   1.516   3.489 -0.3362  0.5428  0.0848
 2926SOL    HW120411   2.653   1.566   3.494 -0.6034  1.2924 -3.2517
 2926SOL    HW220412   2.547   1.572   3.416 -0.1197  1.3950  0.6677
 2927SOL     OW20413   1.928   1.305   7.372 -0.9005  0.6171  0.1850
 2927SOL    HW120414   1.977   1.387   7.368  0.8037 -0.3756  0.9770
 2927SOL    HW220415   1.926   1.273   7.282 -1.3211  2.1234 -0.3528
 2928SOL     OW20416   3.784   2.541   6.496 -0.1248 -0.2124 -0.0738
 2928SOL    HW120417   3.754   2.479   6.429 -0.6017 -1.1032  0.9589
 2928SOL    HW220418   3.707   2.597   6.506 -0.3302 -0.7489  1.3910
 2929SOL     OW20419   0.206   3.331   6.157 -0.4268 -0.3105  0.0347
 2929SOL    HW120420   0.136   3.267   6.148 -0.5395 -0.2766  0.6297
 2929SOL    HW220421   0.279   3.279   6.192 -0.1840 -0.7163 -1.1079
 2930SOL     OW20422   1.998   4.701  14.932 -0.3485 -0.3195  0.3930
 2930SOL    HW120423   2.050   4.623  14.948  0.0543 -0.0982  0.1739
 2930SOL    HW220424   1.921   4.671  14.979 -0.8201 -0.6620 -0.6187
 2931SOL     OW20425   0.017   0.963   5.851 -0.1974  0.0567 -0.5561
 2931SOL    HW120426   0.076   1.035   5.829  0.3670 -0.3863 -0.4899
 2931SOL    HW220427   0.005   0.972   5.945  2.5754  0.8300 -0.2814
 2932SOL     OW20428   2.979   0.047  13.022 -0.1723 -0.2442 -0.1414
 2932SOL    HW120429   2.935   4.718  12.966  2.2257 -0.5812 -1.6393
 2932SOL    HW220430   3.045   0.081  12.961  1.8216 -0.9982  1.5802
 2933SOL     OW20431   0.629   2.116   1.523 -0.4983 -0.3459 -0.0239
 2933SOL    HW120432   0.657   2.133   1.613  1.6262 -0.5993 -0.6451
 2933SOL    HW220433   0.714   2.084   1.493  0.2711  0.5109  1.2414
 2934SOL     OW20434   4.452   2.456   8.956  0.5780 -0.4256  0.5667
 2934SOL    HW120435   4.479   2.364   8.956 -1.6624 -1.0961 -3.3605
 2934SOL    HW220436   4.482   2.490   8.872 -2.5840 -1.4540 -1.0014
 2935SOL     OW20437   1.053   3.966   4.474  0.2963 -0.3337 -0.2919
 2935SOL    HW120438   1.123   3.988   4.412 -0.4429 -1.7605 -1.6451
 2935SOL    HW220439   1.012   4.052   4.460 -0.9442 -1.0462 -1.0779
 2936SOL     OW20440   1.383   0.527   5.248 -0.7589 -0.2905  0.3013
 2936SOL    HW120441   1.401   0.616   5.277  1.5592 -0.6257 -0.0814
 2936SOL    HW220442   1.289   0.535   5.229 -0.4769 -1.7618 -1.7368
 2937SOL     OW20443   1.159   0.167   1.667 -0.5013  0.1275 -0.1142
 2937SOL    HW120444   1.166   0.140   1.759 -1.8332 -0.3345 -0.1560
 2937SOL    HW220445   1.108   0.094   1.634  0.1098 -0.9277  1.2434
 2938SOL     OW20446   0.920   2.163  14.210 -1.1481 -0.1556 -0.1917
 2938SOL    HW120447   0.873   2.192  14.288 -1.1538 -0.5609 -0.0445
 2938SOL    HW220448   0.866   2.204  14.142 -0.8339  1.5914  0.6263
 2939SOL     OW20449   1.550   1.323   5.546  0.3651  1.0137  0.0466
 2939SOL    HW120450   1.560   1.269   5.625  2.2021  0.5560 -0.5077
 2939SOL    HW220451   1.537   1.409   5.584  1.3347  1.0681  0.2651
 2940SOL     OW20452   3.565   4.270   1.973 -0.9634  0.0543 -0.6754
 2940SOL    HW120453   3.651   4.238   2.000 -0.7387  1.8092  0.7000
 2940SOL    HW220454   3.527   4.272   2.061  1.2217 -3.5060  0.3579
 2941SOL     OW20455   3.114   4.690   8.833 -0.1457  0.1397 -0.7959
 2941SOL    HW120456   3.103   0.040   8.877 -0.4276 -0.6757  0.6771
 2941SOL    HW220457   3.090   4.710   8.742  0.7788  0.5684 -0.9425
 2942SOL     OW20458   3.637   2.891   1.337  1.0402 -0.7061 -0.0793
 2942SOL    HW120459   3.606   2.912   1.249  1.2588  0.6385  0.1578
 2942SOL    HW220460   3.730   2.889   1.317  0.9245 -2.3024 -0.4337
 2943SOL     OW20461   1.037   0.856   0.966  0.7652  0.0237  0.0097
 2943SOL    HW120462   1.099   0.795   1.007  1.9519  0.7974 -0.6240
 2943SOL    HW220463   1.101   0.886   0.902  1.2152  1.3320  1.0839
 2944SOL     OW20464   4.564   0.234   5.409 -0.3310 -0.1887  0.1176
 2944SOL    HW120465   4.540   0.147   5.443 -0.8917  0.0301  0.2668
 2944SOL    HW220466   4.659   0.222   5.403  0.0383  3.0167 -0.2445
 2945SOL     OW20467   1.804   4.357   5.655  0.3427 -0.2550 -0.0100
 2945SOL    HW120468   1.735   4.409   5.697 -1.0498 -0.0729 -2.5206
 2945SOL    HW220469   1.859   4.424   5.614 -2.3433  2.5928  0.9423
 2946SOL     OW20470   2.011   4.681   6.632 -0.6124 -0.2991  0.8779
 2946SOL    HW120471   2.098   4.681   6.591  0.0185 -2.3160  2.2087
 2946SOL    HW220472   1.958   4.624   6.577  0.6219  0.1748 -0.8046
 2947SOL     OW20473   3.085   4.485   2.595 -0.4387  0.2120  0.2664
 2947SOL    HW120474   3.047   4.569   2.569  0.5831  0.5869 -0.0096
 2947SOL    HW220475   3.173   4.507   2.626 -0.6464  1.3088  0.0569
 2948SOL     OW20476   4.231   0.512   3.878  0.1082 -0.1175 -0.5211
 2948SOL    HW120477   4.217   0.566   3.956 -1.5896  1.1804 -1.7263
 2948SOL    HW220478   4.271   0.434   3.916  0.7076  0.0190 -0.8800
 2949SOL     OW20479   0.014   4.695   3.136  0.3741 -0.0573  0.6856
 2949SOL    HW120480   0.102   4.657   3.141 -0.2106 -1.6033 -0.9906
 2949SOL    HW220481   4.705   4.636   3.197 -0.5790 -0.9011 -0.8251
 2950SOL     OW20482   3.747   0.430   6.910  0.2359  0.4320 -0.4612
 2950SOL    HW120483   3.713   0.518   6.925  2.6090  1.1040  0.9643
 2950SOL    HW220484   3.810   0.409   6.979  1.6270 -3.0104 -2.7729
 2951SOL     OW20485   2.389   3.351   5.898 -0.5440  0.1379 -0.4965
 2951SOL    HW120486   2.349   3.415   5.956  0.1554 -0.9953  1.2223
 2951SOL    HW220487   2.428   3.291   5.961  2.1667  2.2780 -0.0981
 2952SOL     OW20488   2.045   0.372   4.525  0.5855 -0.2803 -0.4127
 2952SOL    HW120489   2.102   0.381   4.601  2.9543 -0.8685 -2.1103
 2952SOL    HW220490   2.034   0.277   4.525 -0.2621 -0.1941 -2.2338
 2953SOL     OW20491   0.217   3.662   3.767  0.4245 -0.5553 -0.3797
 2953SOL    HW120492   0.283   3.595   3.785  2.4655  2.1330  2.3811
 2953SOL    HW220493   0.149   3.618   3.718  0.5657 -2.4290  1.1166
 2954SOL     OW20494   3.594   3.662  11.907  0.4463 -0.1939 -0.0922
 2954SOL    HW120495   3.563   3.735  11.960  0.4105 -0.0160 -0.3613
 2954SOL    HW220496   3.630   3.710  11.832 -0.2110  0.7199  0.1900
 2955SOL     OW20497   1.675   3.342   7.546  0.2792 -0.6153  0.0269
 2955SOL    HW120498   1.718   3.359   7.462 -0.3276  1.2853  0.1182
 2955SOL    HW220499   1.725   3.400   7.604 -0.6584 -0.5132  0.7195
 2956SOL     OW20500   0.654   3.364   9.223  0.0885  0.2096 -0.3988
 2956SOL    HW120501   0.593   3.303   9.263  1.7188 -0.2735  1.3176
 2956SOL    HW220502   0.702   3.306   9.164 -1.3972 -0.0069 -1.4005
 2957SOL     OW20503   0.644   4.403   3.763 -0.4676  0.3092  0.4008
 2957SOL    HW120504   0.609   4.331   3.815  0.5595 -1.7938 -1.7822
 2957SOL    HW220505   0.737   4.384   3.776 -0.2650  0.3788 -0.9525
 2958SOL     OW20506   0.932   0.508  10.953 -0.0689  0.9880 -0.1602
 2958SOL    HW120507   1.013   0.470  10.917 -1.2525 -1.1362 -0.5846
 2958SOL    HW220508   0.899   0.546  10.872  1.0184 -1.2069 -1.6378
 2959SOL     OW20509   4.054   0.673   2.412 -0.2422  0.3323 -0.3139
 2959SOL    HW120510   4.095   0.758   2.397  1.8211 -0.7967 -1.0110
 2959SOL    HW220511   4.061   0.670   2.508  3.5878 -0.5070 -0.6474
 2960SOL     OW20512   0.933   3.674  12.247 -0.1531  0.1509 -0.1935
 2960SOL    HW120513   0.887   3.746  12.289  0.4474  1.6266 -2.0493
 2960SOL    HW220514   0.979   3.630  12.319  0.2142  0.2801 -0.3468
 2961SOL     OW20515   0.162   3.719   4.063 -0.0568  0.3138 -0.6284
 2961SOL    HW120516   0.132   3.801   4.101 -0.2108 -0.1569  0.2566
 2961SOL    HW220517   0.152   3.722   3.968  2.6635 -1.6859 -0.9817
 2962SOL     OW20518   1.662   0.302   8.164  0.0088 -0.0238 -0.4267
 2962SOL    HW120519   1.689   0.298   8.255  1.3808  0.8514 -0.8062
 2962SOL    HW220520   1.667   0.397   8.150  1.0632 -0.0161  0.0061
 2963SOL     OW20521   2.971   4.581  13.258  0.1064 -0.0286 -0.1803
 2963SOL    HW120522   3.026   4.506  13.234 -1.6324 -1.4992  0.4171
 2963SOL    HW220523   3.010   4.651  13.206 -3.0753  2.1268  0.3018
 2964SOL     OW20524   3.744   0.032   7.689 -0.3791  0.4153  0.2352
 2964SOL    HW120525   3.755   0.119   7.651 -0.9579  0.6131  0.5152
 2964SOL    HW220526   3.649   0.021   7.683 -0.3998  0.3309  0.6981
 2965SOL     OW20527   2.372   0.303   3.687  0.0128 -0.4983 -0.0494
 2965SOL    HW120528   2.290   0.256   3.675 -0.4236  0.2272  0.1100
 2965SOL    HW220529   2.383   0.283   3.780 -0.4422 -0.5791 -0.0157
 2966SOL     OW20530   3.718   3.174   9.516 -0.3281  0.1943  0.0289
 2966SOL    HW120531   3.686   3.173   9.606  0.7197 -0.2469  0.4017
 2966SOL    HW220532   3.807   3.208   9.524  0.3083 -0.6862 -3.3316
 2967SOL     OW20533   1.403   1.232   3.075 -0.0966 -0.4307  0.2878
 2967SOL    HW120534   1.320   1.267   3.109  1.7245  1.0924  3.1245
 2967SOL    HW220535   1.463   1.237   3.149 -0.0322  2.4319  0.0235
 2968SOL     OW20536   2.083   4.461  15.431  0.3855 -0.5475 -0.2228
 2968SOL    HW120537   2.117   4.458  15.521  1.1558 -2.6412 -0.5970
 2968SOL    HW220538   2.127   4.393  15.380 -0.1959 -0.2984 -1.0571
 2969SOL     OW20539   4.493   2.704   4.316 -0.1011  0.0455 -0.1632
 2969SOL    HW120540   4.448   2.772   4.366 -0.6714  0.5306 -1.3462
 2969SOL    HW220541   4.523   2.646   4.387 -0.2231 -0.2168 -0.3268
 2970SOL     OW20542   0.932   2.327   2.659  0.5476  0.1800  0.7130
 2970SOL    HW120543   1.023   2.340   2.633 -0.1133  1.0447 -1.1453
 2970SOL    HW220544   0.933   2.253   2.719  1.4219 -0.1554  0.2926
 2971SOL     OW20545   1.378   1.193   1.919 -0.2186  0.3227 -0.1229
 2971SOL    HW120546   1.379   1.277   1.966 -0.0746  0.0160  0.4185
 2971SOL    HW220547   1.338   1.214   1.835 -1.0156 -1.1598 -0.1209
 2972SOL     OW20548   4.165   0.578  14.840  0.1540  0.0322 -0.9074
 2972SOL    HW120549   4.080   0.537  14.859 -0.0897  0.8434 -0.2514
 2972SOL    HW220550   4.170   0.636  14.916 -0.1971  0.2065 -1.0130
 2973SOL     OW20551   2.567   1.721   2.918 -0.2925  0.0887 -0.6195
 2973SOL    HW120552   2.652   1.685   2.943  0.4549  0.8265 -2.1392
 2973SOL    HW220553   2.531   1.740   3.005 -0.0560 -3.6627  0.3073
 2974SOL     OW20554   2.982   0.963   6.099  0.2706 -0.2923 -0.4117
 2974SOL    HW120555   2.915   0.984   6.164  0.1060  1.4021 -1.1237
 2974SOL    HW220556   2.961   1.036   6.041 -0.4430 -1.0747 -1.1337
 2975SOL     OW20557   0.933   0.614   7.238  0.1768  0.9182 -0.0653
 2975SOL    HW120558   0.967   0.700   7.263 -0.4170  1.0830  0.1811
 2975SOL    HW220559   0.841   0.641   7.239 -0.1428 -0.1786  1.2663
 2976SOL     OW20560   0.614   0.487  17.590 -0.2613  0.7324 -0.0402
 2976SOL    HW120561   0.602   0.556  17.524  2.7297 -0.8888 -2.2740
 2976SOL    HW220562   0.525   0.452  17.601 -0.7113  3.0422  3.5836
 2977SOL     OW20563   1.648   3.103   3.233 -0.0941  0.3151 -0.3769
 2977SOL    HW120564   1.739   3.111   3.260 -0.9896 -0.1781  2.8356
 2977SOL    HW220565   1.611   3.108   3.321 -0.1491 -1.2909 -0.3166
 2978SOL     OW20566   3.426   2.097   2.892 -0.5261  0.8900 -0.3195
 2978SOL    HW120567   3.450   2.014   2.851  1.4252  1.3942 -0.1769
 2978SOL    HW220568   3.341   2.062   2.918  0.1139 -0.4676 -0.0508
 2979SOL     OW20569   1.491   2.096  11.909 -0.3424 -0.7416 -0.3832
 2979SOL    HW120570   1.462   2.118  11.998 -1.0785  1.0692 -1.0696
 2979SOL    HW220571   1.582   2.125  11.904 -0.3444 -0.1726  2.8765
 2980SOL     OW20572   2.250   0.248  11.683 -0.3908  0.4062 -0.1967
 2980SOL    HW120573   2.219   0.196  11.757 -0.1467 -1.4894 -1.4144
 2980SOL    HW220574   2.197   0.327  11.678 -0.2047  0.5665  0.2955
 2981SOL     OW20575   4.089   0.701   8.985 -0.1710 -0.3618 -0.7053
 2981SOL    HW120576   4.018   0.753   9.022 -1.0194 -0.1963 -2.5884
 2981SOL    HW220577   4.116   0.766   8.921 -2.7588  1.2377 -0.1719
 2982SOL     OW20578   1.767   3.980   9.168 -0.3596 -0.5656 -0.6312
 2982SOL    HW120579   1.812   3.917   9.224 -2.6123  1.3346  3.2965
 2982SOL    HW220580   1.733   4.045   9.228  0.2900  0.1827 -1.0591
 2983SOL     OW20581   0.309   3.499   2.963 -0.0343  0.1288  0.2413
 2983SOL    HW120582   0.308   3.452   3.046  2.6800 -1.1457 -0.4400
 2983SOL    HW220583   0.313   3.589   2.995  1.1461  0.4280 -0.7278
 2984SOL     OW20584   1.452   2.651   6.588  0.1845 -0.4216  0.3603
 2984SOL    HW120585   1.410   2.681   6.669  1.2574 -1.4269  1.2922
 2984SOL    HW220586   1.421   2.561   6.601 -1.3254 -0.1071 -1.0964
 2985SOL     OW20587   3.045   2.461   7.215 -0.1761 -0.1245  0.8637
 2985SOL    HW120588   3.043   2.549   7.253  1.4456  0.3183 -0.0406
 2985SOL    HW220589   2.964   2.449   7.165 -0.6566  0.7970  1.4189
 2986SOL     OW20590   1.024   0.997   6.140 -0.1781  0.1617  0.2653
 2986SOL    HW120591   0.946   0.947   6.118 -0.5432  0.1303  1.6006
 2986SOL    HW220592   1.053   0.950   6.218 -0.1871  0.9574  0.7526
 2987SOL     OW20593   2.642   1.266   7.112 -0.6510 -0.2103  0.0775
 2987SOL    HW120594   2.640   1.230   7.023  0.4885  0.3214 -0.1650
 2987SOL    HW220595   2.698   1.342   7.098 -0.5780 -0.7441 -2.5266
 2988SOL     OW20596   1.623   2.994   5.409  0.3506  0.2477 -0.5954
 2988SOL    HW120597   1.686   3.054   5.449 -0.5697 -0.1645  1.4559
 2988SOL    HW220598   1.564   2.969   5.481  0.1518  1.1292 -0.4455
 2989SOL     OW20599   0.338   1.331   0.430  0.2927 -0.0951 -0.2800
 2989SOL    HW120600   0.284   1.409   0.444 -0.7541 -1.0346  0.9175
 2989SOL    HW220601   0.406   1.355   0.492  1.0921  3.0495 -2.3846
 2990SOL     OW20602   2.582   0.758   7.886 -0.7606 -0.1232 -0.2949
 2990SOL    HW120603   2.528   0.691   7.845 -0.0317 -0.7499 -0.2297
 2990SOL    HW220604   2.628   0.706   7.952  0.1208  1.2241  0.1762
 2991SOL     OW20605   2.852   3.074  13.441  0.0080  0.3836  0.3121
 2991SOL    HW120606   2.939   3.099  13.410 -0.5377  2.7993  0.7244
 2991SOL    HW220607   2.842   3.008  13.372 -0.4944  0.7359  0.0427
 2992SOL     OW20608   4.053   4.286  15.082 -0.4780 -0.5910 -0.5132
 2992SOL    HW120609   4.124   4.267  15.144 -1.2340  2.4297  1.2642
 2992SOL    HW220610   4.106   4.296  15.003 -0.0648 -1.7340 -0.3808
 2993SOL     OW20611   2.624   4.573   4.482 -0.0965 -0.8226 -0.2437
 2993SOL    HW120612   2.648   4.665   4.483 -3.7677  0.1717 -2.9611
 2993SOL    HW220613   2.585   4.574   4.570 -0.1926  0.4293 -0.2976
 2994SOL     OW20614   0.621   2.777   7.158  0.8080  0.7358  0.7771
 2994SOL    HW120615   0.658   2.702   7.205 -1.8962  0.1199  1.9183
 2994SOL    HW220616   0.661   2.766   7.072  3.0440  0.6935  1.8181
 2995SOL     OW20617   3.594   1.181  14.045  0.1330  0.2074 -0.4749
 2995SOL    HW120618   3.648   1.143  13.976  1.2252 -1.4039  1.2660
 2995SOL    HW220619   3.566   1.259  13.999 -2.2563 -0.2549  0.1954
 2996SOL     OW20620   1.943   3.911   7.284 -0.7266  0.2356  0.5064
 2996SOL    HW120621   1.853   3.903   7.316 -0.4143 -0.7947  1.1428
 2996SOL    HW220622   1.932   3.965   7.206  2.8066 -1.2244 -0.9995
 2997SOL     OW20623   0.499   1.292   0.109 -0.8545  0.1953  0.1673
 2997SOL    HW120624   0.487   1.198   0.098  0.8014  0.0372 -0.2691
 2997SOL    HW220625   0.475   1.327   0.024  0.5377 -0.2385 -0.4055
 2998SOL     OW20626   3.399   4.620   5.268 -0.0263  0.0779 -0.1098
 2998SOL    HW120627   3.485   4.653   5.297 -0.0217  1.5425 -1.7811
 2998SOL    HW220628   3.413   4.526   5.278  0.9582  0.3812  1.4493
 2999SOL     OW20629   2.123   0.353   8.240  0.0843  0.0046  0.6396
 2999SOL    HW120630   2.166   0.404   8.172 -0.4312  0.8368  0.9377
 2999SOL    HW220631   2.075   0.420   8.289 -1.4873 -0.1189 -0.7270
 3000SOL     OW20632   2.571   1.769   4.648 -0.1295 -0.5243 -0.8282
 3000SOL    HW120633   2.499   1.791   4.588  0.3306  1.6942 -0.5505
 3000SOL    HW220634   2.536   1.791   4.734 -0.1715 -2.3617 -0.3749
 3001SOL     OW20635   2.751   0.841   5.233  0.3431  0.5730 -0.0187
 3001SOL    HW120636   2.719   0.897   5.304 -1.8439 -0.4516 -0.1924
 3001SOL    HW220637   2.669   0.807   5.196  0.6274  0.2416 -0.3500
 3002SOL     OW20638   0.799   4.314  17.638 -0.0272 -0.0425 -0.2256
 3002SOL    HW120639   0.735   4.277  17.698 -0.6107  0.1321 -0.7468
 3002SOL    HW220640   0.840   4.231  17.612 -2.4327 -1.4505  0.5063
 3003SOL     OW20641   3.400   1.929  13.047  0.2582  0.0413 -0.7013
 3003SOL    HW120642   3.409   1.926  13.142 -3.7606  2.2175 -0.2388
 3003SOL    HW220643   3.310   1.960  13.041  0.6618  1.3030 -0.3171
 3004SOL     OW20644   4.170   2.735   9.301  0.2060 -0.1367  0.3712
 3004SOL    HW120645   4.101   2.793   9.333  0.4950  0.4729 -0.1169
 3004SOL    HW220646   4.169   2.669   9.370  0.6142 -0.4451  0.0846
 3005SOL     OW20647   2.134   3.962   3.855  0.1270 -0.0585  0.5137
 3005SOL    HW120648   2.173   4.049   3.844  3.7707 -1.8299 -0.4231
 3005SOL    HW220649   2.042   3.975   3.879  0.1749  0.2869  0.5120
 3006SOL     OW20650   0.052   0.904   3.663  0.2427  0.2564 -0.0846
 3006SOL    HW120651   0.126   0.929   3.607  0.9708  0.7960  1.1131
 3006SOL    HW220652   0.019   0.824   3.622 -0.0684 -0.0717  0.7945
 3007SOL     OW20653   1.524   0.017   3.140  0.2710 -0.0569 -0.3457
 3007SOL    HW120654   1.442   0.004   3.186  1.3976  0.1003  1.7190
 3007SOL    HW220655   1.576   4.694   3.196  1.4967 -0.3623 -1.7847
 3008SOL     OW20656   0.397   4.487   6.551  0.3829  0.2579 -0.0659
 3008SOL    HW120657   0.314   4.515   6.588  1.4657  1.3051  1.5526
 3008SOL    HW220658   0.379   4.495   6.457  0.9540 -1.2059 -0.3038
 3009SOL     OW20659   0.394   0.487   3.347  0.1957  0.1440  0.3831
 3009SOL    HW120660   0.475   0.520   3.308 -0.1644  1.2915  0.5990
 3009SOL    HW220661   0.408   0.392   3.347 -0.2742  0.0744 -0.0535
 3010SOL     OW20662   2.347   0.545   8.890 -0.2908 -0.2549 -0.4630
 3010SOL    HW120663   2.398   0.471   8.924 -0.4168 -0.4266 -0.6528
 3010SOL    HW220664   2.258   0.512   8.894 -0.5823  0.7517  1.3276
 3011SOL     OW20665   2.992   3.498   4.292  0.3724  0.2928  0.0713
 3011SOL    HW120666   2.998   3.545   4.209  1.7608  1.8843  1.0793
 3011SOL    HW220667   3.062   3.545   4.337  0.2837 -0.1245  0.6587
 3012SOL     OW20668   3.724   1.070   7.870 -0.6083 -0.7200 -0.1797
 3012SOL    HW120669   3.755   0.988   7.907  1.0107  0.2295  0.5539
 3012SOL    HW220670   3.688   1.119   7.944  0.0960  0.7326 -0.8079
 3013SOL     OW20671   2.046   3.474   4.489  0.1606  0.4468  0.6504
 3013SOL    HW120672   2.010   3.555   4.454  1.5646  1.4294  1.5027
 3013SOL    HW220673   1.962   3.428   4.495  0.2702  0.1862  0.2036
 3014SOL     OW20674   1.059   0.733   2.815  0.0780 -0.5423  0.2021
 3014SOL    HW120675   0.972   0.698   2.836  0.5347 -1.3866  0.7040
 3014SOL    HW220676   1.108   0.692   2.886  0.5287 -0.5802 -0.1294
 3015SOL     OW20677   3.917   0.901  16.765  0.2451  0.0399 -0.0199
 3015SOL    HW120678   3.983   0.897  16.834  0.5756 -0.1522 -0.3524
 3015SOL    HW220679   3.960   0.852  16.696  0.1079  1.2136 -0.9434
 3016SOL     OW20680   0.939   4.517   2.980  0.2008  0.0049  0.0086
 3016SOL    HW120681   0.872   4.535   2.914  1.1148 -0.3494 -1.0072
 3016SOL    HW220682   0.972   4.433   2.947  1.5859  0.3537  0.5089
 3017SOL     OW20683   0.941   1.359  14.978 -0.3680  0.3267 -0.2467
 3017SOL    HW120684   0.887   1.403  15.043 -1.4098  0.7641 -1.4236
 3017SOL    HW220685   0.885   1.374  14.902 -1.4740 -2.6550 -0.0120
 3018SOL     OW20686   4.188   1.316   5.760 -0.0659 -0.0087 -0.0581
 3018SOL    HW120687   4.178   1.403   5.722 -1.0052  0.6490  1.6895
 3018SOL    HW220688   4.155   1.259   5.691  0.0128 -0.0524 -0.0605
 3019SOL     OW20689   2.354   0.575   5.788 -0.3329  0.2818 -0.2749
 3019SOL    HW120690   2.329   0.613   5.704  2.0894  1.3273 -0.5170
 3019SOL    HW220691   2.268   0.536   5.802 -0.5860  0.7470 -0.5250
 3020SOL     OW20692   0.222   0.063   8.815  0.0208 -0.5087 -0.4279
 3020SOL    HW120693   0.194   0.039   8.726 -0.8633 -0.6840 -0.0947
 3020SOL    HW220694   0.301   0.008   8.810  1.2148  0.9201  2.6145
 3021SOL     OW20695   1.868   1.811   4.588  0.2719  0.0804  0.5289
 3021SOL    HW120696   1.849   1.791   4.496 -0.1518  1.4708  0.3199
 3021SOL    HW220697   1.781   1.840   4.613 -0.0727  0.8477 -1.5094
 3022SOL     OW20698   1.859   0.515   1.597 -0.0619  0.3351  0.1445
 3022SOL    HW120699   1.810   0.495   1.517  0.9743 -0.7089 -0.2377
 3022SOL    HW220700   1.936   0.561   1.562  0.1105  0.3666  0.5601
 3023SOL     OW20701   2.959   3.290   8.700 -0.0703 -0.3337 -0.2276
 3023SOL    HW120702   2.898   3.322   8.633  0.8286  0.9844 -0.4301
 3023SOL    HW220703   2.971   3.198   8.677  1.1528 -0.5333  1.2074
 3024SOL     OW20704   4.690   1.034   6.095 -0.6242 -0.5370  0.1415
 3024SOL    HW120705   4.683   1.126   6.070 -0.6615 -1.3368 -2.8085
 3024SOL    HW220706   4.696   1.036   6.191  0.3957 -0.8063  0.0868
 3025SOL     OW20707   2.722   4.392  13.543  0.1730  0.6474  0.2678
 3025SOL    HW120708   2.659   4.320  13.535  1.2757 -0.3793  0.7768
 3025SOL    HW220709   2.669   4.451  13.596 -0.9531 -0.3864  0.3009
 3026SOL     OW20710   3.952   2.728  16.670  0.0947  0.3099  0.0511
 3026SOL    HW120711   3.951   2.686  16.584 -1.9991 -1.8629  1.1438
 3026SOL    HW220712   3.993   2.811  16.646  0.8587  0.3163  1.3726
 3027SOL     OW20713   3.994   4.606   1.795  0.5161  0.2653 -0.3211
 3027SOL    HW120714   4.071   4.662   1.798 -0.2575  1.3248 -0.1226
 3027SOL    HW220715   3.937   4.668   1.749  0.4133  0.4697  0.0787
 3028SOL     OW20716   2.526   4.686  16.724 -0.4074 -0.0898 -0.2063
 3028SOL    HW120717   2.531   4.607  16.778 -2.0393 -0.4872 -0.6444
 3028SOL    HW220718   2.486   0.007  16.790  0.6839 -0.7359  1.0068
 3029SOL     OW20719   3.170   4.678   5.138  0.0305  0.0681 -0.6584
 3029SOL    HW120720   3.262   4.669   5.163 -0.0227 -0.6505 -0.7112
 3029SOL    HW220721   3.158   0.026   5.184  0.7146 -0.4235  0.3997
 3030SOL     OW20722   4.192   3.689   1.413 -0.1421 -0.5234  0.1439
 3030SOL    HW120723   4.254   3.671   1.343  0.1711  0.9593  0.0414
 3030SOL    HW220724   4.114   3.709   1.361  0.6247  2.0366 -0.0408
 3031SOL     OW20725   4.299   2.218   2.341 -0.2437 -0.4243  0.1605
 3031SOL    HW120726   4.309   2.263   2.257 -2.6883 -0.4528 -0.1572
 3031SOL    HW220727   4.261   2.283   2.401 -1.1490 -1.8416  1.1169
 3032SOL     OW20728   0.403   3.962   3.248  0.4772 -0.2245  0.2497
 3032SOL    HW120729   0.483   3.948   3.198  0.0876 -0.6008 -0.2740
 3032SOL    HW220730   0.424   3.971   3.341  1.5431  1.6139 -0.1697
 3033SOL     OW20731   2.669   3.958  10.349  0.0051 -0.0297  0.2226
 3033SOL    HW120732   2.623   4.037  10.317 -1.5711 -2.1727 -2.8832
 3033SOL    HW220733   2.641   3.905  10.274 -1.7479  1.7466 -0.4189
 3034SOL     OW20734   3.678   2.757   3.075 -0.0328  0.0937  0.5475
 3034SOL    HW120735   3.654   2.810   2.998  1.6615  0.2775  0.1396
 3034SOL    HW220736   3.674   2.670   3.036  1.2086  0.4052 -0.2821
 3035SOL     OW20737   4.278   1.945   2.412 -0.0396 -0.1952  0.0727
 3035SOL    HW120738   4.206   1.902   2.459  2.1360 -3.0675  0.7243
 3035SOL    HW220739   4.238   2.031   2.399 -0.2059 -0.6112 -2.1104
 3036SOL     OW20740   4.362   3.480   8.040 -0.8662  0.3173 -0.1508
 3036SOL    HW120741   4.328   3.391   8.055  1.0222 -0.4595 -0.4799
 3036SOL    HW220742   4.304   3.537   8.090 -0.0118  0.4201  0.7269
 3037SOL     OW20743   4.693   2.386   2.899 -0.0727 -0.2772 -0.0836
 3037SOL    HW120744   4.634   2.320   2.862  1.1646 -0.5649 -1.5807
 3037SOL    HW220745   0.043   2.364   2.860  0.3823 -0.4995  1.0351
 3038SOL     OW20746   2.294   3.428   6.388 -0.2166  0.6537 -0.4026
 3038SOL    HW120747   2.369   3.454   6.334  0.4196  0.1821  0.2603
 3038SOL    HW220748   2.332   3.420   6.476 -2.2622 -0.3990  0.3693
 3039SOL     OW20749   3.172   2.524  11.513 -0.5384  0.5648  0.3269
 3039SOL    HW120750   3.236   2.596  11.506  0.7784 -0.7781 -1.6022
 3039SOL    HW220751   3.161   2.518  11.608  2.0016  0.7879  0.6409
 3040SOL     OW20752   0.467   0.512   0.205 -0.3674  0.2711  0.6345
 3040SOL    HW120753   0.385   0.526   0.251 -1.1862  1.4104 -1.1676
 3040SOL    HW220754   0.504   0.431   0.241 -1.3028  0.8455  2.8634
 3041SOL     OW20755   4.097   0.147   6.957 -0.1839  0.2503  0.1402
 3041SOL    HW120756   4.109   0.091   7.033  1.8413 -0.7345 -0.8997
 3041SOL    HW220757   4.163   0.111   6.898  0.5466  0.6768  0.6998
 3042SOL     OW20758   1.832   2.494   5.969  0.3084 -0.3092 -0.2027
 3042SOL    HW120759   1.745   2.512   6.005  0.7108  0.2589  0.4757
 3042SOL    HW220760   1.868   2.432   6.032 -1.9905 -2.5369 -1.1038
 3043SOL     OW20761   1.839   3.043  12.738  0.8666 -0.3110 -0.7092
 3043SOL    HW120762   1.761   3.095  12.717  0.5817 -0.2466  0.5155
 3043SOL    HW220763   1.900   3.116  12.731  0.4299 -0.0849 -2.1345
 3044SOL     OW20764   1.444   0.541   3.878 -0.1988 -0.1468 -0.0702
 3044SOL    HW120765   1.353   0.561   3.899  0.2136 -0.0102  1.6200
 3044SOL    HW220766   1.435   0.507   3.789  1.1282 -1.2733  0.2184
 3045SOL     OW20767   3.662   4.131   8.734  0.4905 -0.6968 -0.3007
 3045SOL    HW120768   3.598   4.199   8.752  2.0176  0.6053  0.2387
 3045SOL    HW220769   3.736   4.189   8.712  0.9592 -0.2649  2.3553
 3046SOL     OW20770   0.588   2.369   5.332 -0.4545 -0.1010  0.0932
 3046SOL    HW120771   0.539   2.413   5.263 -0.2406  0.4553  0.2933
 3046SOL    HW220772   0.677   2.406   5.328 -0.3306 -0.3329  0.7166
 3047SOL     OW20773   2.044   0.290   7.878 -0.7155 -0.3980  0.3468
 3047SOL    HW120774   2.086   0.230   7.817  0.0450 -0.1991  0.6692
 3047SOL    HW220775   2.114   0.347   7.909 -1.7617  0.9516  0.2572
 3048SOL     OW20776   0.669   1.248  17.460 -0.1336  0.2965  1.0015
 3048SOL    HW120777   0.706   1.334  17.440 -0.0537 -0.0406 -0.3137
 3048SOL    HW220778   0.579   1.270  17.483  0.1985  0.4886  2.1027
 3049SOL     OW20779   3.976   2.633  11.171 -0.7173  0.1714 -0.7792
 3049SOL    HW120780   3.913   2.568  11.200 -0.4170 -1.1189 -3.0513
 3049SOL    HW220781   3.940   2.667  11.090 -0.6231  0.2457 -0.7907
 3050SOL     OW20782   0.944   3.160  13.591  0.6359  0.3525  0.4752
 3050SOL    HW120783   0.925   3.100  13.663  2.2641 -2.4721 -1.4594
 3050SOL    HW220784   0.874   3.139  13.530  1.0315  0.9053 -0.1634
 3051SOL     OW20785   2.932   3.207  14.958 -0.5710  0.2816  0.4508
 3051SOL    HW120786   2.911   3.248  15.043 -0.9933 -1.2959  1.1020
 3051SOL    HW220787   2.845   3.204  14.919 -0.2181 -0.1691 -0.2763
 3052SOL     OW20788   1.160   0.496   7.530  0.6429 -0.5187  0.4581
 3052SOL    HW120789   1.069   0.509   7.558 -0.4781  2.2971 -4.2884
 3052SOL    HW220790   1.147   0.477   7.437  1.8071  1.0411 -0.0369
 3053SOL     OW20791   1.232   1.894   9.334  0.4234 -0.1716  0.4741
 3053SOL    HW120792   1.141   1.874   9.355  0.0462  2.3102  1.2133
 3053SOL    HW220793   1.229   1.989   9.345 -1.5143 -0.2761  0.7100
 3054SOL     OW20794   0.421   4.427  16.646 -0.0301  0.2944 -0.3755
 3054SOL    HW120795   0.506   4.443  16.686  0.4450  0.1951 -1.3399
 3054SOL    HW220796   0.376   4.374  16.711 -0.7147  0.4956 -0.6805
 3055SOL     OW20797   1.085   4.396  17.249  0.3772  0.2258  0.0482
 3055SOL    HW120798   1.062   4.401  17.157 -2.2527  0.7769  0.7368
 3055SOL    HW220799   1.180   4.407  17.244  0.0824  1.6111 -2.2245
 3056SOL     OW20800   3.839   2.141   9.516 -0.0628 -0.2060 -0.3439
 3056SOL    HW120801   3.847   2.226   9.472 -0.0030 -1.3699 -2.5419
 3056SOL    HW220802   3.748   2.117   9.501  1.0780 -4.1110 -0.8196
 3057SOL     OW20803   1.092   2.218  14.623 -0.9670 -0.1896  0.3424
 3057SOL    HW120804   1.088   2.133  14.667 -1.6394 -0.7125 -0.7354
 3057SOL    HW220805   1.006   2.215  14.580  0.2080  0.8908 -2.1003
 3058SOL     OW20806   3.362   0.408   4.311 -0.0271 -0.3815 -0.1852
 3058SOL    HW120807   3.433   0.362   4.267 -0.9287 -0.2255 -1.8012
 3058SOL    HW220808   3.280   0.387   4.266 -0.0542 -0.3672 -0.1428
 3059SOL     OW20809   3.768   4.278   0.999 -0.1844  0.2912  0.2991
 3059SOL    HW120810   3.800   4.188   0.999  2.3234  1.1779 -1.8123
 3059SOL    HW220811   3.849   4.325   1.019 -0.2370  0.3632  0.3413
 3060SOL     OW20812   0.376   2.851  15.406 -0.1362 -0.3059  0.4241
 3060SOL    HW120813   0.330   2.840  15.323  0.3311  1.9874 -0.1181
 3060SOL    HW220814   0.446   2.787  15.392 -0.9753 -1.0072 -0.5844
 3061SOL     OW20815   0.581   3.933   1.100 -0.6503  0.1311 -0.5118
 3061SOL    HW120816   0.491   3.903   1.087 -0.6885 -0.0570  0.2058
 3061SOL    HW220817   0.606   3.873   1.169 -0.7450 -1.0641 -1.5134
 3062SOL     OW20818   1.963   2.130   1.157  0.6539  0.0007 -0.3962
 3062SOL    HW120819   1.946   2.045   1.116 -0.6912  0.0913 -0.0440
 3062SOL    HW220820   2.000   2.096   1.238 -0.7822 -0.8462 -0.0867
 3063SOL     OW20821   3.538   0.799  12.371  0.5153  0.3198 -0.9212
 3063SOL    HW120822   3.494   0.856  12.434 -0.5131 -2.6293  1.0408
 3063SOL    HW220823   3.541   0.719  12.424  1.3325  0.5384 -0.6392
 3064SOL     OW20824   0.856   0.628   6.285 -0.3926  0.0821  0.6648
 3064SOL    HW120825   0.899   0.692   6.343 -0.5544  0.8423 -0.0520
 3064SOL    HW220826   0.871   0.662   6.197 -0.0458 -2.4231 -0.2328
 3065SOL     OW20827   4.045   3.093  15.443  0.0344  0.1624 -0.1092
 3065SOL    HW120828   3.969   3.041  15.467 -0.8848  0.9879 -1.2010
 3065SOL    HW220829   4.012   3.180  15.464 -0.5549  0.1111 -0.8500
 3066SOL     OW20830   3.280   1.428   4.951  0.4884 -0.2991 -0.5565
 3066SOL    HW120831   3.375   1.418   4.941  0.4403 -2.1849  0.7562
 3066SOL    HW220832   3.255   1.372   4.877 -1.2264 -0.5266  0.2015
 3067SOL     OW20833   4.174   1.408   7.292  0.0214  0.1170  0.1346
 3067SOL    HW120834   4.200   1.329   7.339 -1.1080 -0.3294  0.0056
 3067SOL    HW220835   4.119   1.454   7.356 -0.5731  1.6528 -1.4780
 3068SOL     OW20836   4.473   0.711  10.813 -0.0227 -0.1746 -0.0775
 3068SOL    HW120837   4.555   0.711  10.863 -0.5407  0.2733  0.7528
 3068SOL    HW220838   4.497   0.653  10.740  1.0883  0.1747  0.0060
 3069SOL     OW20839   2.312   4.040   7.028  0.4191 -0.0836  0.1955
 3069SOL    HW120840   2.259   3.966   7.060  1.4458 -1.2886 -0.8738
 3069SOL    HW220841   2.393   4.009   7.070 -0.0737  1.1329  2.0318
 3070SOL     OW20842   4.035   4.232  11.990  0.1295  0.1139 -0.6867
 3070SOL    HW120843   4.089   4.223  11.911  0.8818  0.9222 -0.2722
 3070SOL    HW220844   4.095   4.229  12.065 -1.1229 -1.9997  0.2232
 3071SOL     OW20845   0.629   4.046  14.963 -0.2029 -0.0844 -0.2433
 3071SOL    HW120846   0.647   4.114  15.027 -1.4824 -0.7344  0.8017
 3071SOL    HW220847   0.596   3.974  15.017  1.6103  1.2469  2.6331
 3072SOL     OW20848   1.703   1.596   8.165 -0.2001 -0.3194  0.3992
 3072SOL    HW120849   1.726   1.505   8.148 -0.6768 -0.4792  0.6048
 3072SOL    HW220850   1.626   1.607   8.109 -0.0370 -0.2482  0.1886
 3073SOL     OW20851   1.808   3.553   5.215 -0.1748  0.1009  0.0680
 3073SOL    HW120852   1.732   3.522   5.165 -0.2637  2.4221 -1.2567
 3073SOL    HW220853   1.797   3.527   5.306  1.4817  0.7812  0.4651
 3074SOL     OW20854   2.236   1.285   2.726 -0.2152  0.0154  0.0759
 3074SOL    HW120855   2.306   1.314   2.785 -0.2344 -1.2449  0.7121
 3074SOL    HW220856   2.248   1.191   2.739  0.5683  0.0099 -0.6979
 3075SOL     OW20857   4.008   3.288   7.427  0.2411  0.3378  0.1501
 3075SOL    HW120858   4.005   3.213   7.486 -3.4040 -0.7888 -1.4844
 3075SOL    HW220859   4.017   3.353   7.496  1.0373  2.7685 -2.2517
 3076SOL     OW20860   3.491   3.768   4.179  0.1593  0.5068 -0.4170
 3076SOL    HW120861   3.547   3.845   4.186  0.6211  0.0393  0.9997
 3076SOL    HW220862   3.485   3.766   4.083  0.8650 -0.9900 -0.4388
 3077SOL     OW20863   0.906   1.633  10.450 -0.2647  0.1310 -0.4349
 3077SOL    HW120864   0.826   1.606  10.494 -0.3681  0.4297 -0.4389
 3077SOL    HW220865   0.869   1.694  10.386 -2.9949 -1.4696 -0.3978
 3078SOL     OW20866   3.130   0.932  14.006 -0.5373 -0.3975 -0.5733
 3078SOL    HW120867   3.206   0.987  13.986 -0.1485 -1.1151 -1.0824
 3078SOL    HW220868   3.068   1.001  14.031  0.8120 -0.0213  1.6418
 3079SOL     OW20869   0.874   3.998   3.634 -0.2955  0.3840  0.4066
 3079SOL    HW120870   0.907   4.035   3.716 -0.1184 -1.6666  1.2685
 3079SOL    HW220871   0.815   3.936   3.677  2.0702 -1.9506  0.3106
 3080SOL     OW20872   3.756   4.633   4.230  0.0552 -0.1704  0.4603
 3080SOL    HW120873   3.713   4.643   4.315 -0.5309  1.1550  0.0113
 3080SOL    HW220874   3.805   4.714   4.225  1.8646 -1.3880 -1.2933
 3081SOL     OW20875   2.051   1.343   4.691  0.1420  0.3970  1.0281
 3081SOL    HW120876   2.035   1.437   4.700  0.2612  0.6475 -1.3521
 3081SOL    HW220877   2.140   1.344   4.656  0.6323 -0.4474  2.2569
 3082SOL     OW20878   3.485   1.501   9.115  0.1663 -0.0271  0.1001
 3082SOL    HW120879   3.529   1.416   9.113  0.6515  0.2431 -0.8211
 3082SOL    HW220880   3.552   1.562   9.082  0.3135 -0.8453 -1.1024
 3083SOL     OW20881   3.156   3.291   7.619  0.1386  0.3833 -0.3771
 3083SOL    HW120882   3.082   3.230   7.612  0.9281 -0.7857  1.5930
 3083SOL    HW220883   3.225   3.226   7.632 -1.1338 -0.6238  1.3686
 3084SOL     OW20884   4.676   2.464  14.593 -0.5052  0.1717  0.3006
 3084SOL    HW120885   4.689   2.370  14.582  0.0760  0.1621  1.0676
 3084SOL    HW220886   4.672   2.503  14.506 -1.3741  1.9425  1.1218
 3085SOL     OW20887   3.253   3.957  15.063 -0.8506  0.7492 -0.0298
 3085SOL    HW120888   3.332   3.913  15.033 -0.5084  0.5620  1.1672
 3085SOL    HW220889   3.230   4.012  14.988  1.6612  1.4405 -0.2961
 3086SOL     OW20890   3.969   2.756  13.080 -0.2548  0.3061 -0.0093
 3086SOL    HW120891   3.887   2.708  13.093 -0.7506  0.8959 -0.9763
 3086SOL    HW220892   3.969   2.763  12.984 -0.7110 -0.3606 -0.0534
 3087SOL     OW20893   0.894   0.314   6.658  0.8604 -0.2272 -0.1299
 3087SOL    HW120894   0.925   0.272   6.739 -2.2070  0.4113  1.3913
 3087SOL    HW220895   0.878   0.235   6.606 -1.6131  0.4539 -0.3946
 3088SOL     OW20896   0.100   0.924   2.652  0.2366 -0.5073 -0.3333
 3088SOL    HW120897   0.192   0.942   2.629 -0.8020  0.8746 -3.5119
 3088SOL    HW220898   0.088   0.972   2.734 -0.8733  0.8421 -1.2772
 3089SOL     OW20899   0.272   1.685  13.581 -0.2390  0.0257 -0.3911
 3089SOL    HW120900   0.223   1.695  13.662 -1.4699  1.4270 -1.3007
 3089SOL    HW220901   0.251   1.769  13.539 -1.6357 -0.2125 -0.1645
 3090SOL     OW20902   4.390   2.456  16.696 -0.0618 -0.2521  0.5591
 3090SOL    HW120903   4.364   2.433  16.607 -1.0210 -1.0852  1.0521
 3090SOL    HW220904   4.448   2.531  16.683 -1.5400  1.0727  1.6158
 3091SOL     OW20905   0.031   3.308   3.424 -0.2155 -0.6302  0.6765
 3091SOL    HW120906   4.706   3.380   3.404 -0.4667 -0.8323  0.7099
 3091SOL    HW220907   4.717   3.229   3.402 -1.5695  0.5500 -0.5243
 3092SOL     OW20908   4.473   0.070  15.602  0.3503 -0.1457  0.0210
 3092SOL    HW120909   4.567   0.060  15.617  0.2985  0.4890  0.7924
 3092SOL    HW220910   4.477   0.166  15.599 -0.0012 -0.2180 -2.3065
 3093SOL     OW20911   2.107   3.838   5.468 -1.3331  0.0593 -0.0275
 3093SOL    HW120912   2.054   3.911   5.437  0.4429  2.4163  2.5370
 3093SOL    HW220913   2.075   3.835   5.558  2.3103 -1.1998  1.2236
 3094SOL     OW20914   3.790   2.513   8.420  0.4992  0.0962 -0.3358
 3094SOL    HW120915   3.831   2.600   8.426  1.0659 -0.1019 -1.5562
 3094SOL    HW220916   3.700   2.519   8.387  0.3027  2.0503  0.5229
 3095SOL     OW20917   2.618   4.622   7.744  0.4055 -0.3245 -0.6099
 3095SOL    HW120918   2.563   4.550   7.713 -1.4678  0.3332  1.2595
 3095SOL    HW220919   2.657   4.582   7.822 -3.0405  0.1694  1.3644
 3096SOL     OW20920   1.836   2.521  14.442 -0.0776  0.4898  0.7255
 3096SOL    HW120921   1.849   2.565  14.358  0.0170 -0.2080  0.3785
 3096SOL    HW220922   1.797   2.436  14.422 -0.3984  1.0322 -0.8938
 3097SOL     OW20923   2.594   3.891   0.318  0.1529  0.0677 -0.0895
 3097SOL    HW120924   2.687   3.885   0.338 -0.0478 -0.3924  0.7094
 3097SOL    HW220925   2.551   3.816   0.359 -0.2114 -0.6768 -1.8361
 3098SOL     OW20926   3.005   3.697  11.257 -0.2389  0.2995 -0.0490
 3098SOL    HW120927   2.980   3.691  11.164 -3.3937  2.9650  0.6123
 3098SOL    HW220928   2.985   3.609  11.288 -0.5397  0.9651  1.6099
 3099SOL     OW20929   4.059   3.962  10.629  0.4598  0.9440 -0.4560
 3099SOL    HW120930   4.037   3.998  10.715 -0.8813  1.2992 -0.9406
 3099SOL    HW220931   4.149   3.993  10.620  1.3403 -1.7305 -0.7578
 3100SOL     OW20932   3.209   1.853   0.640  0.2466 -0.0805 -0.5128
 3100SOL    HW120933   3.120   1.842   0.675  0.7575  0.1228  0.8506
 3100SOL    HW220934   3.223   1.948   0.639 -0.0748 -0.0148  0.5689
 3101SOL     OW20935   2.747   0.584   7.112  0.2295  0.2299  0.1917
 3101SOL    HW120936   2.665   0.538   7.129 -1.5463  2.4148 -2.4412
 3101SOL    HW220937   2.716   0.660   7.062  0.6338 -0.6855 -1.4771
 3102SOL     OW20938   1.183   0.811   7.064 -0.5248  0.3333 -0.4588
 3102SOL    HW120939   1.160   0.876   7.130  0.8151 -0.3381  0.6659
 3102SOL    HW220940   1.108   0.815   7.005 -0.5641 -1.0892 -0.5146
 3103SOL     OW20941   0.593   1.755   3.607  0.4880  0.3531 -0.1222
 3103SOL    HW120942   0.575   1.664   3.582 -1.6554  0.7070  0.0692
 3103SOL    HW220943   0.577   1.752   3.701 -2.0624  0.0967 -0.5412
 3104SOL     OW20944   2.353   0.568   8.309 -0.0605  0.1716 -0.6073
 3104SOL    HW120945   2.339   0.567   8.404 -0.1100 -0.4527 -0.6263
 3104SOL    HW220946   2.414   0.498   8.288 -2.4171 -2.2234  0.5792
 3105SOL     OW20947   4.342   2.355   7.338  0.1288  0.5619 -0.3029
 3105SOL    HW120948   4.374   2.284   7.393 -0.8215  2.6930  3.0279
 3105SOL    HW220949   4.346   2.429   7.399 -0.2120 -0.9432  1.5385
 3106SOL     OW20950   1.034   1.208   7.958  0.6109 -0.7089 -0.3191
 3106SOL    HW120951   1.010   1.272   8.026  3.0194 -1.0664  0.8721
 3106SOL    HW220952   1.078   1.144   8.014  2.3117 -0.6146 -1.5551
 3107SOL     OW20953   2.363   0.140   4.358  0.5228  0.3195  1.0147
 3107SOL    HW120954   2.296   0.139   4.427 -2.1428  0.1019 -1.5708
 3107SOL    HW220955   2.427   0.208   4.380 -0.3472  1.3723  0.2983
 3108SOL     OW20956   3.862   3.544   2.371  0.4303 -0.0427 -0.2358
 3108SOL    HW120957   3.868   3.533   2.466 -2.2291  4.8917  0.4865
 3108SOL    HW220958   3.797   3.613   2.365  0.3486 -0.0072  0.9457
 3109SOL     OW20959   2.899   4.539   0.118 -0.1171 -0.0283  0.5569
 3109SOL    HW120960   2.994   4.535   0.126 -0.1127  0.7705  0.8290
 3109SOL    HW220961   2.881   4.612   0.059  0.5238 -0.9295 -0.7599
 3110SOL     OW20962   0.468   4.519   9.100  0.0171 -0.3357 -0.4650
 3110SOL    HW120963   0.440   4.587   9.038 -1.4013  0.7607  1.3654
 3110SOL    HW220964   0.562   4.540   9.106 -0.1336  0.1331  0.3705
 3111SOL     OW20965   1.186   1.499   0.580  0.6348 -0.2429 -0.2816
 3111SOL    HW120966   1.265   1.508   0.527  0.6336 -0.9194 -0.3929
 3111SOL    HW220967   1.124   1.488   0.508 -1.2915 -0.1202  1.3534
 3112SOL     OW20968   3.254   3.674   4.753  0.1069 -0.5225 -0.1903
 3112SOL    HW120969   3.263   3.681   4.658 -0.0277 -1.8707 -0.2918
 3112SOL    HW220970   3.160   3.656   4.760 -0.4706  1.8924 -1.6866
 3113SOL     OW20971   4.667   2.463   5.977 -0.1156 -0.4859 -0.8269
 3113SOL    HW120972   4.680   2.513   5.896 -1.7299  0.3814 -0.5531
 3113SOL    HW220973   4.734   2.394   5.971 -0.4513 -0.7807 -1.1689
 3114SOL     OW20974   0.789   2.930   7.671 -0.3413  0.4652  0.4194
 3114SOL    HW120975   0.791   2.922   7.767 -1.1002 -1.9773  0.2283
 3114SOL    HW220976   0.816   2.843   7.641 -1.8034 -0.5360  1.9886
 3115SOL     OW20977   1.038   0.167   5.894  0.0429 -0.0029  0.5335
 3115SOL    HW120978   0.959   0.133   5.850 -0.1841  1.3106 -0.0876
 3115SOL    HW220979   1.102   0.121   5.841  2.0604  3.8519 -0.3519
 3116SOL     OW20980   0.938   4.028  15.621 -0.1106  0.0711  0.3362
 3116SOL    HW120981   0.891   4.083  15.684 -2.9794 -1.6330 -0.3461
 3116SOL    HW220982   0.919   3.937  15.643  2.0637 -0.5886 -0.5226
 3117SOL     OW20983   2.023   0.979   5.916  0.0288  0.0911 -0.2511
 3117SOL    HW120984   2.039   0.886   5.898  0.3491 -0.0084  0.5477
 3117SOL    HW220985   1.932   0.992   5.890 -0.3619 -3.1117 -0.5410
 3118SOL     OW20986   2.919   1.212   5.102  0.1002  0.2307  0.3793
 3118SOL    HW120987   2.895   1.303   5.116  0.3297  0.0824  1.7278
 3118SOL    HW220988   2.932   1.180   5.192  0.8685  1.2554  0.6267
 3119SOL     OW20989   3.963   2.771   3.337 -0.0746 -0.4713  0.1973
 3119SOL    HW120990   3.979   2.839   3.272 -1.6279 -0.9789 -0.7103
 3119SOL    HW220991   3.967   2.696   3.278  0.2692 -0.0047 -0.3794
 3120SOL     OW20992   2.454   3.831   2.717  0.5229  0.9932  0.2235
 3120SOL    HW120993   2.486   3.888   2.787  0.5209  1.3666 -0.0821
 3120SOL    HW220994   2.363   3.857   2.701  0.4315 -0.1669 -1.1256
 3121SOL     OW20995   0.518   0.490  17.171 -0.5665 -0.4556  0.2882
 3121SOL    HW120996   0.515   0.565  17.230  0.9234 -0.7479  0.7364
 3121SOL    HW220997   0.503   0.526  17.084  0.1968 -1.8432 -0.4237
 3122SOL     OW20998   0.916   1.163   7.378 -0.2049 -0.6323  1.0583
 3122SOL    HW120999   0.904   1.258   7.387  0.2247 -0.2926 -2.0034
 3122SOL    HW221000   0.829   1.136   7.409 -0.1349 -0.8383  1.0710
 3123SOL     OW21001   0.331   2.908  13.492  0.0016 -0.0421 -0.3631
 3123SOL    HW121002   0.352   2.997  13.464  1.8224 -0.1356  0.7235
 3123SOL    HW221003   0.243   2.913  13.454 -0.5394  0.6443  0.9699
 3124SOL     OW21004   1.519   0.073   2.369  0.0161  0.4575  0.4602
 3124SOL    HW121005   1.585   0.092   2.302  0.2088  0.1183  0.5520
 3124SOL    HW221006   1.569   0.056   2.449  0.2886 -0.8806  0.0107
 3125SOL     OW21007   0.929   2.153   8.762 -0.0956 -0.4764 -0.5789
 3125SOL    HW121008   0.898   2.227   8.814  0.7141  0.8442 -1.9907
 3125SOL    HW221009   1.022   2.171   8.750  0.1387 -0.3973  1.3419
 3126SOL     OW21010   1.580   3.606   4.940  0.2377 -0.5591  0.6341
 3126SOL    HW121011   1.573   3.698   4.967  0.1141  0.6435 -3.4513
 3126SOL    HW221012   1.541   3.555   5.011  1.5889 -0.8677  1.1550
 3127SOL     OW21013   3.666   2.553   2.876  0.3347  0.3512 -0.1562
 3127SOL    HW121014   3.652   2.459   2.889  1.5752  0.2150  0.2559
 3127SOL    HW221015   3.762   2.547   2.877  0.2578 -1.2112 -1.3040
 3128SOL     OW21016   0.099   2.330   9.099  0.1794 -0.1058  0.1051
 3128SOL    HW121017   0.125   2.413   9.138 -1.2694 -0.2590  1.3891
 3128SOL    HW221018   0.104   2.278   9.180 -1.1954  0.1900  0.3664
 3129SOL     OW21019   1.449   3.251   9.079  0.0611  0.3905  0.3553
 3129SOL    HW121020   1.392   3.317   9.040  0.4333 -0.3049 -1.3994
 3129SOL    HW221021   1.530   3.268   9.029 -0.4145  0.7692 -0.2880
 3130SOL     OW21022   2.469   0.295   1.876  0.5218  0.2804 -0.1883
 3130SOL    HW121023   2.375   0.277   1.878  0.2999  1.5264  0.3764
 3130SOL    HW221024   2.502   0.217   1.920  0.3634  0.7605  0.7910
 3131SOL     OW21025   1.928   0.947   6.214 -0.3553  0.3725 -0.4086
 3131SOL    HW121026   1.954   0.986   6.130 -0.3605  3.7554  1.1684
 3131SOL    HW221027   1.876   0.870   6.190  0.6358 -0.9803  1.7543
 3132SOL     OW21028   3.241   3.401  15.166 -0.7136  0.1955 -0.1019
 3132SOL    HW121029   3.178   3.463  15.203 -0.7508  0.5035 -0.6854
 3132SOL    HW221030   3.254   3.348  15.245  0.1167 -0.1751 -0.4892
 3133SOL     OW21031   2.907   0.690  10.444  0.0014 -0.7369 -0.0342
 3133SOL    HW121032   2.866   0.774  10.467  0.4895 -0.4277 -0.2928
 3133SOL    HW221033   2.947   0.677  10.530  1.1382 -2.3665 -0.8272
 3134SOL     OW21034   4.211   0.012   5.455 -0.3813 -0.4632  0.1007
 3134SOL    HW121035   4.192   4.714   5.542  0.4040 -1.0437  0.0442
 3134SOL    HW221036   4.126   0.011   5.409 -0.2247 -1.4013 -0.1550
 3135SOL     OW21037   4.083   3.483   4.631 -0.6483 -0.0492 -0.1889
 3135SOL    HW121038   3.996   3.496   4.669 -0.7903 -0.1468 -0.4839
 3135SOL    HW221039   4.142   3.470   4.705  0.6141 -1.2850 -1.4168
 3136SOL     OW21040   0.632   4.353   2.752 -0.7785 -0.0881  0.2861
 3136SOL    HW121041   0.583   4.393   2.680  2.6909  1.9763 -0.8992
 3136SOL    HW221042   0.626   4.265   2.715 -0.7619  0.2010 -0.4067
 3137SOL     OW21043   1.996   3.969   3.017  0.1803 -0.3477 -0.3728
 3137SOL    HW121044   1.932   4.023   3.063 -1.0473 -2.0828 -0.0189
 3137SOL    HW221045   1.944   3.932   2.945 -1.4935  1.4172 -0.0583
 3138SOL     OW21046   1.121   2.781   3.069 -0.6672 -0.0077 -0.3500
 3138SOL    HW121047   1.148   2.871   3.088 -1.2570  0.3994 -1.4241
 3138SOL    HW221048   1.073   2.742   3.143 -2.5149  1.8419 -0.5529
 3139SOL     OW21049   1.572   1.415   6.560  0.1206  0.3491  0.3678
 3139SOL    HW121050   1.535   1.366   6.633  2.3017  0.3042  1.4115
 3139SOL    HW221051   1.557   1.507   6.580  2.1858  0.7873 -0.1470
 3140SOL     OW21052   3.277   2.680   1.093 -0.2318 -0.4494 -0.1019
 3140SOL    HW121053   3.354   2.643   1.048  0.0649  0.4520 -0.3297
 3140SOL    HW221054   3.306   2.685   1.184  0.9223 -0.0500 -0.4952
 3141SOL     OW21055   3.234   0.431   1.829 -0.2894 -0.6749  0.0715
 3141SOL    HW121056   3.288   0.468   1.899  1.7027 -2.1408 -0.6787
 3141SOL    HW221057   3.287   0.355   1.805  1.9757  0.8387  0.2322
 3142SOL     OW21058   2.125   3.324   6.790 -0.2494 -0.4764 -0.6568
 3142SOL    HW121059   2.206   3.371   6.769 -0.5311 -0.3687 -1.4841
 3142SOL    HW221060   2.057   3.365   6.737 -0.8775 -1.8417 -0.9104
 3143SOL     OW21061   2.155   3.317   4.660 -0.1444 -0.1942  0.1388
 3143SOL    HW121062   2.129   3.383   4.595  0.6292 -0.0303 -0.0001
 3143SOL    HW221063   2.124   3.369   4.734  1.6396  1.7706 -0.4832
 3144SOL     OW21064   0.577   3.508  12.672  0.0994 -0.3144 -0.2041
 3144SOL    HW121065   0.563   3.418  12.700 -0.4071 -0.3387 -0.5368
 3144SOL    HW221066   0.548   3.563  12.744  4.7916  1.6564  0.1777
 3145SOL     OW21067   0.353   3.962   8.763 -0.7229  0.2091  0.4964
 3145SOL    HW121068   0.324   3.948   8.673 -2.8223  1.1477  1.0304
 3145SOL    HW221069   0.305   4.041   8.788 -3.2442 -1.7916  1.9508
 3146SOL     OW21070   2.129   3.987   4.326  0.2120 -0.7823  0.2720
 3146SOL    HW121071   2.197   3.992   4.258 -0.4234 -2.6436 -0.5258
 3146SOL    HW221072   2.153   3.903   4.366 -0.6299 -1.8674 -1.4715
 3147SOL     OW21073   4.729   4.731   7.351  0.1628 -0.1415  0.0005
 3147SOL    HW121074   4.718   4.726   7.256  1.0153 -0.8799 -0.0537
 3147SOL    HW221075   4.646   4.689   7.377  0.6054 -0.8733  0.2285
 3148SOL     OW21076   1.666   2.967  13.833 -0.0059  0.1336 -0.0496
 3148SOL    HW121077   1.658   3.020  13.754 -0.5456  0.0785 -0.0301
 3148SOL    HW221078   1.577   2.934  13.845 -0.0129  1.6726  4.2502
 3149SOL     OW21079   3.961   1.212  14.490 -0.4770 -0.0447 -0.4728
 3149SOL    HW121080   3.926   1.194  14.403 -0.3005 -0.3961 -0.4720
 3149SOL    HW221081   4.019   1.284  14.466 -3.8591  2.8607  0.1010
 3150SOL     OW21082   4.601   1.282   5.093 -0.0788  0.0629  0.1625
 3150SOL    HW121083   4.694   1.286   5.113  0.2279 -1.0971 -1.0318
 3150SOL    HW221084   4.585   1.366   5.136  1.9727  0.5092  0.0717
 3151SOL     OW21085   2.525   0.720  15.574 -0.3329  0.3368 -0.0243
 3151SOL    HW121086   2.450   0.670  15.542 -0.9798  0.8069  0.7531
 3151SOL    HW221087   2.476   0.769  15.641 -1.5140 -0.6073 -0.1926
 3152SOL     OW21088   3.397   2.123  16.327 -0.4049 -0.3046 -0.1821
 3152SOL    HW121089   3.327   2.158  16.381 -1.5910  0.2663 -2.0930
 3152SOL    HW221090   3.442   2.069  16.392  1.0834  0.2299 -0.7509
 3153SOL     OW21091   1.767   1.053   1.148  0.2310  0.2342  0.1172
 3153SOL    HW121092   1.702   1.096   1.093 -0.1385 -0.8738 -0.3079
 3153SOL    HW221093   1.708   1.008   1.208  2.7074 -1.3490  1.3948
 3154SOL     OW21094   1.768   1.026   4.339 -0.4439 -0.1533  0.2243
 3154SOL    HW121095   1.793   1.104   4.389  2.1623 -0.5155 -0.5062
 3154SOL    HW221096   1.676   1.022   4.367 -0.2878 -1.5821  0.5083
 3155SOL     OW21097   1.303   2.064  17.100  0.0011  0.1387 -0.0454
 3155SOL    HW121098   1.298   1.974  17.131 -2.2649  0.5351  0.7130
 3155SOL    HW221099   1.207   2.065  17.105 -0.0764 -1.6301 -1.2968
 3156SOL     OW21100   3.834   0.702   6.100 -0.1788 -0.1953  0.4942
 3156SOL    HW121101   3.756   0.657   6.068 -0.6308 -1.0122  2.7250
 3156SOL    HW221102   3.850   0.648   6.177 -1.7862 -1.6356 -0.2049
 3157SOL     OW21103   4.160   2.314   4.909  0.3352 -0.0914  0.3252
 3157SOL    HW121104   4.122   2.257   4.842 -0.3301 -0.2365  0.8258
 3157SOL    HW221105   4.087   2.377   4.910 -1.6919 -2.4446  0.9505
 3158SOL     OW21106   3.957   1.888   4.487 -0.3078 -0.6093 -0.5895
 3158SOL    HW121107   3.874   1.839   4.488 -1.2357  0.9563 -0.0382
 3158SOL    HW221108   3.995   1.828   4.423  1.3785  1.3143 -1.4020
 3159SOL     OW21109   2.392   3.126  17.463 -0.6439 -0.3554  0.8749
 3159SOL    HW121110   2.474   3.083  17.439 -1.9007 -1.8767 -0.6784
 3159SOL    HW221111   2.404   3.212  17.424 -1.2981  0.6645  2.9445
 3160SOL     OW21112   4.138   4.106   1.322  0.6706  0.2356  0.4556
 3160SOL    HW121113   4.043   4.110   1.330  0.6524  0.5823  0.0447
 3160SOL    HW221114   4.168   4.158   1.397  0.4330  1.8491 -0.5821
 3161SOL     OW21115   2.240   1.072   8.535  0.3550 -0.9674 -0.2628
 3161SOL    HW121116   2.317   1.080   8.479 -0.5393  1.5542 -1.1323
 3161SOL    HW221117   2.269   1.124   8.609  0.8037 -3.1540  1.0866
 3162SOL     OW21118   0.711   2.045   7.148  0.2566 -0.0222 -0.3784
 3162SOL    HW121119   0.701   2.057   7.054  0.1715  1.5912 -0.1662
 3162SOL    HW221120   0.621   2.067   7.172  0.2699 -2.1120  1.5764
 3163SOL     OW21121   3.779   0.833   9.481 -0.3366 -0.1365 -0.0232
 3163SOL    HW121122   3.804   0.785   9.560  2.1718 -0.5733 -1.0875
 3163SOL    HW221123   3.749   0.912   9.526 -0.2167 -0.0518 -0.0935
 3164SOL     OW21124   0.855   2.861   9.062 -0.3730  0.1888 -0.0229
 3164SOL    HW121125   0.852   2.923   9.135  2.8574 -0.0936  0.3272
 3164SOL    HW221126   0.946   2.833   9.058  0.0243  1.6443 -1.3727
 3165SOL     OW21127   3.235   0.151   5.806 -0.5319 -0.0107 -0.6246
 3165SOL    HW121128   3.159   0.115   5.761 -0.9373 -0.7624  0.6488
 3165SOL    HW221129   3.311   0.100   5.779  1.3477  3.2529 -1.4720
 3166SOL     OW21130   2.919   4.058   3.047  0.1390  0.0652 -0.5022
 3166SOL    HW121131   2.989   4.023   3.101 -1.3677  1.2267  2.2358
 3166SOL    HW221132   2.906   3.994   2.977  1.5297  1.0375 -1.6412
 3167SOL     OW21133   2.279   0.686  16.931  0.0146  0.4131  0.4795
 3167SOL    HW121134   2.184   0.693  16.924 -0.3063 -0.0149  4.0075
 3167SOL    HW221135   2.308   0.632  16.858  1.2631  1.0091  0.5211
 3168SOL     OW21136   2.983   1.551   5.518  0.2290 -0.2728  0.1020
 3168SOL    HW121137   2.920   1.618   5.544 -1.3207 -1.8424  0.4494
 3168SOL    HW221138   2.962   1.547   5.425  0.0164  1.8532  0.0729
 3169SOL     OW21139   4.277   0.341  11.338  0.2446  0.1504 -0.0890
 3169SOL    HW121140   4.245   0.425  11.369  0.5799  0.8779 -1.7694
 3169SOL    HW221141   4.274   0.292  11.421  0.1264  3.4564  1.8365
 3170SOL     OW21142   0.139   1.389   6.012 -0.1343 -0.1961 -0.3598
 3170SOL    HW121143   0.065   1.329   6.002 -0.4485 -0.0851  1.2283
 3170SOL    HW221144   0.134   1.427   6.100 -0.9660 -1.3222  0.0802
 3171SOL     OW21145   1.023   1.140   2.609 -0.1911 -0.0973  0.4532
 3171SOL    HW121146   0.982   1.073   2.554  0.9937 -1.1158  0.8153
 3171SOL    HW221147   1.069   1.080   2.668  3.1729  2.5978  0.5701
 3172SOL     OW21148   4.263   3.059   8.419  0.6284  0.5566 -0.5271
 3172SOL    HW121149   4.314   3.037   8.497 -0.0724  2.6474  0.5322
 3172SOL    HW221150   4.171   3.048   8.444  0.4372  0.0924 -1.4581
 3173SOL     OW21151   2.750   3.678  12.612  0.3905  0.2881 -0.2816
 3173SOL    HW121152   2.764   3.709  12.522 -1.5168 -2.0685 -1.3912
 3173SOL    HW221153   2.710   3.594  12.589  1.0949 -0.0865 -0.1166
 3174SOL     OW21154   0.119   4.643   6.372  0.1872  0.0743 -0.3867
 3174SOL    HW121155   0.137   4.622   6.464 -1.0726  0.3306 -0.0873
 3174SOL    HW221156   0.134   0.003   6.374  2.5961 -0.2854 -1.9930
 3175SOL     OW21157   1.972   0.345   6.289  1.1027 -0.0079  0.7738
 3175SOL    HW121158   1.974   0.323   6.195 -0.5469 -2.1725  1.2517
 3175SOL    HW221159   1.930   0.267   6.326  1.1958 -0.4914 -0.1239
 3176SOL     OW21160   1.867   3.795  10.338 -1.0095  0.2403  0.3738
 3176SOL    HW121161   1.896   3.742  10.412  2.4966  2.7506  0.8330
 3176SOL    HW221162   1.883   3.886  10.365 -0.7489  0.6632 -1.1918
 3177SOL     OW21163   1.641   4.184  14.846  0.1169 -0.0932 -0.6260
 3177SOL    HW121164   1.598   4.111  14.802 -2.5288 -0.3003  2.2723
 3177SOL    HW221165   1.599   4.258  14.801 -1.1416 -0.1819  0.3920
 3178SOL     OW21166   4.729   0.018   4.012 -0.4733 -0.0291  0.2230
 3178SOL    HW121167   4.656   4.693   4.025  1.9858 -2.8064  1.2346
 3178SOL    HW221168   4.706   0.098   4.058 -0.9509 -0.4495  0.7207
 3179SOL     OW21169   4.253   1.392   3.633  0.4517  0.0378  0.1540
 3179SOL    HW121170   4.339   1.411   3.594 -0.4066 -0.0278 -1.7975
 3179SOL    HW221171   4.261   1.297   3.642  2.2030  0.0204 -1.4914
 3180SOL     OW21172   4.421   1.419   5.412  0.2685 -0.1027 -0.0040
 3180SOL    HW121173   4.471   1.416   5.494  2.2621 -0.0655 -1.2374
 3180SOL    HW221174   4.495   1.443   5.357 -1.1016 -2.7406 -2.9850
 3181SOL     OW21175   1.764   3.854   2.857  0.3111 -0.1795 -0.2119
 3181SOL    HW121176   1.684   3.867   2.806 -0.2864  0.0590  0.7842
 3181SOL    HW221177   1.831   3.857   2.789  1.0910 -1.1357  0.5217
 3182SOL     OW21178   2.126   3.153  10.728 -0.3890 -0.5883  0.2845
 3182SOL    HW121179   2.114   3.063  10.761 -0.4904 -0.5574  0.3345
 3182SOL    HW221180   2.061   3.157  10.657 -2.6770  0.4110  2.4401
 3183SOL     OW21181   2.397   0.132   4.796  0.4960 -0.2633  0.2036
 3183SOL    HW121182   2.492   0.135   4.789  0.4895 -1.2582 -0.2716
 3183SOL    HW221183   2.383   0.091   4.711 -1.0911 -0.0945  0.3831
 3184SOL     OW21184   2.673   0.488   8.583  0.2236 -0.1121 -0.4254
 3184SOL    HW121185   2.737   0.511   8.650  0.6639 -1.2601 -0.4487
 3184SOL    HW221186   2.604   0.452   8.640  0.6121  0.8226  0.6424
 3185SOL     OW21187   0.149   4.200   2.192 -0.2723 -0.0794  0.4724
 3185SOL    HW121188   0.190   4.123   2.230  0.3448 -0.1814 -0.4141
 3185SOL    HW221189   0.213   4.211   2.122 -0.7249  1.4621  0.3045
 3186SOL     OW21190   4.025   1.312   8.665 -0.1675  0.6303 -0.6847
 3186SOL    HW121191   3.945   1.328   8.615 -0.7077 -2.5699 -0.8584
 3186SOL    HW221192   4.037   1.222   8.634 -1.2973  0.1010  0.4375
 3187SOL     OW21193   0.785   4.583   7.477 -0.1831  0.1696 -0.3548
 3187SOL    HW121194   0.790   4.511   7.414 -3.2190 -0.2763 -0.0753
 3187SOL    HW221195   0.775   4.541   7.562 -0.4332 -1.3489 -1.1343
 3188SOL     OW21196   0.956   4.630   7.111  0.5253 -0.0516 -0.4314
 3188SOL    HW121197   0.883   4.691   7.119  0.5795  0.0899 -1.0213
 3188SOL    HW221198   0.995   4.641   7.198 -0.4635  2.5919 -0.3154
 3189SOL     OW21199   0.793   4.055   6.596 -0.5725  0.4438  0.4594
 3189SOL    HW121200   0.792   4.017   6.508  0.1392 -2.6699  1.7953
 3189SOL    HW221201   0.762   4.145   6.586  1.4982  0.8792 -1.9983
 3190SOL     OW21202   0.294   2.592  12.750  0.3021 -0.3983  0.2769
 3190SOL    HW121203   0.310   2.544  12.832  0.3574  1.3345  1.2858
 3190SOL    HW221204   0.259   2.525  12.691 -1.0987  0.3333  0.2658
 3191SOL     OW21205   3.498   0.841   0.495  0.3141  0.0246 -0.1255
 3191SOL    HW121206   3.411   0.812   0.466 -0.0956 -0.1954  1.3288
 3191SOL    HW221207   3.477   0.934   0.507  0.6919 -0.1742  1.9967
 3192SOL     OW21208   0.810   3.472   4.369 -0.2248  0.3230  0.7792
 3192SOL    HW121209   0.823   3.567   4.371 -0.5500  0.3426  1.8653
 3192SOL    HW221210   0.714   3.477   4.374 -0.3768 -2.0997  0.1135
 3193SOL     OW21211   3.068   3.045   1.184 -0.0435  0.1755 -0.2075
 3193SOL    HW121212   2.976   3.018   1.182  0.1945 -0.6863  1.0769
 3193SOL    HW221213   3.074   3.133   1.148 -0.8615  1.8123  3.6902
 3194SOL     OW21214   0.211   0.848   7.920 -0.0766 -0.8522  0.7014
 3194SOL    HW121215   0.131   0.810   7.957 -0.6819  0.3294  0.6438
 3194SOL    HW221216   0.188   0.939   7.899  0.9711 -0.5956  0.6959
 3195SOL     OW21217   2.367   0.202   3.961  0.3491 -0.0318  0.4962
 3195SOL    HW121218   2.455   0.242   3.963  1.3872 -2.2666 -0.4493
 3195SOL    HW221219   2.376   0.120   4.009 -1.8956 -0.2679  0.5074
 3196SOL     OW21220   0.691   1.269   2.295  0.0451  0.2011 -0.4044
 3196SOL    HW121221   0.612   1.252   2.347 -0.6747  1.5476 -1.0479
 3196SOL    HW221222   0.683   1.363   2.280 -2.3843  0.3264  1.7572
 3197SOL     OW21223   1.142   0.692   1.560 -0.1234  0.6662 -0.1028
 3197SOL    HW121224   1.173   0.774   1.599 -2.2182  0.7446  1.4271
 3197SOL    HW221225   1.064   0.680   1.614 -0.1490  0.0816 -0.2751
 3198SOL     OW21226   1.469   4.510   2.004  0.2444 -0.4893 -0.0108
 3198SOL    HW121227   1.541   4.569   2.026  0.1465 -0.0008 -1.0246
 3198SOL    HW221228   1.512   4.425   2.015  0.5694 -0.3827 -0.4691
 3199SOL     OW21229   0.883   3.103   7.119 -0.0587 -0.6305 -0.1970
 3199SOL    HW121230   0.948   3.169   7.094 -1.2499 -0.4142 -2.7501
 3199SOL    HW221231   0.802   3.153   7.111  0.5751  0.9454  3.1239
 3200SOL     OW21232   1.884   4.674   1.661  0.2640 -0.2644 -0.0448
 3200SOL    HW121233   1.839   0.023   1.669 -0.2339 -0.5056 -0.3212
 3200SOL    HW221234   1.934   4.689   1.581 -2.4007  0.7952 -1.5289
 3201SOL     OW21235   2.077   3.971   8.119 -0.0970 -0.3482  0.8285
 3201SOL    HW121236   2.102   3.881   8.096 -0.7278  0.2376 -2.2154
 3201SOL    HW221237   2.166   4.004   8.130  0.5187 -1.2759 -1.3049
 3202SOL     OW21238   4.243   1.474   2.433  0.2668  0.7498 -0.3401
 3202SOL    HW121239   4.169   1.425   2.469  0.4791  1.4711  1.0635
 3202SOL    HW221240   4.283   1.418   2.366  1.5692 -0.0239  1.0890
 3203SOL     OW21241   2.791   4.006   2.657 -0.1684  0.4711 -0.2112
 3203SOL    HW121242   2.804   3.932   2.597  0.0089 -0.2970  0.7891
 3203SOL    HW221243   2.868   3.997   2.714  1.2397 -2.3545 -2.5821
 3204SOL     OW21244   2.405   1.984  10.755  0.0776 -0.4054 -0.0728
 3204SOL    HW121245   2.469   2.056  10.752 -2.2601  1.7220  1.2696
 3204SOL    HW221246   2.328   2.022  10.714 -0.7117 -1.1663  0.7200
 3205SOL     OW21247   4.211   3.416   3.734 -0.7720 -0.7593  0.1703
 3205SOL    HW121248   4.174   3.370   3.659  1.6260 -1.8681 -0.3311
 3205SOL    HW221249   4.133   3.466   3.760 -0.6966 -0.5620  0.0161
 3206SOL     OW21250   2.902   3.021   3.309  0.2979  0.7624 -0.5046
 3206SOL    HW121251   2.856   2.944   3.275  1.1707  1.1721 -2.6126
 3206SOL    HW221252   2.990   3.002   3.276  0.0286  0.4655 -1.0561
 3207SOL     OW21253   2.885   2.784   0.060 -0.2376 -0.0291 -0.0525
 3207SOL    HW121254   2.794   2.778   0.032 -0.3858 -0.0357  0.4333
 3207SOL    HW221255   2.884   2.847   0.132  2.0042  1.4886 -1.3460
 3208SOL     OW21256   3.344   0.247   6.041 -0.2787  0.0148 -0.2965
 3208SOL    HW121257   3.283   0.213   6.106 -0.7635  1.2516 -0.0989
 3208SOL    HW221258   3.291   0.232   5.962 -0.2760  0.3473 -0.3629
 3209SOL     OW21259   2.332   3.442  10.384  0.9525  0.3432 -0.1798
 3209SOL    HW121260   2.344   3.362  10.435 -3.0251 -1.0897 -1.5034
 3209SOL    HW221261   2.317   3.411  10.295  1.2079 -0.4007  0.0370
 3210SOL     OW21262   0.770   0.108   7.137  0.4410  0.1404 -0.5265
 3210SOL    HW121263   0.772   0.203   7.138 -2.7379  0.2047  1.2936
 3210SOL    HW221264   0.690   0.094   7.086 -0.1799  0.0857  0.4477
 3211SOL     OW21265   0.104   3.197   3.721 -0.1410 -0.0267  0.0022
 3211SOL    HW121266   0.012   3.223   3.725 -0.9305 -2.6237 -1.4580
 3211SOL    HW221267   0.092   3.109   3.686  0.2067  0.0872 -0.4001
 3212SOL     OW21268   1.362   4.249   3.703 -0.2189  0.2142  0.0968
 3212SOL    HW121269   1.372   4.177   3.764  2.6460  1.3398  0.9417
 3212SOL    HW221270   1.447   4.282   3.672  0.1036 -0.1456  0.6071
 3213SOL     OW21271   4.396   3.756  13.725  0.4369 -0.5186 -0.4108
 3213SOL    HW121272   4.422   3.846  13.746 -2.2158 -0.2968  1.9143
 3213SOL    HW221273   4.357   3.780  13.641 -1.0087 -1.6648 -0.0654
 3214SOL     OW21274   1.057   0.008   6.448 -0.4706  0.2814  0.0397
 3214SOL    HW121275   0.975   4.708   6.483  0.6397  0.3256  2.6684
 3214SOL    HW221276   1.016   0.064   6.382  1.2713  0.3715 -0.9707
 3215SOL     OW21277   3.001   3.647  11.590  0.0656  0.2410  0.3738
 3215SOL    HW121278   3.061   3.594  11.538 -1.8132 -0.1189 -1.3973
 3215SOL    HW221279   3.053   3.717  11.629 -0.3143  0.6917  0.0828
 3216SOL     OW21280   0.090   0.075   9.061  0.1197  0.1820  0.3766
 3216SOL    HW121281   0.151   0.067   8.988 -0.4270  0.0976 -0.0709
 3216SOL    HW221282   0.116   4.732   9.110  0.9094  0.7904  0.9297
 3217SOL     OW21283   4.574   1.736  10.901 -0.4579 -0.0039 -0.4837
 3217SOL    HW121284   4.575   1.771  10.990  0.5137 -1.1558 -0.0402
 3217SOL    HW221285   4.641   1.789  10.859 -0.8147 -0.3739 -1.5234
 3218SOL     OW21286   3.077   0.997   8.031  0.2662 -0.3442  0.0998
 3218SOL    HW121287   3.039   0.930   7.975 -0.4307  1.0584 -1.0947
 3218SOL    HW221288   3.130   0.945   8.092  0.0232  0.3309  0.8936
 3219SOL     OW21289   0.822   4.731   6.583  0.3258  0.6946 -0.1727
 3219SOL    HW121290   0.829   4.643   6.620 -0.7384 -0.4231 -2.6289
 3219SOL    HW221291   0.731   0.005   6.553  0.3102  0.4180 -0.2096
 3220SOL     OW21292   0.469   3.019   7.191 -0.2145 -0.2046 -0.6482
 3220SOL    HW121293   0.521   3.055   7.262 -0.2550  0.4523 -0.9548
 3220SOL    HW221294   0.508   2.932   7.187 -1.4653 -0.7829 -0.4328
 3221SOL     OW21295   3.941   3.683   0.704 -0.0951  0.3733 -0.2105
 3221SOL    HW121296   3.959   3.709   0.614 -0.7678  0.3881 -0.3427
 3221SOL    HW221297   3.851   3.713   0.721 -0.3280  0.3888 -1.4905
 3222SOL     OW21298   2.355   1.406   4.089 -0.2793 -0.1600  0.0458
 3222SOL    HW121299   2.325   1.495   4.068 -1.9613 -0.3796  1.5298
 3222SOL    HW221300   2.275   1.353   4.085  1.1399 -2.2959  0.3109
 3223SOL     OW21301   0.657   3.417   7.708 -0.0801  0.0738 -0.2610
 3223SOL    HW121302   0.618   3.331   7.694 -0.8481  0.3937 -0.0624
 3223SOL    HW221303   0.748   3.388   7.716 -0.9306 -2.1774  1.1266
 3224SOL     OW21304   1.011   2.593   6.987  0.5714  0.3662 -0.2828
 3224SOL    HW121305   1.037   2.659   7.052  1.3036  2.0399 -2.2880
 3224SOL    HW221306   0.922   2.618   6.962  0.4382  2.5464  2.3601
 3225SOL     OW21307   1.164   4.382   6.069 -0.1852 -0.2420 -0.3091
 3225SOL    HW121308   1.155   4.434   6.149 -0.9125 -2.2557  0.9194
 3225SOL    HW221309   1.077   4.407   6.037 -0.1547 -0.7773 -0.8127
 3226SOL     OW21310   1.546   1.489  17.198 -0.3873 -0.3016 -0.1826
 3226SOL    HW121311   1.575   1.410  17.152  1.7025  0.4381 -0.1133
 3226SOL    HW221312   1.499   1.449  17.271 -0.2653  0.6272  0.3970
 3227SOL     OW21313   2.945   3.672  16.868  0.4727  0.1614 -0.3071
 3227SOL    HW121314   3.028   3.717  16.850  0.2216  0.4197 -0.8269
 3227SOL    HW221315   2.942   3.605  16.800 -0.4318 -1.0549  0.9319
 3228SOL     OW21316   0.530   0.448   3.630 -0.1339 -0.0006 -0.2306
 3228SOL    HW121317   0.535   0.362   3.587 -0.1901  0.3493 -0.9440
 3228SOL    HW221318   0.437   0.449   3.653  0.1837 -0.3499  1.0487
 3229SOL     OW21319   4.143   0.779  12.184  0.7733 -0.1256  0.5381
 3229SOL    HW121320   4.128   0.809  12.274 -2.7712  0.1778 -0.1442
 3229SOL    HW221321   4.052   0.767  12.157  0.6418 -0.9673  1.3418
 3230SOL     OW21322   3.006   0.609   1.769  0.3574  0.0313 -0.4019
 3230SOL    HW121323   2.953   0.535   1.738  0.4588  1.2951 -3.6074
 3230SOL    HW221324   3.081   0.564   1.807 -0.2359 -0.2795  0.4116
 3231SOL     OW21325   3.978   2.132   3.070 -0.2303 -0.5605 -0.2549
 3231SOL    HW121326   4.023   2.107   3.150 -0.2738  1.6532  0.4646
 3231SOL    HW221327   3.974   2.050   3.021  0.1409  0.1756 -1.5120
 3232SOL     OW21328   1.852   3.923  14.890  0.1422 -0.2596 -0.1402
 3232SOL    HW121329   1.764   3.887  14.897  0.3323 -0.6952 -0.0389
 3232SOL    HW221330   1.845   4.016  14.913 -0.7268  0.2321 -2.3671
 3233SOL     OW21331   3.068   3.948   2.286  0.1064  0.1096 -0.1931
 3233SOL    HW121332   3.029   4.009   2.348  1.5425  2.5201 -1.6601
 3233SOL    HW221333   3.023   3.866   2.307  1.4712 -0.5643  0.1142
 3234SOL     OW21334   2.020   0.020   0.133  0.6452  0.0518 -0.0750
 3234SOL    HW121335   1.960   0.091   0.112  0.9149  0.4395  0.4576
 3234SOL    HW221336   2.045   0.050   0.221 -0.1855 -0.5045  0.3497
 3235SOL     OW21337   0.460   0.775   0.124 -0.2403  0.1454  0.0027
 3235SOL    HW121338   0.509   0.744   0.048 -0.6492 -0.7649  0.0992
 3235SOL    HW221339   0.483   0.701   0.181  3.2958  0.1887 -1.4160
 3236SOL     OW21340   0.212   3.397   6.508 -0.4347  0.0816  0.1472
 3236SOL    HW121341   0.283   3.421   6.449  0.7108 -0.3632  1.3500
 3236SOL    HW221342   0.135   3.367   6.459  0.1176  1.8052 -1.7934
 3237SOL     OW21343   0.449   4.362   0.370  0.1236  0.2278  0.4086
 3237SOL    HW121344   0.501   4.302   0.424  0.4503  0.1499  0.0054
 3237SOL    HW221345   0.444   4.434   0.433  4.1108  0.8441  0.0517
 3238SOL     OW21346   3.531   0.269   6.852  0.1028  0.6941 -0.0335
 3238SOL    HW121347   3.450   0.319   6.853  1.1895  2.4522  0.8116
 3238SOL    HW221348   3.601   0.312   6.903 -0.6038  0.4212  1.1715
 3239SOL     OW21349   0.086   2.769  15.903 -0.6771  0.2044  0.0486
 3239SOL    HW121350   0.059   2.790  15.814 -1.5551 -0.3381  0.1863
 3239SOL    HW221351   0.014   2.709  15.924 -0.8000  0.3095 -0.0709
 3240SOL     OW21352   3.012   0.090   7.705  0.3179 -0.6238  0.1027
 3240SOL    HW121353   3.092   0.045   7.730  0.4675 -0.9823 -1.0204
 3240SOL    HW221354   3.046   0.158   7.646  0.4655  0.1830  1.1235
 3241SOL     OW21355   3.430   4.007   1.884  0.0205 -0.0235  0.2767
 3241SOL    HW121356   3.343   4.032   1.915 -0.2741  0.8948 -1.3078
 3241SOL    HW221357   3.493   4.054   1.939  2.3327 -3.0710  0.2210
 3242SOL     OW21358   3.939   2.724  14.066 -0.1335  0.2261 -0.5573
 3242SOL    HW121359   3.980   2.724  13.980  1.7078 -0.1040  0.3333
 3242SOL    HW221360   3.940   2.817  14.087  2.4514 -0.0615  0.5518
 3243SOL     OW21361   2.171   2.188   9.158  0.1536 -0.6490  0.7453
 3243SOL    HW121362   2.081   2.191   9.192 -1.1239 -1.1991 -2.5412
 3243SOL    HW221363   2.173   2.276   9.123  0.3999 -0.7601  0.4796
 3244SOL     OW21364   1.553   3.654  11.801 -0.3262  0.4239  0.8777
 3244SOL    HW121365   1.611   3.579  11.787  1.5787  1.7625  1.6826
 3244SOL    HW221366   1.505   3.630  11.881  0.9062 -3.3533  0.5209
 3245SOL     OW21367   1.613   4.302  10.759 -0.5869  0.2801  0.4959
 3245SOL    HW121368   1.581   4.262  10.840  1.1981  4.4077  3.3085
 3245SOL    HW221369   1.572   4.248  10.692  0.8614 -1.6377  1.1607
 3246SOL     OW21370   4.177   0.368  10.261 -0.2271  0.0550  0.7468
 3246SOL    HW121371   4.102   0.311  10.278 -0.8943  0.9108  0.6755
 3246SOL    HW221372   4.158   0.439  10.323 -1.0428 -1.4984  2.2776
 3247SOL     OW21373   2.990   2.706  16.309  0.4371 -0.1084  0.5281
 3247SOL    HW121374   2.928   2.774  16.335 -0.4214 -0.6173 -0.1685
 3247SOL    HW221375   3.067   2.761  16.292  0.3195 -0.1781 -0.2633
 3248SOL     OW21376   1.358   1.436   4.266 -0.7069 -0.2794  0.2450
 3248SOL    HW121377   1.409   1.489   4.205 -0.9197 -0.3159  0.0330
 3248SOL    HW221378   1.273   1.457   4.227 -1.2273 -1.7308  0.6162
 3249SOL     OW21379   4.531   1.134   6.657  0.1627  0.0355 -0.1115
 3249SOL    HW121380   4.539   1.223   6.692  0.5084  0.6068 -1.6335
 3249SOL    HW221381   4.614   1.105   6.694  0.7130  3.0894  1.0188
 3250SOL     OW21382   1.157   4.267   4.743  0.2386 -0.6037 -0.0530
 3250SOL    HW121383   1.223   4.336   4.736 -0.8999  0.3500 -1.1038
 3250SOL    HW221384   1.089   4.311   4.693  0.8593  2.4756  1.8031
 3251SOL     OW21385   2.536   1.300   3.937 -0.6273  0.0233 -0.0951
 3251SOL    HW121386   2.457   1.326   3.985  0.0082  2.5500 -0.4221
 3251SOL    HW221387   2.602   1.305   4.006 -0.2289  0.2091 -0.4952
 3252SOL     OW21388   2.585   3.087   3.234 -0.4440  0.0556  0.0896
 3252SOL    HW121389   2.553   3.168   3.274 -0.5507 -0.6628  1.4414
 3252SOL    HW221390   2.653   3.060   3.295  0.4419  1.5150 -0.2609
 3253SOL     OW21391   2.929   3.512   9.013 -0.0820 -0.0618 -0.9384
 3253SOL    HW121392   2.899   3.421   9.008  1.0428 -0.5243  1.0096
 3253SOL    HW221393   3.017   3.495   9.047 -0.3963 -3.0141 -1.5972
 3254SOL     OW21394   4.667   2.602  17.518 -0.2459  0.1845 -0.3846
 3254SOL    HW121395   4.578   2.624  17.546 -0.2499 -1.1595  0.6713
 3254SOL    HW221396   4.680   2.533  17.583  0.4824 -1.2215 -2.0318
 3255SOL     OW21397   2.916   0.468   2.359  0.3610  0.4581 -0.2581
 3255SOL    HW121398   2.868   0.451   2.440 -1.0145  0.1410 -1.1398
 3255SOL    HW221399   2.848   0.468   2.292  0.2832 -0.6584 -0.1915
 3256SOL     OW21400   0.086   2.056   0.258  0.0378  0.5894 -0.4761
 3256SOL    HW121401   0.084   2.047   0.163 -2.8785  0.6811 -0.4154
 3256SOL    HW221402   0.170   2.100   0.271 -1.4704  3.5158 -0.6202
 3257SOL     OW21403   1.279   1.725  13.948 -0.3524 -0.4032  0.4134
 3257SOL    HW121404   1.337   1.744  13.874  2.7866  4.0464  4.0267
 3257SOL    HW221405   1.315   1.784  14.015 -0.3535 -0.0742  0.1242
 3258SOL     OW21406   3.060   1.962   7.219  0.1523  0.4764  0.2150
 3258SOL    HW121407   3.150   1.981   7.246  0.5989  0.8055 -1.5420
 3258SOL    HW221408   3.022   2.011   7.292  1.4050  2.7861 -0.6633
 3259SOL     OW21409   4.651   2.794   8.641 -0.3800  0.1119  0.0773
 3259SOL    HW121410   4.717   2.822   8.578 -0.6562 -4.7814 -2.3515
 3259SOL    HW221411   4.696   2.816   8.723 -1.7416 -0.6833  1.0487
 3260SOL     OW21412   2.688   4.593  12.019  0.2693  0.3948 -0.0509
 3260SOL    HW121413   2.743   4.532  12.067 -0.1352  0.9006  1.0537
 3260SOL    HW221414   2.633   4.627  12.090  1.4829 -0.5703  1.3446
 3261SOL     OW21415   2.120   4.379  17.493  0.0965 -0.4520  0.0148
 3261SOL    HW121416   2.096   4.451  17.552 -2.6126  0.1212 -1.7905
 3261SOL    HW221417   2.159   4.322  17.559 -1.2497 -2.1121 -0.6129
 3262SOL     OW21418   2.406   4.051   9.879  0.7278  0.1608  0.5944
 3262SOL    HW121419   2.408   4.140   9.914 -1.6440  1.7819 -3.3817
 3262SOL    HW221420   2.490   4.046   9.832 -0.3055  1.5270 -1.4029
 3263SOL     OW21421   1.019   3.370   2.940  0.1034 -0.1574  0.4705
 3263SOL    HW121422   0.993   3.278   2.937 -1.3476  0.0500  5.3398
 3263SOL    HW221423   0.957   3.415   2.882 -0.5808 -0.9230  0.6109
 3264SOL     OW21424   3.435   0.548   1.625 -0.1788  0.5768  0.1268
 3264SOL    HW121425   3.411   0.517   1.538  0.2197  0.0420  0.2114
 3264SOL    HW221426   3.392   0.477   1.671 -1.1713  0.2066 -1.3856
 3265SOL     OW21427   3.008   0.577  15.449  0.2485  0.2009 -0.0314
 3265SOL    HW121428   2.915   0.601  15.447  0.5393  1.2751 -1.1630
 3265SOL    HW221429   3.008   0.486  15.421  1.0733 -0.1060  0.9726
 3266SOL     OW21430   3.427   2.882   4.582  0.0641 -0.2330 -0.4588
 3266SOL    HW121431   3.453   2.823   4.653 -0.0363 -1.3036 -1.3314
 3266SOL    HW221432   3.514   2.915   4.561  1.2360 -2.1368  1.4175
 3267SOL     OW21433   3.461   3.302   2.205 -0.0517  0.3416 -0.1723
 3267SOL    HW121434   3.456   3.291   2.110 -1.1223 -1.1886  0.0581
 3267SOL    HW221435   3.530   3.369   2.198  0.9998 -0.5918  1.4385
 3268SOL     OW21436   4.522   2.345   6.561 -0.1713  0.5124 -0.1682
 3268SOL    HW121437   4.556   2.404   6.493 -0.0350  1.0509  0.3692
 3268SOL    HW221438   4.456   2.299   6.510 -0.9244  1.1328  0.2542
 3269SOL     OW21439   3.093   0.789   5.250  0.6394 -0.6858 -0.0705
 3269SOL    HW121440   3.063   0.862   5.303  3.9074 -0.1741  1.0547
 3269SOL    HW221441   3.057   0.815   5.165  1.2281  1.1735  0.2623
 3270SOL     OW21442   0.011   0.470   4.559  0.5882  0.2447 -0.3593
 3270SOL    HW121443   0.006   0.374   4.556  0.5093  0.2268  0.4010
 3270SOL    HW221444   4.655   0.494   4.580  0.1572 -1.9703  0.3136
 3271SOL     OW21445   0.718   3.757  13.984 -0.4555  0.1640 -0.3087
 3271SOL    HW121446   0.625   3.754  14.005  0.2546  1.0835  3.0742
 3271SOL    HW221447   0.720   3.809  13.903 -0.0847 -1.7055 -1.4818
 3272SOL     OW21448   2.466   4.423  15.293 -0.4703 -0.0385  0.2711
 3272SOL    HW121449   2.442   4.331  15.305 -1.3433 -0.0969 -1.9620
 3272SOL    HW221450   2.452   4.454  15.382  1.4760 -0.2071  0.6383
 3273SOL     OW21451   0.109   0.410   4.256  0.1091  0.4897  0.1763
 3273SOL    HW121452   0.103   0.437   4.347 -2.3202 -0.8546  0.3993
 3273SOL    HW221453   0.161   0.479   4.213  0.9724 -0.7616 -0.7913
 3274SOL     OW21454   2.184   2.717   2.868 -0.1093  0.0762  0.0243
 3274SOL    HW121455   2.118   2.780   2.841 -0.6637  0.0356  1.2616
 3274SOL    HW221456   2.135   2.637   2.886 -0.2201  0.1571  0.0816
 3275SOL     OW21457   0.130   2.530  16.111 -0.0415 -0.2721  0.2382
 3275SOL    HW121458   0.054   2.579  16.142 -0.6122 -0.2596 -1.1814
 3275SOL    HW221459   0.111   2.456  16.168 -1.3036  1.0586  1.5590
 3276SOL     OW21460   0.084   1.895   2.985  0.2248  0.5315 -0.2235
 3276SOL    HW121461   0.054   1.934   2.902 -2.9696  0.1371  0.7301
 3276SOL    HW221462   0.150   1.958   3.013  0.3919 -0.2357  1.0858
 3277SOL     OW21463   2.991   0.855  16.014  0.6157  0.0747  0.1883
 3277SOL    HW121464   3.024   0.773  16.050 -1.2856 -0.6698  0.2231
 3277SOL    HW221465   3.051   0.922  16.047  0.6307  0.5548 -0.7917
 3278SOL     OW21466   1.520   1.042   4.493  0.4295 -0.7202 -0.6136
 3278SOL    HW121467   1.446   0.994   4.456 -1.1679  0.7555  0.6886
 3278SOL    HW221468   1.489   1.132   4.498  0.4062 -0.8561  1.7169
 3279SOL     OW21469   2.962   3.671   2.228 -0.0033 -0.1793 -0.0294
 3279SOL    HW121470   3.027   3.606   2.252  0.2777 -0.8201 -2.4842
 3279SOL    HW221471   2.889   3.631   2.181 -0.4329  1.4302 -0.7427
 3280SOL     OW21472   0.969   3.864  17.532 -0.1645  0.0027 -0.0736
 3280SOL    HW121473   0.881   3.829  17.546 -0.6182  1.6893  1.2983
 3280SOL    HW221474   1.005   3.785  17.493 -1.4730 -1.1689  1.1101
 3281SOL     OW21475   0.039   4.135   4.610 -0.1095 -0.1000 -0.2400
 3281SOL    HW121476   0.008   4.053   4.649 -1.4575  0.0430 -1.0107
 3281SOL    HW221477   4.733   4.195   4.673 -2.6776  0.4157 -2.4180
 3282SOL     OW21478   3.733   3.642   3.053 -0.5135  1.0230  0.0749
 3282SOL    HW121479   3.754   3.735   3.050  0.6641  0.8227  2.2902
 3282SOL    HW221480   3.758   3.616   3.142 -0.5518 -1.6841 -0.7025
 3283SOL     OW21481   0.971   1.627   6.804  0.3172  0.1360 -0.1217
 3283SOL    HW121482   0.999   1.706   6.850  0.0338  0.4369 -0.4624
 3283SOL    HW221483   0.935   1.674   6.728 -1.5258 -0.6319  0.2564
 3284SOL     OW21484   0.169   3.505   7.253  0.6517  0.4303  0.3280
 3284SOL    HW121485   0.246   3.486   7.200  1.2639 -3.9771  2.7478
 3284SOL    HW221486   0.216   3.569   7.305 -0.6172  1.1963  0.5436
 3285SOL     OW21487   1.869   2.744   9.805 -0.3579  0.1906  0.5657
 3285SOL    HW121488   1.939   2.712   9.748 -1.0719 -1.7081  0.7507
 3285SOL    HW221489   1.816   2.799   9.748 -0.4222  1.5965  1.9910
 3286SOL     OW21490   1.161   4.473   3.177  0.2039  0.7507  0.0897
 3286SOL    HW121491   1.122   4.457   3.263  1.6803 -0.8352  0.4586
 3286SOL    HW221492   1.094   4.504   3.116  0.6176  1.9333  0.2476
 3287SOL     OW21493   3.141   4.508   4.039  0.4916 -0.7203  0.5977
 3287SOL    HW121494   3.117   4.481   4.128  0.9747  0.8737  1.2315
 3287SOL    HW221495   3.236   4.523   4.039  0.3177  0.1748 -2.8111
 3288SOL     OW21496   3.422   3.315   0.003 -0.1675 -0.2180  0.0027
 3288SOL    HW121497   3.491   3.259  17.704  0.5315  1.1854 -0.7990
 3288SOL    HW221498   3.453   3.390  17.691 -0.1284 -1.0983 -1.2665
 3289SOL     OW21499   3.266   1.383  11.957 -0.0956 -0.1512  0.2742
 3289SOL    HW121500   3.330   1.445  11.991 -0.0352 -0.3464  0.5116
 3289SOL    HW221501   3.204   1.431  11.902  2.3788  2.8204  0.0825
 3290SOL     OW21502   4.017   4.397   4.933 -0.1988  0.2078 -0.3911
 3290SOL    HW121503   3.961   4.400   5.011  0.0510  2.4740 -0.3192
 3290SOL    HW221504   3.961   4.356   4.867 -2.5257  2.5332  0.1431
 3291SOL     OW21505   1.663   1.848   7.238  0.2260  0.4860 -0.4746
 3291SOL    HW121506   1.636   1.887   7.322  0.3802  0.2144 -0.2973
 3291SOL    HW221507   1.731   1.792   7.277  0.1764 -0.5816 -1.9396
 3292SOL     OW21508   4.046   3.072   6.937 -0.1231 -0.1419 -0.0276
 3292SOL    HW121509   4.133   3.059   6.900 -0.3206 -1.7173  0.0309
 3292SOL    HW221510   4.064   3.054   7.029  0.4235 -1.4096 -0.3817
 3293SOL     OW21511   4.641   2.266   3.933 -0.3420  0.1368 -0.2056
 3293SOL    HW121512   4.635   2.183   3.886 -1.3530  1.0586 -1.6984
 3293SOL    HW221513   4.734   2.269   3.956 -0.1399 -0.1772 -0.9770
 3294SOL     OW21514   0.050   1.552   8.849 -0.1582 -0.5806  0.2300
 3294SOL    HW121515   0.061   1.647   8.838 -1.2900 -0.4901 -0.0789
 3294SOL    HW221516   4.692   1.550   8.826 -0.3756  2.2858  0.7797
 3295SOL     OW21517   1.883   2.722  10.488 -0.1427  0.1913 -0.1101
 3295SOL    HW121518   1.826   2.742  10.413 -0.3756 -2.0613 -0.5439
 3295SOL    HW221519   1.861   2.630  10.503  1.9822  0.1869  2.9194
 3296SOL     OW21520   3.125   1.451  17.287 -0.3493  0.0239 -0.9152
 3296SOL    HW121521   3.089   1.364  17.303  0.7941 -0.0377  1.3679
 3296SOL    HW221522   3.074   1.477  17.211  0.4729  1.9653 -0.8197
 3297SOL     OW21523   1.697   3.298  14.734  0.1918  0.6226 -0.0737
 3297SOL    HW121524   1.730   3.295  14.824  1.6556 -4.4660 -0.7460
 3297SOL    HW221525   1.661   3.209  14.731  2.5866 -0.4381  2.7952
 3298SOL     OW21526   4.118   4.399   6.602  0.0018  0.0452 -0.2142
 3298SOL    HW121527   4.059   4.429   6.533 -0.5640  1.5046  0.9202
 3298SOL    HW221528   4.055   4.394   6.674 -0.4931 -1.3981 -0.7471
 3299SOL     OW21529   0.765   2.678   6.909  0.3252  0.4261 -0.1127
 3299SOL    HW121530   0.793   2.768   6.892  0.2003  0.8272  1.7968
 3299SOL    HW221531   0.678   2.692   6.871 -0.3044  1.6155  1.7394
 3300SOL     OW21532   1.523   0.999   0.477 -0.1397  0.1247 -0.2450
 3300SOL    HW121533   1.433   1.031   0.472 -0.9717 -2.0400  0.6660
 3300SOL    HW221534   1.509   0.906   0.457  1.0530 -0.1587  0.2269
 3301SOL     OW21535   2.187   0.780   8.611 -0.6387 -0.6468 -0.1219
 3301SOL    HW121536   2.171   0.855   8.669 -2.3149  0.3750 -1.9119
 3301SOL    HW221537   2.115   0.728   8.647  0.3691 -0.8424  1.6284
 3302SOL     OW21538   3.923   3.618   5.928  0.3464 -0.0614  0.3579
 3302SOL    HW121539   3.886   3.536   5.962 -2.8626  0.5323 -1.6271
 3302SOL    HW221540   3.927   3.599   5.834  0.5366  1.6304  0.0174
 3303SOL     OW21541   2.758   1.705   5.635  0.3476  0.0439 -0.2371
 3303SOL    HW121542   2.778   1.790   5.674 -3.4197  0.0554  1.5827
 3303SOL    HW221543   2.761   1.647   5.711  0.7933  2.9863  1.9759
 3304SOL     OW21544   0.756   2.892   7.965  0.6422 -0.0255 -0.8687
 3304SOL    HW121545   0.728   2.983   7.956 -0.0307 -0.1153  0.2565
 3304SOL    HW221546   0.669   2.853   7.969  1.8808 -2.7272 -0.5317
 3305SOL     OW21547   0.522   4.704   8.163  0.6521  0.4460 -0.4421
 3305SOL    HW121548   0.431   4.679   8.149 -0.1153  0.8183  3.9098
 3305SOL    HW221549   0.563   4.635   8.110  1.2725  1.8932 -1.8328
 3306SOL     OW21550   0.590   3.329  10.416 -0.2382  0.7789  0.3061
 3306SOL    HW121551   0.562   3.419  10.403 -2.9568 -0.4854 -2.3495
 3306SOL    HW221552   0.607   3.332  10.510  1.4095 -3.1706  0.1320
 3307SOL     OW21553   0.419   1.200   4.314 -0.2764 -0.0291  0.4968
 3307SOL    HW121554   0.383   1.113   4.297 -0.8942 -0.0652  2.0199
 3307SOL    HW221555   0.505   1.170   4.344 -0.3086  1.4941  2.0984
 3308SOL     OW21556   4.363   3.866   7.141  0.2662 -0.3700  0.1836
 3308SOL    HW121557   4.349   3.909   7.057 -0.8139  0.7201  0.9317
 3308SOL    HW221558   4.322   3.934   7.194  1.1742 -0.4096  0.9492
 3309SOL     OW21559   1.770   2.293  12.530 -0.2574  0.3466  0.4139
 3309SOL    HW121560   1.816   2.280  12.447 -0.9564 -0.4389  0.1521
 3309SOL    HW221561   1.710   2.219  12.529 -1.4798  1.3043  2.4040
 3310SOL     OW21562   2.458   3.184   6.087  0.0189 -0.3712  0.1383
 3310SOL    HW121563   2.430   3.139   6.167 -2.5744 -0.1066 -0.6126
 3310SOL    HW221564   2.528   3.234   6.128  0.1438 -1.3538  1.1267
 3311SOL     OW21565   3.184   4.488  17.373  0.1351  0.0018  0.4751
 3311SOL    HW121566   3.093   4.479  17.403 -0.6533 -2.1071 -2.6121
 3311SOL    HW221567   3.160   4.512  17.284  0.8801 -0.5184  0.1402
 3312SOL     OW21568   0.683   2.942  15.850  0.4805 -0.0022  0.2204
 3312SOL    HW121569   0.601   2.973  15.888 -0.6695 -0.2343 -2.1110
 3312SOL    HW221570   0.677   2.855  15.889 -1.8071  0.1465  0.1907
 3313SOL     OW21571   1.847   2.117   5.363  0.7767  0.3756 -0.1032
 3313SOL    HW121572   1.866   2.127   5.456  0.8132 -0.8058  0.0192
 3313SOL    HW221573   1.815   2.204   5.340  0.2647  0.4247  0.7814
 3314SOL     OW21574   2.768   1.012   6.237 -0.2544  0.1048  0.2925
 3314SOL    HW121575   2.755   0.949   6.308 -0.1148  1.3657  1.4144
 3314SOL    HW221576   2.681   1.049   6.218 -0.6224 -0.6969  0.4094
 3315SOL     OW21577   1.703   3.720   3.490  0.3702 -0.5144  0.2882
 3315SOL    HW121578   1.662   3.655   3.434  1.0855 -1.1243  0.4670
 3315SOL    HW221579   1.642   3.715   3.564  1.0217  1.0981  0.9440
 3316SOL     OW21580   3.159   1.794  15.255 -0.7364  0.0580  0.4031
 3316SOL    HW121581   3.180   1.848  15.331 -3.3001  0.3582  0.9191
 3316SOL    HW221582   3.248   1.772  15.229 -1.4174 -0.9630 -1.0443
 3317SOL     OW21583   1.372   3.011  12.042 -0.1878 -0.2420  0.3481
 3317SOL    HW121584   1.314   2.935  12.035 -0.1597 -0.1235 -1.0774
 3317SOL    HW221585   1.315   3.087  12.040 -1.1971 -0.8941  4.3683
 3318SOL     OW21586   0.092   2.744   8.315 -0.3275  0.1435  0.2252
 3318SOL    HW121587   0.165   2.770   8.371 -0.1345  1.3455 -0.5686
 3318SOL    HW221588   0.107   2.650   8.305 -0.0469  0.3646 -1.3789
 3319SOL     OW21589   3.224   3.110   8.985 -0.1814  0.2900 -0.6314
 3319SOL    HW121590   3.304   3.058   8.988 -0.3506  0.0657 -0.0473
 3319SOL    HW221591   3.152   3.047   8.996  0.4510 -0.1662  0.8973
 3320SOL     OW21592   0.644   0.127  14.327  0.1091 -0.3856  0.0285
 3320SOL    HW121593   0.736   0.148  14.312  0.4506 -1.5733  0.4625
 3320SOL    HW221594   0.633   0.062  14.396 -0.3585 -0.9037 -0.5273
 3321SOL     OW21595   0.572   4.465   4.085  0.3588 -0.0654 -0.5048
 3321SOL    HW121596   0.561   4.556   4.059  2.5206  0.9200  1.9820
 3321SOL    HW221597   0.662   4.451   4.055  0.5355  1.2615 -0.5918
 3322SOL     OW21598   4.054   2.081  10.492  0.0327 -0.0269  0.2800
 3322SOL    HW121599   4.114   2.132  10.438  1.6326 -2.4731 -0.2366
 3322SOL    HW221600   3.997   2.053  10.421 -1.1088  0.5405  0.9605
 3323SOL     OW21601   1.906   1.652   7.974 -0.2306 -0.0313  0.3005
 3323SOL    HW121602   1.834   1.662   8.037  0.3100 -0.0380  0.9252
 3323SOL    HW221603   1.965   1.585   8.010 -0.4983 -0.4977 -0.1379
 3324SOL     OW21604   1.303   3.053   8.754  0.0493  0.3109 -0.0945
 3324SOL    HW121605   1.232   3.116   8.747 -0.0438  0.5564  2.8238
 3324SOL    HW221606   1.313   3.060   8.849  0.4918 -1.2869 -0.0208
 3325SOL     OW21607   0.192   0.152   4.577 -0.2487  0.6746  0.2387
 3325SOL    HW121608   0.258   0.098   4.620 -0.6615  1.1134  1.4277
 3325SOL    HW221609   0.160   0.081   4.521 -1.3892 -0.2438  2.0370
 3326SOL     OW21610   0.669   0.678  16.608 -0.0608  0.3089  0.1231
 3326SOL    HW121611   0.619   0.642  16.534 -0.5797  1.9562 -0.3332
 3326SOL    HW221612   0.668   0.596  16.656 -0.5186  0.1929 -0.0882
 3327SOL     OW21613   0.693   4.546   8.854 -0.0800  0.3008  0.2543
 3327SOL    HW121614   0.778   4.522   8.816 -0.4565  0.8360 -0.9293
 3327SOL    HW221615   0.704   4.532   8.948  0.7576  2.9366  0.5337
 3328SOL     OW21616   0.378   3.066   1.884 -0.5753  0.2857  0.0053
 3328SOL    HW121617   0.315   3.050   1.955 -1.0007 -1.2737 -0.7270
 3328SOL    HW221618   0.423   3.138   1.929 -2.0132  1.1945 -0.0358
 3329SOL     OW21619   3.806   0.854   8.648  0.1644  0.1609 -0.3978
 3329SOL    HW121620   3.805   0.949   8.658 -0.0411  0.1937 -0.7491
 3329SOL    HW221621   3.888   0.850   8.599  1.7446  0.2265  2.2419
 3330SOL     OW21622   3.221   3.008   9.448 -0.3976  0.7255 -0.3058
 3330SOL    HW121623   3.157   3.052   9.392 -0.9351  0.7528  0.3296
 3330SOL    HW221624   3.303   3.055   9.428 -0.1749  0.2223 -0.5738
 3331SOL     OW21625   0.324   3.889   3.660 -0.1269 -0.4794 -0.2103
 3331SOL    HW121626   0.238   3.926   3.638  0.5514  1.1629 -0.0748
 3331SOL    HW221627   0.287   3.804   3.686  0.7631 -0.4056  1.2854
 3332SOL     OW21628   3.486   4.531   4.660  0.0275  0.5094 -0.0884
 3332SOL    HW121629   3.580   4.521   4.646 -0.0280 -1.0247  0.7279
 3332SOL    HW221630   3.455   4.449   4.698  2.8777  0.0450  1.1958
 3333SOL     OW21631   0.421   4.017   5.766  0.4751 -0.2869  0.1188
 3333SOL    HW121632   0.331   3.996   5.743  0.5355 -0.9009  0.4470
 3333SOL    HW221633   0.440   3.940   5.820  1.6911 -0.5282 -0.6477
 3334SOL     OW21634   2.528   1.538   6.963  0.0683  0.4838  0.1707
 3334SOL    HW121635   2.620   1.514   6.977  0.0994  0.4661 -0.0594
 3334SOL    HW221636   2.494   1.495   7.042  1.1034 -2.2117 -0.8510
 3335SOL     OW21637   3.777   2.206   4.373  0.0183  0.0651  0.2607
 3335SOL    HW121638   3.746   2.148   4.442 -0.3434 -0.1172 -0.0581
 3335SOL    HW221639   3.738   2.155   4.302  1.5944  1.4990 -1.6750
 3336SOL     OW21640   3.812   3.332   8.180 -0.1886 -0.4316 -0.2654
 3336SOL    HW121641   3.781   3.400   8.240 -0.0642 -0.0696 -0.6077
 3336SOL    HW221642   3.864   3.378   8.114  1.3064 -1.2249  0.3564
 3337SOL     OW21643   2.540   2.439  15.601  0.1969 -0.3508 -0.6940
 3337SOL    HW121644   2.536   2.378  15.675 -0.5066 -0.9930 -1.2540
 3337SOL    HW221645   2.611   2.399  15.551  2.2503 -0.4745  2.2757
 3338SOL     OW21646   3.241   4.586   3.589 -0.1022  0.4665 -0.2168
 3338SOL    HW121647   3.300   4.661   3.603 -0.6242  0.9870 -0.8110
 3338SOL    HW221648   3.300   4.520   3.552 -1.4658 -2.6916  3.2941
 3339SOL     OW21649   1.878   4.397   3.616  0.4863 -0.4170 -0.4240
 3339SOL    HW121650   1.958   4.398   3.563  1.3367  1.5580  0.8885
 3339SOL    HW221651   1.908   4.351   3.695  2.3387 -1.1191 -1.5200
 3340SOL     OW21652   0.554   3.133   7.691  0.0806  0.6446  0.3597
 3340SOL    HW121653   0.612   3.088   7.753  0.5537  1.6669  0.6659
 3340SOL    HW221654   0.590   3.098   7.609 -0.3998 -0.9874  0.8452
 3341SOL     OW21655   0.742   3.057   0.437  0.1661  0.4148 -0.2211
 3341SOL    HW121656   0.824   3.082   0.393 -0.1389 -1.6189 -1.9230
 3341SOL    HW221657   0.768   2.988   0.498 -0.6974  0.3674  0.0895
 3342SOL     OW21658   2.847   1.607   6.257  0.5303 -0.1923  0.7776
 3342SOL    HW121659   2.775   1.627   6.197 -0.3391 -0.3204  1.7731
 3342SOL    HW221660   2.799   1.591   6.339 -1.4786  0.4730 -0.2766
 3343SOL     OW21661   4.340   2.783  11.936  0.2836 -0.2353 -0.0939
 3343SOL    HW121662   4.319   2.718  11.869  1.1402 -0.4179 -0.1756
 3343SOL    HW221663   4.417   2.748  11.981  0.9318 -0.9406 -1.7619
 3344SOL     OW21664   2.528   0.915  16.485  0.5868  0.6695 -0.2300
 3344SOL    HW121665   2.565   0.843  16.435 -0.8019 -0.3686  0.2542
 3344SOL    HW221666   2.538   0.991  16.427 -2.5372  1.3441  0.0769
 3345SOL     OW21667   4.124   2.057   7.021  0.0832  0.0056  0.8464
 3345SOL    HW121668   4.198   2.116   7.035 -0.0132  0.1634  0.6863
 3345SOL    HW221669   4.131   2.007   7.102  1.3886 -0.7696  0.2609
 3346SOL     OW21670   4.347   1.668   8.506 -0.1448  0.2830  0.2350
 3346SOL    HW121671   4.432   1.649   8.468  0.0300 -0.7991  1.1681
 3346SOL    HW221672   4.326   1.591   8.559 -5.0533  0.0782 -1.9706
 3347SOL     OW21673   1.132   2.144   5.181  0.1999 -0.5976 -0.4741
 3347SOL    HW121674   1.126   2.239   5.171  1.8318 -0.3254  0.9929
 3347SOL    HW221675   1.072   2.106   5.117  3.6076 -3.1386 -2.1512
 3348SOL     OW21676   0.749   1.450   5.309 -0.3849  0.0275 -0.3384
 3348SOL    HW121677   0.763   1.395   5.232  0.9693  1.3577 -1.0621
 3348SOL    HW221678   0.682   1.508   5.273 -0.2268  1.0311  0.9633
 3349SOL     OW21679   1.528   1.468  12.171 -0.3057  0.1742 -0.4024
 3349SOL    HW121680   1.522   1.373  12.181  0.7698  0.0230 -1.1991
 3349SOL    HW221681   1.533   1.473  12.075 -0.4014 -1.0222 -0.4769
 3350SOL     OW21682   4.439   3.675   3.105 -0.2741 -0.0810 -0.1244
 3350SOL    HW121683   4.374   3.657   3.173 -2.2180 -0.2284 -2.0142
 3350SOL    HW221684   4.474   3.754   3.144 -0.2401 -1.2799  2.2857
 3351SOL     OW21685   0.702   2.430  12.930  0.1045  0.0960  0.2563
 3351SOL    HW121686   0.647   2.357  12.957  2.1179 -1.7652 -0.6207
 3351SOL    HW221687   0.709   2.390  12.843  0.1386 -1.0507  0.7926
 3352SOL     OW21688   3.335   1.061   0.493  0.0159 -0.5255  0.4374
 3352SOL    HW121689   3.277   1.080   0.418 -0.9395 -0.6187  1.1483
 3352SOL    HW221690   3.411   1.111   0.462  0.5879 -0.0064  2.6568
 3353SOL     OW21691   2.714   0.003   4.180 -0.8028 -0.7907 -0.9266
 3353SOL    HW121692   2.765   4.698   4.109 -0.5786  0.4165 -1.4496
 3353SOL    HW221693   2.756   4.692   4.253 -1.5365  0.1999  0.1225
 3354SOL     OW21694   2.005   0.949   3.597  0.1838  0.0653 -0.4598
 3354SOL    HW121695   2.064   0.899   3.652  2.5690  2.4372 -0.8545
 3354SOL    HW221696   1.958   0.880   3.551  3.3044 -0.8503 -2.2548
 3355SOL     OW21697   3.724   0.743   7.640 -0.4098 -0.6453 -0.1059
 3355SOL    HW121698   3.795   0.679   7.647  1.0465  1.1766  1.7381
 3355SOL    HW221699   3.655   0.694   7.684 -0.5316 -1.9659 -1.7442
 3356SOL     OW21700   3.702   1.070   9.600  0.8080 -0.2956 -0.3211
 3356SOL    HW121701   3.781   1.123   9.603  0.1853  0.6479 -0.5178
 3356SOL    HW221702   3.639   1.138   9.577  0.9696 -0.2049 -0.4932
 3357SOL     OW21703   1.307   2.495   6.946  0.0564  0.1867  0.0222
 3357SOL    HW121704   1.343   2.584   6.940  0.6599 -0.0756 -0.2651
 3357SOL    HW221705   1.229   2.526   6.993 -1.5332 -0.2549 -2.3400
 3358SOL     OW21706   0.680   3.065   6.799  0.2550  0.4546 -0.4320
 3358SOL    HW121707   0.612   2.999   6.785 -2.1496  2.1233  3.2445
 3358SOL    HW221708   0.752   3.007   6.824 -1.2490 -0.6970  1.2849
 3359SOL     OW21709   2.593   2.208   7.399 -0.2670  0.0191 -0.0155
 3359SOL    HW121710   2.529   2.145   7.366  0.4781 -0.4789 -0.5342
 3359SOL    HW221711   2.568   2.209   7.492 -2.5716  0.6108 -0.6540
 3360SOL     OW21712   2.923   1.247   1.956 -0.5116 -0.4473  0.1351
 3360SOL    HW121713   2.966   1.167   1.926 -1.2301 -0.1527 -1.7299
 3360SOL    HW221714   2.991   1.292   2.006  0.8663 -0.2395 -1.8954
 3361SOL     OW21715   3.708   3.869   8.814 -0.0677 -0.3081  0.3020
 3361SOL    HW121716   3.725   3.963   8.814  2.4019 -0.7441  0.3086
 3361SOL    HW221717   3.744   3.829   8.734 -0.1187  2.5002 -1.1214
 3362SOL     OW21718   4.228   3.551   8.480  0.3518  0.4107 -0.2678
 3362SOL    HW121719   4.140   3.549   8.519  0.7034  0.1196  0.5154
 3362SOL    HW221720   4.217   3.565   8.386  1.9833  2.5734 -0.1295
 3363SOL     OW21721   0.245   0.449   3.659 -0.0251  0.1986  0.3251
 3363SOL    HW121722   0.169   0.433   3.716  1.1446  0.8466  2.0596
 3363SOL    HW221723   0.250   0.543   3.646 -0.3503  0.4623  2.0309
 3364SOL     OW21724   0.515   0.892  14.811 -0.8482  0.1551 -0.2214
 3364SOL    HW121725   0.450   0.939  14.862  0.3051 -0.0880  1.4585
 3364SOL    HW221726   0.552   0.838  14.881 -0.8417  0.1841 -0.2029
 3365SOL     OW21727   3.175   2.443   3.711  0.1416 -0.1043  0.0557
 3365SOL    HW121728   3.082   2.465   3.710 -0.1535 -1.4170 -0.6114
 3365SOL    HW221729   3.200   2.472   3.799  1.8003  0.7944 -0.7168
 3366SOL     OW21730   1.165   2.977   3.291 -0.3898  0.3579  0.1752
 3366SOL    HW121731   1.162   2.918   3.366  1.9208  0.0228  0.0291
 3366SOL    HW221732   1.079   3.017   3.295  0.0548  1.3743 -0.2335
 3367SOL     OW21733   1.246   4.013  12.294 -0.5182 -0.1798  0.5795
 3367SOL    HW121734   1.208   4.019  12.206  1.6552 -2.1933 -0.5191
 3367SOL    HW221735   1.197   3.943  12.338  0.0221 -0.9590 -0.0503
 3368SOL     OW21736   3.811   2.320   5.798  0.3797  0.3268  0.3373
 3368SOL    HW121737   3.771   2.297   5.715 -2.1832  0.2786  1.5869
 3368SOL    HW221738   3.902   2.335   5.771  0.5901  0.3614  1.0512
 3369SOL     OW21739   0.001   3.468   8.220  0.2857  0.3166 -0.5717
 3369SOL    HW121740   4.690   3.404   8.166  0.2192 -2.6918  3.0230
 3369SOL    HW221741   0.093   3.447   8.202  0.6665  1.5846 -0.1070
 3370SOL     OW21742   3.059   4.142   8.427  0.2536  0.8212 -0.2872
 3370SOL    HW121743   2.976   4.184   8.408 -0.0478  0.7313  0.8682
 3370SOL    HW221744   3.035   4.050   8.412 -0.9247  0.9479  0.8484
 3371SOL     OW21745   3.712   1.040   6.411 -0.0772 -0.5266  0.0293
 3371SOL    HW121746   3.682   0.961   6.457 -4.7769  0.7485 -0.9046
 3371SOL    HW221747   3.772   1.008   6.344  0.6850 -0.2329  0.5714
 3372SOL     OW21748   4.066   0.256   7.340 -0.7310  0.6943 -0.4177
 3372SOL    HW121749   4.036   0.168   7.361 -0.5762  0.3910 -1.4884
 3372SOL    HW221750   4.155   0.238   7.310 -1.3412 -0.7336 -1.3566
 3373SOL     OW21751   4.360   2.940   8.181  0.2271  0.0255 -0.0443
 3373SOL    HW121752   4.342   2.962   8.273  2.0079  0.6103  0.1559
 3373SOL    HW221753   4.455   2.930   8.181  0.0726 -1.5031  0.2940
 3374SOL     OW21754   2.266   1.807   8.702 -0.3610  0.9182  0.0565
 3374SOL    HW121755   2.236   1.866   8.772  1.0596  2.8642 -0.9773
 3374SOL    HW221756   2.351   1.784   8.739  0.2718 -2.3818 -3.5427
 3375SOL     OW21757   2.099   3.298  12.343 -0.4696  0.5150 -0.0535
 3375SOL    HW121758   2.145   3.368  12.297 -0.5759 -0.0309 -0.9944
 3375SOL    HW221759   2.008   3.317  12.323  0.0127  1.1292 -1.6390
 3376SOL     OW21760   1.111   4.191  11.661 -0.9259 -0.5819  0.2401
 3376SOL    HW121761   1.143   4.124  11.722  2.8241  2.6984  1.9031
 3376SOL    HW221762   1.026   4.153  11.640 -0.0416 -1.4399 -1.7360
 3377SOL     OW21763   3.065   1.006  11.646 -0.0163 -0.4681 -0.3808
 3377SOL    HW121764   3.113   1.044  11.720  0.6496 -1.5399 -0.2687
 3377SOL    HW221765   3.063   1.083  11.589 -1.4584  0.2454  0.6240
 3378SOL     OW21766   1.315   2.630   2.516  0.3904  0.6989  0.0938
 3378SOL    HW121767   1.313   2.625   2.612  1.1586  2.1002  0.1905
 3378SOL    HW221768   1.408   2.651   2.503  0.1738  1.2749 -0.5256
 3379SOL     OW21769   1.579   4.225  15.099  0.1579 -0.1555 -0.2190
 3379SOL    HW121770   1.522   4.185  15.034  0.0006  0.3532 -0.3920
 3379SOL    HW221771   1.663   4.214  15.054  0.4342 -3.0433  0.9922
 3380SOL     OW21772   3.799   2.711   1.029  0.3109  0.1609  0.3832
 3380SOL    HW121773   3.851   2.787   1.055  0.4455 -0.7684  2.7998
 3380SOL    HW221774   3.868   2.644   1.028  1.9090  1.8098 -1.7230
 3381SOL     OW21775   3.025   2.927   9.006  0.2166 -0.4946 -0.1676
 3381SOL    HW121776   3.076   2.848   9.023 -0.0182 -1.1187 -2.3511
 3381SOL    HW221777   2.934   2.896   9.010 -0.1164  0.5334  0.2777
 3382SOL     OW21778   3.687   0.206   8.888 -0.5136 -0.2923  0.0525
 3382SOL    HW121779   3.715   0.152   8.962  0.2865  0.0137 -0.0311
 3382SOL    HW221780   3.737   0.173   8.814  0.3052  1.1463 -0.0354
 3383SOL     OW21781   1.624   0.735  13.379  0.1274  0.4980 -0.4030
 3383SOL    HW121782   1.608   0.765  13.290 -2.8025  0.4577  0.0973
 3383SOL    HW221783   1.542   0.766  13.420 -0.6529 -0.0776 -1.5468
 3384SOL     OW21784   4.159   0.526   9.469 -0.1129  0.1620  0.2647
 3384SOL    HW121785   4.136   0.619   9.462  1.0736  0.2861 -1.8120
 3384SOL    HW221786   4.125   0.497   9.384  0.1907 -0.0053  0.2011
 3385SOL     OW21787   3.140   0.215   5.224 -0.7018 -0.3970  0.3609
 3385SOL    HW121788   3.139   0.250   5.135 -1.4515 -0.3326  0.3954
 3385SOL    HW221789   3.153   0.295   5.274  0.1405  0.8018 -1.7784
 3386SOL     OW21790   2.630   2.712  13.178 -0.1839  0.1298 -0.2764
 3386SOL    HW121791   2.585   2.637  13.217  1.1386 -0.8840 -0.7078
 3386SOL    HW221792   2.552   2.767  13.184 -0.8380 -1.0079  1.7376
 3387SOL     OW21793   3.800   2.409   9.100 -0.1494  0.4141 -0.2831
 3387SOL    HW121794   3.831   2.391   9.011 -1.2239 -1.0468 -0.3602
 3387SOL    HW221795   3.871   2.364   9.144  0.4511  1.9260  0.3050
 3388SOL     OW21796   4.430   3.268   3.263  0.4819 -0.1915 -1.0398
 3388SOL    HW121797   4.450   3.334   3.330  2.2887 -0.9864 -0.7816
 3388SOL    HW221798   4.475   3.307   3.188  1.1711  0.0920 -0.4841
 3389SOL     OW21799   3.622   2.938  10.053 -0.3218 -0.2137  0.2645
 3389SOL    HW121800   3.529   2.958  10.065  0.0945  2.9054 -1.8171
 3389SOL    HW221801   3.622   2.861   9.996  0.2201  1.4716 -2.0122
 3390SOL     OW21802   0.777   3.603   8.405 -0.1586  0.3359 -0.2047
 3390SOL    HW121803   0.871   3.593   8.420 -0.2758 -1.7779 -0.7993
 3390SOL    HW221804   0.742   3.591   8.493 -1.0318  0.7466 -0.5002
 3391SOL     OW21805   0.809   2.822   5.993 -0.6366  0.4439 -0.3662
 3391SOL    HW121806   0.884   2.881   5.996  0.2684 -0.6938 -0.7845
 3391SOL    HW221807   0.835   2.753   5.932 -1.6629 -0.7251  0.4846
 3392SOL     OW21808   0.930   2.290   6.614  0.3744  0.1157  0.2908
 3392SOL    HW121809   0.949   2.262   6.703  1.4717 -2.7590 -0.8519
 3392SOL    HW221810   0.934   2.216   6.554 -2.9935 -0.6176  0.9800
 3393SOL     OW21811   3.574   0.167   1.929 -0.1288  0.1864 -0.2802
 3393SOL    HW121812   3.503   0.183   1.866  0.1319 -0.8841 -0.8461
 3393SOL    HW221813   3.544   0.083   1.964 -0.3533 -0.1416 -1.2498
 3394SOL     OW21814   0.020   3.558   8.545  0.5286  0.0323 -0.1598
 3394SOL    HW121815   0.013   3.551   8.640 -2.4262 -1.5221 -0.4795
 3394SOL    HW221816   4.665   3.533   8.523  0.8420 -0.3521 -0.9796
 3395SOL     OW21817   0.438   2.603   6.877  0.3357 -0.2142 -0.0410
 3395SOL    HW121818   0.354   2.593   6.922 -0.3173 -1.5588 -1.5361
 3395SOL    HW221819   0.485   2.532   6.920  0.3601 -1.2564 -1.7663
 3396SOL     OW21820   4.673   1.155   7.373 -0.7135 -0.2724  0.3392
 3396SOL    HW121821   4.734   1.109   7.316  0.1740  0.9931  0.2579
 3396SOL    HW221822   4.712   1.127   7.455  1.8552  1.5267 -0.2836
 3397SOL     OW21823   0.304   3.706   6.558 -0.2231  0.0974  0.6577
 3397SOL    HW121824   0.231   3.647   6.579 -1.2717  1.2588  0.2858
 3397SOL    HW221825   0.325   3.676   6.470  2.0816  1.8165  0.6398
 3398SOL     OW21826   4.606   2.868   5.612  0.5965 -0.5778 -0.2345
 3398SOL    HW121827   4.678   2.823   5.568  1.2073  1.0424 -0.9256
 3398SOL    HW221828   4.641   2.955   5.590  0.2875 -0.8151 -1.7029
 3399SOL     OW21829   3.499   3.802   3.359  0.4647 -0.4006 -0.0219
 3399SOL    HW121830   3.449   3.735   3.313 -1.2553 -1.2658  3.0668
 3399SOL    HW221831   3.487   3.882   3.308 -0.4986  0.1203  1.0345
 3400SOL     OW21832   0.536   4.239   9.161 -0.5120  0.5690 -0.1264
 3400SOL    HW121833   0.511   4.316   9.110  0.1916  0.8696 -0.0134
 3400SOL    HW221834   0.487   4.245   9.243 -0.1733  0.4120  0.0872
 3401SOL     OW21835   1.093   0.120   4.876  0.0428  0.2372 -0.1865
 3401SOL    HW121836   1.122   0.117   4.785  0.1826  0.0504 -0.1344
 3401SOL    HW221837   1.150   0.051   4.908 -0.7127  0.0534  0.7933
 3402SOL     OW21838   1.111   1.811   8.261 -0.2137 -0.1438 -0.4330
 3402SOL    HW121839   1.050   1.833   8.191 -1.0175  1.6429  0.8394
 3402SOL    HW221840   1.066   1.848   8.337 -0.0642 -1.5548  0.3430
 3403SOL     OW21841   1.873   2.031  14.217  0.1203  0.1584  0.2939
 3403SOL    HW121842   1.803   1.966  14.215 -0.0286  0.3400 -0.1913
 3403SOL    HW221843   1.940   1.995  14.158 -2.4883 -3.0406 -0.7103
 3404SOL     OW21844   0.884   2.938   6.898 -0.3371  0.3273  0.1754
 3404SOL    HW121845   0.876   3.004   6.967 -1.4475  1.5944 -1.1727
 3404SOL    HW221846   0.979   2.939   6.887  0.0858 -0.1575  3.6713
 3405SOL     OW21847   0.934   4.021   6.125 -0.2110  0.3999  0.3821
 3405SOL    HW121848   0.894   3.945   6.168 -1.0091  0.8314  0.3938
 3405SOL    HW221849   0.915   4.097   6.180  1.2559 -1.5013  3.5010
 3406SOL     OW21850   1.635   2.398   5.017  0.3422  0.1093 -0.5511
 3406SOL    HW121851   1.652   2.484   4.979  1.9732  0.2536  0.5516
 3406SOL    HW221852   1.657   2.404   5.110  2.3566 -1.0338 -0.9477
 3407SOL     OW21853   3.708   3.363  17.117  0.4509 -0.4900  0.3418
 3407SOL    HW121854   3.782   3.420  17.136  2.0996 -2.7208  0.6108
 3407SOL    HW221855   3.719   3.354  17.023  1.4886 -1.9971  0.5933
 3408SOL     OW21856   4.015   3.680   7.462 -0.4027  0.5257 -0.2587
 3408SOL    HW121857   4.111   3.687   7.463 -0.2848 -1.1829  0.2749
 3408SOL    HW221858   4.006   3.620   7.388  1.2516 -0.5160  0.3885
 3409SOL     OW21859   0.805   4.360   8.027 -0.4192  0.1369  0.3424
 3409SOL    HW121860   0.793   4.409   8.108  1.2069 -0.1798  0.7727
 3409SOL    HW221861   0.723   4.382   7.982 -0.3797 -3.2036 -1.3785
 3410SOL     OW21862   4.004   0.407   8.214  0.3179  0.1799 -0.4335
 3410SOL    HW121863   4.050   0.464   8.276  0.2486 -0.9626  0.6635
 3410SOL    HW221864   4.016   0.319   8.249 -0.8265  0.5063  0.7757
 3411SOL     OW21865   4.410   3.567  17.393  0.6168  0.0221 -0.6263
 3411SOL    HW121866   4.388   3.498  17.331  0.5229  1.5665 -2.2900
 3411SOL    HW221867   4.342   3.562  17.460 -0.0606  1.7883 -1.1833
 3412SOL     OW21868   2.166   3.697  11.354 -0.0309  0.0683 -0.0260
 3412SOL    HW121869   2.108   3.703  11.279  1.5757 -1.4310 -1.3883
 3412SOL    HW221870   2.138   3.607  11.372  1.2634 -0.3188  0.0989
 3413SOL     OW21871   0.473   4.654   3.067 -0.6132 -0.2918 -0.2131
 3413SOL    HW121872   0.433   4.568   3.053 -2.1212  0.2458  0.8332
 3413SOL    HW221873   0.529   4.643   2.990 -1.3278 -3.4038 -0.2947
 3414SOL     OW21874   1.273   3.572   9.548  0.4110  0.2060 -0.3161
 3414SOL    HW121875   1.272   3.478   9.531 -0.0667  0.1507  0.0317
 3414SOL    HW221876   1.181   3.597   9.537 -0.1189 -1.4566  0.3935
 3415SOL     OW21877   1.563   0.862  13.114 -0.7931 -0.5635 -0.2294
 3415SOL    HW121878   1.484   0.914  13.125  0.6244  1.3112  1.1181
 3415SOL    HW221879   1.548   0.824  13.028 -2.4850  1.2592 -0.7405
 3416SOL     OW21880   3.463   2.837   7.672 -0.0148  0.1756 -0.2025
 3416SOL    HW121881   3.525   2.817   7.743 -0.9835 -0.5014  0.4677
 3416SOL    HW221882   3.387   2.841   7.730  1.3447  0.0505  1.6073
 3417SOL     OW21883   0.393   4.250   9.384 -0.2173 -0.5331  0.2539
 3417SOL    HW121884   0.330   4.306   9.429 -1.4225 -0.9317 -0.9356
 3417SOL    HW221885   0.456   4.244   9.456  0.0602 -0.9987 -0.0227
 3418SOL     OW21886   2.072   3.975  11.778 -0.1691 -0.1364 -0.0255
 3418SOL    HW121887   2.050   3.922  11.855  3.5327 -2.5283 -0.6203
 3418SOL    HW221888   2.137   3.916  11.739  1.7698  2.2755 -0.4855
 3419SOL     OW21889   1.299   1.055  12.412  0.5795 -0.1397 -0.1519
 3419SOL    HW121890   1.314   1.044  12.505  0.7218  0.4958 -0.0961
 3419SOL    HW221891   1.277   0.970  12.374 -1.2758  0.2614  0.0216
 3420SOL     OW21892   4.662   3.913   2.612 -0.3992 -0.0096 -0.2909
 3420SOL    HW121893   4.612   3.831   2.611  0.5655 -0.5847 -1.2276
 3420SOL    HW221894   4.705   3.906   2.527 -0.3441 -3.0945 -0.0152
 3421SOL     OW21895   4.244   0.067   2.399 -0.4931 -0.0914 -0.3945
 3421SOL    HW121896   4.168   0.125   2.403 -1.7162 -1.7916  0.8003
 3421SOL    HW221897   4.212   0.011   2.329 -1.5205 -2.5204  2.0308
 3422SOL     OW21898   0.936   0.563   1.198  0.1305 -0.1881  0.7428
 3422SOL    HW121899   0.933   0.524   1.111 -0.3841 -0.1525  0.7414
 3422SOL    HW221900   0.879   0.640   1.202 -0.9289 -0.8326 -1.8518
 3423SOL     OW21901   3.829   4.362   3.543  0.4767  0.4209 -0.2650
 3423SOL    HW121902   3.889   4.336   3.612  1.0700  2.4737 -0.0219
 3423SOL    HW221903   3.743   4.327   3.567 -0.5572  1.8178 -1.9160
 3424SOL     OW21904   3.202   3.268   4.828 -0.0464 -0.0654  0.2725
 3424SOL    HW121905   3.172   3.286   4.917  0.0041 -2.6060  0.8107
 3424SOL    HW221906   3.128   3.303   4.778  0.3323  0.3870  0.0244
 3425SOL     OW21907   4.527   0.362   3.083  0.4359  0.6829  0.0068
 3425SOL    HW121908   4.461   0.310   3.037 -0.3742  3.0341 -1.5153
 3425SOL    HW221909   4.506   0.346   3.175 -0.5426  1.0165 -0.1632
 3426SOL     OW21910   3.242   3.077   4.465 -0.2472 -0.0043  0.4522
 3426SOL    HW121911   3.294   2.999   4.446  1.3476  1.3861 -0.8688
 3426SOL    HW221912   3.225   3.073   4.559  1.3799 -0.5035  0.7156
 3427SOL     OW21913   1.703   0.058  12.318  0.0600  0.4797 -0.5515
 3427SOL    HW121914   1.721   0.134  12.373  0.7270  1.2857 -1.8986
 3427SOL    HW221915   1.788   0.029  12.284 -0.6154 -0.1563 -1.7028
 3428SOL     OW21916   1.270   1.164   7.093 -0.5058  0.4372  0.5754
 3428SOL    HW121917   1.202   1.216   7.137  0.3438  0.8588  1.3812
 3428SOL    HW221918   1.223   1.133   7.016  2.2119 -1.4837 -0.2925
 3429SOL     OW21919   2.518   1.451   5.292  0.0039  0.6897  0.1388
 3429SOL    HW121920   2.445   1.391   5.278 -0.8766  2.0402 -0.9882
 3429SOL    HW221921   2.571   1.397   5.351  0.0594  1.5887  0.9242
 3430SOL     OW21922   0.198   2.252   6.968  0.0636 -0.5041 -0.2905
 3430SOL    HW121923   0.124   2.247   6.907  1.2279  1.0927 -1.8412
 3430SOL    HW221924   0.212   2.346   6.976  2.8517 -0.9509 -0.1894
 3431SOL     OW21925   4.547   1.731   6.634 -0.0957 -0.1110 -0.0013
 3431SOL    HW121926   4.602   1.808   6.623  1.4409 -0.9213  2.0958
 3431SOL    HW221927   4.560   1.704   6.725  0.5605  1.1875  0.2850
 3432SOL     OW21928   1.790   0.144   7.955  0.0269  0.1293  0.2353
 3432SOL    HW121929   1.879   0.169   7.930  0.0948 -0.4654 -0.1140
 3432SOL    HW221930   1.786   0.184   8.041 -1.5031  1.9341 -0.6795
 3433SOL     OW21931   1.801   2.747  14.613  0.1131  0.0250 -0.8706
 3433SOL    HW121932   1.782   2.670  14.558 -0.5223  0.8840 -1.8506
 3433SOL    HW221933   1.892   2.767  14.594  0.6593 -1.2228  0.4375
 3434SOL     OW21934   4.168   2.880  15.626  0.1533  0.2363 -0.2464
 3434SOL    HW121935   4.151   2.970  15.597 -1.6228 -0.5623 -1.7188
 3434SOL    HW221936   4.119   2.833  15.558 -0.8020 -0.1771  0.7232
 3435SOL     OW21937   3.607   1.476   3.863  0.0449  0.0324 -0.2820
 3435SOL    HW121938   3.661   1.435   3.931 -0.7651 -1.0670 -0.3035
 3435SOL    HW221939   3.658   1.546   3.821  0.8642 -0.2147  0.2960
 3436SOL     OW21940   4.444   3.668  14.723 -0.4910 -0.5081 -0.0675
 3436SOL    HW121941   4.393   3.647  14.801 -1.5589  1.1961 -0.3086
 3436SOL    HW221942   4.506   3.596  14.734 -0.5642 -0.3974  1.0678
 3437SOL     OW21943   1.001   3.270   0.070  0.1085  0.5478  0.1332
 3437SOL    HW121944   0.943   3.199   0.042 -1.4400  1.7908  0.2167
 3437SOL    HW221945   1.042   3.287  17.725 -1.3646  1.5156 -0.3773
 3438SOL     OW21946   2.334   2.398  10.605  0.8361  0.5856 -0.4634
 3438SOL    HW121947   2.273   2.342  10.557  0.5225  0.0058  0.6267
 3438SOL    HW221948   2.397   2.334  10.639 -1.7880 -1.7107  0.0512
 3439SOL     OW21949   1.189   3.512   3.791  0.2857 -0.5923 -0.1165
 3439SOL    HW121950   1.173   3.588   3.734  1.0023 -0.9148 -0.7450
 3439SOL    HW221951   1.190   3.437   3.731  2.2811 -0.3057 -0.4476
 3440SOL     OW21952   1.589   3.213  17.143 -0.1113  0.3886  0.0578
 3440SOL    HW121953   1.614   3.147  17.208 -0.5034  0.2813  0.0998
 3440SOL    HW221954   1.494   3.214  17.146 -0.1522 -1.3811 -0.8029
 3441SOL     OW21955   0.875   0.663  10.707  0.4369  0.5429 -0.2508
 3441SOL    HW121956   0.916   0.629  10.627 -1.0139 -1.7049 -0.0329
 3441SOL    HW221957   0.919   0.748  10.703  1.8854 -0.2415 -1.3210
 3442SOL     OW21958   1.059   4.644   3.873 -0.0202  0.0787 -0.1691
 3442SOL    HW121959   1.056   4.696   3.793 -1.0535  1.0528  0.5026
 3442SOL    HW221960   1.152   4.627   3.889 -0.1875  0.1021  0.8548
 3443SOL     OW21961   3.702   3.817  12.877  0.4022  0.3165 -0.3022
 3443SOL    HW121962   3.631   3.834  12.815 -0.1591 -2.5016 -0.4444
 3443SOL    HW221963   3.779   3.824  12.822  1.3923 -2.8117  0.6647
 3444SOL     OW21964   4.567   4.492   2.425 -0.1694  0.1561  0.0996
 3444SOL    HW121965   4.484   4.470   2.466 -1.1588  0.2510 -1.8239
 3444SOL    HW221966   4.609   4.531   2.501  0.3986  2.2528 -1.2990
 3445SOL     OW21967   2.826   0.630  11.929  0.5190  0.0220 -0.1720
 3445SOL    HW121968   2.877   0.663  12.003  1.2099 -2.2864  0.3846
 3445SOL    HW221969   2.882   0.562  11.891  0.1606  0.0856 -0.8066
 3446SOL     OW21970   0.505   2.423  15.994  0.8277 -0.3967  0.0131
 3446SOL    HW121971   0.573   2.463  16.049  0.5433  1.6649 -1.1252
 3446SOL    HW221972   0.458   2.499  15.960 -0.4071 -1.0013  0.3775
 3447SOL     OW21973   4.500   0.071   7.929  0.2337  0.1331  0.3961
 3447SOL    HW121974   4.546   0.013   7.869 -2.7085  0.0295 -1.7566
 3447SOL    HW221975   4.534   0.159   7.913 -2.2498  0.8338 -1.0034
 3448SOL     OW21976   0.480   0.030  12.586 -0.0064  0.9439  0.3929
 3448SOL    HW121977   0.514   0.101  12.641  0.0637  1.4733 -0.3229
 3448SOL    HW221978   0.405   0.002  12.638 -0.2179  1.0469  0.1451
 3449SOL     OW21979   3.914   1.307  11.038 -0.0326 -0.0193 -0.0151
 3449SOL    HW121980   3.930   1.261  11.121  1.4539 -1.3802 -1.0562
 3449SOL    HW221981   4.005   1.303  11.009 -0.1177  5.7764 -1.1411
 3450SOL     OW21982   3.873   1.732   2.452  0.4788 -0.8004  0.1768
 3450SOL    HW121983   3.896   1.694   2.367 -0.3011  2.8050 -1.6442
 3450SOL    HW221984   3.914   1.819   2.449  1.4387 -1.2486  0.4619
 3451SOL     OW21985   2.681   1.683  10.421 -0.4917 -0.3155  0.2191
 3451SOL    HW121986   2.627   1.716  10.350  2.5391 -1.1643 -2.4860
 3451SOL    HW221987   2.644   1.735  10.492  3.3310  2.1242  0.3964
 3452SOL     OW21988   3.504   1.764   8.015 -0.1442  0.0805  0.1653
 3452SOL    HW121989   3.531   1.677   8.044 -1.3873 -0.9815 -1.8459
 3452SOL    HW221990   3.586   1.808   7.993  0.3431 -1.8389 -1.8455
 3453SOL     OW21991   1.715   2.598   4.643  0.3025 -0.2477 -0.2361
 3453SOL    HW121992   1.789   2.538   4.648 -0.6754 -1.6443 -2.7517
 3453SOL    HW221993   1.692   2.613   4.734 -0.7268  0.1228 -0.5540
 3454SOL     OW21994   3.397   1.934   3.110  0.1484 -0.4628 -0.6129
 3454SOL    HW121995   3.438   1.893   3.034 -0.3115  0.2549 -1.2412
 3454SOL    HW221996   3.438   1.872   3.172  1.4284  0.4996 -0.4906
 3455SOL     OW21997   3.476   3.273   9.148 -0.0621  0.5653  0.0868
 3455SOL    HW121998   3.458   3.353   9.097 -0.4590 -0.6884 -1.7360
 3455SOL    HW221999   3.436   3.205   9.095  0.0531  0.7101 -0.1906
 3456SOL     OW22000   2.280   2.734   9.085  0.5213  0.3136 -0.2520
 3456SOL    HW122001   2.281   2.756   8.992  0.7283  0.1387 -0.2905
 3456SOL    HW222002   2.256   2.820   9.119 -0.5233 -0.3701  0.7479
 3457SOL     OW22003   1.545   1.567   5.647 -0.4036  0.4174  0.4748
 3457SOL    HW122004   1.553   1.658   5.620  0.5789  0.5097  1.0465
 3457SOL    HW222005   1.564   1.569   5.741 -1.3135 -0.6820  0.6802
 3458SOL     OW22006   0.005   1.595   1.318 -0.1981  0.8109  0.3610
 3458SOL    HW122007   0.023   1.556   1.404 -0.2934  2.3649  1.0726
 3458SOL    HW222008   4.715   1.684   1.340  0.5479  0.8778  0.9287
 3459SOL     OW22009   2.913   1.700   8.205  0.3944  0.2599  0.1415
 3459SOL    HW122010   2.862   1.630   8.165  0.3105  0.5806 -0.3037
 3459SOL    HW222011   2.988   1.647   8.231 -1.6726 -2.9697 -0.4794
 3460SOL     OW22012   2.282   0.932   7.576  0.0481  0.1919  0.3947
 3460SOL    HW122013   2.373   0.914   7.552 -0.7442 -1.9657 -1.0347
 3460SOL    HW222014   2.283   0.880   7.656  0.4430 -1.1948 -0.4971
 3461SOL     OW22015   0.789   2.498   2.408  0.3406 -0.1803 -0.2892
 3461SOL    HW122016   0.797   2.437   2.482 -1.2812  0.4078  0.3464
 3461SOL    HW222017   0.696   2.490   2.389 -0.1568 -0.6481  2.3215
 3462SOL     OW22018   4.010   1.395   5.227 -0.3945  0.3594 -0.0815
 3462SOL    HW122019   4.102   1.370   5.237  0.1682  2.4459 -0.0420
 3462SOL    HW222020   4.013   1.469   5.287 -0.9828  0.5068 -0.2348
 3463SOL     OW22021   4.290   2.584  14.883 -0.5441 -0.0239  0.2407
 3463SOL    HW122022   4.350   2.640  14.834 -0.8374  1.2856  1.3551
 3463SOL    HW222023   4.288   2.638  14.962  1.3548 -0.1959  0.3867
 3464SOL     OW22024   3.015   3.321   6.767 -0.1676 -0.0642 -0.6249
 3464SOL    HW122025   2.954   3.252   6.795  1.5925 -0.9735  0.9812
 3464SOL    HW222026   3.004   3.372   6.848  1.2509  0.6021 -0.8450
 3465SOL     OW22027   0.992   2.253   6.283 -0.1770  0.1218 -0.9208
 3465SOL    HW122028   0.936   2.331   6.290 -0.5305 -0.1819 -0.2955
 3465SOL    HW222029   1.033   2.269   6.198  0.9036  2.4183  0.0186
 3466SOL     OW22030   1.799   4.710  12.651 -0.4119  0.3912 -0.3547
 3466SOL    HW122031   1.736   0.040  12.621 -1.1396  0.0445  0.3952
 3466SOL    HW222032   1.874   0.026  12.680 -2.0752  1.7392  1.6119
 3467SOL     OW22033   3.977   3.159   8.545 -0.1469  0.1746 -0.6592
 3467SOL    HW122034   4.025   3.147   8.626  0.8565  0.2352 -1.2444
 3467SOL    HW222035   3.905   3.220   8.561 -0.3130 -0.1470 -0.1831
 3468SOL     OW22036   3.793   1.131  14.270 -0.5299 -0.5403 -0.3618
 3468SOL    HW122037   3.738   1.200  14.232 -0.6382 -0.5690 -0.2552
 3468SOL    HW222038   3.818   1.079  14.194 -1.1486  0.4832 -1.2718
 3469SOL     OW22039   0.375   1.560   7.479 -0.4510  0.2289  0.4443
 3469SOL    HW122040   0.469   1.555   7.499 -0.4864  1.2965  0.8694
 3469SOL    HW222041   0.371   1.648   7.442 -1.4475  0.4044  0.9686
 3470SOL     OW22042   0.495   3.457  16.227 -0.1035 -0.0910 -0.8186
 3470SOL    HW122043   0.446   3.471  16.147  1.2218 -1.5391 -1.8801
 3470SOL    HW222044   0.577   3.501  16.204 -0.6127  1.6069  0.6093
 3471SOL     OW22045   0.516   2.419   3.231  0.1042  0.2761  0.3147
 3471SOL    HW122046   0.483   2.466   3.155 -0.8801  0.0395  0.5970
 3471SOL    HW222047   0.610   2.418   3.213 -0.1666  0.6181 -1.0688
 3472SOL     OW22048   4.558   0.692   3.141  0.5558 -0.1850 -0.5233
 3472SOL    HW122049   4.641   0.699   3.095 -0.2412  4.0257 -1.3593
 3472SOL    HW222050   4.581   0.626   3.207  4.1318  0.1905 -1.4287
 3473SOL     OW22051   2.195   3.706   8.541  0.1894 -0.1198  0.0785
 3473SOL    HW122052   2.111   3.734   8.503  1.3623  0.8210 -1.8283
 3473SOL    HW222053   2.178   3.635   8.604  1.0447 -0.4631 -0.0821
 3474SOL     OW22054   1.332   1.144   2.382 -0.0391 -0.1429  0.0277
 3474SOL    HW122055   1.299   1.208   2.445  2.0353  1.3241 -0.3583
 3474SOL    HW222056   1.422   1.175   2.371  0.2623 -0.9504  0.2048
 3475SOL     OW22057   4.254   4.274   8.697  0.7535  0.0357  0.0276
 3475SOL    HW122058   4.334   4.223   8.680  1.0838  0.6799 -0.3593
 3475SOL    HW222059   4.296   4.348   8.740 -0.9500  0.1366  1.4942
 3476SOL     OW22060   0.557   3.605   2.294  0.1073  0.2272 -0.4691
 3476SOL    HW122061   0.553   3.687   2.246  2.6966  1.8899  2.1329
 3476SOL    HW222062   0.641   3.576   2.259  1.1874  0.1701  2.1501
 3477SOL     OW22063   1.018   3.304   5.468 -0.3771  0.1191 -0.2185
 3477SOL    HW122064   0.935   3.332   5.506 -0.0768  1.3296 -0.4388
 3477SOL    HW222065   1.043   3.383   5.420  0.5987  0.0252  0.1313
 3478SOL     OW22066   3.315   3.165  16.939  0.5998 -0.1670  0.2215
 3478SOL    HW122067   3.291   3.253  16.909 -0.8532 -1.6233 -2.8731
 3478SOL    HW222068   3.368   3.187  17.016 -0.4940  0.3364  0.8276
 3479SOL     OW22069   0.087   3.571   6.131 -0.4440 -0.2381 -0.4467
 3479SOL    HW122070   0.042   3.585   6.214  1.4372  1.0057  0.3737
 3479SOL    HW222071   0.119   3.482   6.148  2.0633  0.5823 -0.8336
 3480SOL     OW22072   4.211   1.620   5.190  0.0217  0.1680  0.5798
 3480SOL    HW122073   4.145   1.690   5.187  0.7001  0.9712  4.4959
 3480SOL    HW222074   4.260   1.632   5.271  0.2783  0.8151  0.3289
 3481SOL     OW22075   0.977   1.283  17.344 -0.5836  0.0872 -0.2608
 3481SOL    HW122076   0.911   1.272  17.276 -1.5957 -0.4330  0.7993
 3481SOL    HW222077   1.018   1.196  17.349 -1.4904 -0.2506  1.1319
 3482SOL     OW22078   1.311   2.847  10.282 -0.5084 -0.2676  0.6958
 3482SOL    HW122079   1.290   2.756  10.302 -2.7848 -0.4566 -2.6119
 3482SOL    HW222080   1.322   2.889  10.368  0.8227  2.8035 -0.9450
 3483SOL     OW22081   0.670   3.404   5.311 -0.1579  0.4205  1.0699
 3483SOL    HW122082   0.718   3.348   5.251 -1.4532  1.5778 -1.0132
 3483SOL    HW222083   0.603   3.429   5.247 -0.4371  0.7741  1.4945
 3484SOL     OW22084   0.084   2.052   3.844  0.1416 -0.1928  0.1562
 3484SOL    HW122085   0.130   2.096   3.915 -0.3604  1.8257 -0.7486
 3484SOL    HW222086   0.142   2.064   3.768  1.0745 -0.0094  0.9008
 3485SOL     OW22087   3.361   1.948   5.375 -0.3003 -0.0293  0.4295
 3485SOL    HW122088   3.372   1.854   5.358 -2.2288 -0.2488  0.4412
 3485SOL    HW222089   3.270   1.950   5.348  0.1924 -2.2302 -1.3776
 3486SOL     OW22090   3.886   3.460   2.926 -0.1916  0.5416  0.0230
 3486SOL    HW122091   3.823   3.530   2.943 -0.1644  0.0787  2.1316
 3486SOL    HW222092   3.924   3.476   2.840 -0.2311 -0.0713 -0.1135
 3487SOL     OW22093   4.486   2.155   6.126 -0.4422  0.0273  0.0893
 3487SOL    HW122094   4.486   2.231   6.183 -3.3669 -0.4010  0.6535
 3487SOL    HW222095   4.481   2.085   6.191 -3.1175  0.2212  0.0940
 3488SOL     OW22096   1.937   3.327   3.960  0.3712  0.0004 -0.4029
 3488SOL    HW122097   1.914   3.419   3.972  1.2710  0.5255 -2.6048
 3488SOL    HW222098   2.031   3.347   3.963  0.1785  1.2180 -2.2388
 3489SOL     OW22099   4.447   2.215   8.640  0.1042  0.1036  0.0933
 3489SOL    HW122100   4.384   2.187   8.706 -0.9306 -1.0094 -1.3558
 3489SOL    HW222101   4.443   2.310   8.630 -0.9437 -0.0129 -0.6380
 3490SOL     OW22102   1.922   2.821   6.940  0.2726  0.3125 -0.0031
 3490SOL    HW122103   1.934   2.748   7.000  2.3152  0.6657  0.0377
 3490SOL    HW222104   1.990   2.807   6.873 -0.4411 -0.0235 -0.6643
 3491SOL     OW22105   4.579   1.956   9.567 -0.3647  0.0288 -0.4155
 3491SOL    HW122106   4.636   2.029   9.546 -1.9890  1.2544 -0.5960
 3491SOL    HW222107   4.536   1.990   9.645 -2.4615 -1.2285 -0.9924
 3492SOL     OW22108   1.144   3.391  16.463 -0.0785  0.0004  0.1677
 3492SOL    HW122109   1.131   3.374  16.557 -3.1066 -1.5558 -0.5186
 3492SOL    HW222110   1.178   3.308  16.429  1.3868  0.5455  0.3423
 3493SOL     OW22111   3.605   0.839   4.301 -0.1117  0.4028 -0.1963
 3493SOL    HW122112   3.619   0.875   4.213  0.9561 -0.3721 -0.3453
 3493SOL    HW222113   3.577   0.921   4.341 -0.8980  0.2666 -0.4708
 3494SOL     OW22114   1.021   3.977  16.045 -0.4585 -0.1063 -0.2050
 3494SOL    HW122115   1.027   3.987  16.140  0.8010  1.3560 -0.4438
 3494SOL    HW222116   1.006   3.883  16.036 -0.9449  0.0033 -0.5112
 3495SOL     OW22117   3.298   1.009   0.159  0.0661  0.0483  0.0471
 3495SOL    HW122118   3.228   1.010   0.225 -0.2147 -0.1442 -0.2516
 3495SOL    HW222119   3.265   0.942   0.100 -0.4748  0.2935  0.0732
 3496SOL     OW22120   1.211   4.491   5.551 -0.4666  0.0914  0.8564
 3496SOL    HW122121   1.130   4.494   5.500  0.1332  3.9219  0.1650
 3496SOL    HW222122   1.257   4.573   5.535 -0.7308  0.0463 -0.1096
 3497SOL     OW22123   3.645   1.209  13.238  0.4319  0.3852  0.0807
 3497SOL    HW122124   3.633   1.151  13.163 -1.3303  1.3532 -0.3823
 3497SOL    HW222125   3.640   1.153  13.315  0.5393  0.0544 -0.1554
 3498SOL     OW22126   4.674   3.747  12.754 -0.3662  1.0176  0.6488
 3498SOL    HW122127   4.688   3.684  12.824  0.1399  1.4095  0.9044
 3498SOL    HW222128   4.600   3.709  12.708 -0.1191  2.5710 -1.0410
 3499SOL     OW22129   2.541   4.666   8.581  0.2804 -0.6252 -0.3327
 3499SOL    HW122130   2.593   4.707   8.650  1.3839 -3.2347  0.3959
 3499SOL    HW222131   2.468   4.630   8.632  0.2806  1.2508  0.9941
 3500SOL     OW22132   3.989   1.235   1.240 -0.1738 -0.2173 -0.4833
 3500SOL    HW122133   3.908   1.184   1.237 -2.0769  2.8623 -0.4490
 3500SOL    HW222134   4.007   1.250   1.147 -0.9029  0.5109 -0.5064
 3501SOL     OW22135   2.559   2.044   9.900  0.1407  0.3491  0.5545
 3501SOL    HW122136   2.631   2.106   9.916  3.3309 -3.6411  1.6196
 3501SOL    HW222137   2.499   2.102   9.853 -0.3848 -1.0975 -0.5608
 3502SOL     OW22138   0.365   3.093  12.813  0.0243  0.0154 -0.8455
 3502SOL    HW122139   0.414   3.012  12.807 -0.5187 -0.1532 -3.0381
 3502SOL    HW222140   0.279   3.058  12.839  0.8265 -0.7612  0.7395
 3503SOL     OW22141   1.582   3.945   8.476 -0.2269  0.4470 -0.0449
 3503SOL    HW122142   1.625   4.021   8.436  1.8578 -1.0862 -0.7057
 3503SOL    HW222143   1.491   3.975   8.474  0.2435  1.8062 -1.1326
 3504SOL     OW22144   4.538   3.250  17.052  0.0743  0.1042 -0.4078
 3504SOL    HW122145   4.479   3.308  17.100 -1.5770 -3.0651  1.3327
 3504SOL    HW222146   4.511   3.248  16.960  0.2918  1.8055 -0.5185
 3505SOL     OW22147   0.023   3.148   8.840 -0.3450  0.5782  0.2455
 3505SOL    HW122148   0.071   3.185   8.766  2.9044 -2.7850  0.6935
 3505SOL    HW222149   4.666   3.172   8.826 -1.2121 -1.5009  2.5730
 3506SOL     OW22150   4.190   0.170   8.359  0.2104 -0.9853  0.6730
 3506SOL    HW122151   4.195   0.126   8.275 -1.2059  1.0143 -0.4632
 3506SOL    HW222152   4.275   0.214   8.355 -1.1527  1.5524 -0.5504
 3507SOL     OW22153   2.367   1.304   7.452 -0.1186  0.3576 -0.0743
 3507SOL    HW122154   2.459   1.329   7.459 -0.6107  1.5436  2.1861
 3507SOL    HW222155   2.333   1.361   7.383 -2.1556  0.8264  1.3035
 3508SOL     OW22156   3.667   1.590  14.810 -0.1402  0.3844  0.2813
 3508SOL    HW122157   3.736   1.605  14.875 -0.3218 -0.2504  0.6254
 3508SOL    HW222158   3.727   1.582  14.735 -0.7724  2.2299 -0.4192
 3509SOL     OW22159   1.849   0.335   6.801 -0.0814  0.1438 -0.0364
 3509SOL    HW122160   1.800   0.301   6.875 -1.6591 -1.9490 -2.0262
 3509SOL    HW222161   1.816   0.286   6.726 -0.0035 -0.3435  0.2503
 3510SOL     OW22162   4.651   4.315  14.133  0.1273  0.3757 -0.1257
 3510SOL    HW122163   4.588   4.365  14.082 -1.2016 -0.8624  0.2975
 3510SOL    HW222164   4.618   4.334  14.221  1.5449  2.6552 -0.0765
 3511SOL     OW22165   0.696   2.042   1.202  0.5663  0.4499  0.2639
 3511SOL    HW122166   0.619   2.095   1.183  0.7196  0.0882 -1.4073
 3511SOL    HW222167   0.730   2.114   1.255  2.1777 -1.2252  1.5227
 3512SOL     OW22168   4.431   1.260   1.523  0.1751 -0.3863  0.4444
 3512SOL    HW122169   4.373   1.284   1.596 -0.8010 -2.8388  0.4801
 3512SOL    HW222170   4.385   1.305   1.452 -0.6702  0.5144  1.5531
 3513SOL     OW22171   0.897   0.069   2.975 -0.1191 -0.1070 -0.4709
 3513SOL    HW122172   0.817   0.121   2.968  0.6057  1.1796  0.7140
 3513SOL    HW222173   0.879   4.722   2.929 -1.7296 -0.3425  0.5824
 3514SOL     OW22174   0.848   4.664  15.055 -0.1647 -0.1938  0.1926
 3514SOL    HW122175   0.876   4.583  15.013 -3.0659 -1.3917  0.5658
 3514SOL    HW222176   0.759   4.685  15.029 -0.3670  0.0781  1.1061
 3515SOL     OW22177   1.136   4.137  10.516 -0.6088  0.1693 -0.3806
 3515SOL    HW122178   1.086   4.190  10.454 -3.7399 -0.1031  1.9625
 3515SOL    HW222179   1.077   4.132  10.591  2.0079  3.6375  1.9073
 3516SOL     OW22180   0.226   2.892   9.760  1.2089  0.2281 -0.3804
 3516SOL    HW122181   0.168   2.943   9.816  1.8777  0.5314  0.0275
 3516SOL    HW222182   0.179   2.808   9.765 -0.0334  0.9225 -0.3705
 3517SOL     OW22183   2.202   0.818  12.186 -0.3635  0.1524 -0.7155
 3517SOL    HW122184   2.269   0.764  12.142 -0.3055 -0.2453 -0.1353
 3517SOL    HW222185   2.248   0.902  12.181 -0.8849  0.4831  0.1757
 3518SOL     OW22186   3.393   3.832   6.777  1.0142 -0.3470 -0.4262
 3518SOL    HW122187   3.304   3.868   6.776  1.7746  1.6054  1.0779
 3518SOL    HW222188   3.391   3.803   6.686  0.7552  0.5747 -0.7199
 3519SOL     OW22189   1.472   1.535   8.030  0.7967  0.4363  0.3409
 3519SOL    HW122190   1.452   1.450   7.990 -0.9248  0.4522  1.1745
 3519SOL    HW222191   1.465   1.594   7.955 -0.0670 -0.8950 -0.6436
 3520SOL     OW22192   0.720   3.579  10.979 -0.7279 -0.0494 -0.1247
 3520SOL    HW122193   0.766   3.606  11.058 -0.5291  2.0712 -0.9592
 3520SOL    HW222194   0.678   3.499  11.011 -0.4705  0.4495  1.4809
 3521SOL     OW22195   0.652   1.681   3.106 -0.1178  0.5844 -0.0679
 3521SOL    HW122196   0.695   1.684   3.021 -0.4403  0.4473 -0.2360
 3521SOL    HW222197   0.730   1.685   3.161  1.1671  0.2107 -1.8921
 3522SOL     OW22198   3.775   1.325   4.820 -0.2459 -0.5445  0.1202
 3522SOL    HW122199   3.804   1.290   4.904 -0.8546  1.6629  1.2511
 3522SOL    HW222200   3.830   1.403   4.813  1.3892 -1.4160  3.2764
 3523SOL     OW22201   1.068   0.737   0.104 -0.3488  0.2068 -0.0208
 3523SOL    HW122202   1.109   0.650   0.101  1.2108  0.8778  1.6385
 3523SOL    HW222203   0.987   0.709   0.061 -1.8476  2.6641  1.2312
 3524SOL     OW22204   4.698   3.344   7.617 -0.1203 -0.3582 -0.4171
 3524SOL    HW122205   0.019   3.414   7.651 -0.2205  0.1818 -1.3597
 3524SOL    HW222206   4.708   3.363   7.524 -0.2206  0.6965 -0.2104
 3525SOL     OW22207   1.844   3.214   8.479 -0.7350 -0.2003  0.5387
 3525SOL    HW122208   1.764   3.215   8.428  0.4903 -0.2879 -1.3650
 3525SOL    HW222209   1.872   3.305   8.468  0.7093 -0.8607 -1.1511
 3526SOL     OW22210   0.629   4.127   3.870 -0.6231 -0.5106 -0.5552
 3526SOL    HW122211   0.592   4.058   3.926  0.6354 -0.2477  0.5941
 3526SOL    HW222212   0.724   4.119   3.880 -0.6603  0.3837  0.4294
 3527SOL     OW22213   1.599   2.166   3.298 -0.2897 -0.3685 -0.4009
 3527SOL    HW122214   1.656   2.227   3.251  1.5652 -0.5276  1.6649
 3527SOL    HW222215   1.619   2.087   3.246  1.1656  0.8936 -1.7731
 3528SOL     OW22216   0.260   4.278   6.231 -0.3477 -0.3157 -0.2329
 3528SOL    HW122217   0.215   4.205   6.188 -2.4130  1.2216 -0.6600
 3528SOL    HW222218   0.192   4.302   6.293  0.1405  1.1963 -0.2914
 3529SOL     OW22219   3.617   1.972   6.807 -0.0694 -0.0366 -0.0652
 3529SOL    HW122220   3.576   1.905   6.861 -0.2187 -2.1593 -2.8047
 3529SOL    HW222221   3.612   1.925   6.724 -0.3712  0.8681 -0.5579
 3530SOL     OW22222   1.033   1.237  11.541  0.3365 -0.0166 -0.2450
 3530SOL    HW122223   0.953   1.185  11.535  0.6231 -0.3436 -1.3611
 3530SOL    HW222224   1.106   1.179  11.521  0.4209  0.1548 -0.4339
 3531SOL     OW22225   2.786   0.849   5.596  0.0185 -0.2259  0.4034
 3531SOL    HW122226   2.701   0.884   5.570 -1.0707 -1.0601  2.7854
 3531SOL    HW222227   2.780   0.882   5.686 -0.7975 -0.4460  0.4319
 3532SOL     OW22228   4.589   2.711   3.667 -0.8198 -0.1516 -0.0763
 3532SOL    HW122229   4.668   2.735   3.716 -1.0885 -0.3745  0.4590
 3532SOL    HW222230   4.589   2.619   3.640  0.8416 -0.0676 -0.4166
 3533SOL     OW22231   3.077   3.743   6.928 -0.4436 -0.5518 -0.1180
 3533SOL    HW122232   3.090   3.794   6.849 -0.9847  0.4620  0.4544
 3533SOL    HW222233   3.012   3.799   6.970  1.0276  0.0076  1.3861
 3534SOL     OW22234   2.829   0.872   7.273 -0.6433  0.0605  0.5567
 3534SOL    HW122235   2.827   0.949   7.330  2.0347  1.9223 -1.8946
 3534SOL    HW222236   2.852   0.902   7.185  0.2133 -1.1183  0.3644
 3535SOL     OW22237   4.663   4.318   4.796  0.1452  0.6437 -0.3500
 3535SOL    HW122238   4.576   4.332   4.758  0.5624 -2.8254 -2.5148
 3535SOL    HW222239   4.647   4.386   4.862 -2.1990  0.3178 -0.5708
 3536SOL     OW22240   4.289   1.313   2.789 -0.4469  0.7358  0.1268
 3536SOL    HW122241   4.220   1.331   2.726 -2.6224 -0.4445  2.1931
 3536SOL    HW222242   4.271   1.369   2.865 -1.8922  1.6777 -0.9277
 3537SOL     OW22243   1.299   1.376  17.640  0.6703  0.4570  0.1989
 3537SOL    HW122244   1.362   1.410  17.703 -0.1101  0.9661  0.7127
 3537SOL    HW222245   1.276   1.292  17.679  1.1205 -0.0295 -0.6015
 3538SOL     OW22246   4.414   2.162   4.080  0.1743 -0.5665  0.4651
 3538SOL    HW122247   4.344   2.220   4.110 -1.1213 -2.3230  0.8090
 3538SOL    HW222248   4.455   2.213   4.010  0.4385 -1.6596 -0.1765
 3539SOL     OW22249   0.588   0.113   5.360  0.3490  0.1960 -0.4365
 3539SOL    HW122250   0.575   0.161   5.278  1.0290 -0.6694 -1.0429
 3539SOL    HW222251   0.542   0.174   5.417 -0.1160 -0.0029 -0.5958
 3540SOL     OW22252   2.107   3.078   8.464  0.1483  0.9213 -0.5295
 3540SOL    HW122253   2.131   3.169   8.478 -1.7362  1.2421  0.5284
 3540SOL    HW222254   2.017   3.066   8.436 -1.2304 -0.2405  4.4346
 3541SOL     OW22255   1.780   1.849  10.512  0.2324 -0.1975  0.5080
 3541SOL    HW122256   1.803   1.838  10.420  1.4575  1.7767  0.5825
 3541SOL    HW222257   1.688   1.868  10.497  0.1295  1.1710  2.9393
 3542SOL     OW22258   3.642   2.487   5.982  0.1858  0.4636  0.4369
 3542SOL    HW122259   3.696   2.445   5.915 -1.6582  1.2408 -1.5150
 3542SOL    HW222260   3.711   2.502   6.047  1.1229  2.9632 -1.1489
 3543SOL     OW22261   1.508   4.419   6.854  0.0938 -0.0885  0.2283
 3543SOL    HW122262   1.464   4.494   6.816 -0.3354 -0.5545 -0.1905
 3543SOL    HW222263   1.555   4.458   6.928  3.6380 -0.8592 -1.6022
 3544SOL     OW22264   0.857   1.236  11.831  0.1514  0.1478  0.1464
 3544SOL    HW122265   0.781   1.293  11.839 -0.2789 -0.2322 -1.2798
 3544SOL    HW222266   0.875   1.231  11.737 -0.4761 -1.9878  0.1380
 3545SOL     OW22267   3.439   4.225  10.455  0.2331 -0.7267 -0.4036
 3545SOL    HW122268   3.482   4.188  10.533  0.9579 -0.9380 -0.8998
 3545SOL    HW222269   3.375   4.161  10.426 -1.4218  1.4102 -1.4390
 3546SOL     OW22270   1.221   0.490   4.725 -0.2738 -0.2643 -0.0051
 3546SOL    HW122271   1.263   0.531   4.650 -3.1191  0.4341 -1.2059
 3546SOL    HW222272   1.158   0.557   4.751 -0.0875 -0.5557  1.1951
 3547SOL     OW22273   0.359   1.061   7.452 -0.4933  0.0341 -0.0301
 3547SOL    HW122274   0.323   1.117   7.521 -0.4227  0.9264 -0.7219
 3547SOL    HW222275   0.433   1.113   7.423 -1.8177  0.3913 -2.7147
 3548SOL     OW22276   1.194   0.982   0.171  0.4201  0.2798 -0.1699
 3548SOL    HW122277   1.191   0.978   0.266 -1.5026 -1.2370 -0.2945
 3548SOL    HW222278   1.146   0.905   0.140 -0.4709 -0.6274  3.5402
 3549SOL     OW22279   4.250   2.348   3.364  0.2537 -0.0520  0.6263
 3549SOL    HW122280   4.270   2.436   3.333  1.3241 -0.7785 -0.7532
 3549SOL    HW222281   4.160   2.367   3.389 -0.5280 -2.4313 -0.4074
 3550SOL     OW22282   3.535   3.489  17.582  0.3298 -0.1983  0.2421
 3550SOL    HW122283   3.488   3.493  17.499  1.7979  0.9442 -0.5532
 3550SOL    HW222284   3.599   3.560  17.568 -1.2129  1.2097  0.2998
 3551SOL     OW22285   0.614   3.322   8.855 -0.0914 -0.0659  0.0785
 3551SOL    HW122286   0.520   3.340   8.846 -0.8378 -3.9883  0.1025
 3551SOL    HW222287   0.643   3.410   8.880  2.7587 -0.1777 -2.8421
 3552SOL     OW22288   3.249   0.233  15.297 -0.2518 -0.2879 -0.3140
 3552SOL    HW122289   3.175   0.224  15.357 -1.0615  1.8234 -0.9770
 3552SOL    HW222290   3.212   0.196  15.217 -0.9422  1.9886 -1.0753
 3553SOL     OW22291   0.207   0.896   3.063  0.2154 -0.1384  0.7669
 3553SOL    HW122292   0.209   0.983   3.023 -1.1550  1.2060  3.6822
 3553SOL    HW222293   0.150   0.844   3.006 -0.0443 -0.0542  0.9526
 3554SOL     OW22294   3.938   0.254  10.310 -0.3876  0.0860 -0.3408
 3554SOL    HW122295   3.852   0.270  10.351 -0.8118 -4.2705  0.4059
 3554SOL    HW222296   3.912   0.177  10.259 -3.0319  1.1653 -0.6626
 3555SOL     OW22297   3.991   1.675  12.979 -0.1914  0.1101  0.0446
 3555SOL    HW122298   4.083   1.699  12.965 -1.0158  0.7786 -4.0552
 3555SOL    HW222299   3.981   1.675  13.074  5.5365 -1.6096  0.6711
 3556SOL     OW22300   3.870   3.440  14.062  0.4058  0.2168 -0.0440
 3556SOL    HW122301   3.929   3.497  14.012  0.4259 -0.7827 -1.1880
 3556SOL    HW222302   3.893   3.460  14.152 -0.5099 -1.2745  0.5055
 3557SOL     OW22303   2.736   4.476   6.691  0.2703  0.6237 -0.0465
 3557SOL    HW122304   2.807   4.455   6.752 -1.1325  1.7200  1.9767
 3557SOL    HW222305   2.781   4.516   6.616  1.2538 -1.7028 -0.6951
 3558SOL     OW22306   3.111   3.316   6.511  0.3058  0.1071  0.0762
 3558SOL    HW122307   3.075   3.335   6.598  0.1076  1.4602 -0.3080
 3558SOL    HW222308   3.205   3.331   6.525  0.4262 -0.1025 -0.5089
 3559SOL     OW22309   3.119   3.505   7.822  0.1815  0.5180 -0.2883
 3559SOL    HW122310   3.124   3.421   7.777  1.6773  0.5638 -0.2071
 3559SOL    HW222311   3.211   3.523   7.843  0.1205 -1.8204  1.9724
 3560SOL     OW22312   1.597   3.743   3.204 -0.2028 -0.0931  0.1904
 3560SOL    HW122313   1.577   3.717   3.114  2.9961  0.4175 -0.6524
 3560SOL    HW222314   1.567   3.673   3.262  1.6392  0.8081  2.2369
 3561SOL     OW22315   0.652   1.910   6.644 -0.1441  0.4738  0.7441
 3561SOL    HW122316   0.626   1.856   6.569  1.0467  1.3967 -0.3290
 3561SOL    HW222317   0.572   1.901   6.696 -1.0413  1.5000 -0.4515
 3562SOL     OW22318   3.249   0.798   3.875 -0.3130 -0.5557 -0.4955
 3562SOL    HW122319   3.184   0.867   3.886  0.5835  0.3904 -1.1109
 3562SOL    HW222320   3.216   0.740   3.807 -0.7513 -0.2082 -0.5774
 3563SOL     OW22321   1.149   0.830   5.849  0.1951  0.2492  0.4104
 3563SOL    HW122322   1.171   0.923   5.846  2.0872 -0.1604  1.9435
 3563SOL    HW222323   1.054   0.833   5.864 -0.1057 -1.1456 -1.2027
 3564SOL     OW22324   4.211   3.522   4.881  0.1021 -0.3925 -0.0147
 3564SOL    HW122325   4.253   3.529   4.966 -0.8204 -3.3801  0.6820
 3564SOL    HW222326   4.189   3.614   4.865  4.1032  0.2071 -1.9001
 3565SOL     OW22327   1.457   3.538  16.767 -0.5744 -0.1816 -0.0183
 3565SOL    HW122328   1.437   3.602  16.835  1.9619  2.2773 -1.6095
 3565SOL    HW222329   1.552   3.547  16.759 -0.1278 -2.4854  2.7152
 3566SOL     OW22330   1.190   2.100   3.524 -0.0006  0.6662  0.8234
 3566SOL    HW122331   1.235   2.178   3.493  1.6525 -0.3186  0.7426
 3566SOL    HW222332   1.116   2.085   3.466  1.3240 -0.6070 -0.5430
 3567SOL     OW22333   1.150   4.543   6.280 -0.2478  0.2600 -0.1346
 3567SOL    HW122334   1.217   4.552   6.348  1.2492  0.7769 -1.6806
 3567SOL    HW222335   1.085   4.592   6.330  0.6023  1.3835 -0.1255
 3568SOL     OW22336   3.712   4.014   8.170  0.5702 -0.0256  0.0931
 3568SOL    HW122337   3.718   3.983   8.079 -2.0596 -1.4218  0.3917
 3568SOL    HW222338   3.784   3.981   8.222 -1.0636  0.4060  2.6221
 3569SOL     OW22339   0.158   4.265  16.736  0.2747 -0.0132 -0.4306
 3569SOL    HW122340   0.104   4.311  16.800  0.5682 -2.7948  1.7980
 3569SOL    HW222341   0.152   4.176  16.772 -1.0742  0.8466  1.5060
 3570SOL     OW22342   2.132   1.455   7.286 -0.2921  0.0863 -0.2334
 3570SOL    HW122343   2.159   1.540   7.320  1.7242 -0.6842  0.1120
 3570SOL    HW222344   2.137   1.456   7.190 -2.1906  0.8221 -0.3142
 3571SOL     OW22345   2.587   1.274   4.461  0.0569 -0.1012 -0.1998
 3571SOL    HW122346   2.626   1.347   4.412  1.1486 -0.5229  0.0324
 3571SOL    HW222347   2.495   1.275   4.434 -0.0957  1.8129  0.3510
 3572SOL     OW22348   1.867   2.478   6.781 -0.4675  0.4221  0.5884
 3572SOL    HW122349   1.869   2.405   6.842  0.1780 -1.4704 -1.6755
 3572SOL    HW222350   1.823   2.546   6.832  0.0503  1.3253 -0.1679
 3573SOL     OW22351   1.792   1.728   1.289  0.0292  0.1552  0.8011
 3573SOL    HW122352   1.752   1.690   1.210 -0.1014 -1.1246  1.4831
 3573SOL    HW222353   1.764   1.661   1.352 -0.2573  2.1845  2.8174
 3574SOL     OW22354   1.403   2.510  13.188  0.0003  0.0398  0.2492
 3574SOL    HW122355   1.493   2.495  13.217  0.7250  2.2627 -0.8433
 3574SOL    HW222356   1.402   2.458  13.107 -0.0905  2.9962 -1.6522
 3575SOL     OW22357   0.553   0.959   0.500 -0.2310 -0.0804 -0.3199
 3575SOL    HW122358   0.611   0.905   0.447  1.4217 -0.2960  1.7592
 3575SOL    HW222359   0.593   1.044   0.479 -0.7853 -0.1281 -1.6225
 3576SOL     OW22360   2.610   3.207   4.419 -0.4268 -0.4188 -0.0833
 3576SOL    HW122361   2.592   3.291   4.376 -1.0621 -1.2022 -1.3579
 3576SOL    HW222362   2.536   3.201   4.479 -0.3626  0.5044  0.0928
 3577SOL     OW22363   2.039   3.962  12.993  0.2146 -0.1478  0.4451
 3577SOL    HW122364   2.098   3.932  13.062  1.8165  0.7101 -0.5194
 3577SOL    HW222365   1.957   3.922  13.019  0.1516  0.5048  1.2384
 3578SOL     OW22366   4.106   4.535   8.732 -0.4427  0.0586 -0.1059
 3578SOL    HW122367   4.087   4.622   8.696  2.3285  0.8711  0.3494
 3578SOL    HW222368   4.088   4.473   8.662  2.3443 -0.7732 -0.0993
 3579SOL     OW22369   0.863   4.471   6.690  0.1380  0.9075  0.4809
 3579SOL    HW122370   0.849   4.488   6.783  0.3895  1.0041  0.5002
 3579SOL    HW222371   0.779   4.432   6.663  0.5618 -0.0192  0.5247
 3580SOL     OW22372   1.345   0.618   2.923 -0.5792  0.0612 -0.1884
 3580SOL    HW122373   1.386   0.701   2.948 -0.5477  0.3807 -1.2884
 3580SOL    HW222374   1.292   0.611   3.003 -0.3316 -0.2668 -0.0556
 3581SOL     OW22375   2.370   3.311   1.019  0.1160 -0.6747  0.5107
 3581SOL    HW122376   2.409   3.397   1.036  0.2307 -0.3463 -1.3782
 3581SOL    HW222377   2.288   3.320   1.067 -0.4849  2.1524 -1.0806
 3582SOL     OW22378   3.406   0.493   2.020  0.2227  0.4474 -0.1716
 3582SOL    HW122379   3.470   0.438   2.065  0.0496  0.5499  0.2005
 3582SOL    HW222380   3.468   0.564   2.003 -0.3023  0.8807 -0.2804
 3583SOL     OW22381   1.722   0.911   3.755 -0.1241  0.0263 -0.5123
 3583SOL    HW122382   1.665   0.834   3.751  0.1942 -0.2171 -0.3052
 3583SOL    HW222383   1.739   0.924   3.662  0.1605 -0.4797 -0.5286
 3584SOL     OW22384   0.051   2.505   4.596  0.2658 -0.7754  0.3718
 3584SOL    HW122385   0.089   2.455   4.523 -0.5713 -1.5241  0.4489
 3584SOL    HW222386   0.026   2.430   4.650 -1.3907  0.8279  1.8311
 3585SOL     OW22387   2.258   3.291  16.377  0.4014  0.3168 -0.4557
 3585SOL    HW122388   2.215   3.265  16.458  0.3897  1.7287 -0.0006
 3585SOL    HW222389   2.181   3.325  16.331 -0.7568 -0.1463  1.1497
 3586SOL     OW22390   0.348   1.976   1.739  0.5936  0.3276  0.6096
 3586SOL    HW122391   0.438   2.009   1.740  0.4787  0.7925 -3.7130
 3586SOL    HW222392   0.314   2.010   1.822 -1.6861 -1.7935  0.5302
 3587SOL     OW22393   3.236   0.374   8.192 -0.2402 -0.2079 -0.2115
 3587SOL    HW122394   3.255   0.434   8.264  0.0610  0.1342 -0.5734
 3587SOL    HW222395   3.143   0.389   8.179 -0.4069 -1.2202 -0.1799
 3588SOL     OW22396   1.480   0.398  11.214  0.2161 -0.9002 -0.0302
 3588SOL    HW122397   1.548   0.343  11.174  0.4887 -1.3342  1.0461
 3588SOL    HW222398   1.409   0.382  11.152 -0.6998 -0.2799  0.8717
 3589SOL     OW22399   0.297   2.631   2.473 -0.0819 -0.0071 -0.1441
 3589SOL    HW122400   0.204   2.643   2.452  0.8190  3.5688 -1.9273
 3589SOL    HW222401   0.304   2.726   2.470  1.3053 -0.1414 -1.1749
 3590SOL     OW22402   4.192   4.322   7.800 -0.0128  0.6321 -0.1406
 3590SOL    HW122403   4.190   4.396   7.861  2.3472  0.5493  0.0327
 3590SOL    HW222404   4.111   4.338   7.752  0.3437 -0.6755 -1.2025
 3591SOL     OW22405   2.359   1.861  12.884 -0.4963  0.1791 -0.2376
 3591SOL    HW122406   2.315   1.836  12.965  0.1118 -0.0670  0.0179
 3591SOL    HW222407   2.384   1.778  12.845 -2.0125 -0.8468  0.9814
 3592SOL     OW22408   2.668   3.858   6.449 -0.5133 -0.2153 -0.2778
 3592SOL    HW122409   2.720   3.901   6.381 -0.6022  3.0792  1.7072
 3592SOL    HW222410   2.667   3.934   6.508  0.7326 -0.6711  0.3293
 3593SOL     OW22411   0.234   2.849   7.288 -0.4820 -0.1184  0.6146
 3593SOL    HW122412   0.268   2.882   7.205  0.5881 -1.7475  0.4017
 3593SOL    HW222413   0.153   2.900   7.295  0.1872  1.2660 -1.8127
 3594SOL     OW22414   3.737   4.548   3.306 -0.1662 -0.2893  0.3213
 3594SOL    HW122415   3.749   4.487   3.379 -5.4004  2.3796  3.4829
 3594SOL    HW222416   3.815   4.536   3.253 -1.7959 -0.6530 -2.0108
 3595SOL     OW22417   2.067   0.400   2.326 -0.0797 -0.1928 -0.5651
 3595SOL    HW122418   2.016   0.423   2.248 -1.5837 -0.4373  0.3584
 3595SOL    HW222419   2.105   0.485   2.347  1.2954 -1.4066  1.8599
 3596SOL     OW22420   2.490   1.922  12.383  0.1839  0.1162  0.2987
 3596SOL    HW122421   2.497   2.004  12.334 -0.6834 -0.5531 -0.9382
 3596SOL    HW222422   2.478   1.856  12.315  1.5506  1.0951 -0.8932
 3597SOL     OW22423   4.008   4.279   3.730 -0.6002 -0.6832 -0.2528
 3597SOL    HW122424   4.090   4.232   3.745  1.2633  1.2641 -4.2916
 3597SOL    HW222425   3.963   4.252   3.810  0.1817  0.8887  0.7272
 3598SOL     OW22426   3.508   4.048  12.991 -0.1470 -0.3505  0.1310
 3598SOL    HW122427   3.424   4.013  13.020 -0.3892 -0.8440 -1.1661
 3598SOL    HW222428   3.515   3.994  12.912  0.1974  0.0229 -0.0968
 3599SOL     OW22429   1.720   1.886   5.279  0.3749  0.6463 -0.3542
 3599SOL    HW122430   1.717   1.981   5.283  2.3657  0.7245 -0.9761
 3599SOL    HW222431   1.812   1.866   5.293  0.2150  0.4960  0.4804
 3600SOL     OW22432   3.169   1.236   4.761  0.1856  0.7126 -1.0860
 3600SOL    HW122433   3.159   1.202   4.672  0.4407  1.0867 -1.2595
 3600SOL    HW222434   3.098   1.201   4.816  1.9610 -0.0326  0.7139
 3601SOL     OW22435   1.217   3.548  16.236  0.0602 -0.4212 -0.6821
 3601SOL    HW122436   1.201   3.473  16.180 -1.7763  0.5008 -1.3931
 3601SOL    HW222437   1.211   3.508  16.323 -2.0091 -0.5097 -0.8585
 3602SOL     OW22438   4.184   3.383   9.448 -0.7339  0.4806 -0.0166
 3602SOL    HW122439   4.208   3.290   9.445 -0.3101  0.5331  1.3811
 3602SOL    HW222440   4.170   3.392   9.543  0.4962 -0.6351  0.2853
 3603SOL     OW22441   0.246   0.082   1.644  0.3927  0.0156  0.1982
 3603SOL    HW122442   0.185   0.077   1.717  0.6951 -1.8150  0.3326
 3603SOL    HW222443   0.324   0.047   1.688 -0.5059 -1.0004  0.9690
 3604SOL     OW22444   1.895   0.624  12.507 -0.0012 -0.6884 -0.2647
 3604SOL    HW122445   1.836   0.699  12.516 -0.8258 -1.0230 -3.0483
 3604SOL    HW222446   1.842   0.547  12.525 -0.1896  0.3495  3.7502
 3605SOL     OW22447   1.794   3.763   5.525  0.2299 -0.2095  0.1020
 3605SOL    HW122448   1.743   3.841   5.548  0.7052 -0.2239  1.1967
 3605SOL    HW222449   1.833   3.742   5.610 -1.2765 -0.1001  0.8116
 3606SOL     OW22450   4.139   2.190   8.454 -0.2110 -0.0176 -0.3513
 3606SOL    HW122451   4.179   2.266   8.496  1.3771 -1.7205  1.2255
 3606SOL    HW222452   4.139   2.222   8.364 -2.4376 -3.5313 -1.6047
 3607SOL     OW22453   2.427   2.480   1.986  0.6482  0.6186  0.2763
 3607SOL    HW122454   2.349   2.523   2.022 -0.7643 -0.7059 -1.1817
 3607SOL    HW222455   2.491   2.479   2.057  0.4788  0.5842  0.4283
 3608SOL     OW22456   0.112   2.384   8.566  0.2332  0.0662  0.0816
 3608SOL    HW122457   0.180   2.317   8.565  1.6513  1.4934  1.0107
 3608SOL    HW222458   0.126   2.408   8.657 -3.0480  1.4382  0.2231
 3609SOL     OW22459   4.545   2.470   7.727  0.1072 -0.9678  0.3981
 3609SOL    HW122460   4.631   2.470   7.769  0.0752 -1.0933  0.4621
 3609SOL    HW222461   4.528   2.376   7.737 -0.2992 -1.1842 -2.2691
 3610SOL     OW22462   4.400   2.260   3.601  0.3059  0.1496 -0.0639
 3610SOL    HW122463   4.368   2.315   3.672 -1.1304 -0.6845 -0.0441
 3610SOL    HW222464   4.337   2.283   3.532  0.3224  2.8495  0.8632
 3611SOL     OW22465   0.946   1.146  14.587  0.0987 -1.0908  0.1421
 3611SOL    HW122466   0.905   1.186  14.510  0.7619  0.5475  0.6423
 3611SOL    HW222467   0.866   1.108  14.625 -0.5042 -2.0540 -2.0720
 3612SOL     OW22468   3.854   2.751   9.651  0.2933  0.1042  0.7836
 3612SOL    HW122469   3.853   2.789   9.738  1.5037  0.8592  0.4665
 3612SOL    HW222470   3.925   2.691   9.672  0.0270 -0.7953 -0.8691
 3613SOL     OW22471   1.948   1.581   6.598 -0.1644 -0.1718  0.7852
 3613SOL    HW122472   1.874   1.611   6.547 -0.1265 -1.0896  0.1820
 3613SOL    HW222473   2.016   1.543   6.541  1.3190  0.0101  2.4433
 3614SOL     OW22474   4.688   1.822   3.896 -0.0873 -0.2252  0.7580
 3614SOL    HW122475   4.638   1.796   3.819  1.7048  1.5153 -0.9907
 3614SOL    HW222476   4.724   1.907   3.872  0.2747 -0.9560 -1.2408
 3615SOL     OW22477   1.289   1.823   5.007 -0.1677 -0.5514  0.1984
 3615SOL    HW122478   1.309   1.904   4.961 -1.7921 -0.1210  0.2524
 3615SOL    HW222479   1.377   1.790   5.027  0.6536  1.9022  0.5713
 3616SOL     OW22480   4.424   3.034  11.842  0.0191 -0.4217 -0.2321
 3616SOL    HW122481   4.371   3.009  11.766  0.4234  0.2977 -0.7566
 3616SOL    HW222482   4.418   2.956  11.896 -2.1994 -0.7737 -1.0022
 3617SOL     OW22483   2.829   4.426   6.173 -0.0873  0.0326 -0.0083
 3617SOL    HW122484   2.869   4.344   6.201 -2.2697 -0.8479  0.5498
 3617SOL    HW222485   2.778   4.415   6.093  0.8134 -1.2735 -0.4022
 3618SOL     OW22486   2.496   2.706   5.039  0.5358 -0.2672  0.1383
 3618SOL    HW122487   2.579   2.733   5.079  0.8562 -1.7974  0.5364
 3618SOL    HW222488   2.514   2.699   4.946  0.1249 -2.3231  0.2055
 3619SOL     OW22489   2.434   0.081  10.108 -0.0961 -0.4788  0.3150
 3619SOL    HW122490   2.464   0.073  10.198 -0.1226 -2.0908  0.1742
 3619SOL    HW222491   2.343   0.051  10.116  0.0070 -0.5578  1.1913
 3620SOL     OW22492   0.041   4.714   6.855  0.3586  0.5514 -0.1524
 3620SOL    HW122493   0.023   4.673   6.939 -0.4290 -2.4974 -1.7741
 3620SOL    HW222494   4.693   4.721   6.808  0.0536 -0.2170  0.2845
 3621SOL     OW22495   0.015   2.668   2.951 -0.8220 -0.2164  0.2364
 3621SOL    HW122496   4.734   2.575   2.939  0.2846 -0.3338 -0.3281
 3621SOL    HW222497   0.049   2.661   3.040 -2.7230  0.6222  1.0263
 3622SOL     OW22498   4.339   1.182   6.458 -0.1395 -0.5980  0.8624
 3622SOL    HW122499   4.345   1.257   6.518  1.9607 -1.3427  1.5867
 3622SOL    HW222500   4.395   1.116   6.499 -1.3588 -0.7199  2.3243
 3623SOL     OW22501   3.527   0.427  14.052  0.1850  0.4983 -0.1236
 3623SOL    HW122502   3.591   0.480  14.005  0.9743  1.6156  2.2297
 3623SOL    HW222503   3.503   0.357  13.990  0.8625 -0.7300  0.9919
 3624SOL     OW22504   1.635   3.482   4.363  0.3035  0.3283  0.2230
 3624SOL    HW122505   1.577   3.542   4.409 -0.5465 -0.4509  0.1629
 3624SOL    HW222506   1.580   3.449   4.292  0.5865 -0.6157  0.4293
 3625SOL     OW22507   4.586   1.732   2.387 -0.0709 -0.2440 -0.3189
 3625SOL    HW122508   4.530   1.783   2.328  0.7461 -0.5212 -1.3280
 3625SOL    HW222509   4.518   1.692   2.441  0.4494 -0.6402  0.0390
 3626SOL     OW22510   2.737   0.841   3.642 -0.4227 -0.3553 -0.6404
 3626SOL    HW122511   2.762   0.908   3.706 -0.5986  0.1807 -1.1291
 3626SOL    HW222512   2.673   0.894   3.595 -0.3766  0.7512  0.5482
 3627SOL     OW22513   0.921   0.292   1.819  0.0496  0.4533  0.6972
 3627SOL    HW122514   0.848   0.251   1.866  0.2418  1.7029  2.0876
 3627SOL    HW222515   0.995   0.250   1.863 -1.4213 -0.6379  2.1471
 3628SOL     OW22516   0.460   2.387   0.107 -0.6416  0.6779 -0.0775
 3628SOL    HW122517   0.375   2.379   0.150 -0.7728 -1.6001 -0.7630
 3628SOL    HW222518   0.517   2.354   0.176  0.2541 -0.6996 -1.4799
 3629SOL     OW22519   2.428   0.055  12.831  0.4924 -0.5615  0.1261
 3629SOL    HW122520   2.439   0.112  12.907 -0.8481 -1.2568  0.8425
 3629SOL    HW222521   2.460   0.118  12.767  0.3793  0.3038  0.9152
 3630SOL     OW22522   1.830   4.064   3.902  0.2436  0.2766 -0.1065
 3630SOL    HW122523   1.751   4.069   3.847 -1.0004 -2.3028  1.4398
 3630SOL    HW222524   1.826   3.977   3.941 -0.6035  0.2376 -0.2755
 3631SOL     OW22525   4.157   1.965  11.495 -0.0150 -0.6886 -0.2592
 3631SOL    HW122526   4.128   1.956  11.586  0.5624  2.1239  0.1865
 3631SOL    HW222527   4.212   1.887  11.488 -0.0828 -0.7854  0.2440
 3632SOL     OW22528   1.194   2.411   9.166  0.2594 -0.4186 -0.0712
 3632SOL    HW122529   1.251   2.484   9.142 -1.6793  0.6043 -1.5606
 3632SOL    HW222530   1.111   2.456   9.151  0.8074  0.5303 -0.2690
 3633SOL     OW22531   2.204   0.257   1.887  0.8575 -0.0386 -0.1512
 3633SOL    HW122532   2.122   0.207   1.884  0.8092  0.1751 -2.4840
 3633SOL    HW222533   2.167   0.345   1.895 -1.0440 -0.6161 -2.6789
 3634SOL     OW22534   0.484   1.681   8.395  0.2054 -0.1027 -0.7765
 3634SOL    HW122535   0.472   1.602   8.448  1.9789  1.0447  1.3418
 3634SOL    HW222536   0.520   1.741   8.461 -0.0370 -1.9806  1.0700
 3635SOL     OW22537   0.203   2.422   8.845  0.3026 -0.3040  0.3044
 3635SOL    HW122538   0.155   2.397   8.925  0.3890  0.5234  0.6066
 3635SOL    HW222539   0.259   2.344   8.844  0.6845 -0.0556  2.6092
 3636SOL     OW22540   1.884   4.111   7.104 -0.0232 -0.3769 -0.0089
 3636SOL    HW122541   1.912   4.200   7.125  1.0096 -0.7202  0.0565
 3636SOL    HW222542   1.895   4.107   7.009 -0.5175 -0.2509 -0.0730
 3637SOL     OW22543   0.808   3.360   9.625 -0.0088  0.5115 -0.3766
 3637SOL    HW122544   0.765   3.285   9.583  0.0091 -0.1363  0.7480
 3637SOL    HW222545   0.735   3.380   9.685  0.4280  2.3304 -0.4847
 3638SOL     OW22546   2.039   0.453   3.951 -0.1827 -0.4674  0.3354
 3638SOL    HW122547   2.050   0.497   4.035 -0.5152 -1.3777  0.8647
 3638SOL    HW222548   2.029   0.363   3.983  1.0158  0.0414  2.1416
 3639SOL     OW22549   2.978   0.611   6.623 -0.0621  0.1228  0.4828
 3639SOL    HW122550   3.016   0.562   6.550 -0.6752 -1.0552  0.9628
 3639SOL    HW222551   3.052   0.635   6.679 -0.5009  0.3185  0.9708
 3640SOL     OW22552   2.685   1.204  13.098 -0.4258 -0.0148 -0.6987
 3640SOL    HW122553   2.603   1.252  13.108  0.7716  1.8926 -0.0967
 3640SOL    HW222554   2.687   1.164  13.185 -2.1197 -0.9207 -1.0685
 3641SOL     OW22555   4.094   0.827   1.819  0.0482 -0.1799 -0.0961
 3641SOL    HW122556   3.999   0.839   1.820 -0.1569 -1.7233 -0.7788
 3641SOL    HW222557   4.095   0.731   1.819  2.0869 -0.1566  4.0021
 3642SOL     OW22558   3.243   3.798   4.504 -0.0651 -0.1384  0.1988
 3642SOL    HW122559   3.159   3.828   4.469 -0.5172  0.4858  1.8002
 3642SOL    HW222560   3.260   3.716   4.458  0.5031  1.5746 -2.6391
 3643SOL     OW22561   3.423   2.339   3.858 -0.1907 -0.7031 -0.3461
 3643SOL    HW122562   3.464   2.308   3.778 -0.1252  1.2567 -1.0762
 3643SOL    HW222563   3.470   2.422   3.866  0.0020 -1.0109  1.6278
 3644SOL     OW22564   0.636   0.580  15.375  0.2872  0.1460 -0.0133
 3644SOL    HW122565   0.631   0.672  15.349  1.5523  0.0345 -0.6378
 3644SOL    HW222566   0.587   0.539  15.304 -0.4300  1.8717 -0.4963
 3645SOL     OW22567   0.230   3.417   8.458  0.3913 -0.4135 -0.6140
 3645SOL    HW122568   0.211   3.463   8.376 -1.5471 -2.7280 -1.4693
 3645SOL    HW222569   0.167   3.451   8.522  0.8705  2.1156 -1.4981
 3646SOL     OW22570   0.730   3.168   8.620 -0.3257  0.1194  0.4949
 3646SOL    HW122571   0.647   3.122   8.607 -1.2782  1.4443  1.8228
 3646SOL    HW222572   0.712   3.226   8.695  0.6504  0.8891  0.1392
 3647SOL     OW22573   1.333   1.261   4.018 -0.1244  0.0109 -0.9492
 3647SOL    HW122574   1.367   1.305   4.095  0.0176 -1.7201 -0.0224
 3647SOL    HW222575   1.362   1.321   3.949 -0.8132 -0.1276 -1.3670
 3648SOL     OW22576   3.909   1.221   5.045  0.2430  0.5692  0.3905
 3648SOL    HW122577   3.999   1.204   5.020 -0.6532 -0.4792 -2.0837
 3648SOL    HW222578   3.919   1.299   5.101  1.7407  0.6041  0.0560
 3649SOL     OW22579   0.439   1.558  14.408  0.5888  0.8578 -0.5097
 3649SOL    HW122580   0.346   1.555  14.387 -0.2086 -1.8747  3.3947
 3649SOL    HW222581   0.459   1.632  14.351 -1.1131  1.4779 -0.2872
 3650SOL     OW22582   2.198   1.975  14.639 -0.6067  0.1547  0.0784
 3650SOL    HW122583   2.173   1.938  14.554  1.9413  0.3624 -0.7796
 3650SOL    HW222584   2.235   1.897  14.681 -1.6816 -1.7842 -2.5729
 3651SOL     OW22585   4.372   1.808   8.790 -0.0412  0.3380  0.3628
 3651SOL    HW122586   4.278   1.803   8.811 -0.5486  0.6535 -1.7280
 3651SOL    HW222587   4.374   1.797   8.695 -1.1215 -1.9550  0.6058
 3652SOL     OW22588   3.327   1.839  13.919 -0.4637 -0.3121 -0.2500
 3652SOL    HW122589   3.239   1.870  13.938 -0.1677  1.2872 -1.4722
 3652SOL    HW222590   3.351   1.842  14.011  0.6582  1.7021 -0.6065
 3653SOL     OW22591   2.867   2.007  10.032 -0.3221  0.0470  0.1252
 3653SOL    HW122592   2.937   1.962  10.079 -1.8234 -1.1379  1.1947
 3653SOL    HW222593   2.917   2.063   9.972  0.1653 -1.7471 -1.1281
 3654SOL     OW22594   3.374   3.419   2.554  0.0662  0.0766  0.3594
 3654SOL    HW122595   3.309   3.468   2.605 -0.3248 -0.7275  0.6280
 3654SOL    HW222596   3.332   3.334   2.546  1.8094 -0.6582 -0.7792
 3655SOL     OW22597   2.909   3.255  16.285 -0.1188 -0.0701 -0.2707
 3655SOL    HW122598   2.972   3.278  16.216 -1.1838  1.4901 -0.7197
 3655SOL    HW222599   2.833   3.236  16.230 -1.7315  0.2651  1.8486
 3656SOL     OW22600   0.635   2.743   2.979  0.6205 -0.1293  0.3697
 3656SOL    HW122601   0.668   2.807   2.917 -0.9840 -2.3396 -2.7783
 3656SOL    HW222602   0.673   2.667   2.934 -0.7725  0.4040 -1.7127
 3657SOL     OW22603   2.064   3.475  15.249 -0.5774  0.1136 -0.5266
 3657SOL    HW122604   2.028   3.390  15.272  1.0386 -0.4933 -0.2463
 3657SOL    HW222605   2.132   3.452  15.186 -0.1514  2.2040 -0.8228
 3658SOL     OW22606   3.832   0.443  16.144 -0.2919  0.2247 -0.0962
 3658SOL    HW122607   3.745   0.414  16.171 -0.8477  2.4515  0.5316
 3658SOL    HW222608   3.867   0.426  16.231 -0.7034  0.0241  0.0304
 3659SOL     OW22609   0.396   3.663   6.840 -0.5672 -0.1010  0.0853
 3659SOL    HW122610   0.404   3.697   6.751 -0.5372  1.1518  0.5559
 3659SOL    HW222611   0.465   3.714   6.881  0.3170 -0.8589 -0.4566
 3660SOL     OW22612   4.242   3.464  11.432 -0.1540  0.0989 -0.1567
 3660SOL    HW122613   4.260   3.554  11.459 -1.8839  0.0949  1.0187
 3660SOL    HW222614   4.200   3.425  11.508 -1.5107  0.6198 -0.6435
 3661SOL     OW22615   0.788   0.145   8.349  0.4130 -0.0240 -0.0207
 3661SOL    HW122616   0.869   0.192   8.370  0.4875  0.0057 -0.3771
 3661SOL    HW222617   0.802   0.123   8.257  0.0305  1.2846 -0.3850
 3662SOL     OW22618   4.128   3.795   7.734 -0.1468 -0.0433 -0.0520
 3662SOL    HW122619   4.110   3.800   7.640 -1.2396 -2.4835  0.0498
 3662SOL    HW222620   4.141   3.887   7.759  0.9138 -0.0803 -0.4212
 3663SOL     OW22621   2.192   4.390   8.110 -0.1135 -0.2297  0.5542
 3663SOL    HW122622   2.131   4.324   8.075  1.0485 -1.1988  0.3609
 3663SOL    HW222623   2.131   4.450   8.153 -0.1778  1.4802 -1.9407
 3664SOL     OW22624   2.312   3.149   7.681  0.2245 -0.0490  0.0838
 3664SOL    HW122625   2.308   3.142   7.585 -1.7644  0.3206  0.1309
 3664SOL    HW222626   2.345   3.062   7.702  1.0501 -0.1018 -1.3804
 3665SOL     OW22627   4.210   4.667  10.676  0.4826  0.0286 -0.7683
 3665SOL    HW122628   4.152   0.004  10.649  1.5675  0.8085 -1.0124
 3665SOL    HW222629   4.208   4.624  10.590  0.6809 -0.0350 -0.7401
 3666SOL     OW22630   1.374   2.604   8.088  0.4136  0.4875 -0.4494
 3666SOL    HW122631   1.376   2.552   8.008  0.0916  2.7459 -1.9146
 3666SOL    HW222632   1.461   2.641   8.102 -0.6670  3.4639 -1.6715
 3667SOL     OW22633   3.538   3.802   1.746  0.3203 -0.2129  0.1846
 3667SOL    HW122634   3.487   3.867   1.794 -0.5635 -1.0622  0.3832
 3667SOL    HW222635   3.468   3.739   1.736  1.6570 -1.7584  0.5788
 3668SOL     OW22636   2.573   0.980   2.312  0.9938  0.3367  0.9455
 3668SOL    HW122637   2.597   1.012   2.225  2.1923 -0.3517  1.0223
 3668SOL    HW222638   2.628   0.902   2.315 -1.6005 -1.5649 -1.2089
 3669SOL     OW22639   2.367   0.980   5.294 -0.0609 -0.7960  0.3290
 3669SOL    HW122640   2.349   0.972   5.201 -1.0863  1.6442  0.3323
 3669SOL    HW222641   2.295   0.934   5.337 -1.1747 -1.3519 -2.1801
 3670SOL     OW22642   4.603   3.659  13.959 -0.1683 -0.1260  0.5526
 3670SOL    HW122643   4.615   3.624  13.871  1.7029 -0.5813  0.9986
 3670SOL    HW222644   4.507   3.655  13.958 -0.1384 -0.4054 -1.1379
 3671SOL     OW22645   3.557   2.879   3.934 -0.0060  0.1991  0.1257
 3671SOL    HW122646   3.499   2.808   3.908  1.3880 -0.6705 -0.6170
 3671SOL    HW222647   3.595   2.912   3.852  0.2859 -0.8434 -0.1604
 3672SOL     OW22648   2.762   3.925   6.861  0.1130  0.2741 -0.6959
 3672SOL    HW122649   2.683   3.948   6.910 -0.1150  0.2886 -1.0702
 3672SOL    HW222650   2.815   3.996   6.897 -0.1612  0.4647 -0.6648
 3673SOL     OW22651   1.855   4.439   2.753  0.0213 -0.5668  0.2607
 3673SOL    HW122652   1.914   4.364   2.747 -0.1103 -0.4036 -2.8418
 3673SOL    HW222653   1.895   4.488   2.681 -1.9375  1.1192  0.3074
 3674SOL     OW22654   4.218   2.578   3.926 -0.2363 -0.2355  0.1633
 3674SOL    HW122655   4.252   2.664   3.900 -0.1489 -0.2678  0.1711
 3674SOL    HW222656   4.144   2.602   3.982 -2.8846 -1.3975 -2.8235
 3675SOL     OW22657   4.591   3.754   4.116  0.1132 -0.6465  0.2424
 3675SOL    HW122658   4.519   3.697   4.143  1.1666 -2.1303 -0.1008
 3675SOL    HW222659   4.615   3.785   4.204  1.0266  0.3046 -0.3407
 3676SOL     OW22660   2.767   0.272   5.161  0.2240  0.5344  0.3390
 3676SOL    HW122661   2.827   0.346   5.174  1.6868 -0.6987  0.6332
 3676SOL    HW222662   2.810   0.236   5.084 -0.6646 -3.9589  1.9210
 3677SOL     OW22663   4.005   1.608   5.424  0.2994 -0.0454 -0.0482
 3677SOL    HW122664   3.917   1.613   5.460  1.1840  1.5447  1.8927
 3677SOL    HW222665   3.985   1.675   5.359 -1.5989 -0.3477  0.2419
 3678SOL     OW22666   0.316   2.074   2.823 -0.2896 -0.8194 -0.0881
 3678SOL    HW122667   0.230   2.100   2.788  0.3314  2.7522  0.9801
 3678SOL    HW222668   0.321   1.982   2.797  0.1084 -0.8185 -0.0101
 3679SOL     OW22669   0.999   4.690   8.953  0.7590  0.1666  0.3307
 3679SOL    HW122670   0.980   4.601   8.923  0.2935  0.0591  0.9488
 3679SOL    HW222671   1.075   4.675   9.009 -0.2167  0.0389  1.6210
 3680SOL     OW22672   0.614   4.242   0.568 -0.4125  0.5433 -0.2696
 3680SOL    HW122673   0.652   4.161   0.536 -0.1180 -0.1493  1.8377
 3680SOL    HW222674   0.660   4.258   0.651  0.5078 -0.0883 -0.6666
 3681SOL     OW22675   2.622   0.114   6.886 -0.5275  0.3328 -0.3843
 3681SOL    HW122676   2.678   0.192   6.891  1.7870 -1.2385 -1.5612
 3681SOL    HW222677   2.574   0.117   6.969 -0.1659  1.7659 -0.2171
 3682SOL     OW22678   0.477   1.855   2.290  0.3401  0.2965  0.1946
 3682SOL    HW122679   0.424   1.849   2.211 -0.9448 -2.8774  1.2940
 3682SOL    HW222680   0.534   1.930   2.273 -0.9702  1.1065 -0.6415
 3683SOL     OW22681   1.149   1.435   3.411 -0.1133  0.1228  0.1626
 3683SOL    HW122682   1.186   1.373   3.474 -1.5958 -0.4913  0.4252
 3683SOL    HW222683   1.133   1.503   3.475 -0.3151  1.9237 -1.7887
 3684SOL     OW22684   2.801   3.398   0.430  0.7699  0.0801 -0.1467
 3684SOL    HW122685   2.732   3.457   0.462  0.4851 -0.0591 -0.5065
 3684SOL    HW222686   2.783   3.399   0.336 -1.6977  1.2106  0.3229
 3685SOL     OW22687   1.752   0.261  12.498 -0.5296 -0.3692  0.1910
 3685SOL    HW122688   1.788   0.293  12.580 -1.3015  1.3119 -0.1406
 3685SOL    HW222689   1.783   0.316  12.427 -1.8522  0.8112  0.5256
 3686SOL     OW22690   2.903   2.277   4.974 -0.0701  0.5953 -0.0836
 3686SOL    HW122691   2.846   2.207   5.008 -1.1328  2.0375  1.1356
 3686SOL    HW222692   2.976   2.224   4.944  0.1820  0.3887  0.8850
 3687SOL     OW22693   4.010   0.656  15.838 -0.3710 -0.1473  0.1686
 3687SOL    HW122694   4.021   0.626  15.748  0.1628 -1.2958  0.6051
 3687SOL    HW222695   3.966   0.741  15.837  0.3890  0.2314 -0.5864
 3688SOL     OW22696   1.997   3.258   2.714 -0.2264 -0.6968  0.3617
 3688SOL    HW122697   1.925   3.320   2.723 -0.2817 -0.7441  0.2524
 3688SOL    HW222698   2.076   3.309   2.730 -0.0642 -1.0615  0.7276
 3689SOL     OW22699   1.065   3.228   6.827 -0.6180 -0.3066  0.3597
 3689SOL    HW122700   1.007   3.185   6.765  0.0417  2.9415 -2.4832
 3689SOL    HW222701   1.117   3.289   6.774 -1.6203  1.4345  1.3781
 3690SOL     OW22702   0.895   4.378   9.270  0.6563  0.3690 -0.0397
 3690SOL    HW122703   0.894   4.290   9.232 -2.1945  1.2643 -2.0941
 3690SOL    HW222704   0.962   4.362   9.336 -0.4630 -0.6525  0.8540
 3691SOL     OW22705   0.150   4.650   3.675 -0.2163 -0.2145  0.8212
 3691SOL    HW122706   0.161   4.730   3.725  1.4970  1.3279 -2.0024
 3691SOL    HW222707   0.060   4.656   3.644 -0.2262 -2.0941  0.4462
 3692SOL     OW22708   2.261   1.433  17.456 -0.1540  0.2902  0.6014
 3692SOL    HW122709   2.213   1.492  17.515  2.6287  0.6845  2.4531
 3692SOL    HW222710   2.319   1.493  17.410  0.2418  0.1731  0.9529
 3693SOL     OW22711   2.649   4.328   5.366 -0.0379 -0.4741  0.1098
 3693SOL    HW122712   2.562   4.291   5.376 -1.1075  1.7612 -0.9095
 3693SOL    HW222713   2.688   4.262   5.308 -0.2966  0.1614 -0.7813
 3694SOL     OW22714   3.859   0.729   6.752 -0.2027  0.1231 -0.2481
 3694SOL    HW122715   3.786   0.791   6.756 -0.7186 -0.3798 -2.0962
 3694SOL    HW222716   3.942   0.775   6.766  0.3505 -0.8061 -0.4939
 3695SOL     OW22717   4.128   2.870   6.130  0.4132  0.0773 -0.4663
 3695SOL    HW122718   4.221   2.849   6.143  0.4063  1.1706  1.2868
 3695SOL    HW222719   4.092   2.789   6.094  0.6091 -0.6056  0.8800
 3696SOL     OW22720   0.249   0.350   5.911 -0.1095 -0.2763 -0.1350
 3696SOL    HW122721   0.321   0.345   5.975  1.1003  1.9751 -1.2987
 3696SOL    HW222722   0.188   0.401   5.963  0.9514 -0.1422  0.9863
 3697SOL     OW22723   2.463   3.779   2.452 -0.3209 -0.3491  0.2513
 3697SOL    HW122724   2.553   3.769   2.421 -0.5561  0.6887 -0.7502
 3697SOL    HW222725   2.467   3.794   2.546  1.7622 -0.8892  0.2462
 3698SOL     OW22726   0.270   3.398  13.382  0.6222  0.7995 -0.3271
 3698SOL    HW122727   0.199   3.410  13.444 -1.9850  1.4352 -3.4712
 3698SOL    HW222728   0.229   3.399  13.296 -1.2177 -1.2342  0.5203
 3699SOL     OW22729   4.419   4.630  10.216  0.9843 -0.4815  0.5669
 3699SOL    HW122730   4.454   4.662  10.132 -0.5681  1.9251  0.8288
 3699SOL    HW222731   4.464   4.545  10.216  1.7594 -0.0759 -0.0182
 3700SOL     OW22732   1.062   2.401   4.892 -0.8358 -0.1428  0.0200
 3700SOL    HW122733   1.047   2.314   4.855 -2.2424 -0.4734  1.3792
 3700SOL    HW222734   1.153   2.401   4.923  0.5690  1.6583 -4.0170
 3701SOL     OW22735   3.981   3.785  13.817  0.3819  0.2380  0.2016
 3701SOL    HW122736   3.915   3.819  13.758  0.5664  0.5244  0.1594
 3701SOL    HW222737   4.005   3.705  13.770  3.4984  1.4280 -0.2456
 3702SOL     OW22738   4.591   4.467   5.590 -0.4085 -0.4050  0.6448
 3702SOL    HW122739   4.642   4.476   5.670 -0.9643  1.5803  0.7833
 3702SOL    HW222740   4.505   4.430   5.608 -1.1338  0.1664 -1.5407
 3703SOL     OW22741   3.623   4.291   6.785 -0.3218  0.0031  0.4964
 3703SOL    HW122742   3.702   4.288   6.731 -0.7100  2.2252 -0.2472
 3703SOL    HW222743   3.604   4.200   6.803  1.0847 -0.5155 -0.6332
 3704SOL     OW22744   3.447   3.886   2.272  0.0892 -0.0688  0.5126
 3704SOL    HW122745   3.386   3.931   2.331  1.3706 -1.4067  2.8355
 3704SOL    HW222746   3.381   3.850   2.212 -0.7655  2.9684 -0.3636
 3705SOL     OW22747   2.820   0.999   2.952  0.1735  0.2717  0.2378
 3705SOL    HW122748   2.809   0.935   3.022  2.0219  0.3817  0.6404
 3705SOL    HW222749   2.903   1.046   2.964  0.9060 -0.3230 -2.5286
 3706SOL     OW22750   0.561   3.586   4.319  0.6280  0.5241 -0.3830
 3706SOL    HW122751   0.609   3.619   4.243 -0.2802 -1.1955 -1.7034
 3706SOL    HW222752   0.508   3.665   4.330 -0.1427 -0.3112  1.9115
 3707SOL     OW22753   3.395   2.731   3.637 -0.4474  0.3761 -0.1445
 3707SOL    HW122754   3.369   2.814   3.596 -0.2070  0.6326  0.2249
 3707SOL    HW222755   3.484   2.718   3.605 -0.3987  0.3565 -0.0003
 3708SOL     OW22756   0.661   0.606  16.931  0.1948  0.1074  0.0899
 3708SOL    HW122757   0.683   0.532  16.987  0.1956 -0.4970 -0.7052
 3708SOL    HW222758   0.657   0.560  16.847 -3.5196 -3.0420  2.0068
 3709SOL     OW22759   0.625   0.060   7.483  0.1461 -0.0934 -0.1338
 3709SOL    HW122760   0.555   0.032   7.542  1.1838 -1.7953  0.2894
 3709SOL    HW222761   0.677   4.715   7.492 -0.1449 -0.1806  0.7641
 3710SOL     OW22762   1.197   2.778   5.304  0.1805 -0.0398  0.2139
 3710SOL    HW122763   1.273   2.781   5.247  1.2665  0.9945  1.7355
 3710SOL    HW222764   1.167   2.868   5.293  1.6693  0.5432  0.9937
 3711SOL     OW22765   1.665   0.377   5.358  0.0687 -0.3079  0.4508
 3711SOL    HW122766   1.609   0.436   5.408  0.3800 -0.9901  1.6076
 3711SOL    HW222767   1.700   0.442   5.298  1.1754 -2.2300 -0.9978
 3712SOL     OW22768   2.470   4.447   2.013 -0.5214  0.4036 -0.3745
 3712SOL    HW122769   2.391   4.394   2.012  0.2728 -0.7662 -0.7208
 3712SOL    HW222770   2.495   4.451   1.921 -1.5526 -2.1045 -0.7454
 3713SOL     OW22771   1.789   0.328  13.908  0.2294 -0.0121  0.5026
 3713SOL    HW122772   1.746   0.360  13.987 -0.9466  1.0544 -0.5968
 3713SOL    HW222773   1.797   0.404  13.851  0.9727 -0.1200  0.4612
 3714SOL     OW22774   2.328   1.688   6.065  0.5682  0.1392  0.7523
 3714SOL    HW122775   2.310   1.747   6.138  0.5289 -0.5164  1.2669
 3714SOL    HW222776   2.270   1.737   6.006 -2.3348 -1.6524  2.1320
 3715SOL     OW22777   3.625   4.301   3.718 -0.0092  0.3799 -0.1348
 3715SOL    HW122778   3.533   4.276   3.723  0.5401 -2.0120 -1.5944
 3715SOL    HW222779   3.626   4.396   3.726  1.2374  0.3926 -0.3742
 3716SOL     OW22780   0.983   3.156   0.317  1.0900  0.5160 -0.3815
 3716SOL    HW122781   1.025   3.072   0.300  2.8450  1.2711  0.2416
 3716SOL    HW222782   0.995   3.198   0.232  2.8840  1.0184  0.1191
 3717SOL     OW22783   1.086   0.705   9.601  0.0497 -0.4680 -0.1357
 3717SOL    HW122784   1.000   0.733   9.633 -0.6412 -2.0606 -0.6078
 3717SOL    HW222785   1.129   0.673   9.681 -0.9210 -0.3810  0.4209
 3718SOL     OW22786   3.342   1.880   2.318 -0.3937 -0.3638  0.1721
 3718SOL    HW122787   3.350   1.923   2.403  1.1211 -0.9296  0.3033
 3718SOL    HW222788   3.430   1.899   2.285 -0.2454 -2.7964 -0.8074
 3719SOL     OW22789   0.784   0.302   0.282 -0.3700  0.3471  0.0864
 3719SOL    HW122790   0.788   0.294   0.187 -1.6261 -0.0788  0.0596
 3719SOL    HW222791   0.697   0.270   0.308 -0.7648  0.2362 -1.3341
 3720SOL     OW22792   3.521   0.790   2.356  0.1634  0.2014 -0.4960
 3720SOL    HW122793   3.583   0.862   2.367  0.6405 -0.1094 -1.0850
 3720SOL    HW222794   3.529   0.759   2.446  0.5106  1.7085 -0.0100
 3721SOL     OW22795   1.785   1.441   4.891  0.4724 -0.2796 -0.2294
 3721SOL    HW122796   1.743   1.456   4.807 -4.3133 -0.5612  2.1458
 3721SOL    HW222797   1.877   1.428   4.866  0.8609  2.0348 -0.0131
 3722SOL     OW22798   4.519   3.868   6.779 -0.5298  0.3015  0.2889
 3722SOL    HW122799   4.531   3.956   6.813  0.4426  0.2750  0.0076
 3722SOL    HW222800   4.599   3.856   6.728 -0.9612 -1.3309 -0.0016
 3723SOL     OW22801   3.679   1.999   1.834 -0.2091  0.1434  0.3239
 3723SOL    HW122802   3.665   2.093   1.832  0.2667  0.2457  1.6075
 3723SOL    HW222803   3.743   2.003   1.763  1.2017 -0.7985  1.5392
 3724SOL     OW22804   1.891   3.714   4.462 -0.1143  0.3586  0.2032
 3724SOL    HW122805   1.869   3.779   4.529 -0.1597  1.1665 -0.6069
 3724SOL    HW222806   1.801   3.679   4.457 -0.1146  0.6599 -1.7235
 3725SOL     OW22807   4.166   3.603  15.264 -0.0198 -0.4436 -0.1334
 3725SOL    HW122808   4.260   3.604  15.247  0.0557  1.1961  0.3822
 3725SOL    HW222809   4.144   3.693  15.238  0.5173 -0.5448 -0.9630
 3726SOL     OW22810   1.998   4.524   7.792  0.3122  0.0072 -0.8819
 3726SOL    HW122811   2.085   4.492   7.769  0.4175  0.1484 -0.6741
 3726SOL    HW222812   1.944   4.486   7.722  2.7424 -0.4373 -2.4941
 3727SOL     OW22813   0.321   4.684  17.458  0.5575 -0.8675 -0.3034
 3727SOL    HW122814   0.282   4.612  17.508  0.3514 -1.5071 -1.3646
 3727SOL    HW222815   0.312   0.032  17.504  0.5483  0.4106 -2.6059
 3728SOL     OW22816   2.731   0.555   4.593  0.1862  0.3567 -0.2860
 3728SOL    HW122817   2.805   0.559   4.533 -0.9206 -2.0442 -1.8050
 3728SOL    HW222818   2.678   0.625   4.556 -2.7457 -0.2538  2.7473
 3729SOL     OW22819   1.454   4.288   5.988 -0.4656 -0.5492 -0.3702
 3729SOL    HW122820   1.359   4.304   5.992  0.0215  2.3304 -0.4264
 3729SOL    HW222821   1.471   4.327   5.902  0.6103 -1.7822 -0.7191
 3730SOL     OW22822   1.144   1.103   7.716  0.0378 -0.3568  0.2046
 3730SOL    HW122823   1.076   1.045   7.682  1.4652 -1.0098 -1.5694
 3730SOL    HW222824   1.113   1.136   7.800 -2.7280 -1.0006 -0.5656
 3731SOL     OW22825   4.573   2.739   7.965 -0.4705 -0.6075 -0.2289
 3731SOL    HW122826   4.526   2.726   7.882  0.5899 -2.8125 -0.4851
 3731SOL    HW222827   4.563   2.833   7.978 -0.6334 -0.6469 -0.0716
 3732SOL     OW22828   2.124   0.907   9.216  0.1537  0.0374 -0.3114
 3732SOL    HW122829   2.062   0.885   9.285  0.3724  3.6361  1.0699
 3732SOL    HW222830   2.101   0.998   9.195 -3.3179 -0.7127  0.2963
 3733SOL     OW22831   3.970   2.674   7.492  0.4828 -0.2424 -1.1512
 3733SOL    HW122832   3.993   2.582   7.503 -2.6416 -0.9875 -1.1291
 3733SOL    HW222833   3.917   2.675   7.412 -1.6370 -3.5153  0.2186
 3734SOL     OW22834   1.263   0.872   2.449  0.6517  0.2511  0.0106
 3734SOL    HW122835   1.350   0.871   2.488  0.8432  0.6204 -0.4066
 3734SOL    HW222836   1.267   0.954   2.400 -2.9250 -0.4346 -1.4614
 3735SOL     OW22837   2.661   2.233  17.366 -0.1048 -0.1965 -0.7655
 3735SOL    HW122838   2.639   2.140  17.360 -1.7469  0.2561 -1.7934
 3735SOL    HW222839   2.651   2.261  17.275  0.5093  3.5619  0.3110
 3736SOL     OW22840   3.652   4.346   2.721 -0.1932  0.0013 -0.5701
 3736SOL    HW122841   3.705   4.284   2.671 -1.2028 -1.3490  0.0359
 3736SOL    HW222842   3.683   4.424   2.675  1.3858 -1.0622 -1.2718
 3737SOL     OW22843   4.674   1.843  17.527 -0.0634 -0.1488  0.3499
 3737SOL    HW122844   0.018   1.876  17.571 -1.0209  2.2416  0.2876
 3737SOL    HW222845   4.682   1.749  17.542 -1.0246 -0.2752  0.0485
 3738SOL     OW22846   1.747   3.911  17.020 -0.3223 -0.2455 -0.5471
 3738SOL    HW122847   1.810   3.889  16.951 -1.9466 -0.1902 -2.0542
 3738SOL    HW222848   1.701   3.985  16.980 -0.9724 -0.0505  0.5673
 3739SOL     OW22849   4.460   2.263   3.200  0.1526  0.6477  0.1721
 3739SOL    HW122850   4.405   2.278   3.277 -2.6626  0.5487 -1.7752
 3739SOL    HW222851   4.516   2.340   3.198  0.5976  0.3623  2.2250
 3740SOL     OW22852   3.109   0.278   7.027  0.3249  0.1331  0.6538
 3740SOL    HW122853   3.035   0.237   6.981  0.7987 -0.3463  0.3231
 3740SOL    HW222854   3.175   0.210   7.012  0.0997 -0.0855  0.6485
 3741SOL     OW22855   2.096   0.121   3.923 -0.0904  0.2289  0.1480
 3741SOL    HW122856   2.051   0.104   4.006  0.4888 -0.7142  0.2696
 3741SOL    HW222857   2.185   0.141   3.949  0.1714  1.0313 -1.4108
 3742SOL     OW22858   2.437   3.636   2.054  0.2846 -0.3445 -0.0725
 3742SOL    HW122859   2.370   3.655   1.989 -0.9338 -1.8357  0.7288
 3742SOL    HW222860   2.449   3.720   2.097 -0.2108 -0.9401  1.2445
 3743SOL     OW22861   0.781   4.522  17.390 -0.0383  0.4751  0.2666
 3743SOL    HW122862   0.868   4.495  17.418  0.7350  1.8517 -0.8232
 3743SOL    HW222863   0.789   4.497  17.298 -0.0371 -2.4873  1.0772
 3744SOL     OW22864   2.426   0.827   8.467  0.6496  0.0461  0.0087
 3744SOL    HW122865   2.337   0.817   8.500  0.1150 -1.0654 -1.7522
 3744SOL    HW222866   2.481   0.859   8.539 -1.5294  1.7023  0.9488
 3745SOL     OW22867   4.565   3.737  14.357 -0.1929  0.0217  0.3247
 3745SOL    HW122868   4.535   3.827  14.365  0.2266  0.1095  0.9187
 3745SOL    HW222869   4.648   3.750  14.311 -0.7066  1.0036 -0.3180
 3746SOL     OW22870   2.201   0.728   6.244 -0.3611  0.1501 -0.4348
 3746SOL    HW122871   2.271   0.674   6.282 -0.4815 -0.5805 -1.2692
 3746SOL    HW222872   2.117   0.688   6.270  0.0090  0.4039  1.1689
 3747SOL     OW22873   3.251   1.447   6.109 -0.4505  0.3015 -0.1705
 3747SOL    HW122874   3.191   1.516   6.079 -0.0212  0.1525 -1.4018
 3747SOL    HW222875   3.259   1.397   6.027 -0.7269  1.0026 -0.6231
 3748SOL     OW22876   3.605   0.278   4.152 -0.0131 -0.1368 -0.0046
 3748SOL    HW122877   3.647   0.363   4.142  1.7030 -1.0321 -0.2773
 3748SOL    HW222878   3.668   0.206   4.148 -1.4586 -1.2526 -2.8943
 3749SOL     OW22879   2.086   4.109   5.022 -0.2397 -0.5179 -0.5813
 3749SOL    HW122880   2.123   4.024   5.045 -2.0631 -1.3275 -0.5842
 3749SOL    HW222881   2.028   4.135   5.094  3.4125  3.5145  0.9281
 3750SOL     OW22882   0.015   3.499  11.489  0.4647  0.3025  0.1437
 3750SOL    HW122883   0.091   3.549  11.518 -0.3562  1.2520  0.6658
 3750SOL    HW222884   0.034   3.417  11.533 -0.0054  0.3315  0.4026
 3751SOL     OW22885   0.850   0.144   8.787 -0.2125  0.3608 -1.1547
 3751SOL    HW122886   0.829   0.073   8.727  1.2133  1.5565 -3.0561
 3751SOL    HW222887   0.881   0.100   8.866 -0.5022  0.9911 -0.6830
 3752SOL     OW22888   3.799   3.875   5.874 -0.2255 -0.3706 -0.1087
 3752SOL    HW122889   3.772   3.793   5.915 -0.0682 -0.9623 -1.1913
 3752SOL    HW222890   3.722   3.902   5.825 -0.5957  0.4866  0.9260
 3753SOL     OW22891   1.801   3.425   2.795 -0.5578 -0.1143  0.2424
 3753SOL    HW122892   1.717   3.439   2.750 -0.4274  1.7736  0.5923
 3753SOL    HW222893   1.775   3.360   2.861  0.4798 -0.6805  0.0901
 3754SOL     OW22894   2.301   1.442   4.585 -0.6168  0.1989 -0.2764
 3754SOL    HW122895   2.375   1.431   4.644 -0.2308 -0.6865 -0.9330
 3754SOL    HW222896   2.338   1.383   4.519 -1.5378 -0.5983 -0.0815
 3755SOL     OW22897   0.013   2.586   1.475  0.2108  0.8729 -0.5268
 3755SOL    HW122898   4.669   2.571   1.528  0.6408 -0.1112 -0.1581
 3755SOL    HW222899   0.075   2.601   1.547  1.9129 -0.7407 -1.6628
 3756SOL     OW22900   0.986   2.568  15.475 -0.3265  0.4899 -0.0826
 3756SOL    HW122901   0.996   2.529  15.388 -1.8344  0.7989 -0.3931
 3756SOL    HW222902   1.053   2.518  15.522 -0.9230  0.1431  0.3979
 3757SOL     OW22903   2.834   0.507   3.106  0.2311 -0.4438  0.2178
 3757SOL    HW122904   2.897   0.442   3.076 -1.1209 -0.3326 -2.8581
 3757SOL    HW222905   2.821   0.475   3.195  1.4911 -2.9791 -0.5057
 3758SOL     OW22906   0.615   4.073  14.142  0.2715  0.0155  0.7335
 3758SOL    HW122907   0.632   4.047  14.233 -0.9080 -0.3347  0.8525
 3758SOL    HW222908   0.541   4.014  14.126 -0.2914  0.8259  0.3635
 3759SOL     OW22909   4.514   3.069  10.466 -0.3504  0.2822  0.4897
 3759SOL    HW122910   4.459   3.021  10.404 -1.2603  2.3039 -0.2922
 3759SOL    HW222911   4.601   3.041  10.438 -1.3566  1.9413 -4.2801
 3760SOL     OW22912   0.664   4.580  16.792  0.1883 -0.3721  0.4147
 3760SOL    HW122913   0.711   4.654  16.754 -1.0141 -0.8204 -1.9517
 3760SOL    HW222914   0.629   4.619  16.872 -0.6013  0.8727 -0.5391
 3761SOL     OW22915   1.646   3.228  12.564 -0.4110  0.1968 -0.3200
 3761SOL    HW122916   1.712   3.229  12.495  0.7448  1.0349  0.7980
 3761SOL    HW222917   1.563   3.241  12.518  0.4431  2.0684 -1.3480
 3762SOL     OW22918   2.202   2.337  10.013 -0.1835  0.0107  0.0120
 3762SOL    HW122919   2.195   2.432  10.027 -0.4915  0.0856 -0.6220
 3762SOL    HW222920   2.110   2.314  10.006 -0.0779 -0.9161  1.6594
 3763SOL     OW22921   4.338   3.479   5.747 -0.1049  0.5974  0.2895
 3763SOL    HW122922   4.342   3.555   5.689  0.8912 -0.0712 -0.5094
 3763SOL    HW222923   4.289   3.421   5.687  2.0077  0.4070 -1.2519
 3764SOL     OW22924   0.695   0.242   6.423  0.0329 -0.1688 -0.4132
 3764SOL    HW122925   0.610   0.202   6.442  1.3410 -1.9779  1.7006
 3764SOL    HW222926   0.692   0.338   6.417 -4.0154 -0.3457 -1.4283
 3765SOL     OW22927   4.670   0.547   5.848 -0.0965 -0.7823  0.1403
 3765SOL    HW122928   4.617   0.536   5.769  1.8093 -1.8622 -0.9846
 3765SOL    HW222929   0.011   0.593   5.812 -0.7502  0.4984  0.4158
 3766SOL     OW22930   0.888   0.478   2.202 -0.3111 -0.4947 -0.1477
 3766SOL    HW122931   0.931   0.555   2.164 -0.1456 -0.6641 -0.3066
 3766SOL    HW222932   0.947   0.406   2.181 -0.7367 -0.4596 -1.4395
 3767SOL     OW22933   0.358   2.445   4.509 -0.1269 -0.0505 -0.0614
 3767SOL    HW122934   0.380   2.500   4.434  0.0423  1.9810  1.4964
 3767SOL    HW222935   0.377   2.518   4.568 -0.2798 -0.5225  0.5678
 3768SOL     OW22936   4.570   3.007   7.892  0.1524 -0.1862 -0.3135
 3768SOL    HW122937   4.493   3.036   7.843  0.0480 -1.8060 -1.1105
 3768SOL    HW222938   4.641   3.031   7.832 -0.5419  1.6505 -0.3904
 3769SOL     OW22939   1.586   4.018   3.280  1.0091 -0.0917 -0.3677
 3769SOL    HW122940   1.586   3.922   3.276 -1.0083 -0.0349 -1.6204
 3769SOL    HW222941   1.504   4.038   3.325  0.6404 -2.9273  0.2140
 3770SOL     OW22942   1.309   2.158   1.654  0.3208 -0.3656  0.3728
 3770SOL    HW122943   1.260   2.102   1.593 -1.9877  1.9201  0.1202
 3770SOL    HW222944   1.395   2.146   1.613  0.6052 -0.7283  1.0684
 3771SOL     OW22945   1.519   0.277   1.947  0.4926 -0.4487  0.7661
 3771SOL    HW122946   1.552   0.332   2.019 -1.1156  0.8985  0.4724
 3771SOL    HW222947   1.604   0.260   1.907  0.7461 -1.0815  1.5635
 3772SOL     OW22948   0.697   1.909   0.453  0.1392 -0.2547 -0.1128
 3772SOL    HW122949   0.711   1.971   0.381 -0.7646 -1.2355 -1.1431
 3772SOL    HW222950   0.665   1.838   0.397  2.4289 -1.7280  0.4631
 3773SOL     OW22951   1.994   0.127   4.184  0.0610 -0.7835  0.2950
 3773SOL    HW122952   1.958   0.112   4.272 -1.0251 -0.6361 -0.1219
 3773SOL    HW222953   1.921   0.171   4.140  0.4304 -0.8304 -0.3694
 3774SOL     OW22954   0.151   1.489  12.849 -0.1747 -0.0682  0.7481
 3774SOL    HW122955   0.176   1.406  12.809  1.5954  0.5629  0.5537
 3774SOL    HW222956   0.088   1.515  12.781 -0.7271  0.2575  1.3809
 3775SOL     OW22957   0.225   1.193  17.423  0.5756 -0.7962  0.6441
 3775SOL    HW122958   0.204   1.123  17.361  3.1641 -1.5838  0.6468
 3775SOL    HW222959   0.225   1.265  17.360 -0.7365  0.3934  2.0090
 3776SOL     OW22960   3.513   1.238   8.509 -0.1098 -0.5644 -0.7525
 3776SOL    HW122961   3.553   1.242   8.422  2.5491 -1.1285  0.4367
 3776SOL    HW222962   3.423   1.232   8.479 -1.3175  4.2662  1.9875
 3777SOL     OW22963   1.612   1.170  16.694  0.4059 -0.0653 -0.5706
 3777SOL    HW122964   1.680   1.135  16.751  1.2704  1.1865 -0.8349
 3777SOL    HW222965   1.603   1.090  16.643 -1.0994  0.4208 -1.0844
 3778SOL     OW22966   4.463   1.280   8.619  0.4666  0.4583 -0.3403
 3778SOL    HW122967   4.399   1.336   8.663  0.0628 -0.3994  0.1710
 3778SOL    HW222968   4.412   1.201   8.598 -1.5410  1.3240  1.2096
 3779SOL     OW22969   4.061   2.995   7.335 -0.0472  0.0659 -0.1463
 3779SOL    HW122970   4.024   3.069   7.287  0.3879 -0.2164 -0.9265
 3779SOL    HW222971   4.030   3.004   7.425 -0.3268 -3.1997  0.0758
 3780SOL     OW22972   0.520   0.939  12.895 -0.6038 -0.1646  0.6890
 3780SOL    HW122973   0.500   0.923  12.802 -0.6673  1.3958  0.4179
 3780SOL    HW222974   0.486   1.029  12.899  1.7852  0.7198  0.7393
 3781SOL     OW22975   4.141   1.993  16.025  0.3709 -0.2895  0.1212
 3781SOL    HW122976   4.214   1.954  15.977 -0.6182  0.2565 -1.7995
 3781SOL    HW222977   4.099   2.038  15.952 -2.1425 -1.4096  0.8937
 3782SOL     OW22978   0.105   1.047  10.150  0.1764 -0.3069  0.6483
 3782SOL    HW122979   0.158   0.969  10.138 -0.3461 -0.3333 -1.4656
 3782SOL    HW222980   0.163   1.099  10.207 -1.4278  1.9658  0.2292
 3783SOL     OW22981   4.463   3.191   6.920 -0.1076  0.3534 -0.3690
 3783SOL    HW122982   4.451   3.206   6.826 -0.5209  0.7164 -0.2557
 3783SOL    HW222983   4.399   3.121   6.931 -0.4861  0.5946 -1.0595
 3784SOL     OW22984   1.533   0.650  14.939 -0.6791 -0.2155  0.1798
 3784SOL    HW122985   1.442   0.642  14.910 -0.0740  0.7715 -1.9877
 3784SOL    HW222986   1.582   0.607  14.869 -0.9882  1.2354 -0.9208
 3785SOL     OW22987   0.125   2.465   5.368  0.0591  0.4513  0.3833
 3785SOL    HW122988   0.143   2.371   5.356 -0.6992  0.4833 -0.9907
 3785SOL    HW222989   0.184   2.476   5.442  2.5852 -0.5403 -1.4729
 3786SOL     OW22990   2.278   3.267   3.656 -0.2063  0.1609  0.3427
 3786SOL    HW122991   2.207   3.208   3.680  0.0696 -0.9682 -1.5559
 3786SOL    HW222992   2.355   3.233   3.702  0.3312  0.1694 -0.5406
 3787SOL     OW22993   0.014   2.204  14.523  0.3646 -0.2401  0.7575
 3787SOL    HW122994   4.731   2.171  14.435  2.1574  0.3337  0.1668
 3787SOL    HW222995   4.724   2.129  14.577 -1.2290 -0.1604  0.1163
 3788SOL     OW22996   4.542   0.265  13.300 -0.0998  0.6495 -0.0412
 3788SOL    HW122997   4.629   0.269  13.261  0.3468 -1.0327  0.7927
 3788SOL    HW222998   4.488   0.226  13.230 -0.4778 -1.8321  1.6130
 3789SOL     OW22999   1.881   0.087   1.954  0.3411  0.3917 -0.7647
 3789SOL    HW123000   1.932   0.025   1.902 -1.6752 -0.6706 -1.4871
 3789SOL    HW223001   1.826   0.126   1.886 -0.4928 -1.2479 -1.0476
 3790SOL     OW23002   0.877   0.293   3.341 -0.0782 -0.4446  0.2821
 3790SOL    HW123003   0.878   0.279   3.436 -0.1489 -2.9903 -0.1135
 3790SOL    HW223004   0.799   0.345   3.320 -1.6456 -2.0399  2.0457
 3791SOL     OW23005   3.265   1.612   6.438  0.2299 -0.0550 -0.2116
 3791SOL    HW123006   3.203   1.557   6.389  0.8147 -1.2797  0.4115
 3791SOL    HW223007   3.349   1.566   6.436  0.2924  0.0802 -0.5775
 3792SOL     OW23008   2.585   1.601   8.544 -0.1091  0.0504 -0.5951
 3792SOL    HW123009   2.552   1.532   8.601  0.7993 -0.4098 -0.6356
 3792SOL    HW223010   2.569   1.671   8.608  1.7993 -0.7628  0.7677
 3793SOL     OW23011   1.065   3.006  12.206 -0.0512 -0.9954  0.3665
 3793SOL    HW123012   1.091   2.928  12.158  0.0575  1.2137 -3.1388
 3793SOL    HW223013   1.114   2.989  12.286 -1.1523 -2.4380  0.7232
 3794SOL     OW23014   3.989   2.246  13.416 -0.3525  0.3244  0.2488
 3794SOL    HW123015   4.007   2.316  13.353 -0.0998 -0.5704 -0.6784
 3794SOL    HW223016   4.079   2.237  13.449 -0.9795  0.0263  1.8570
 3795SOL     OW23017   3.385   1.909  13.311  0.2516  0.1757 -0.0474
 3795SOL    HW123018   3.357   1.818  13.321 -2.1327  1.0826  1.4395
 3795SOL    HW223019   3.428   1.916  13.397  0.6765  1.8165 -0.3867
 3796SOL     OW23020   2.458   2.007  12.621 -0.1886 -0.4746  0.2216
 3796SOL    HW123021   2.376   1.981  12.664  0.8162  1.4996  3.3087
 3796SOL    HW223022   2.450   1.955  12.541  1.6677 -1.9895  1.0246
 3797SOL     OW23023   2.050   1.702   5.584 -0.2418  1.0016  0.0720
 3797SOL    HW123024   2.025   1.648   5.508  0.7517  1.2382 -0.4180
 3797SOL    HW223025   2.144   1.687   5.587 -0.3131  0.4042 -0.5755
 3798SOL     OW23026   1.537   3.536   3.373 -0.7388  0.8877  0.4204
 3798SOL    HW123027   1.489   3.487   3.307 -0.8474 -0.2774  1.3558
 3798SOL    HW223028   1.525   3.469   3.441  0.9073 -0.7943 -0.9386
 3799SOL     OW23029   1.426   4.407  13.118  0.1374  0.5289  0.2104
 3799SOL    HW123030   1.472   4.468  13.176 -0.8178  1.6203 -0.1942
 3799SOL    HW223031   1.489   4.392  13.048  0.7742  1.3452  0.6159
 3800SOL     OW23032   1.073   4.713   8.453 -0.6014  0.3980  0.1552
 3800SOL    HW123033   1.050   0.011   8.366  0.7863 -0.4318 -0.5185
 3800SOL    HW223034   1.116   0.056   8.488 -0.7251 -0.1710  1.5739
 3801SOL     OW23035   0.600   4.182  14.732  0.0025 -0.2340  0.0303
 3801SOL    HW123036   0.554   4.262  14.758  0.0661 -0.5844  1.2594
 3801SOL    HW223037   0.611   4.122  14.806 -0.3859 -2.7998 -1.9765
 3802SOL     OW23038   4.373   1.821   7.943  0.2403 -0.2036 -0.0826
 3802SOL    HW123039   4.373   1.916   7.950  0.2702 -0.1862 -0.3174
 3802SOL    HW223040   4.328   1.808   7.860  0.0977  2.1469 -0.3595
 3803SOL     OW23041   1.745   4.122   5.554 -0.3844 -0.1463 -0.0344
 3803SOL    HW123042   1.771   4.208   5.587 -2.4451  1.4497 -2.5542
 3803SOL    HW223043   1.740   4.074   5.636 -0.0022 -0.0108  0.0698
 3804SOL     OW23044   1.564   0.159   7.263  0.1338 -0.3699  0.0862
 3804SOL    HW123045   1.558   0.064   7.267  0.1884 -0.3627  0.3214
 3804SOL    HW223046   1.632   0.175   7.328 -0.0574 -1.6513  0.5800
 3805SOL     OW23047   2.130   4.243  11.721  0.3764 -0.0393  0.6116
 3805SOL    HW123048   2.114   4.149  11.727  2.6771 -0.5821 -1.6045
 3805SOL    HW223049   2.160   4.246  11.630  0.1263 -1.5265  0.4735
 3806SOL     OW23050   2.421   1.885   4.217  0.4034 -0.7054 -0.5306
 3806SOL    HW123051   2.406   1.890   4.311  1.1021 -0.4269 -0.4364
 3806SOL    HW223052   2.516   1.890   4.205  0.3554  3.6300  0.9538
 3807SOL     OW23053   2.227   1.654   3.366 -0.5172  0.0096  0.3887
 3807SOL    HW123054   2.226   1.559   3.376  2.4169 -0.2053 -1.2172
 3807SOL    HW223055   2.267   1.685   3.447 -2.3018  1.6391  0.6362
 3808SOL     OW23056   2.006   1.172   9.173 -0.6694 -0.3165  1.1932
 3808SOL    HW123057   2.002   1.266   9.187  2.8992 -0.1512  1.1235
 3808SOL    HW223058   1.930   1.169   9.116  0.6187  0.0357 -0.5685
 3809SOL     OW23059   0.671   3.783  10.310  0.2478  0.0949  0.2143
 3809SOL    HW123060   0.608   3.828  10.255  0.2244  1.4830  1.3941
 3809SOL    HW223061   0.699   3.853  10.369 -1.7430 -0.1104  1.3700
 3810SOL     OW23062   2.477   2.595   5.926 -0.5166 -0.3940 -0.2834
 3810SOL    HW123063   2.554   2.554   5.966 -0.4321  0.6007  0.5835
 3810SOL    HW223064   2.475   2.554   5.839  0.0247  1.5754 -1.2237
 3811SOL     OW23065   1.789   0.943  15.907 -0.0385 -0.2376 -0.2655
 3811SOL    HW123066   1.694   0.934  15.918 -0.2716  1.6693 -0.6821
 3811SOL    HW223067   1.800   0.934  15.813  1.2810  0.5108 -0.1782
 3812SOL     OW23068   2.420   4.304   9.987  0.2855  0.2181 -0.9099
 3812SOL    HW123069   2.403   4.375   9.925  1.5563  1.7041  0.4389
 3812SOL    HW223070   2.335   4.304  10.029  0.9076 -0.8114  0.3647
 3813SOL     OW23071   3.719   3.410   9.197 -0.2308  0.2207  0.3206
 3813SOL    HW123072   3.701   3.493   9.240 -1.3493 -0.0224  0.3147
 3813SOL    HW223073   3.632   3.370   9.193 -1.0477  2.0376 -0.0049
 3814SOL     OW23074   3.553   1.425   5.188 -0.2298 -0.2579 -0.1490
 3814SOL    HW123075   3.584   1.375   5.264  0.0152 -0.0674 -0.1242
 3814SOL    HW223076   3.617   1.497   5.188 -0.3091 -0.1901 -1.1572
 3815SOL     OW23077   3.524   1.092  12.608 -0.3158 -0.3723  0.0981
 3815SOL    HW123078   3.594   1.077  12.672 -0.3808  0.3284  0.3354
 3815SOL    HW223079   3.572   1.149  12.549  0.4491  0.8703  1.8970
 3816SOL     OW23080   0.188   4.119   5.985  0.3134 -0.1391  0.0869
 3816SOL    HW123081   0.222   4.111   5.897 -0.8318  0.0722 -0.3780
 3816SOL    HW223082   0.123   4.188   5.970  0.1932  0.0793  1.5363
 3817SOL     OW23083   3.467   2.072  13.541 -0.0134 -0.1433 -0.1351
 3817SOL    HW123084   3.416   2.112  13.611  0.9309 -0.5113  0.7671
 3817SOL    HW223085   3.490   1.986  13.577 -0.7053 -0.5158 -0.5631
 3818SOL     OW23086   0.050   3.045   9.142 -0.5422 -0.7176  0.1776
 3818SOL    HW123087   0.073   3.011   9.229  1.0028  1.8367  0.7727
 3818SOL    HW223088   0.136   3.062   9.102 -1.7414 -0.6597 -2.3749
 3819SOL     OW23089   0.820   4.462   6.241  0.5222 -0.3876 -0.0118
 3819SOL    HW123090   0.728   4.438   6.256  0.7086 -1.3086 -0.3440
 3819SOL    HW223091   0.814   4.557   6.249  3.0213 -0.1522 -0.9793
 3820SOL     OW23092   2.459   3.466  10.812 -0.2545  0.3539  0.6379
 3820SOL    HW123093   2.383   3.421  10.847 -0.6513  1.1339  0.7751
 3820SOL    HW223094   2.531   3.409  10.839 -0.7737 -0.8412 -0.5067
 3821SOL     OW23095   0.965   0.657   0.693 -0.4593  0.1119 -0.0063
 3821SOL    HW123096   0.910   0.616   0.626  2.1853 -1.9475 -0.9166
 3821SOL    HW223097   1.008   0.724   0.639 -0.8969  0.2729 -0.1578
 3822SOL     OW23098   3.571   0.382   3.049 -0.0893  0.1968 -0.0850
 3822SOL    HW123099   3.544   0.317   3.114 -1.2240  0.0204 -0.7348
 3822SOL    HW223100   3.666   0.379   3.052 -0.0240  1.5838 -0.6973
 3823SOL     OW23101   2.707   0.975   1.416  0.0751  0.0870  0.3052
 3823SOL    HW123102   2.713   0.911   1.345 -0.3450  0.0216  0.3284
 3823SOL    HW223103   2.659   0.920   1.478  1.2050 -1.2635 -0.0288
 3824SOL     OW23104   3.784   4.258  10.984 -0.2379 -0.0174 -0.0494
 3824SOL    HW123105   3.815   4.326  11.044  2.0309 -0.3685 -0.8254
 3824SOL    HW223106   3.689   4.268  10.986 -0.1832  0.5203 -0.1973
 3825SOL     OW23107   4.426   3.545  14.498 -0.2238  0.1845 -0.2625
 3825SOL    HW123108   4.465   3.621  14.456  3.3038 -2.4878 -1.8387
 3825SOL    HW223109   4.409   3.588  14.582  1.7931  0.7099 -0.1290
 3826SOL     OW23110   1.746   2.420   2.326 -0.5117 -0.0019 -0.6079
 3826SOL    HW123111   1.720   2.373   2.406 -1.5036 -1.2908 -1.6960
 3826SOL    HW223112   1.841   2.422   2.339 -0.2344 -0.5446 -2.6347
 3827SOL     OW23113   3.189   0.544   3.176  0.0117 -0.2051 -0.0614
 3827SOL    HW123114   3.166   0.467   3.124  2.3635 -0.3845 -0.8570
 3827SOL    HW223115   3.147   0.614   3.126  0.8064  0.1168 -0.2807
 3828SOL     OW23116   4.105   1.199   5.533  0.3799 -0.5482 -0.1203
 3828SOL    HW123117   4.123   1.108   5.510  2.5085  0.1378 -1.1130
 3828SOL    HW223118   4.025   1.215   5.481  0.1645 -0.4845  0.2331
 3829SOL     OW23119   3.984   0.540  14.628 -0.4008  0.7211 -0.0824
 3829SOL    HW123120   3.996   0.604  14.558  2.1004 -0.6185 -0.9043
 3829SOL    HW223121   4.061   0.545  14.683  0.4246 -1.0279 -1.0734
 3830SOL     OW23122   1.450   4.413   3.408 -0.1391 -0.3446  0.1412
 3830SOL    HW123123   1.461   4.371   3.323 -0.1757  0.0893 -0.0734
 3830SOL    HW223124   1.520   4.377   3.463 -0.1446 -0.6705 -0.0667
 3831SOL     OW23125   0.850   2.845   5.620  0.1108 -0.0274 -0.2870
 3831SOL    HW123126   0.878   2.927   5.661  0.0468 -0.6886  1.0784
 3831SOL    HW223127   0.804   2.881   5.545 -2.3781 -1.0038  0.7857
 3832SOL     OW23128   3.241   3.452   6.708  0.9773 -0.4438  0.3654
 3832SOL    HW123129   3.162   3.406   6.737  0.4823  0.5262  0.5503
 3832SOL    HW223130   3.293   3.453   6.789 -1.3101  1.6068  1.8022
 3833SOL     OW23131   0.205   1.742   8.723  0.0682  0.2777  0.1738
 3833SOL    HW123132   0.180   1.700   8.641 -0.7819  0.0578  0.5388
 3833SOL    HW223133   0.144   1.816   8.718 -1.7862 -1.2708 -0.2994
 3834SOL     OW23134   1.909   4.328   4.657 -0.3695 -0.2855 -0.2518
 3834SOL    HW123135   1.932   4.248   4.705 -1.8382 -0.5485  0.0333
 3834SOL    HW223136   1.856   4.291   4.586 -0.8297  0.8610 -0.4972
 3835SOL     OW23137   3.567   1.112   7.644 -0.5191 -0.2175  0.8198
 3835SOL    HW123138   3.496   1.119   7.708  1.3092 -0.1051  2.8386
 3835SOL    HW223139   3.645   1.119   7.700  0.1521 -3.5222  0.3139
 3836SOL     OW23140   1.595   0.511   1.096  0.1033 -0.1883 -0.3133
 3836SOL    HW123141   1.583   0.432   1.150 -0.3304 -0.5287 -0.9028
 3836SOL    HW223142   1.535   0.562   1.152 -3.0777 -1.2586 -2.7387
 3837SOL     OW23143   3.942   4.098  12.897  0.1247 -0.3855  0.3978
 3837SOL    HW123144   3.877   4.159  12.864 -2.0708 -2.6715  0.5048
 3837SOL    HW223145   4.003   4.156  12.943  1.0862 -0.3598 -0.9169
 3838SOL     OW23146   4.383   1.180   2.048  0.0257 -0.1185  0.4442
 3838SOL    HW123147   4.335   1.098   2.064 -0.1689 -0.2478 -0.8054
 3838SOL    HW223148   4.347   1.219   1.969 -0.0801 -0.5220  0.2902
 3839SOL     OW23149   0.404   0.825   5.873 -0.1917  0.3248  0.0054
 3839SOL    HW123150   0.327   0.819   5.930 -1.9427  0.2750 -2.3218
 3839SOL    HW223151   0.473   0.798   5.932  0.8638  3.5877  0.2980
 3840SOL     OW23152   1.242   2.423   1.702 -0.3656 -0.0634 -0.9927
 3840SOL    HW123153   1.249   2.340   1.655 -0.7648  0.3043 -1.7153
 3840SOL    HW223154   1.331   2.453   1.684 -0.2660  0.4462  0.3598
 3841SOL     OW23155   0.688   2.526  15.782  0.4539 -0.3888 -0.3076
 3841SOL    HW123156   0.758   2.461  15.777  0.3591 -0.4490 -0.7973
 3841SOL    HW223157   0.669   2.534  15.876  1.1812 -0.6405 -0.1342
 3842SOL     OW23158   3.348   4.256   3.098 -0.2393  0.1256  0.2358
 3842SOL    HW123159   3.276   4.277   3.038  0.3842 -3.4180 -1.7373
 3842SOL    HW223160   3.375   4.339   3.135  0.7300 -1.6010  3.3352
 3843SOL     OW23161   1.570   2.091   5.759  0.4623 -0.1375 -0.0928
 3843SOL    HW123162   1.640   2.137   5.714  1.8959 -2.1837  0.0353
 3843SOL    HW223163   1.517   2.164   5.791  1.9407  1.2305 -0.7960
 3844SOL     OW23164   2.818   4.563  17.084 -0.3281 -0.4489 -0.0332
 3844SOL    HW123165   2.791   4.581  17.174 -0.8478  0.5120 -0.3817
 3844SOL    HW223166   2.876   4.637  17.067  1.9399 -2.4318 -0.9254
 3845SOL     OW23167   0.282   1.451   3.678  0.3237  0.0143 -0.0581
 3845SOL    HW123168   0.221   1.392   3.635  0.3988  0.2011 -0.4172
 3845SOL    HW223169   0.259   1.533   3.634 -1.0777  0.1288  0.8897
 3846SOL     OW23170   1.529   2.513   1.665  0.1828  0.3759 -0.3452
 3846SOL    HW123171   1.489   2.598   1.682  0.5441  0.5811 -0.5157
 3846SOL    HW223172   1.586   2.530   1.590  1.6346 -0.2274  0.6217
 3847SOL     OW23173   3.388   3.502   7.864 -0.1162 -0.1094 -0.1844
 3847SOL    HW123174   3.470   3.499   7.913  0.8712 -0.3861 -1.8392
 3847SOL    HW223175   3.402   3.426   7.807 -0.8316  0.1068 -0.6509
 3848SOL     OW23176   1.956   0.086  17.186 -0.2089 -0.7548 -0.1320
 3848SOL    HW123177   1.989   0.033  17.259  1.1956 -3.2907 -2.5974
 3848SOL    HW223178   2.018   0.068  17.115  0.3374 -4.8685  1.3339
 3849SOL     OW23179   1.697   0.691  16.904 -0.1836  0.3608 -0.0180
 3849SOL    HW123180   1.641   0.618  16.930  0.5059 -0.5836 -1.2248
 3849SOL    HW223181   1.672   0.766  16.959  0.0765  0.9987 -0.7749
 3850SOL     OW23182   4.490   3.204   8.796 -0.2404  0.6140 -0.3712
 3850SOL    HW123183   4.494   3.126   8.740 -3.1167 -1.0500  1.7406
 3850SOL    HW223184   4.462   3.272   8.735 -3.6234  0.7519  1.3169
 3851SOL     OW23185   3.299   1.203   2.697 -0.1407  0.7190  0.2776
 3851SOL    HW123186   3.390   1.235   2.692 -0.3632  1.4451  0.7484
 3851SOL    HW223187   3.271   1.228   2.786  1.2826 -0.6359  1.0975
 3852SOL     OW23188   2.119   0.750  15.760 -0.2199  0.3998 -0.7622
 3852SOL    HW123189   2.137   0.682  15.825  1.0682  0.0429 -1.4939
 3852SOL    HW223190   2.111   0.824  15.821  0.0713 -0.0872 -0.1355
 3853SOL     OW23191   0.695   1.714   4.549  0.7858  0.1364 -0.2881
 3853SOL    HW123192   0.786   1.698   4.574  0.9602  0.5896 -0.6198
 3853SOL    HW223193   0.671   1.768   4.624  0.3192 -1.4329  0.6806
 3854SOL     OW23194   4.398   1.666   2.576 -0.2642 -0.3980  0.2820
 3854SOL    HW123195   4.321   1.612   2.558  2.0822 -3.7488  0.3428
 3854SOL    HW223196   4.389   1.671   2.672  0.3378  1.1854  0.2522
 3855SOL     OW23197   1.197   0.076  15.442 -0.1187 -0.2766 -0.2962
 3855SOL    HW123198   1.154   0.136  15.380 -1.2241  0.1971  0.9106
 3855SOL    HW223199   1.173   4.727  15.402 -0.4061  0.4566 -1.6762
 3856SOL     OW23200   4.292   4.399   4.949  0.1553 -0.8482  0.4682
 3856SOL    HW123201   4.200   4.376   4.947 -0.0452 -0.0854  0.7696
 3856SOL    HW223202   4.304   4.436   4.861 -1.6106 -1.2701  0.0669
 3857SOL     OW23203   4.179   0.312   2.002 -0.1075 -0.3765  0.0997
 3857SOL    HW123204   4.097   0.336   2.044  0.5889  2.4927 -0.1924
 3857SOL    HW223205   4.159   0.224   1.971 -3.5202  0.4723 -0.0697
 3858SOL     OW23206   0.122   3.394  13.152 -0.1475  0.4385 -0.2834
 3858SOL    HW123207   0.179   3.372  13.079 -2.0165 -1.0487 -1.3000
 3858SOL    HW223208   0.044   3.346  13.124  1.4312 -1.7192 -0.9463
 3859SOL     OW23209   2.672   3.127  17.627 -0.0568 -0.0213 -0.4445
 3859SOL    HW123210   2.660   3.059  17.561  1.9310 -2.0427  1.2589
 3859SOL    HW223211   2.767   3.137  17.621 -0.0842 -0.4377 -1.6304
 3860SOL     OW23212   0.736   0.447   6.038 -0.3033  0.0709  0.2410
 3860SOL    HW123213   0.793   0.519   6.065  0.4515 -0.3038 -0.3520
 3860SOL    HW223214   0.790   0.378   6.076  0.2711  2.4997  3.9272
 3861SOL     OW23215   1.007   2.233  13.309 -0.0459  0.8743  0.4473
 3861SOL    HW123216   0.978   2.167  13.247 -1.8060  0.7231  1.4212
 3861SOL    HW223217   0.960   2.313  13.287 -0.3734  0.0509 -1.7803
 3862SOL     OW23218   2.070   4.588   8.238 -0.0416 -0.5730  0.7164
 3862SOL    HW123219   1.983   4.619   8.213 -0.8924 -2.4015  1.4017
 3862SOL    HW223220   2.119   4.670   8.232 -0.4851 -0.3329  0.4133
 3863SOL     OW23221   0.632   2.434  15.266 -0.2865 -0.2206 -0.6901
 3863SOL    HW123222   0.726   2.447  15.258  0.2767 -3.4711  0.4929
 3863SOL    HW223223   0.610   2.522  15.295  1.0327 -0.2162  0.3137
 3864SOL     OW23224   0.109   1.915   7.637 -0.8394 -0.8259  0.8561
 3864SOL    HW123225   0.177   1.864   7.679  0.0122 -0.4334 -0.0578
 3864SOL    HW223226   0.072   1.845   7.584 -0.5414 -0.8748  0.7149
 3865SOL     OW23227   1.222   4.236  17.596  0.2231 -0.7240  0.8573
 3865SOL    HW123228   1.310   4.274  17.594 -0.3935  0.7081  0.7252
 3865SOL    HW223229   1.229   4.188  17.513  0.0414 -0.7773  0.8732
 3866SOL     OW23230   4.495   0.248   0.744 -0.0854 -0.0856 -0.6269
 3866SOL    HW123231   4.402   0.262   0.723  0.4940  2.2182 -1.6930
 3866SOL    HW223232   4.491   0.159   0.779 -2.0607  0.1341 -0.2847
 3867SOL     OW23233   1.008   1.277   2.964  0.6346 -0.1273  0.2456
 3867SOL    HW123234   1.062   1.337   3.015  0.7431 -0.3222  0.3588
 3867SOL    HW223235   1.008   1.197   3.016 -0.0521 -1.7021 -2.1719
 3868SOL     OW23236   2.942   3.241   4.336 -0.4393  0.5520 -0.2115
 3868SOL    HW123237   2.856   3.238   4.377 -0.3195  1.4919  0.1053
 3868SOL    HW223238   2.948   3.335   4.319  2.0044  0.8410  2.1827
 3869SOL     OW23239   3.262   4.155   4.059 -0.2055  0.1482 -0.1502
 3869SOL    HW123240   3.167   4.140   4.059 -0.4564  1.6720  1.4868
 3869SOL    HW223241   3.287   4.065   4.039 -1.7366 -0.2145 -0.4697
 3870SOL     OW23242   2.431   4.284  15.675  0.0788 -0.0445 -0.0110
 3870SOL    HW123243   2.353   4.340  15.679 -1.0190 -1.2713 -3.4152
 3870SOL    HW223244   2.418   4.245  15.588  0.8004 -1.6587  0.6024
 3871SOL     OW23245   1.470   3.036  14.109 -0.0927 -0.1086  0.0819
 3871SOL    HW123246   1.455   2.970  14.042  0.4579  1.8548 -1.9727
 3871SOL    HW223247   1.482   3.110  14.049  1.7359  0.9784  1.8000
 3872SOL     OW23248   0.602   0.741   6.025  0.0029 -0.4727  0.2969
 3872SOL    HW123249   0.551   0.719   6.103 -2.9656 -0.5212 -1.6942
 3872SOL    HW223250   0.674   0.787   6.070  0.2022 -2.3138  1.8419
 3873SOL     OW23251   0.263   1.774   6.954  0.3091 -0.0198  0.5136
 3873SOL    HW123252   0.211   1.847   6.988  0.4838  0.1235  0.4741
 3873SOL    HW223253   0.300   1.812   6.874 -0.4988  0.2271  0.2566
 3874SOL     OW23254   3.614   0.505   8.114  0.0798 -0.3504 -0.5258
 3874SOL    HW123255   3.613   0.457   8.032  0.2315  0.2167 -0.8637
 3874SOL    HW223256   3.626   0.443   8.185 -1.1091  1.9476  1.6814
 3875SOL     OW23257   3.885   1.300  11.708 -0.6197 -0.4257 -0.3887
 3875SOL    HW123258   3.826   1.313  11.782  0.9838  0.1058  0.7926
 3875SOL    HW223259   3.912   1.210  11.726  3.8908  0.7902 -1.0813
 3876SOL     OW23260   1.636   1.209   6.226  0.3674 -0.0754  0.1410
 3876SOL    HW123261   1.678   1.262   6.294 -0.7916  2.8714 -1.4669
 3876SOL    HW223262   1.610   1.136   6.283 -0.8598 -0.0162 -0.3385
 3877SOL     OW23263   0.452   1.776   7.303 -0.1340  0.1630  0.7456
 3877SOL    HW123264   0.485   1.855   7.345 -1.7134  1.2891 -0.1193
 3877SOL    HW223265   0.510   1.750   7.232 -0.4081  0.1063  0.5400
 3878SOL     OW23266   0.709   1.035   5.929  0.2244  0.2049  0.1048
 3878SOL    HW123267   0.666   1.057   6.012 -1.7660  0.3901 -0.9689
 3878SOL    HW223268   0.704   1.126   5.901 -1.0167 -0.6445 -2.3908
 3879SOL     OW23269   3.205   1.662   8.096 -0.5027 -0.2157 -0.1692
 3879SOL    HW123270   3.136   1.654   8.030 -0.7841  1.0898 -0.0308
 3879SOL    HW223271   3.199   1.579   8.142  2.1855  0.3914  1.2657
 3880SOL     OW23272   2.568   3.982   1.381  0.5791  0.3885  0.2609
 3880SOL    HW123273   2.546   3.893   1.352  1.0493  0.0839  0.8384
 3880SOL    HW223274   2.538   3.968   1.470  0.9263 -1.0309  0.1604
 3881SOL     OW23275   2.900   1.679  13.888 -0.3026  0.4867 -0.0275
 3881SOL    HW123276   2.813   1.713  13.911 -0.3634  0.8016 -0.7355
 3881SOL    HW223277   2.880   1.647  13.800 -0.6436 -1.8321  0.8729
 3882SOL     OW23278   4.014   3.121   5.952 -0.7356  0.1730  0.2957
 3882SOL    HW123279   4.061   3.112   5.870 -0.6473  2.1471  0.1312
 3882SOL    HW223280   4.021   3.038   6.000  1.7486  1.0697  1.4917
 3883SOL     OW23281   4.680   4.198   2.368  0.1005  0.0975  0.4574
 3883SOL    HW123282   0.017   4.193   2.305  2.4992 -0.8192  3.2702
 3883SOL    HW223283   4.650   4.289   2.363  1.4039  0.5175  0.3870
 3884SOL     OW23284   2.503   1.954  13.439 -0.5880  0.3755 -0.6999
 3884SOL    HW123285   2.472   1.943  13.529 -1.2652 -1.1655 -1.1290
 3884SOL    HW223286   2.512   1.866  13.403  2.6333 -0.4563  2.0851
 3885SOL     OW23287   0.739   4.474   8.253 -0.1358 -0.1202 -0.2907
 3885SOL    HW123288   0.806   4.452   8.318  0.1576 -0.3299 -0.6646
 3885SOL    HW223289   0.708   4.558   8.286 -0.6113 -0.9645  1.3774
 3886SOL     OW23290   0.188   0.216  11.776 -0.1111  0.0676  0.3881
 3886SOL    HW123291   0.107   0.266  11.771  0.0724  0.2848 -0.4055
 3886SOL    HW223292   0.231   0.263  11.847 -1.9574  0.7167  1.0819
 3887SOL     OW23293   0.466   1.180   6.784 -0.1968  0.0143  0.1511
 3887SOL    HW123294   0.534   1.136   6.733 -0.6622 -1.7888  1.0934
 3887SOL    HW223295   0.537   1.223   6.831 -0.5452  0.0129  0.6760
 3888SOL     OW23296   1.337   3.542   7.686  0.2760 -0.4853  0.7150
 3888SOL    HW123297   1.345   3.562   7.593  3.0194 -2.7040  0.4816
 3888SOL    HW223298   1.373   3.454   7.693  0.3701 -0.5188 -0.1913
 3889SOL     OW23299   3.969   2.348  11.584 -0.2732 -0.1359 -0.3601
 3889SOL    HW123300   3.935   2.428  11.543 -1.1276 -0.4084 -0.1893
 3889SOL    HW223301   4.061   2.349  11.561 -0.4488 -0.1428 -1.0596
 3890SOL     OW23302   0.596   2.276   2.021  0.3936  0.2149  0.0595
 3890SOL    HW123303   0.525   2.328   2.058  1.7598  1.0249  1.5646
 3890SOL    HW223304   0.670   2.334   2.041 -0.9328  1.9453 -0.0337
 3891SOL     OW23305   3.212   4.542   5.549  0.2465 -0.0725 -0.4810
 3891SOL    HW123306   3.143   4.515   5.489  0.4488 -1.5351 -0.0633
 3891SOL    HW223307   3.231   4.630   5.516  2.1528 -0.9120 -1.6451
 3892SOL     OW23308   1.891   4.016   6.064  0.1662  0.4012  0.3702
 3892SOL    HW123309   1.850   4.009   5.978 -1.9661  1.9117  1.2472
 3892SOL    HW223310   1.832   3.972   6.125 -0.6064  1.6058  0.4838
 3893SOL     OW23311   4.652   1.225  10.108 -0.7084 -0.1982 -0.6731
 3893SOL    HW123312   4.601   1.187  10.179  2.1817 -2.4409  0.1832
 3893SOL    HW223313   4.711   1.155  10.081 -1.4222 -1.7984  1.9244
 3894SOL     OW23314   0.201   1.056   8.823 -0.3363  0.2524  0.2684
 3894SOL    HW123315   0.262   1.104   8.878  0.1000 -0.3166  0.2774
 3894SOL    HW223316   0.124   1.113   8.821 -1.2414 -0.9533  0.3715
 3895SOL     OW23317   2.255   1.270  14.987 -0.2685  0.6141  0.0383
 3895SOL    HW123318   2.317   1.200  15.004  0.5947  1.6495  1.2315
 3895SOL    HW223319   2.181   1.249  15.043  0.0434  0.7169  0.4902
 3896SOL     OW23320   3.374   4.203   7.144 -0.0650 -0.3050  0.2869
 3896SOL    HW123321   3.372   4.169   7.055  0.1176  2.2889 -0.7064
 3896SOL    HW223322   3.282   4.201   7.172 -0.4934  1.1918 -1.0456
 3897SOL     OW23323   4.348   2.888   4.481 -0.3270  0.1196  0.3184
 3897SOL    HW123324   4.288   2.865   4.410 -0.4008 -0.2019  0.4858
 3897SOL    HW223325   4.395   2.965   4.447 -1.8347  0.4325 -1.0537
 3898SOL     OW23326   4.010   0.788  16.530 -0.3273 -0.2089 -0.1740
 3898SOL    HW123327   4.061   0.846  16.474 -2.1507 -0.5162 -2.1528
 3898SOL    HW223328   4.019   0.705  16.483  1.6631 -1.2635  2.0720
 3899SOL     OW23329   2.754   2.860   8.910 -0.3936  0.3564  0.7145
 3899SOL    HW123330   2.746   2.924   8.840  0.0048 -0.1200  0.2375
 3899SOL    HW223331   2.667   2.818   8.907 -0.1308 -0.0205 -1.7373
 3900SOL     OW23332   3.685   2.660  14.099  0.3468  0.4078  0.6108
 3900SOL    HW123333   3.679   2.639  14.006  1.0561  2.5091  0.0765
 3900SOL    HW223334   3.780   2.657  14.107  0.3335 -1.5668  0.0051
 3901SOL     OW23335   1.263   1.024   0.484 -0.1518  0.6582  0.6927
 3901SOL    HW123336   1.227   1.074   0.557 -0.3366  1.5310  0.0073
 3901SOL    HW223337   1.215   0.941   0.487  0.7971  0.0904 -0.1939
 3902SOL     OW23338   2.748   1.482   5.129  0.1774 -0.4142 -0.0319
 3902SOL    HW123339   2.672   1.446   5.174  1.0794  0.3696  2.1229
 3902SOL    HW223340   2.726   1.472   5.036 -1.0647  1.3643  0.0668
 3903SOL     OW23341   0.987   0.235  13.483  0.2201  0.5373 -0.0875
 3903SOL    HW123342   0.920   0.182  13.527  1.5624 -0.7353  0.4160
 3903SOL    HW223343   0.982   0.321  13.526  1.9921  1.4103 -1.6398
 3904SOL     OW23344   1.798   1.267  14.498  0.1473  0.6175  0.1999
 3904SOL    HW123345   1.783   1.359  14.520 -1.2006  0.9607 -2.1307
 3904SOL    HW223346   1.862   1.274  14.427 -2.6432  3.4038 -2.0374
 3905SOL     OW23347   3.080   0.738   1.484  0.1288  0.0382 -0.1132
 3905SOL    HW123348   3.027   0.705   1.556 -1.6712  3.8634  0.3110
 3905SOL    HW223349   3.147   0.784   1.536  0.7265  0.4628 -1.2509
 3906SOL     OW23350   3.647   4.486  16.923 -0.6819 -0.2348  0.8322
 3906SOL    HW123351   3.640   4.432  17.001 -1.1465 -0.2006  0.8181
 3906SOL    HW223352   3.600   4.434  16.857  0.9916 -1.4568  0.6235
 3907SOL     OW23353   0.919   0.147   1.121 -0.3707 -0.4322  0.1307
 3907SOL    HW123354   0.843   0.161   1.178 -0.9183  0.5364 -0.8300
 3907SOL    HW223355   0.980   0.211   1.158 -1.8316  1.1536 -0.1962
 3908SOL     OW23356   0.347   2.316  14.994  0.2027  0.1195  0.9713
 3908SOL    HW123357   0.331   2.277  15.080  0.7883 -2.9143 -0.3247
 3908SOL    HW223358   0.320   2.256  14.925 -0.6946  0.7947  0.7346
 3909SOL     OW23359   0.443   0.775   0.957 -0.4611 -0.4664  0.3589
 3909SOL    HW123360   0.455   0.681   0.971 -0.2356 -0.3978  0.6249
 3909SOL    HW223361   0.508   0.787   0.887 -1.4689 -2.9639 -1.0064
 3910SOL     OW23362   1.994   2.490   8.947  0.2405 -0.1361 -0.0622
 3910SOL    HW123363   2.002   2.575   8.990  1.8491  0.4454 -1.5475
 3910SOL    HW223364   1.899   2.478   8.952  0.4062 -1.1322  0.8344
 3911SOL     OW23365   0.448   1.472   1.100  0.1071  0.0556 -0.2604
 3911SOL    HW123366   0.538   1.486   1.071  0.0971  1.1713  0.2235
 3911SOL    HW223367   0.462   1.414   1.175 -0.3614  0.9489  0.5302
 3912SOL     OW23368   2.232   4.403   7.720 -0.3510  0.0007 -0.2381
 3912SOL    HW123369   2.222   4.342   7.647 -2.5911 -1.0823  0.9786
 3912SOL    HW223370   2.327   4.407   7.722 -0.1899 -3.1119 -2.2121
 3913SOL     OW23371   3.342   1.379   3.584  0.4886 -0.5575  0.0030
 3913SOL    HW123372   3.280   1.329   3.637 -0.8284  1.7037  0.6011
 3913SOL    HW223373   3.421   1.361   3.634  0.5759 -3.3593 -1.1374
 3914SOL     OW23374   0.933   1.623  10.145 -0.3287  0.6297  0.6659
 3914SOL    HW123375   1.003   1.607  10.208 -1.8641  1.6589  2.6097
 3914SOL    HW223376   0.872   1.670  10.202 -1.0061  1.8317 -1.0263
 3915SOL     OW23377   2.102   1.758   9.038 -0.1848  0.5148 -0.4682
 3915SOL    HW123378   2.041   1.723   9.104 -0.5613  0.2935 -0.9308
 3915SOL    HW223379   2.113   1.683   8.979 -0.7342  1.0099 -1.1923
 3916SOL     OW23380   2.545   2.180  13.779 -0.7770  0.0640 -0.3516
 3916SOL    HW123381   2.587   2.265  13.788 -0.1260 -0.2710 -0.1948
 3916SOL    HW223382   2.608   2.134  13.724 -2.0740 -2.4088  0.2153
 3917SOL     OW23383   4.267   1.156   0.251 -0.4058  0.4065 -0.4968
 3917SOL    HW123384   4.298   1.247   0.249  2.1643 -0.4410  0.4812
 3917SOL    HW223385   4.278   1.124   0.161  3.8277  2.5210 -0.7604
 3918SOL     OW23386   4.645   0.310  11.769  0.0647  0.0386 -0.3922
 3918SOL    HW123387   4.616   0.229  11.728  1.2565  1.0655 -3.2474
 3918SOL    HW223388   4.611   0.376  11.709  0.0982 -0.6525 -1.1747
 3919SOL     OW23389   4.170   1.504  10.880 -0.3857  0.4611  0.0314
 3919SOL    HW123390   4.147   1.577  10.938  1.5938  0.2612  1.0530
 3919SOL    HW223391   4.264   1.518  10.870 -0.4406  1.2717  0.6499
 3920SOL     OW23392   1.617   1.760  14.920 -0.5947 -0.1047 -0.4478
 3920SOL    HW123393   1.618   1.818  14.844  1.5377  0.7403  0.2174
 3920SOL    HW223394   1.537   1.713  14.899 -1.4242  1.6059 -1.1304
 3921SOL     OW23395   3.389   1.042  14.484  0.3136  0.7050  0.2412
 3921SOL    HW123396   3.400   1.031  14.390  0.4327  0.5907  0.2681
 3921SOL    HW223397   3.474   1.078  14.507  1.0752 -0.3624 -0.9477
 3922SOL     OW23398   2.951   2.276   0.047  0.1185  0.2909 -0.0847
 3922SOL    HW123399   2.968   2.344  17.721  0.7505  1.2484  1.0883
 3922SOL    HW223400   2.894   2.329   0.103  3.4293  1.5461  2.0932
 3923SOL     OW23401   0.865   4.271  10.665 -0.0615  0.0319  1.0649
 3923SOL    HW123402   0.857   4.269  10.570 -0.2302 -1.5422  1.1245
 3923SOL    HW223403   0.840   4.183  10.691  2.7675 -0.3918  2.3693
 3924SOL     OW23404   2.791   1.538   7.586 -0.2421 -0.2661 -0.0585
 3924SOL    HW123405   2.842   1.610   7.624  0.5835  0.6553 -2.8820
 3924SOL    HW223406   2.863   1.496   7.538  1.6756  2.6699  0.2436
 3925SOL     OW23407   3.994   3.563   1.080  0.2143  0.1796 -0.3582
 3925SOL    HW123408   3.908   3.548   1.042 -0.3616 -2.0186  1.8055
 3925SOL    HW223409   3.967   3.549   1.171 -0.9882  2.2611 -0.3968
 3926SOL     OW23410   2.364   2.219   9.807  0.1184  0.3582 -0.1596
 3926SOL    HW123411   2.401   2.304   9.786  0.1966  0.6532  1.2196
 3926SOL    HW223412   2.315   2.239   9.887  0.6676  0.7746  0.0675
 3927SOL     OW23413   4.483   4.508  16.576  0.3210 -0.6688 -0.2646
 3927SOL    HW123414   4.485   4.536  16.484 -1.6305  1.7408  0.4037
 3927SOL    HW223415   4.471   4.591  16.623 -0.5056 -0.8625 -0.1238
 3928SOL     OW23416   0.705   3.981   0.786 -0.0955  0.2794  0.0484
 3928SOL    HW123417   0.708   3.947   0.696 -1.4018 -0.0251  0.1138
 3928SOL    HW223418   0.627   3.936   0.819  1.1515 -1.6427  0.3233
 3929SOL     OW23419   0.335   1.653   6.170  0.2169  0.4934  0.2623
 3929SOL    HW123420   0.327   1.565   6.207  2.7337 -0.9056 -2.4856
 3929SOL    HW223421   0.391   1.635   6.094  0.3448 -1.6987  0.8775
 3930SOL     OW23422   3.285   2.751   1.408 -0.1057  0.0128  0.1899
 3930SOL    HW123423   3.282   2.776   1.501  0.2859  0.9544 -0.0463
 3930SOL    HW223424   3.314   2.832   1.366  1.1699 -1.8831 -2.5499
 3931SOL     OW23425   3.284   0.112  12.616  0.2747 -0.5207 -0.0377
 3931SOL    HW123426   3.230   0.139  12.690 -0.8698  0.3371 -1.1888
 3931SOL    HW223427   3.268   0.018  12.609 -1.6887 -0.1153 -0.9718
 3932SOL     OW23428   3.453   0.120   0.391 -0.1836 -0.8512 -0.4237
 3932SOL    HW123429   3.484   0.035   0.421  1.5236 -0.3081 -0.6729
 3932SOL    HW223430   3.491   0.116   0.303  2.2054 -1.1926  0.6386
 3933SOL     OW23431   4.314   4.485   7.557 -0.1283  0.4528 -0.1950
 3933SOL    HW123432   4.337   4.559   7.613 -1.6536  1.9735 -1.5998
 3933SOL    HW223433   4.349   4.411   7.607 -1.0515  0.3018  0.2191
 3934SOL     OW23434   3.057   4.080  14.198 -0.0818  0.6323  0.2024
 3934SOL    HW123435   3.145   4.098  14.232  0.2157  2.4954 -1.4804
 3934SOL    HW223436   3.031   4.165  14.163 -0.8268 -0.5772 -2.1614
 3935SOL     OW23437   2.252   1.946   8.425 -0.0935  0.3264 -0.1694
 3935SOL    HW123438   2.230   1.892   8.501  0.8626  0.2523  0.0579
 3935SOL    HW223439   2.347   1.931   8.425 -0.0715  0.4763 -0.4265
 3936SOL     OW23440   0.847   3.589   5.767 -0.1708 -0.2863  0.1391
 3936SOL    HW123441   0.940   3.593   5.791 -0.4018  0.2245  0.9527
 3936SOL    HW223442   0.807   3.643   5.835  1.2712  0.2679  0.5579
 3937SOL     OW23443   3.545   4.190  14.875  0.3896 -0.8320 -0.2661
 3937SOL    HW123444   3.629   4.151  14.898  0.9701  0.1950 -0.6730
 3937SOL    HW223445   3.483   4.121  14.852  0.0479 -0.4532 -0.4930
 3938SOL     OW23446   1.313   3.791   4.577 -0.3639  0.3272  0.1127
 3938SOL    HW123447   1.262   3.799   4.497 -0.0656  2.7648  0.1807
 3938SOL    HW223448   1.244   3.750   4.629  0.5584 -0.2646  0.8844
 3939SOL     OW23449   4.368   3.100   9.793  0.2806  0.3987  0.8311
 3939SOL    HW123450   4.402   3.162   9.856  1.3939  1.0838 -0.4476
 3939SOL    HW223451   4.407   3.134   9.712 -0.9592 -0.2402 -0.0440
 3940SOL     OW23452   4.344   3.743  14.138 -0.4096 -0.1440  0.8178
 3940SOL    HW123453   4.352   3.839  14.132 -3.3891  0.0932  0.3878
 3940SOL    HW223454   4.395   3.722  14.216  0.4466  0.9519  0.5566
 3941SOL     OW23455   3.721   3.531  14.397  0.2248  0.4416  0.1574
 3941SOL    HW123456   3.724   3.442  14.434  1.2503 -0.1480 -1.3201
 3941SOL    HW223457   3.805   3.539  14.352  0.2703 -1.7698 -0.1486
 3942SOL     OW23458   3.565   2.788   1.701 -0.4075 -0.1402  0.7173
 3942SOL    HW123459   3.655   2.822   1.698  0.1247 -1.5581  0.4997
 3942SOL    HW223460   3.538   2.796   1.792  0.6252  0.7665  0.9505
 3943SOL     OW23461   2.379   4.025   5.914 -0.0716  0.1903 -0.2456
 3943SOL    HW123462   2.380   3.941   5.869  0.3992  1.3040 -2.3269
 3943SOL    HW223463   2.331   4.015   5.996 -1.2857  0.9909 -0.8666
 3944SOL     OW23464   4.278   4.150   6.827 -0.1708  0.3730 -0.2648
 3944SOL    HW123465   4.370   4.128   6.809 -0.2704 -0.6839  0.5223
 3944SOL    HW223466   4.247   4.067   6.863  1.2948  0.3669  1.0040
 3945SOL     OW23467   4.268   0.958  12.882 -0.7039  0.1370 -0.4633
 3945SOL    HW123468   4.212   0.881  12.895  0.8137 -0.9654 -0.3070
 3945SOL    HW223469   4.324   0.929  12.809  0.9225  0.4550  0.6665
 3946SOL     OW23470   3.968   0.900   3.249  0.1536  0.2252 -0.1226
 3946SOL    HW123471   3.997   0.969   3.189  1.3341  1.0656  1.4110
 3946SOL    HW223472   3.954   0.831   3.185  1.3676 -1.3412  1.3225
 3947SOL     OW23473   2.429   2.940  10.939  0.4161 -0.2880 -0.2514
 3947SOL    HW123474   2.351   2.886  10.947 -1.1524  1.9037 -0.7871
 3947SOL    HW223475   2.463   2.896  10.861  1.6148 -1.4108  0.9210
 3948SOL     OW23476   3.567   2.773   7.919 -0.2082  0.6799  0.3428
 3948SOL    HW123477   3.532   2.809   8.001 -1.6997  0.5405 -0.2215
 3948SOL    HW223478   3.570   2.681   7.945  1.2498  0.9631  1.1760
 3949SOL     OW23479   4.520   0.069  13.076 -0.6676  0.0808  0.1253
 3949SOL    HW123480   4.425   0.063  13.071 -0.6209  1.3982 -2.1990
 3949SOL    HW223481   4.538   0.064  12.982  1.4683 -1.6207  0.6174
 3950SOL     OW23482   4.090   4.241  16.497 -0.7380  0.0552 -0.0833
 3950SOL    HW123483   4.182   4.230  16.521 -0.5119 -0.4153 -1.1757
 3950SOL    HW223484   4.086   4.330  16.462 -0.2436 -0.2900 -1.0185
 3951SOL     OW23485   3.414   0.617   7.121 -0.0120  0.2972 -0.0108
 3951SOL    HW123486   3.408   0.555   7.049 -0.8431  2.2808 -1.6491
 3951SOL    HW223487   3.332   0.602   7.169  0.2541  0.4803  0.5023
 3952SOL     OW23488   0.249   1.453   7.266  0.1185  0.3686 -0.6596
 3952SOL    HW123489   0.156   1.449   7.288  0.4186  0.1988  0.6041
 3952SOL    HW223490   0.289   1.492   7.344  1.8222 -0.7408 -0.9809
 3953SOL     OW23491   1.381   3.115   3.144  0.6066  0.3784 -0.0139
 3953SOL    HW123492   1.317   3.085   3.209  0.6236  1.3643  0.4666
 3953SOL    HW223493   1.465   3.078   3.171  0.0817  0.1770  1.3606
 3954SOL     OW23494   3.328   1.120  12.759  0.1752 -0.3686  0.0387
 3954SOL    HW123495   3.347   1.064  12.834  0.4789 -0.6702 -0.2628
 3954SOL    HW223496   3.408   1.100  12.710 -0.1825  0.0910 -0.7331
 3955SOL     OW23497   4.469   4.639   7.316  0.3538  0.4172 -0.5422
 3955SOL    HW123498   4.472   4.593   7.232  2.0897  0.5256 -0.5341
 3955SOL    HW223499   4.463   4.563   7.375  0.3807  0.8189 -0.0260
 3956SOL     OW23500   0.164   3.588   4.819  0.0574  0.7302 -0.6353
 3956SOL    HW123501   0.248   3.594   4.773  0.1929 -0.3713 -0.5140
 3956SOL    HW223502   0.117   3.512   4.783  2.6724 -0.3198 -1.8408
 3957SOL     OW23503   2.015   0.166   5.363 -0.1911  0.4121 -0.1699
 3957SOL    HW123504   2.087   0.193   5.305  1.5286  2.8429  3.0960
 3957SOL    HW223505   1.981   0.094   5.311  1.0212  0.7879 -1.4969
 3958SOL     OW23506   0.340   0.978  14.999 -0.0273 -0.2892 -0.3004
 3958SOL    HW123507   0.248   0.987  14.972 -0.0612  2.9099  0.8514
 3958SOL    HW223508   0.369   1.068  15.011  0.2399 -0.4454  0.1990
 3959SOL     OW23509   4.256   4.695   7.757 -0.0103  0.2662 -0.0142
 3959SOL    HW123510   4.168   4.717   7.786  0.2115  0.8458  0.2304
 3959SOL    HW223511   4.312   0.007   7.819 -0.6239 -1.2079  1.6578
 3960SOL     OW23512   2.837   2.302   8.998 -0.0411  0.5608 -0.4925
 3960SOL    HW123513   2.743   2.293   8.984 -0.3628  0.4043  1.8652
 3960SOL    HW223514   2.836   2.398   9.006  0.4895  0.2506  3.4217
 3961SOL     OW23515   2.053   4.308   8.620  0.5760 -0.3501  0.1234
 3961SOL    HW123516   2.043   4.384   8.563  4.1395 -0.3351 -0.4782
 3961SOL    HW223517   1.960   4.284   8.629  0.7193 -0.7716  0.5031
 3962SOL     OW23518   4.424   1.392   9.566 -0.4099  0.1446  0.3505
 3962SOL    HW123519   4.458   1.413   9.653  0.5520 -1.0146  0.2556
 3962SOL    HW223520   4.345   1.446   9.562  1.0221  2.2110 -0.0174
 3963SOL     OW23521   4.360   2.534   9.238  0.0538  0.2602  0.0470
 3963SOL    HW123522   4.359   2.458   9.181 -0.2900  0.7108 -0.5465
 3963SOL    HW223523   4.340   2.608   9.181  1.5937  0.9411  0.3818
 3964SOL     OW23524   0.609   2.069  11.961 -0.2794 -0.4455 -0.0861
 3964SOL    HW123525   0.622   2.102  11.872  0.3484  1.4370  0.6988
 3964SOL    HW223526   0.615   1.974  11.951  0.1616 -0.2522 -1.6163
 3965SOL     OW23527   0.709   0.412  16.735  0.1996 -0.0650  0.4856
 3965SOL    HW123528   0.792   0.433  16.693 -0.6964 -0.7483 -1.6428
 3965SOL    HW223529   0.736   0.364  16.813  1.2175  1.4929  1.0867
 3966SOL     OW23530   2.272   2.837  12.702  0.0482 -0.4972 -0.2328
 3966SOL    HW123531   2.317   2.759  12.670  1.1197  0.2776 -0.6284
 3966SOL    HW223532   2.322   2.909  12.661  0.4337  0.5635  2.1245
 3967SOL     OW23533   4.260   4.173   1.926  0.7791 -0.1134 -0.2185
 3967SOL    HW123534   4.200   4.103   1.950 -0.2453  0.2279 -1.8139
 3967SOL    HW223535   4.192   4.240   1.914  1.5746  0.9574  1.2767
 3968SOL     OW23536   4.018   4.550   2.480 -0.5942 -0.4845  0.2627
 3968SOL    HW123537   3.993   4.513   2.396 -1.2913  0.3298  0.1054
 3968SOL    HW223538   4.001   4.641   2.455 -0.3677 -0.1969  1.1330
 3969SOL     OW23539   3.083   4.231   3.378 -0.9315 -0.0441 -0.8729
 3969SOL    HW123540   3.003   4.262   3.420 -0.4843  0.3200 -0.2977
 3969SOL    HW223541   3.109   4.157   3.433 -0.9267  0.2920 -0.4282
 3970SOL     OW23542   1.408   3.687   1.947  0.6735 -0.0710 -0.0450
 3970SOL    HW123543   1.479   3.673   2.010  0.8669  0.0953 -0.2291
 3970SOL    HW223544   1.453   3.737   1.879  1.1066 -0.0907  0.2254
 3971SOL     OW23545   2.575   1.557  13.090 -0.2926  0.2395  0.3983
 3971SOL    HW123546   2.536   1.474  13.117  2.1907 -1.9702 -2.7600
 3971SOL    HW223547   2.497   1.602  13.056 -2.0923 -2.7543  0.5984
 3972SOL     OW23548   1.789   3.162   9.242 -0.7826  0.1855 -0.3006
 3972SOL    HW123549   1.865   3.162   9.299 -0.1852 -0.7442 -1.1064
 3972SOL    HW223550   1.825   3.178   9.155  2.2592  0.2436  0.9771
 3973SOL     OW23551   4.221   0.276   5.814  0.0540 -0.1176  0.7521
 3973SOL    HW123552   4.206   0.184   5.793 -1.4119  0.0385  1.1085
 3973SOL    HW223553   4.193   0.306   5.727 -2.9087 -1.7478  1.1376
 3974SOL     OW23554   3.580   4.282   7.481  0.7550 -0.3037 -0.1093
 3974SOL    HW123555   3.534   4.344   7.424 -0.9762 -2.5138 -1.1657
 3974SOL    HW223556   3.578   4.211   7.416  0.3947  1.1199 -1.6533
 3975SOL     OW23557   2.356   2.214   5.942 -0.1267  0.3560  0.4584
 3975SOL    HW123558   2.365   2.212   6.037  0.1272  0.9639  0.4418
 3975SOL    HW223559   2.418   2.142   5.929  1.2920  1.8857 -1.2050
 3976SOL     OW23560   3.621   3.095  11.823 -0.2336  0.5845 -0.2822
 3976SOL    HW123561   3.561   3.020  11.825  0.9926 -0.4241 -1.5304
 3976SOL    HW223562   3.563   3.166  11.797 -0.2998 -0.0641 -1.9274
 3977SOL     OW23563   0.780   4.387  17.154 -0.0364  0.0374  0.1155
 3977SOL    HW123564   0.827   4.411  17.075  0.9260  0.2790  0.7664
 3977SOL    HW223565   0.703   4.440  17.134  0.0496  0.8789  1.9536
 3978SOL     OW23566   4.474   1.776  12.802  0.0889 -0.0705 -0.5038
 3978SOL    HW123567   4.568   1.795  12.811  0.6002 -1.1529 -3.4041
 3978SOL    HW223568   4.468   1.758  12.708  0.7821  1.4127 -0.8336
 3979SOL     OW23569   2.970   2.471   8.315  0.2110  0.3086 -0.6309
 3979SOL    HW123570   2.939   2.381   8.325  0.5594 -0.1841 -4.2430
 3979SOL    HW223571   3.045   2.456   8.258 -0.4490 -2.0865 -0.8647
 3980SOL     OW23572   3.969   3.985   8.587  0.0142  0.4717  0.7430
 3980SOL    HW123573   3.951   4.059   8.645 -1.1998  0.9809 -0.2800
 3980SOL    HW223574   4.060   3.957   8.599  0.9726  2.9556 -0.8315
 3981SOL     OW23575   0.823   1.685  17.031 -0.3343  0.2770 -0.1737
 3981SOL    HW123576   0.855   1.673  16.942 -1.6409 -3.3819 -0.1622
 3981SOL    HW223577   0.897   1.676  17.092 -1.2269  1.2809  1.0642
 3982SOL     OW23578   3.607   3.517  14.064 -0.4106  0.3793  0.1316
 3982SOL    HW123579   3.685   3.470  14.095 -2.0521 -2.0947  0.4906
 3982SOL    HW223580   3.557   3.519  14.145 -0.2717  1.2027  0.1960
 3983SOL     OW23581   1.246   3.379  14.959 -0.4526 -0.2832  0.1758
 3983SOL    HW123582   1.333   3.419  14.967 -1.3725  1.2673  2.5041
 3983SOL    HW223583   1.189   3.439  15.008  3.1742  3.8757 -0.6597
 3984SOL     OW23584   0.980   2.855  15.427  0.0792  0.2213  0.0697
 3984SOL    HW123585   0.886   2.853  15.444  0.2787  0.6088  1.1670
 3984SOL    HW223586   0.999   2.771  15.468  2.1087 -0.1125 -1.5236
 3985SOL     OW23587   3.038   3.848   8.419 -0.1422 -0.5090  0.3051
 3985SOL    HW123588   3.121   3.818   8.457  0.2678  1.7168  1.2059
 3985SOL    HW223589   3.040   3.789   8.344 -1.1306  2.5607 -2.1674
 3986SOL     OW23590   0.913   4.025   1.327 -0.2232 -0.0803  0.3440
 3986SOL    HW123591   0.831   4.057   1.364  1.4697  2.2165  2.0655
 3986SOL    HW223592   0.897   4.042   1.234  1.6466 -0.8820 -0.1385
 3987SOL     OW23593   3.489   0.951   3.918 -0.0573 -0.2127  0.7367
 3987SOL    HW123594   3.404   0.939   3.876  1.1391 -2.2814 -1.0763
 3987SOL    HW223595   3.493   1.047   3.928  0.5850 -0.4463  2.7091
 3988SOL     OW23596   0.223   1.756   1.668  0.8412 -0.0507 -0.5403
 3988SOL    HW123597   0.277   1.702   1.726  0.5012  0.2027  0.0090
 3988SOL    HW223598   0.265   1.842   1.675 -2.1604  1.4674 -1.2005
 3989SOL     OW23599   4.220   1.012   2.651  0.1700 -0.1582  0.2178
 3989SOL    HW123600   4.260   1.074   2.712  0.3328  1.4432 -1.5078
 3989SOL    HW223601   4.131   1.001   2.683  0.0403 -0.5286 -0.2763
 3990SOL     OW23602   3.272   1.885  10.332 -0.0679  0.3521  0.1269
 3990SOL    HW123603   3.288   1.965  10.282  0.6888  0.4762  0.5825
 3990SOL    HW223604   3.322   1.896  10.412  0.6324 -1.4047 -0.0851
 3991SOL     OW23605   3.071   0.448   5.055 -0.0505 -0.5604 -0.2491
 3991SOL    HW123606   3.122   0.525   5.033  0.6281 -1.4950 -1.9058
 3991SOL    HW223607   3.025   0.476   5.135  0.5874 -1.6301  0.5042
 3992SOL     OW23608   2.566   4.511  16.909  0.2449 -0.1613  0.3107
 3992SOL    HW123609   2.641   4.495  16.966  0.7591  1.0744 -0.0223
 3992SOL    HW223610   2.488   4.507  16.965 -2.0430 -1.9727 -2.9898
 3993SOL     OW23611   0.582   1.513   2.068  0.0517  0.0220  0.2297
 3993SOL    HW123612   0.579   1.432   2.017  1.0900  0.1496 -0.0306
 3993SOL    HW223613   0.557   1.489   2.157  0.6632  0.4926  0.5315
 3994SOL     OW23614   0.022   0.883   0.641 -0.3309  0.0542 -0.0293
 3994SOL    HW123615   0.099   0.886   0.583 -1.4130  0.4593 -1.4474
 3994SOL    HW223616   4.683   0.881   0.580 -0.1014 -2.3768 -0.2361
 3995SOL     OW23617   3.669   0.675   2.075 -0.3057  0.3593 -0.4005
 3995SOL    HW123618   3.640   0.765   2.091 -3.8461 -0.5433 -1.8116
 3995SOL    HW223619   3.709   0.648   2.157 -2.0674 -0.2432  0.2452
 3996SOL     OW23620   3.562   3.262   7.865  0.1651 -0.5658  0.1294
 3996SOL    HW123621   3.606   3.329   7.918 -0.1179 -1.6499  1.7294
 3996SOL    HW223622   3.633   3.248   7.802 -0.3668  2.1920 -1.0816
 3997SOL     OW23623   2.939   1.088   8.640 -0.0451 -0.4722  0.1519
 3997SOL    HW123624   2.942   1.106   8.734 -1.6490  1.7702 -0.2288
 3997SOL    HW223625   2.875   1.018   8.628 -1.7553  0.9558  0.9431
 3998SOL     OW23626   2.988   1.722   2.678 -0.2529  0.2891  0.7591
 3998SOL    HW123627   3.002   1.677   2.761  1.1320 -0.7232 -0.0051
 3998SOL    HW223628   2.896   1.702   2.663 -0.3012  0.3538  0.9836
 3999SOL     OW23629   1.869   1.541   7.597  0.5687  0.0678 -0.0114
 3999SOL    HW123630   1.945   1.487   7.618  0.0525 -0.4406  0.5725
 3999SOL    HW223631   1.807   1.504   7.660 -0.7180  2.1213 -0.0634
 4000SOL     OW23632   4.516   2.584   1.609 -0.3932 -0.4282  0.0214
 4000SOL    HW123633   4.458   2.656   1.587 -1.2932 -0.9809  0.5845
 4000SOL    HW223634   4.500   2.579   1.703  0.0084  0.2111  0.1222
 4001SOL     OW23635   4.581   1.721   9.826 -0.2245  0.1972 -0.1317
 4001SOL    HW123636   4.570   1.775   9.747 -0.9297 -0.7956 -0.7152
 4001SOL    HW223637   4.676   1.715   9.824 -0.1808  0.8722 -0.2613
 4002SOL     OW23638   0.718   1.722  12.858  0.4633  0.4482  0.0943
 4002SOL    HW123639   0.685   1.709  12.769 -0.4383  1.2376  0.3145
 4002SOL    HW223640   0.637   1.751  12.898  0.2172  0.8618 -0.7004
 4003SOL     OW23641   2.496   3.889   2.116  0.1699 -0.1305  0.8652
 4003SOL    HW123642   2.485   3.959   2.052  1.2260 -0.3426  0.4528
 4003SOL    HW223643   2.550   3.940   2.178  0.4731 -0.7355  1.0980
 4004SOL     OW23644   2.228   4.551   8.476  0.4112  0.8052 -0.0006
 4004SOL    HW123645   2.196   4.545   8.387 -0.3468  1.4706  0.2282
 4004SOL    HW223646   2.306   4.607   8.472 -0.1837  1.7818  1.6053
 4005SOL     OW23647   4.406   2.973  10.246 -0.6119 -0.3788 -0.3293
 4005SOL    HW123648   4.386   2.956  10.154  0.0116 -0.6932 -0.4061
 4005SOL    HW223649   4.344   2.915  10.290 -0.7583  0.4680  0.5742
 4006SOL     OW23650   0.967   0.591  10.436 -0.3274 -0.0935  0.2904
 4006SOL    HW123651   0.903   0.581  10.366 -0.1456 -1.0714  0.2640
 4006SOL    HW223652   1.042   0.628  10.390 -1.8542  0.3611 -1.8043
 4007SOL     OW23653   3.331   4.112   8.355 -0.1661 -0.6108 -0.8264
 4007SOL    HW123654   3.374   4.122   8.440 -1.2623  0.7109 -0.4297
 4007SOL    HW223655   3.241   4.136   8.377  0.0638  0.2431 -0.8371
 4008SOL     OW23656   0.758   3.840  10.002  0.6337  0.0274  0.1875
 4008SOL    HW123657   0.803   3.767  10.045 -0.9258 -0.8630  0.2988
 4008SOL    HW223658   0.789   3.912  10.056  0.5204  0.7392 -0.6955
 4009SOL     OW23659   4.598   3.269   2.368  0.7044  0.1079  0.4875
 4009SOL    HW123660   4.686   3.298   2.390  1.7730 -1.3920 -1.8151
 4009SOL    HW223661   4.557   3.259   2.454 -1.1722  0.5803 -0.3581
 4010SOL     OW23662   3.058   2.143   9.086  0.4356 -0.3999  0.0070
 4010SOL    HW123663   3.009   2.223   9.063  0.2788 -0.9016 -1.4225
 4010SOL    HW223664   3.034   2.086   9.013 -0.8651 -2.4253  2.0263
 4011SOL     OW23665   1.043   1.366   5.245 -0.2914  0.0566  0.1431
 4011SOL    HW123666   0.962   1.415   5.260 -0.8274 -0.2762 -1.6771
 4011SOL    HW223667   1.116   1.428   5.243 -0.7465  0.5494 -1.6315
 4012SOL     OW23668   0.720   2.855   0.632 -0.1812  0.4070  0.3734
 4012SOL    HW123669   0.789   2.797   0.665  0.9873  2.0866  0.9199
 4012SOL    HW223670   0.702   2.912   0.707  1.4488 -1.1492  1.9555
 4013SOL     OW23671   2.731   0.746   6.036  0.1167  0.0245 -0.0824
 4013SOL    HW123672   2.652   0.799   6.037  1.5486  2.2647 -2.8402
 4013SOL    HW223673   2.689   0.672   5.992 -2.7342  2.2013 -1.0234
 4014SOL     OW23674   4.230   1.834   5.986 -0.0391  0.2661  0.3597
 4014SOL    HW123675   4.212   1.763   5.925 -0.1626  1.1769 -0.6752
 4014SOL    HW223676   4.190   1.794   6.063  2.5147 -0.7052  1.1513
 4015SOL     OW23677   2.721   2.715   8.535  0.0609  0.1164 -0.0471
 4015SOL    HW123678   2.675   2.643   8.492 -0.7621 -0.7854  2.3684
 4015SOL    HW223679   2.813   2.694   8.517  0.1019  0.7643 -0.6504
 4016SOL     OW23680   0.295   3.767   2.996  0.5455 -0.0718 -0.0309
 4016SOL    HW123681   0.224   3.825   3.024  2.7319  0.7522  3.7342
 4016SOL    HW223682   0.361   3.835   3.014  2.0025 -0.4797 -3.7658
 4017SOL     OW23683   0.984   0.384   7.105 -0.0449 -0.1310  0.4492
 4017SOL    HW123684   0.966   0.475   7.128  3.3553  0.5580  0.3019
 4017SOL    HW223685   1.026   0.364   7.189  0.6038 -1.4781 -0.1972
 4018SOL     OW23686   3.253   0.257  13.364 -0.2502  0.2685  0.2708
 4018SOL    HW123687   3.170   0.249  13.317 -0.0773  1.8770 -0.3030
 4018SOL    HW223688   3.245   0.343  13.404  1.3759  0.7341 -0.4384
 4019SOL     OW23689   2.126   3.760   4.745 -0.5610 -0.2451 -0.1374
 4019SOL    HW123690   2.168   3.735   4.827 -1.0474 -1.3896 -0.2355
 4019SOL    HW223691   2.040   3.720   4.754 -0.1797 -1.0304  0.0236
 4020SOL     OW23692   3.721   2.740  11.043  0.2311  0.4883  0.4415
 4020SOL    HW123693   3.724   2.766  11.135  1.0868 -2.7470  1.3345
 4020SOL    HW223694   3.680   2.822  11.016  0.0656  0.0700 -0.5793
 4021SOL     OW23695   1.281   1.114   4.735  0.0186  1.0909 -0.5240
 4021SOL    HW123696   1.223   1.066   4.794  1.0734  0.2041 -0.1998
 4021SOL    HW223697   1.360   1.117   4.790 -1.2177 -0.2329  1.3156
 4022SOL     OW23698   0.977   2.551   9.091  0.5284  0.1876  0.1572
 4022SOL    HW123699   0.916   2.548   9.018  0.1801  0.9415  0.4185
 4022SOL    HW223700   1.033   2.624   9.062 -0.2537  0.0428 -1.7252
 4023SOL     OW23701   3.446   2.320   6.262  0.0982 -0.5044 -0.6389
 4023SOL    HW123702   3.469   2.412   6.248  0.2345 -0.4712 -0.2034
 4023SOL    HW223703   3.368   2.311   6.208 -0.9053  2.5658  0.3164
 4024SOL     OW23704   4.455   2.331  11.697  0.0255 -0.1770  0.1808
 4024SOL    HW123705   4.383   2.291  11.648 -0.8332 -0.7921  1.9259
 4024SOL    HW223706   4.487   2.250  11.736  0.8048 -0.3399 -0.7946
 4025SOL     OW23707   2.085   3.014   4.058  0.8055  0.3750  0.3249
 4025SOL    HW123708   2.063   3.090   4.112 -1.2075 -0.5004  0.7337
 4025SOL    HW223709   2.089   2.945   4.124  4.1890 -1.1751 -1.5111
 4026SOL     OW23710   0.079   2.046   2.744 -0.2048  0.0256 -0.6560
 4026SOL    HW123711   0.017   2.118   2.736  1.5668  1.4734 -1.4046
 4026SOL    HW223712   0.031   1.974   2.705  0.5091  0.0005 -1.4833
 4027SOL     OW23713   4.240   3.207   7.122 -0.0972  1.0277  0.6346
 4027SOL    HW123714   4.244   3.301   7.101  1.8074  1.2611  2.1400
 4027SOL    HW223715   4.329   3.173   7.128 -0.9607 -1.5285 -1.2855
 4028SOL     OW23716   3.222   3.580   2.693 -0.0604 -0.1267  0.3727
 4028SOL    HW123717   3.185   3.624   2.769 -1.4649 -1.7610  0.6394
 4028SOL    HW223718   3.242   3.659   2.643  0.2537  1.0622  2.3774
 4029SOL     OW23719   3.024   0.562   7.071  0.1808  0.5863  0.2826
 4029SOL    HW123720   2.928   0.558   7.069  0.2160  0.0858 -0.4338
 4029SOL    HW223721   3.041   0.469   7.053 -2.5011  0.6146 -2.2875
 4030SOL     OW23722   1.242   1.999  11.320 -0.4902  0.0676  0.2621
 4030SOL    HW123723   1.200   2.085  11.319  0.3201  0.4354 -3.0756
 4030SOL    HW223724   1.183   1.951  11.262 -2.7086 -1.3318  3.7506
 4031SOL     OW23725   2.645   1.108  13.357  0.6507 -0.1678 -0.0140
 4031SOL    HW123726   2.596   1.174  13.405 -2.2525 -1.9482 -0.5376
 4031SOL    HW223727   2.709   1.086  13.425 -1.0735 -0.1932  1.5918
 4032SOL     OW23728   3.454   3.174   8.167 -0.0722  0.0412  0.6826
 4032SOL    HW123729   3.539   3.209   8.192  1.0555 -1.9061 -0.4394
 4032SOL    HW223730   3.399   3.230   8.222  0.6004  1.2363  0.1281
 4033SOL     OW23731   3.778   0.871   1.798 -0.2267  0.9210 -0.4194
 4033SOL    HW123732   3.822   0.941   1.750 -0.3931  0.5078 -1.1648
 4033SOL    HW223733   3.730   0.829   1.727  0.5343  0.7584 -0.8468
 4034SOL     OW23734   0.644   4.107   1.387 -0.4440 -0.0743  0.2656
 4034SOL    HW123735   0.598   4.152   1.459  1.0886  2.8751 -0.6078
 4034SOL    HW223736   0.581   4.037   1.369 -1.5012  0.6802  1.0040
 4035SOL     OW23737   3.315   1.653   0.792 -0.4982 -0.0207  0.0106
 4035SOL    HW123738   3.324   1.731   0.847  0.4918 -0.7863  0.9371
 4035SOL    HW223739   3.307   1.697   0.708  0.4875  1.4328  0.6789
 4036SOL     OW23740   4.699   0.694   3.538  0.1354 -0.1323  0.1666
 4036SOL    HW123741   4.607   0.669   3.524  0.3119  1.3315 -3.4527
 4036SOL    HW223742   0.009   0.634   3.479 -0.3355 -0.8608  0.5318
 4037SOL     OW23743   4.716   0.297   8.128 -0.0380  0.0085 -0.1548
 4037SOL    HW123744   4.733   0.271   8.218 -1.3646  0.7734  0.3078
 4037SOL    HW223745   0.066   0.283   8.087 -0.9881  0.6024 -2.3521
 4038SOL     OW23746   1.162   2.962   6.862  0.3604 -0.3849  0.2311
 4038SOL    HW123747   1.255   2.938   6.868  0.4880 -0.7803 -3.2056
 4038SOL    HW223748   1.171   3.056   6.850 -0.4877 -0.6220 -2.3225
 4039SOL     OW23749   3.882   1.234   8.904 -0.0880 -0.0931 -0.6221
 4039SOL    HW123750   3.950   1.254   8.840  0.1533  1.1492  0.0177
 4039SOL    HW223751   3.829   1.174   8.851  0.1864 -0.3575 -0.6038
 4040SOL     OW23752   0.557   0.844   7.504 -0.1344 -0.4809 -0.3312
 4040SOL    HW123753   0.515   0.791   7.436 -0.7922  1.1291 -1.1671
 4040SOL    HW223754   0.480   0.887   7.542  0.6158  0.2619  0.3424
 4041SOL     OW23755   2.354   0.312  11.443 -0.0191  0.0623  0.9441
 4041SOL    HW123756   2.262   0.325  11.421  0.5933  2.8666  0.1400
 4041SOL    HW223757   2.346   0.284  11.535 -0.8683  1.6624  1.3553
 4042SOL     OW23758   2.299   4.291   6.737 -0.3041 -0.2032 -0.0525
 4042SOL    HW123759   2.326   4.362   6.678  0.5858 -0.1227  0.4487
 4042SOL    HW223760   2.350   4.223   6.693  2.3072  1.0986  0.9065
 4043SOL     OW23761   3.281   0.078   6.928 -0.4086 -0.6666  0.4086
 4043SOL    HW123762   3.212   0.021   6.893 -0.6261  2.8188 -4.8586
 4043SOL    HW223763   3.322   0.004   6.973 -0.3520 -1.3486 -0.7700
 4044SOL     OW23764   0.122   0.291   0.343 -0.5511 -0.7532 -0.5668
 4044SOL    HW123765   0.123   0.377   0.302  0.3438 -0.6680 -0.3758
 4044SOL    HW223766   0.080   0.299   0.429 -0.8657  0.0360 -0.7966
 4045SOL     OW23767   4.155   1.787   8.129 -0.0821 -0.8373  0.1301
 4045SOL    HW123768   4.095   1.836   8.073  1.2083  0.4115 -0.1602
 4045SOL    HW223769   4.240   1.801   8.088 -0.3792  0.7634  0.0468
 4046SOL     OW23770   1.998   0.451  11.690 -0.2450  0.3565 -0.0033
 4046SOL    HW123771   1.929   0.518  11.692 -1.3264 -0.8109  1.0265
 4046SOL    HW223772   2.024   0.451  11.782  1.3626 -1.6347 -0.4675
 4047SOL     OW23773   1.982   2.312   7.010 -0.8574  0.1621 -0.1933
 4047SOL    HW123774   1.906   2.265   7.043 -1.0679  1.1598  0.7480
 4047SOL    HW223775   2.049   2.243   7.014  0.1442  1.0622 -1.5408
 4048SOL     OW23776   0.295   2.484   3.706 -0.7643  0.7869  0.0347
 4048SOL    HW123777   0.387   2.477   3.730  0.0054  2.9863 -2.3116
 4048SOL    HW223778   0.287   2.446   3.619  0.5952  0.4524  0.0509
 4049SOL     OW23779   4.104   0.579   4.125  0.2867 -0.4125  0.4929
 4049SOL    HW123780   4.184   0.621   4.156  1.0370 -1.9358  0.6224
 4049SOL    HW223781   4.038   0.601   4.191 -0.6496 -0.5138 -0.4062
 4050SOL     OW23782   1.343   3.498   1.367  0.4823 -0.0110  0.5138
 4050SOL    HW123783   1.322   3.516   1.459  0.7593  3.7016 -0.1686
 4050SOL    HW223784   1.299   3.414   1.351  0.4147 -0.0017  0.6450
 4051SOL     OW23785   3.342   2.143   0.373 -0.9191 -0.1874  0.3991
 4051SOL    HW123786   3.286   2.211   0.335 -1.6070 -1.6614 -1.2439
 4051SOL    HW223787   3.423   2.162   0.325 -0.9220  2.9209  1.6598
 4052SOL     OW23788   2.335   4.655  14.764 -0.1780 -0.4427  0.5757
 4052SOL    HW123789   2.397   4.605  14.710  0.7401  0.6786  0.5939
 4052SOL    HW223790   2.267   4.594  14.791  1.2650 -1.5230  1.7650
 4053SOL     OW23791   0.348   0.693   1.327 -0.0678 -0.3395 -0.3203
 4053SOL    HW123792   0.432   0.648   1.318 -0.8293 -2.1114  1.6689
 4053SOL    HW223793   0.327   0.672   1.418  1.4258 -0.6677 -0.0540
 4054SOL     OW23794   4.555   3.261   7.177  0.8234 -0.2189 -0.5293
 4054SOL    HW123795   4.590   3.180   7.215  0.1924  0.5258  1.6535
 4054SOL    HW223796   4.539   3.237   7.086 -1.6520  1.0352 -0.4298
 4055SOL     OW23797   1.215   4.090   1.257  0.1461  0.7924  0.3878
 4055SOL    HW123798   1.259   4.063   1.338  1.3924 -1.7551 -1.1070
 4055SOL    HW223799   1.135   4.038   1.266  0.8514  0.0848  2.6612
 4056SOL     OW23800   3.309   4.503   8.378 -0.0199 -0.3721 -0.0227
 4056SOL    HW123801   3.257   4.445   8.433 -1.8990 -0.2280 -1.6578
 4056SOL    HW223802   3.357   4.545   8.449 -1.5833 -0.5732  1.1449
 4057SOL     OW23803   1.097   0.066   5.361 -0.1333  0.3993 -1.2950
 4057SOL    HW123804   1.016   0.023   5.334 -0.1221  0.6512 -1.7416
 4057SOL    HW223805   1.105   0.137   5.297 -1.6007 -0.0321 -1.9562
 4058SOL     OW23806   1.345   1.646  14.854  0.2220  0.2091 -0.0008
 4058SOL    HW123807   1.293   1.565  14.850  1.7553 -0.8137  0.6235
 4058SOL    HW223808   1.385   1.630  14.769  0.2898 -0.5557  0.1751
 4059SOL     OW23809   3.988   4.330   6.853 -0.4049 -0.4904  0.0240
 4059SOL    HW123810   3.990   4.238   6.829  1.8763 -0.4470  0.0332
 4059SOL    HW223811   3.938   4.324   6.934  1.0638 -2.6446  0.7860
 4060SOL     OW23812   0.387   1.247   6.016  0.5116 -0.3114  0.1593
 4060SOL    HW123813   0.365   1.195   6.093 -1.8122  1.4940  0.6997
 4060SOL    HW223814   0.329   1.324   6.022  1.3144  0.2751  0.3318
 4061SOL     OW23815   1.675   0.437   4.493  0.1072 -0.7153 -1.0020
 4061SOL    HW123816   1.604   0.425   4.556 -0.5847 -1.1929 -1.8710
 4061SOL    HW223817   1.696   0.345   4.474  0.4893 -1.1325  1.4870
 4062SOL     OW23818   1.469   1.942   3.590 -0.3178  0.4308 -0.4104
 4062SOL    HW123819   1.502   1.869   3.537  1.4747 -0.7037  2.3111
 4062SOL    HW223820   1.478   2.013   3.526 -1.1909  2.3336  1.5713
 4063SOL     OW23821   0.020   3.943   5.475  0.5987 -0.1760  0.3398
 4063SOL    HW123822   4.660   3.950   5.466  0.6243 -0.9071 -0.5883
 4063SOL    HW223823   0.046   3.991   5.396  1.8925 -1.5102 -0.0557
 4064SOL     OW23824   2.607   4.221  17.006  0.3860 -0.2034  0.3270
 4064SOL    HW123825   2.634   4.288  16.943  0.4794 -0.0172  0.5665
 4064SOL    HW223826   2.689   4.198  17.049 -0.7969 -1.6529  1.7785
 4065SOL     OW23827   2.227   0.527  15.879  0.1762 -0.4103  0.6494
 4065SOL    HW123828   2.322   0.523  15.887  0.2448 -1.1486 -0.5892
 4065SOL    HW223829   2.199   0.509  15.969 -0.1832 -1.6882  0.2770
 4066SOL     OW23830   2.716   3.424   3.770  0.1432 -0.1180 -0.1226
 4066SOL    HW123831   2.647   3.489   3.766 -1.7659 -2.0398  2.3154
 4066SOL    HW223832   2.746   3.422   3.679  1.7356 -1.8808  0.4220
 4067SOL     OW23833   2.581   2.331  17.122 -0.3197  0.1818  0.4509
 4067SOL    HW123834   2.627   2.413  17.141 -1.9643  0.7788  1.8409
 4067SOL    HW223835   2.614   2.307  17.036 -0.8326 -1.1461  0.6152
 4068SOL     OW23836   0.277   4.227   8.822 -0.0956  0.0803 -0.2538
 4068SOL    HW123837   0.236   4.293   8.878 -1.0779  1.2407 -2.3378
 4068SOL    HW223838   0.337   4.284   8.773  1.5001 -0.4623  1.0550
 4069SOL     OW23839   4.623   1.818   4.770  0.7815  0.4792 -0.1915
 4069SOL    HW123840   4.586   1.848   4.687  1.7699  0.5783 -0.5920
 4069SOL    HW223841   4.611   1.892   4.830  1.0321 -0.9810  1.6772
 4070SOL     OW23842   3.600   1.107   4.339  0.0640 -0.1917  0.0428
 4070SOL    HW123843   3.627   1.191   4.375  0.8392 -1.0623  1.5121
 4070SOL    HW223844   3.618   1.128   4.247  0.6635  1.0923  0.4602
 4071SOL     OW23845   4.078   2.210   5.294  0.3585  0.1078 -0.1126
 4071SOL    HW123846   4.164   2.207   5.336  0.5892  2.9607 -0.4033
 4071SOL    HW223847   4.017   2.154   5.342 -2.1745  2.9708 -0.0163
 4072SOL     OW23848   1.274   0.885   7.458 -0.6393  0.7870 -0.3588
 4072SOL    HW123849   1.341   0.896   7.390  0.1280  0.1448  0.2876
 4072SOL    HW223850   1.196   0.871   7.404 -0.5842  2.0002 -0.7538
 4073SOL     OW23851   4.338   4.455   9.124 -0.1583  0.0037 -0.0073
 4073SOL    HW123852   4.302   4.378   9.169  1.3713 -1.8089 -1.8558
 4073SOL    HW223853   4.308   4.525   9.181  1.2193  0.6584 -0.0981
 4074SOL     OW23854   1.576   1.940   3.126 -0.1788 -0.0388 -0.1492
 4074SOL    HW123855   1.598   1.986   3.045  1.0350 -0.7052 -0.2019
 4074SOL    HW223856   1.588   1.850   3.096 -0.3140  0.7047 -2.4275
 4075SOL     OW23857   3.107   0.789   3.407  0.1177  0.2912 -0.3585
 4075SOL    HW123858   3.042   0.721   3.425  1.7197 -0.6830  1.7447
 4075SOL    HW223859   3.077   0.862   3.461  1.1587  0.7078 -0.3598
 4076SOL     OW23860   3.037   2.324   5.265 -0.0584  0.3817  0.4061
 4076SOL    HW123861   3.013   2.403   5.313  1.1083 -0.1013  1.7817
 4076SOL    HW223862   3.077   2.363   5.187 -1.0717  0.3292 -0.1364
 4077SOL     OW23863   3.459   3.282   7.300 -0.1562  0.4393  0.0646
 4077SOL    HW123864   3.479   3.208   7.244 -1.0516  0.2390  0.0153
 4077SOL    HW223865   3.487   3.357   7.247  1.8784  1.0721  2.0350
 4078SOL     OW23866   4.701   2.592  12.641  0.9665  0.0125  0.0963
 4078SOL    HW123867   4.666   2.600  12.730 -1.8255 -0.7495 -0.9188
 4078SOL    HW223868   4.722   2.682  12.617 -0.3403  0.2774 -0.0729
 4079SOL     OW23869   0.074   3.911   9.125  0.1706  0.9164 -0.0511
 4079SOL    HW123870   0.148   3.853   9.143 -0.6976 -0.6160 -1.4189
 4079SOL    HW223871   0.094   4.000   9.155 -0.0462  0.7167  0.6871
 4080SOL     OW23872   0.946   3.537  16.333  0.3018 -0.1142 -0.4111
 4080SOL    HW123873   0.989   3.487  16.403 -0.6796  1.2206  1.1560
 4080SOL    HW223874   1.014   3.605  16.333  1.0807 -0.8852 -0.0442
 4081SOL     OW23875   0.327   0.264   6.800 -0.2117  0.2603  0.0877
 4081SOL    HW123876   0.323   0.209   6.879 -4.1607  0.0056 -0.3018
 4081SOL    HW223877   0.420   0.260   6.776 -0.3019  0.0653 -0.2251
 4082SOL     OW23878   3.925   4.074   6.748  0.5650  0.3851 -0.4570
 4082SOL    HW123879   3.857   4.127   6.706 -2.2093  1.0837  4.9868
 4082SOL    HW223880   3.946   4.019   6.673 -3.6330  1.6718 -2.6086
 4083SOL     OW23881   3.217   4.163   2.112 -0.2326 -0.2750  0.2715
 4083SOL    HW123882   3.205   4.134   2.202  1.9869 -2.4112 -0.1417
 4083SOL    HW223883   3.215   4.259   2.120 -1.3551 -0.4189  1.6275
 4084SOL     OW23884   0.105   2.059   4.618  0.2050 -0.1030 -0.1957
 4084SOL    HW123885   0.058   2.141   4.637  0.3655 -0.6046  2.3137
 4084SOL    HW223886   0.192   2.096   4.634 -0.0598 -0.5998  2.4427
 4085SOL     OW23887   2.143   3.509   3.920  0.0357 -0.4923  0.7104
 4085SOL    HW123888   2.177   3.556   3.844 -0.5947 -0.2442  0.5810
 4085SOL    HW223889   2.172   3.562   3.994  2.8472  1.3504 -1.6864
 4086SOL     OW23890   0.509   0.863   7.021  0.3618  0.6520  0.0398
 4086SOL    HW123891   0.502   0.770   6.999  3.3783  0.3965  0.1026
 4086SOL    HW223892   0.435   0.893   6.968  0.1600 -1.7632 -1.0584
 4087SOL     OW23893   4.111   0.056   8.636 -0.4121 -0.3063 -0.1711
 4087SOL    HW123894   4.195   0.095   8.659  0.2685 -1.1930 -1.1464
 4087SOL    HW223895   4.115   0.061   8.540 -2.8408  0.2208 -0.2438
 4088SOL     OW23896   1.024   3.634   9.804 -0.2827 -0.1531  0.2062
 4088SOL    HW123897   0.994   3.636   9.713 -0.2655  1.2697  0.2341
 4088SOL    HW223898   0.957   3.581   9.846  1.3518 -1.0705  1.6864
 4089SOL     OW23899   1.889   4.163  11.576  0.2406 -0.3290 -0.2020
 4089SOL    HW123900   1.964   4.158  11.635 -2.3066  0.1265  3.0854
 4089SOL    HW223901   1.878   4.259  11.578  0.5371 -0.2860 -0.6803
 4090SOL     OW23902   3.091   3.481   3.368 -0.1981  0.3745 -0.4737
 4090SOL    HW123903   3.098   3.547   3.436  3.4784  2.3649 -2.7942
 4090SOL    HW223904   3.020   3.426   3.401 -0.0870 -0.4994 -1.6522
 4091SOL     OW23905   0.752   3.463  13.939  0.1855  0.3794  0.2942
 4091SOL    HW123906   0.735   3.490  13.848  2.7367  0.0873 -0.2583
 4091SOL    HW223907   0.724   3.541  13.986  0.8272  0.1970  0.9742
 4092SOL     OW23908   4.533   0.522   2.460  0.3074  0.2307  0.3241
 4092SOL    HW123909   4.550   0.463   2.533  0.4464 -1.0491 -0.7467
 4092SOL    HW223910   4.442   0.500   2.440 -0.4752  2.9570  0.8640
 4093SOL     OW23911   4.587   3.478   9.631  0.3308 -0.0464 -0.5327
 4093SOL    HW123912   4.577   3.469   9.536 -2.2736 -0.8448 -0.1797
 4093SOL    HW223913   4.607   3.572   9.632 -0.8646  0.2072 -0.1444
 4094SOL     OW23914   4.326   3.061   2.889 -0.7386  0.5746 -0.5853
 4094SOL    HW123915   4.387   3.085   2.959 -1.6334  1.4951 -0.1211
 4094SOL    HW223916   4.373   3.078   2.808 -1.3933  0.1931 -1.0428
 4095SOL     OW23917   2.561   3.633   0.441  0.4146 -0.0891 -0.5213
 4095SOL    HW123918   2.584   3.593   0.357  0.0059  0.2091 -0.7727
 4095SOL    HW223919   2.514   3.563   0.487  0.4109  1.0604  1.1967
 4096SOL     OW23920   4.292   4.695   9.799  0.4277 -0.5275 -0.4908
 4096SOL    HW123921   4.295   4.604   9.770  0.4245  0.2232 -2.8253
 4096SOL    HW223922   4.199   4.716   9.803 -0.0697 -2.8188 -0.2168
 4097SOL     OW23923   3.188   1.863   8.622 -0.2030  0.3125  0.8463
 4097SOL    HW123924   3.151   1.940   8.665  1.5095  1.5961  0.0033
 4097SOL    HW223925   3.258   1.831   8.678  1.7238 -0.6827 -2.1641
 4098SOL     OW23926   3.550   2.075   5.051 -0.2520  0.4326  0.7552
 4098SOL    HW123927   3.480   2.119   5.003  1.8574  1.7331 -1.1494
 4098SOL    HW223928   3.532   1.982   5.042 -0.7573  0.5121  0.9909
 4099SOL     OW23929   0.552   0.803   8.161  0.6096 -0.4062  0.2804
 4099SOL    HW123930   0.592   0.839   8.240  3.3243  0.1374 -1.3380
 4099SOL    HW223931   0.537   0.715   8.195 -2.4376  0.1708  0.3616
 4100SOL     OW23932   4.567   1.251   3.398 -0.4691  0.6622  0.1623
 4100SOL    HW123933   4.523   1.167   3.410 -0.4928  0.9201  1.9756
 4100SOL    HW223934   4.605   1.235   3.312  1.1679 -2.8626  1.5253
 4101SOL     OW23935   2.918   3.772   1.981 -0.5976  0.6316 -0.4780
 4101SOL    HW123936   2.967   3.733   2.054 -3.0261 -0.0540  0.7790
 4101SOL    HW223937   2.953   3.861   1.970 -0.3201  0.2778 -2.4210
 4102SOL     OW23938   0.360   3.326   5.377  0.4940  0.0133 -0.5277
 4102SOL    HW123939   0.411   3.328   5.296 -2.7744 -1.4342 -2.6717
 4102SOL    HW223940   0.322   3.238   5.369 -0.7336  0.6226 -1.4424
 4103SOL     OW23941   0.037   0.323   8.843  0.1696 -0.4552 -0.5903
 4103SOL    HW123942   0.082   0.397   8.884  0.5736 -0.6067 -0.7527
 4103SOL    HW223943   0.086   0.247   8.876 -0.6215 -0.7250 -0.0499
 4104SOL     OW23944   0.059   1.350  13.066  0.2170  0.2659  0.5062
 4104SOL    HW123945   0.067   1.381  12.975  0.9806 -1.5184 -0.0458
 4104SOL    HW223946   0.152   1.351  13.089  0.1183  0.1035  0.9055
 4105SOL     OW23947   3.512   3.688  16.188  0.1379  0.4346  0.0395
 4105SOL    HW123948   3.445   3.675  16.255  0.6874  1.1849  0.7331
 4105SOL    HW223949   3.570   3.616  16.214 -0.3930  0.0814  0.2362
 4106SOL     OW23950   3.822   3.911  12.487 -0.2863  0.4850  0.0282
 4106SOL    HW123951   3.831   3.932  12.580  1.4377 -1.2677  0.2489
 4106SOL    HW223952   3.908   3.926  12.447  0.7434  0.1245  2.0899
 4107SOL     OW23953   2.487   3.692  13.637  0.8068 -0.1428 -0.3844
 4107SOL    HW123954   2.406   3.682  13.685 -0.2709  0.1322 -2.1405
 4107SOL    HW223955   2.541   3.615  13.653 -1.7900 -1.7119  0.6699
 4108SOL     OW23956   4.299   0.369   9.670  0.3411 -0.7909  0.4382
 4108SOL    HW123957   4.262   0.451   9.635  2.6928 -1.2713 -3.0895
 4108SOL    HW223958   4.265   0.304   9.609  0.5986 -1.7087  1.2795
 4109SOL     OW23959   0.466   2.175  10.591 -0.2182 -0.8208  0.3383
 4109SOL    HW123960   0.494   2.253  10.638  2.5324 -2.5294  1.5792
 4109SOL    HW223961   0.403   2.137  10.652 -0.7131  0.5958  0.7110
 4110SOL     OW23962   1.688   0.629   3.870 -0.2425 -0.0925  0.1393
 4110SOL    HW123963   1.592   0.636   3.869 -0.4574 -3.0083  2.1872
 4110SOL    HW223964   1.704   0.604   3.960 -1.7078  0.4457  0.5535
 4111SOL     OW23965   2.079   1.514   8.382 -0.1473  0.4453 -0.2756
 4111SOL    HW123966   2.174   1.503   8.372 -0.2156  0.0742 -0.5146
 4111SOL    HW223967   2.053   1.512   8.290  2.2906  2.3267 -1.0283
 4112SOL     OW23968   0.070   0.281  13.291 -0.1426 -0.2672 -0.7417
 4112SOL    HW123969   0.129   0.347  13.329 -0.7328  0.9885 -2.0159
 4112SOL    HW223970   0.128   0.205  13.291 -1.5924 -1.3767 -1.7910
 4113SOL     OW23971   3.672   0.308   3.788  0.1013 -0.5710  0.3583
 4113SOL    HW123972   3.760   0.272   3.800  1.1357  1.9377  0.3855
 4113SOL    HW223973   3.685   0.335   3.697 -3.8105  1.1333  0.2766
 4114SOL     OW23974   0.828   4.116   3.207 -0.3186 -0.1475  0.0397
 4114SOL    HW123975   0.770   4.052   3.165 -0.8232 -1.4500  2.6700
 4114SOL    HW223976   0.771   4.192   3.214  1.1406  1.0499 -1.2875
 4115SOL     OW23977   3.885   1.096   1.650  0.4021 -0.1168  1.0221
 4115SOL    HW123978   3.947   1.062   1.585  1.4862 -1.1926  2.6377
 4115SOL    HW223979   3.937   1.153   1.707  0.1162  0.5543  0.6073
 4116SOL     OW23980   2.597   3.291   5.589  0.4684 -0.2671 -0.3716
 4116SOL    HW123981   2.613   3.288   5.683 -0.7613  0.4307 -0.1406
 4116SOL    HW223982   2.585   3.199   5.563 -0.9948  0.1241 -1.1134
 4117SOL     OW23983   4.383   1.833   3.013 -0.7043 -0.3582 -0.2912
 4117SOL    HW123984   4.408   1.758   2.959  1.7247 -0.3001  0.7644
 4117SOL    HW223985   4.411   1.904   2.955 -1.0573 -0.1403 -0.1986
 4118SOL     OW23986   2.388   2.776   5.528 -0.3608 -0.1756 -0.1509
 4118SOL    HW123987   2.425   2.701   5.575 -0.4900 -0.5617 -0.6627
 4118SOL    HW223988   2.313   2.798   5.583  1.5420  0.2574  2.3102
 4119SOL     OW23989   3.169   0.952  12.121 -0.0674  0.0705 -0.2014
 4119SOL    HW123990   3.182   0.900  12.201 -0.7856 -2.3077 -1.6178
 4119SOL    HW223991   3.239   1.016  12.118  1.0097 -1.1762 -2.1479
 4120SOL     OW23992   1.167   3.071   1.604  0.2611  0.4674  0.2167
 4120SOL    HW123993   1.119   3.026   1.534 -0.2534  1.0254  0.2091
 4120SOL    HW223994   1.120   3.155   1.606  1.1296  0.9480  0.4108
 4121SOL     OW23995   1.505   0.830  11.806 -0.0505 -0.3182  1.0571
 4121SOL    HW123996   1.475   0.896  11.868 -3.1159  0.8141 -1.6767
 4121SOL    HW223997   1.518   0.880  11.725 -1.0315 -1.3846  0.2470
 4122SOL     OW23998   2.715   3.115   5.150 -0.2577 -0.9280 -0.7574
 4122SOL    HW123999   2.641   3.163   5.187 -1.9613 -4.4500  0.3755
 4122SOL    HW224000   2.677   3.100   5.063  0.7560 -0.5838 -1.2570
 4123SOL     OW24001   2.031   0.313   2.971  0.6077 -0.1980  0.8602
 4123SOL    HW124002   2.088   0.237   2.983 -0.4996 -1.2432 -0.4620
 4123SOL    HW224003   2.094   0.382   2.951 -1.3347  0.3623 -3.4701
 4124SOL     OW24004   0.849   0.793  15.875 -0.1917 -0.3317  0.2959
 4124SOL    HW124005   0.827   0.810  15.783 -0.1530  2.0880  0.7198
 4124SOL    HW224006   0.889   0.708  15.861 -1.5652 -0.5832 -2.2127
 4125SOL     OW24007   3.991   3.352  11.975 -0.0577  0.4037 -0.1456
 4125SOL    HW124008   4.002   3.265  12.013 -2.5150 -0.8346 -2.2705
 4125SOL    HW224009   3.896   3.363  11.970  0.0287  0.3653 -1.9472
 4126SOL     OW24010   1.947   1.131   8.711 -0.2905 -0.4154  0.3444
 4126SOL    HW124011   1.983   1.168   8.631  0.3657 -0.2295  0.7245
 4126SOL    HW224012   1.968   1.203   8.770 -0.2468  1.7438 -2.3735
 4127SOL     OW24013   3.666   1.274  12.436 -0.8187  0.2149  0.6066
 4127SOL    HW124014   3.709   1.350  12.473  4.2972 -2.2048 -0.3929
 4127SOL    HW224015   3.629   1.312  12.356  4.1012  1.5233 -1.0001
 4128SOL     OW24016   2.710   1.050  12.341  1.0229  0.4670  0.6118
 4128SOL    HW124017   2.749   0.989  12.404  1.8990 -0.8475 -1.2005
 4128SOL    HW224018   2.636   1.077  12.395 -0.0165  1.0680 -1.1113
 4129SOL     OW24019   4.474   1.608   4.270  0.0939  0.4682  0.1366
 4129SOL    HW124020   4.544   1.668   4.243  0.4681  0.4968  1.1800
 4129SOL    HW224021   4.517   1.560   4.340 -0.0440  1.0300  0.6011
 4130SOL     OW24022   4.499   0.351   4.274 -0.1783  0.4945 -0.0531
 4130SOL    HW124023   4.415   0.385   4.304 -0.4820  2.1899 -2.7322
 4130SOL    HW224024   4.539   0.319   4.354 -1.5357 -0.2110  0.3359
 4131SOL     OW24025   4.559   3.017   3.988 -0.3858  0.1614  0.1898
 4131SOL    HW124026   4.576   2.929   4.022  0.4399  0.1288 -0.3045
 4131SOL    HW224027   4.645   3.034   3.951 -1.1765  0.7438 -1.3514
 4132SOL     OW24028   0.195   0.739  12.792 -0.0234 -0.2793  0.0806
 4132SOL    HW124029   0.214   0.721  12.884 -3.4455 -2.5354  0.3374
 4132SOL    HW224030   0.257   0.808  12.768  0.2170 -0.6850 -0.4542
 4133SOL     OW24031   1.938   0.882   3.936  0.4524  0.1743 -0.9299
 4133SOL    HW124032   1.860   0.829   3.920  1.3240 -1.4800  0.3528
 4133SOL    HW224033   1.913   0.956   3.881  1.1955  1.0278 -0.1289
 4134SOL     OW24034   2.247   2.223   0.120  0.1715 -0.1974 -0.1579
 4134SOL    HW124035   2.343   2.229   0.115  0.1983 -0.8064 -0.3731
 4134SOL    HW224036   2.233   2.306   0.166 -1.1121  0.7362 -2.2467
 4135SOL     OW24037   3.047   4.253   7.736 -0.3867  0.3675  0.1754
 4135SOL    HW124038   3.066   4.159   7.733 -0.8156  0.2441  1.4981
 4135SOL    HW224039   2.970   4.262   7.680 -2.1417 -1.4063  2.3213
 4136SOL     OW24040   3.376   3.167   6.824  0.8237 -0.0417  0.2730
 4136SOL    HW124041   3.417   3.189   6.740  0.9395 -0.9818  0.0865
 4136SOL    HW224042   3.368   3.256   6.858 -3.1498 -0.1007 -0.4072
 4137SOL     OW24043   2.078   4.469   5.636 -0.2414 -0.1118  0.7906
 4137SOL    HW124044   2.059   4.498   5.725  3.7303 -0.0019  1.6026
 4137SOL    HW224045   2.127   4.544   5.604  1.9671 -1.4283  1.0569
 4138SOL     OW24046   2.957   3.504  12.495  1.1404 -0.6815  0.2558
 4138SOL    HW124047   2.926   3.512  12.405  1.6008  0.9205  0.2448
 4138SOL    HW224048   3.041   3.550  12.499  0.6093  0.3220 -0.0599
 4139SOL     OW24049   4.003   2.412  10.258  0.0896 -0.0826 -0.1730
 4139SOL    HW124050   3.929   2.417  10.199  0.8812 -0.1936 -1.1746
 4139SOL    HW224051   4.061   2.348  10.218  1.1755  0.0972  1.0878
 4140SOL     OW24052   2.308   0.529   0.742  0.2011 -0.3427  0.0341
 4140SOL    HW124053   2.389   0.567   0.776  0.3013 -1.6438  1.2761
 4140SOL    HW224054   2.248   0.566   0.807  1.4871 -1.0580  1.6570
 4141SOL     OW24055   4.497   2.462   9.894 -0.2354  0.0186  0.2342
 4141SOL    HW124056   4.509   2.391   9.831  0.1445 -0.8387  1.2974
 4141SOL    HW224057   4.524   2.541   9.846 -0.5643  0.3318  0.5694
 4142SOL     OW24058   0.247   3.104   6.689 -0.2242 -0.3919  0.0862
 4142SOL    HW124059   0.187   3.179   6.681  1.4557  0.9254 -0.1525
 4142SOL    HW224060   0.217   3.067   6.771  0.0439  0.9092  0.7764
 4143SOL     OW24061   3.454   1.413   0.625 -0.4364  0.0527  0.2953
 4143SOL    HW124062   3.364   1.387   0.646 -0.3721 -0.5976 -0.2437
 4143SOL    HW224063   3.478   1.426   0.716  2.1040  1.4796 -0.5809
 4144SOL     OW24064   1.492   0.937  13.980 -0.1902 -0.1542 -1.0717
 4144SOL    HW124065   1.548   0.917  14.055 -0.1218 -1.6650 -1.5190
 4144SOL    HW224066   1.544   1.007  13.940 -0.8546  1.0563  0.2272
 4145SOL     OW24067   4.397   0.730   5.219 -0.1956  0.0730  0.3666
 4145SOL    HW124068   4.356   0.650   5.254  0.7565 -1.3322 -1.6790
 4145SOL    HW224069   4.483   0.692   5.200  0.4531  1.2389  1.0553
 4146SOL     OW24070   1.200   1.583   5.207  0.4540 -0.5415 -0.5059
 4146SOL    HW124071   1.288   1.608   5.237  0.8930  0.3317 -2.5394
 4146SOL    HW224072   1.164   1.671   5.197  0.0333 -0.7755 -1.0518
 4147SOL     OW24073   1.676   2.635   2.815  0.1279  0.1166  0.4366
 4147SOL    HW124074   1.683   2.587   2.898 -1.9543  0.6024  0.8995
 4147SOL    HW224075   1.628   2.713   2.844  1.7380  1.5691 -0.8382
 4148SOL     OW24076   4.229   3.399   0.042  0.6375  0.1591  0.0964
 4148SOL    HW124077   4.276   3.448   0.109 -3.3381  1.2960  2.0033
 4148SOL    HW224078   4.299   3.338   0.014  0.1685  0.6593 -2.2071
 4149SOL     OW24079   3.832   3.078   6.596  0.0954  0.3040  0.2497
 4149SOL    HW124080   3.803   2.991   6.567 -0.5819  0.6293 -0.0380
 4149SOL    HW224081   3.846   3.064   6.690  0.8991  0.3173  0.1305
 4150SOL     OW24082   1.172   2.191   2.452 -1.2906  0.3671  0.3472
 4150SOL    HW124083   1.258   2.234   2.455 -1.4176  0.3369  3.6906
 4150SOL    HW224084   1.183   2.141   2.532 -0.6246  0.1958  0.1499
 4151SOL     OW24085   1.044   3.821   1.148 -0.0355  0.4058  0.7840
 4151SOL    HW124086   0.986   3.816   1.072  2.8124 -0.4975 -1.3179
 4151SOL    HW224087   0.981   3.845   1.216 -1.0658 -0.4848  0.1399
 4152SOL     OW24088   0.926   0.967  17.388  0.0836 -0.3899  0.0327
 4152SOL    HW124089   0.836   0.992  17.411 -0.5767 -2.2613 -0.5984
 4152SOL    HW224090   0.902   0.888  17.340  1.6051  0.1660 -1.6759
 4153SOL     OW24091   3.136   0.198  12.821 -0.0298  0.4357 -0.6482
 4153SOL    HW124092   3.055   0.249  12.812  1.0385  2.0519 -0.8866
 4153SOL    HW224093   3.188   0.259  12.872 -0.6722  0.1823  0.3017
 4154SOL     OW24094   2.344   4.224   6.211 -0.1113  0.0141 -0.0248
 4154SOL    HW124095   2.266   4.172   6.192 -0.3571 -0.8671  3.4577
 4154SOL    HW224096   2.336   4.283   6.136  0.6835 -0.0807 -0.1881
 4155SOL     OW24097   0.695   0.934  12.626  0.5551 -0.1397  0.0829
 4155SOL    HW124098   0.606   0.900  12.628  0.6318 -0.3348  0.2196
 4155SOL    HW224099   0.693   1.023  12.663  0.8809 -0.1891  0.2260
 4156SOL     OW24100   4.261   3.529  10.061 -0.7267 -0.3443 -0.0998
 4156SOL    HW124101   4.311   3.606  10.033 -0.6530 -0.9307 -1.5339
 4156SOL    HW224102   4.283   3.528  10.154 -1.7322 -0.0765  0.1420
 4157SOL     OW24103   0.727   0.921   8.747  0.7431 -0.0452  0.3644
 4157SOL    HW124104   0.783   0.909   8.823 -0.7990 -1.2307  1.3135
 4157SOL    HW224105   0.659   0.971   8.792 -1.6198 -1.7638 -1.2997
 4158SOL     OW24106   0.543   0.038   6.533  0.4285 -0.0435 -0.0386
 4158SOL    HW124107   0.491   4.696   6.555  2.1666 -0.9501  0.9484
 4158SOL    HW224108   0.564   0.079   6.617  2.5633 -0.3946 -0.4059
 4159SOL     OW24109   0.292   1.723   7.731 -0.5754 -0.1586  0.2791
 4159SOL    HW124110   0.247   1.726   7.815  1.2778  1.4816  1.2047
 4159SOL    HW224111   0.320   1.631   7.734 -0.2525 -0.0495  0.6363
 4160SOL     OW24112   4.555   4.260  15.130 -0.4509  0.0137 -0.1998
 4160SOL    HW124113   4.467   4.264  15.166 -1.0091 -2.7845 -1.2359
 4160SOL    HW224114   4.568   4.167  15.108 -2.2797  0.3958 -2.9255
 4161SOL     OW24115   2.660   3.929  10.679  0.3365 -0.9340 -0.2747
 4161SOL    HW124116   2.638   3.837  10.666  1.5224 -1.0066 -1.6720
 4161SOL    HW224117   2.640   3.958  10.590  2.3059 -0.2733 -0.4890
 4162SOL     OW24118   3.050   0.522   2.127 -0.6688  0.4445 -0.3341
 4162SOL    HW124119   3.145   0.508   2.131 -0.7155  0.0551 -0.5385
 4162SOL    HW224120   3.013   0.521   2.215 -2.0724 -1.6990 -0.9611
 4163SOL     OW24121   2.455   3.674  10.427 -0.5392  0.1604 -0.1423
 4163SOL    HW124122   2.495   3.671  10.340 -0.4364 -0.6958 -0.0661
 4163SOL    HW224123   2.414   3.588  10.417  0.3511 -0.0386 -2.0222
 4164SOL     OW24124   0.798   2.410   2.132 -0.0389  0.5778  0.2265
 4164SOL    HW124125   0.774   2.429   2.222  1.3002 -0.8473  0.8901
 4164SOL    HW224126   0.850   2.489   2.117 -0.7052  0.6692 -1.6711
 4165SOL     OW24127   0.442   0.655   3.064  0.3143  0.0033  0.4278
 4165SOL    HW124128   0.457   0.591   2.995 -0.3985  1.0051 -0.6412
 4165SOL    HW224129   0.357   0.632   3.103 -0.6697  1.7100 -0.7116
 4166SOL     OW24130   0.814   2.219  14.506 -0.0912  0.0530  0.5693
 4166SOL    HW124131   0.734   2.268  14.526 -0.9349  0.0668 -2.8979
 4166SOL    HW224132   0.782   2.129  14.513  0.9501 -0.1495  2.7992
 4167SOL     OW24133   0.364   0.484   7.126 -0.3589  0.3403  0.1871
 4167SOL    HW124134   0.400   0.400   7.155 -0.7921  0.5015  1.2009
 4167SOL    HW224135   0.271   0.461   7.124 -0.1107 -0.8862  3.1884
 4168SOL     OW24136   0.027   3.612   2.701 -0.2694 -0.2766  0.6187
 4168SOL    HW124137   0.044   3.523   2.731  1.6576 -0.1914 -0.2367
 4168SOL    HW224138   4.671   3.605   2.672 -0.2984  0.9449  0.4372
 4169SOL     OW24139   1.607   4.291   2.071  0.3028 -0.2906 -0.8802
 4169SOL    HW124140   1.666   4.336   2.131 -1.1896 -0.2974  0.5836
 4169SOL    HW224141   1.660   4.211   2.070  1.2385  0.3460 -2.4732
 4170SOL     OW24142   0.835   1.362   5.591  0.3355  0.2364  0.1333
 4170SOL    HW124143   0.928   1.367   5.610  0.8843 -2.1346 -2.0095
 4170SOL    HW224144   0.842   1.387   5.499  2.3004 -0.9226 -0.0112
 4171SOL     OW24145   2.376   0.596   2.561  0.2905 -0.4525  0.4666
 4171SOL    HW124146   2.419   0.525   2.607 -3.5729 -2.1158  1.5603
 4171SOL    HW224147   2.368   0.664   2.628  0.1866 -0.7688  0.7714
 4172SOL     OW24148   2.828   2.016   6.178 -0.3163  0.4512  0.3402
 4172SOL    HW124149   2.892   1.997   6.110 -1.0562 -1.9591  0.3073
 4172SOL    HW224150   2.869   2.084   6.231 -0.5155  1.1193 -0.3622
 4173SOL     OW24151   4.313   3.939   5.166  0.2616 -0.3897  0.6339
 4173SOL    HW124152   4.318   4.031   5.191  1.3576  0.1471 -1.5968
 4173SOL    HW224153   4.279   3.943   5.076  2.4934 -0.3254 -0.1968
 4174SOL     OW24154   2.095   4.413   3.455 -0.2980  0.0244  0.0738
 4174SOL    HW124155   2.182   4.449   3.472  0.6668 -2.6113  0.6631
 4174SOL    HW224156   2.120   4.370   3.374 -2.2708  1.5358 -1.3324
 4175SOL     OW24157   0.585   4.540  10.235  0.8949  0.1164 -1.3088
 4175SOL    HW124158   0.568   4.634  10.232 -1.5297 -0.3406 -1.6055
 4175SOL    HW224159   0.573   4.518  10.328 -0.8472 -0.0624 -1.5659
 4176SOL     OW24160   1.938   0.264  14.171  0.1138  0.2308  0.1267
 4176SOL    HW124161   1.881   0.297  14.102  0.2679 -1.1159 -0.6416
 4176SOL    HW224162   1.921   0.170  14.168 -2.7818  0.7598  0.5008
 4177SOL     OW24163   3.127   3.652  17.353 -0.1466  0.1436  0.3892
 4177SOL    HW124164   3.070   3.664  17.277 -0.3468 -0.3936  0.4560
 4177SOL    HW224165   3.079   3.699  17.421 -0.4163 -1.0829  1.0395
 4178SOL     OW24166   1.984   1.428  16.166  0.2354 -0.0874  0.0802
 4178SOL    HW124167   2.042   1.503  16.153  0.5910 -0.9109 -3.0395
 4178SOL    HW224168   1.959   1.441  16.257  0.8211  0.3596  0.1770
 4179SOL     OW24169   2.092   0.247   3.679 -0.0346  0.1238 -0.5824
 4179SOL    HW124170   2.027   0.208   3.621 -0.4517  0.5006 -0.3682
 4179SOL    HW224171   2.078   0.193   3.757 -2.0321  1.8244  0.2489
 4180SOL     OW24172   3.357   0.042   4.699 -0.0796 -0.1304 -0.6867
 4180SOL    HW124173   3.419   4.707   4.680  0.6634  0.4496 -0.4173
 4180SOL    HW224174   3.299   4.734   4.762 -1.3987  1.4257 -0.8255
 4181SOL     OW24175   2.158   3.625   5.919  0.2368 -0.5793  0.2330
 4181SOL    HW124176   2.131   3.537   5.944  1.3843 -1.4718 -1.6501
 4181SOL    HW224177   2.075   3.652   5.880  0.2968  0.7083  1.0057
 4182SOL     OW24178   2.023   2.370   2.349  0.1153  0.6237 -0.0217
 4182SOL    HW124179   2.004   2.278   2.329  0.6085 -0.0873  2.6769
 4182SOL    HW224180   2.117   2.370   2.331  0.0379 -1.7141 -0.5562
 4183SOL     OW24181   1.696   4.487   3.806  0.0050  0.2723  0.9297
 4183SOL    HW124182   1.773   4.488   3.749  1.4706 -1.3186  2.8964
 4183SOL    HW224183   1.647   4.429   3.749  0.1047  1.4158 -0.3243
 4184SOL     OW24184   4.376   0.822   7.765  0.2286  0.1949 -0.2565
 4184SOL    HW124185   4.312   0.758   7.735  2.0132 -1.5645 -0.2442
 4184SOL    HW224186   4.405   0.859   7.682 -1.8694  0.8745 -0.7025
 4185SOL     OW24187   1.342   1.320   6.211 -0.3324  0.3332  0.1547
 4185SOL    HW124188   1.437   1.314   6.225 -0.1322  2.4548 -0.3806
 4185SOL    HW224189   1.342   1.374   6.132  1.1106  0.7129  0.4131
 4186SOL     OW24190   2.294   1.414   3.435  0.2120  0.0477  0.4583
 4186SOL    HW124191   2.386   1.424   3.413 -0.2218  2.1828 -0.3991
 4186SOL    HW224192   2.271   1.321   3.428  1.1181 -0.2623  1.7101
 4187SOL     OW24193   0.422   3.502   7.121 -0.3592  0.2599  0.2223
 4187SOL    HW124194   0.443   3.590   7.090 -1.0881 -0.2200 -1.6768
 4187SOL    HW224195   0.471   3.503   7.203 -1.0698 -2.2023  0.6806
 4188SOL     OW24196   4.274   2.716  16.460  0.2829  0.2942  0.1045
 4188SOL    HW124197   4.275   2.623  16.483 -0.3422  0.7270  1.9060
 4188SOL    HW224198   4.184   2.721  16.428  0.7102  1.9806 -0.8480
 4189SOL     OW24199   3.286   1.288   2.963  0.9969  0.0668 -0.3820
 4189SOL    HW124200   3.285   1.245   3.048  0.1387 -1.8187 -1.3469
 4189SOL    HW224201   3.379   1.277   2.945  0.9319  0.4738 -0.9937
 4190SOL     OW24202   2.076   1.166  10.933  0.2944 -0.3520 -0.1142
 4190SOL    HW124203   2.073   1.129  11.021 -1.6414 -0.4667 -0.2242
 4190SOL    HW224204   2.128   1.244  10.952  0.2417 -0.5341  0.7785
 4191SOL     OW24205   0.076   0.390  11.496 -0.1137  1.3637  0.3168
 4191SOL    HW124206   0.003   0.417  11.552  0.2886  2.6586  0.2152
 4191SOL    HW224207   0.041   0.363  11.412  1.0596 -0.2385  0.3439
 4192SOL     OW24208   3.854   0.956   6.204  0.0330 -0.2905  0.1048
 4192SOL    HW124209   3.846   0.864   6.179 -1.0654  0.1168 -1.0566
 4192SOL    HW224210   3.946   0.974   6.187 -0.0930 -1.4858 -1.9738
 4193SOL     OW24211   0.633   3.636  15.793 -0.0262  0.1162  0.2332
 4193SOL    HW124212   0.684   3.565  15.832 -0.1256  0.3614  0.8072
 4193SOL    HW224213   0.705   3.680  15.748 -1.1652 -0.5850 -2.2874
 4194SOL     OW24214   3.939   3.149   3.776 -0.3251  0.4491 -0.1668
 4194SOL    HW124215   3.983   3.155   3.691  1.7210  0.4083  0.8909
 4194SOL    HW224216   4.006   3.120   3.838 -1.2350 -2.7315 -0.6286
 4195SOL     OW24217   4.462   3.244  11.421 -0.0599 -0.3313 -0.2006
 4195SOL    HW124218   4.420   3.158  11.430  0.5230 -0.7856 -1.7811
 4195SOL    HW224219   4.465   3.286  11.507  0.9926 -2.1881  0.6958
 4196SOL     OW24220   1.280   1.638   3.127  0.4094 -0.1937 -0.4627
 4196SOL    HW124221   1.359   1.654   3.075  0.7608  1.2035  0.4827
 4196SOL    HW224222   1.275   1.719   3.178 -1.0316  0.0383 -0.9810
 4197SOL     OW24223   4.064   0.776   8.544 -0.0194 -0.1182  0.6301
 4197SOL    HW124224   4.044   0.683   8.556 -0.6418 -0.0875 -0.1818
 4197SOL    HW224225   4.082   0.772   8.450 -0.5059  2.4840  0.4388
 4198SOL     OW24226   3.216   3.380   8.814 -0.1025 -0.5993  0.0648
 4198SOL    HW124227   3.227   3.305   8.872  1.9210 -0.0715  0.3526
 4198SOL    HW224228   3.139   3.363   8.759 -0.6686 -0.4261  0.7997
 4199SOL     OW24229   2.250   3.278   2.461  0.1633  0.0798 -0.7342
 4199SOL    HW124230   2.234   3.349   2.523 -0.1868 -1.6119  1.1245
 4199SOL    HW224231   2.312   3.314   2.397  0.1132  0.8195 -0.3678
 4200SOL     OW24232   2.364   4.472   8.694 -0.1713  0.7998 -0.0189
 4200SOL    HW124233   2.305   4.476   8.619 -0.2184 -1.5453 -0.1185
 4200SOL    HW224234   2.306   4.429   8.756  0.9145 -0.1652  0.3352
 4201SOL     OW24235   0.724   0.945   5.204 -0.5319  0.1566  0.4111
 4201SOL    HW124236   0.783   0.945   5.280  0.7778  3.8049 -0.5743
 4201SOL    HW224237   0.654   0.882   5.220  0.3155 -0.8333  0.2220
 4202SOL     OW24238   4.001   2.780   0.665  0.0787  0.1665  0.4671
 4202SOL    HW124239   4.040   2.693   0.677 -0.1456 -0.3371 -2.3664
 4202SOL    HW224240   3.990   2.806   0.756  0.4198  1.9032  0.0118
 4203SOL     OW24241   1.915   0.479   5.187  0.2444  0.6032 -0.3988
 4203SOL    HW124242   1.975   0.422   5.139 -1.7812 -1.6489 -0.2228
 4203SOL    HW224243   1.882   0.536   5.117 -1.4528 -0.7762 -0.7327
 4204SOL     OW24244   0.199   4.593   9.154  0.0293 -0.6939 -0.5253
 4204SOL    HW124245   0.156   4.542   9.222  1.0756  0.0282  0.6809
 4204SOL    HW224246   0.293   4.575   9.165 -0.0436 -1.4104 -1.0988
 4205SOL     OW24247   0.398   3.283  15.687 -0.2123 -0.1282  0.2112
 4205SOL    HW124248   0.365   3.260  15.600  0.9256  1.1223 -0.5402
 4205SOL    HW224249   0.455   3.356  15.663  0.6990 -1.4364 -1.5223
 4206SOL     OW24250   1.468   0.104  10.881  0.0402 -0.1704 -0.0188
 4206SOL    HW124251   1.557   0.106  10.916  0.0569  0.9903 -0.1292
 4206SOL    HW224252   1.479   0.118  10.787 -0.5027  0.1009 -0.0435
 4207SOL     OW24253   2.014   4.217   4.419  0.1636 -0.1836  0.0135
 4207SOL    HW124254   2.075   4.246   4.488  0.6943 -2.2537  0.3936
 4207SOL    HW224255   2.068   4.149   4.380 -0.1724 -0.9035  0.8150
 4208SOL     OW24256   4.431   4.280   7.706 -0.2322  0.0253 -0.0392
 4208SOL    HW124257   4.354   4.289   7.762 -0.0225  0.0894  0.2354
 4208SOL    HW224258   4.476   4.217   7.762  1.1934 -1.0845 -2.3895
 4209SOL     OW24259   2.708   3.522  14.117  0.1039 -0.0434 -0.1353
 4209SOL    HW124260   2.781   3.512  14.055  1.1005  2.1816  0.6841
 4209SOL    HW224261   2.696   3.427  14.126 -0.0492  0.0587  0.6528
 4210SOL     OW24262   1.351   2.681   7.812 -0.6157  0.3967  0.1091
 4210SOL    HW124263   1.295   2.736   7.757 -0.3508 -2.3377 -2.9111
 4210SOL    HW224264   1.421   2.745   7.826 -0.6825  0.0719  1.9529
 4211SOL     OW24265   3.801   4.051   3.320  0.2405 -0.1767 -0.0694
 4211SOL    HW124266   3.873   4.114   3.317 -0.7420  0.9857  0.1751
 4211SOL    HW224267   3.738   4.109   3.276  0.8181  0.3316 -0.2346
 4212SOL     OW24268   2.718   0.848   4.054  0.3009 -0.2098  0.4006
 4212SOL    HW124269   2.708   0.934   4.013  0.9936  0.4211  1.5696
 4212SOL    HW224270   2.645   0.802   4.012  0.3409 -0.5019  0.6485
 4213SOL     OW24271   3.112   1.742   6.601  0.0237 -0.2296 -0.4482
 4213SOL    HW124272   3.152   1.680   6.539  1.6599  0.6746 -0.2916
 4213SOL    HW224273   3.168   1.819   6.594 -0.2290 -0.1242 -1.3431
 4214SOL     OW24274   3.770   0.496   6.651 -0.2670 -0.3207  0.0421
 4214SOL    HW124275   3.769   0.454   6.737 -2.5550 -0.5876 -0.1044
 4214SOL    HW224276   3.813   0.576   6.680 -1.6723  0.5398 -0.2595
 4215SOL     OW24277   1.640   0.423  15.475 -0.2383  0.0633  0.2026
 4215SOL    HW124278   1.663   0.515  15.463  0.4208 -0.4853 -2.6949
 4215SOL    HW224279   1.729   0.390  15.472 -0.2401 -0.0418  1.3147
 4216SOL     OW24280   0.379   3.707   8.316 -0.2165  0.2041 -0.1657
 4216SOL    HW124281   0.400   3.759   8.238  0.5725  0.4917  0.2348
 4216SOL    HW224282   0.349   3.779   8.371  2.3849  0.1091  1.4027
 4217SOL     OW24283   0.776   3.904   2.036 -0.1465 -0.3682  0.3040
 4217SOL    HW124284   0.844   3.866   2.093 -1.3159 -1.2184  1.1384
 4217SOL    HW224285   0.836   3.925   1.964  1.9768 -2.8089  1.3475
 4218SOL     OW24286   1.259   1.324   2.569  0.7019  0.2122  0.0588
 4218SOL    HW124287   1.286   1.266   2.641 -1.0817  0.9080  1.2847
 4218SOL    HW224288   1.165   1.332   2.581  0.3333 -1.6027 -1.7627
 4219SOL     OW24289   4.050   4.386   1.933  0.7114  1.0423  0.3328
 4219SOL    HW124290   4.032   4.471   1.892 -1.8555 -0.7908 -2.2499
 4219SOL    HW224291   3.995   4.340   1.870  2.4475 -0.9790  0.3053
 4220SOL     OW24292   2.760   0.345   6.951  0.6109 -0.2992  0.3829
 4220SOL    HW124293   2.801   0.393   6.878 -3.8574  0.1672 -1.7976
 4220SOL    HW224294   2.700   0.409   6.989 -1.6270 -2.4748  0.5252
 4221SOL     OW24295   3.780   2.668   2.358  0.3078 -0.3227 -0.1332
 4221SOL    HW124296   3.752   2.707   2.275 -0.1565  0.1067  0.2187
 4221SOL    HW224297   3.689   2.653   2.385  1.0774  0.0340  2.6797
 4222SOL     OW24298   0.802   3.228   5.164  0.3731  0.7675  0.1937
 4222SOL    HW124299   0.863   3.165   5.201 -0.8670 -1.1995 -1.0807
 4222SOL    HW224300   0.830   3.219   5.072 -0.4943  0.4113 -0.0375
 4223SOL     OW24301   2.538   1.169   5.410 -0.2783  0.3825 -0.5417
 4223SOL    HW124302   2.462   1.133   5.365  0.8152 -1.7590 -0.6258
 4223SOL    HW224303   2.533   1.109   5.484  0.3883  2.5785  1.3133
 4224SOL     OW24304   0.589   2.369  11.808  0.2138  0.1129 -0.5263
 4224SOL    HW124305   0.603   2.391  11.716 -2.2041  0.4167 -0.8135
 4224SOL    HW224306   0.612   2.276  11.809  0.0908  0.0797 -2.5939
 4225SOL     OW24307   4.336   4.292  16.655  0.1784 -0.1399  0.0986
 4225SOL    HW124308   4.294   4.310  16.739  0.9068  0.2941  0.3696
 4225SOL    HW224309   4.398   4.365  16.649 -0.8891  0.5204 -2.8821
 4226SOL     OW24310   4.707   2.700   6.137 -0.0421  0.2926  0.3223
 4226SOL    HW124311   4.720   2.663   6.224 -0.4166  0.7968  0.5947
 4226SOL    HW224312   4.711   2.625   6.078  1.5806 -0.3103  1.2035
 4227SOL     OW24313   2.095   2.063   2.664  0.5777 -0.3593  0.0674
 4227SOL    HW124314   2.059   2.151   2.659 -1.0565 -1.0739 -0.8621
 4227SOL    HW224315   2.031   2.012   2.613 -0.4454  0.3246  0.6661
 4228SOL     OW24316   0.458   1.911   8.247 -0.0178  0.4206  0.3139
 4228SOL    HW124317   0.523   1.843   8.261 -0.4934 -0.2070 -0.5617
 4228SOL    HW224318   0.388   1.869   8.198 -0.0764  0.3948  0.4194
 4229SOL     OW24319   2.581   4.514  11.128  0.2022 -0.4616  0.3068
 4229SOL    HW124320   2.536   4.517  11.043 -1.8610 -3.5155  1.2759
 4229SOL    HW224321   2.659   4.568  11.119  0.6620 -0.6301  3.3088
 4230SOL     OW24322   0.735   0.634   3.536 -0.2573  0.0025  0.5548
 4230SOL    HW124323   0.678   0.704   3.569  0.0359 -0.2660  1.6236
 4230SOL    HW224324   0.675   0.560   3.525  0.9788 -0.7212 -1.3830
 4231SOL     OW24325   2.545   0.644   5.098  0.2864 -0.1698  0.2334
 4231SOL    HW124326   2.502   0.646   5.012  0.0578  0.3574  0.3615
 4231SOL    HW224327   2.634   0.624   5.068  0.4284 -1.6719  1.6426
 4232SOL     OW24328   3.694   4.093   7.061 -0.1652 -0.3199  0.1280
 4232SOL    HW124329   3.632   4.126   6.996  1.5367 -0.3298 -1.4988
 4232SOL    HW224330   3.722   4.012   7.018 -0.8569 -0.9304  0.8212
 4233SOL     OW24331   3.772   0.826  12.572 -0.7504  0.5635  0.1456
 4233SOL    HW124332   3.704   0.778  12.524 -0.2502  0.7296 -0.7323
 4233SOL    HW224333   3.834   0.759  12.601 -1.4068  0.0260  0.3220
 4234SOL     OW24334   2.863   4.139   7.018 -0.0930  0.6195  0.0773
 4234SOL    HW124335   2.837   4.222   7.058 -0.9348 -1.0191  2.9866
 4234SOL    HW224336   2.842   4.077   7.089  0.0408 -1.7887 -2.0064
 4235SOL     OW24337   1.889   3.273  16.022  0.4950  0.3804 -0.5448
 4235SOL    HW124338   1.800   3.308  16.024  0.9946  1.4002  2.4052
 4235SOL    HW224339   1.923   3.302  16.106  0.3795  0.3876 -0.5001
 4236SOL     OW24340   2.800   1.254  10.864 -0.3568  0.2362  0.9948
 4236SOL    HW124341   2.827   1.181  10.808  1.4034  1.4030  0.2890
 4236SOL    HW224342   2.755   1.193  10.922 -0.7581  1.4338  1.9544
 4237SOL     OW24343   4.236   3.396   3.030  0.2137 -0.6192 -0.6854
 4237SOL    HW124344   4.153   3.353   3.009 -0.3335 -0.0519  0.3118
 4237SOL    HW224345   4.199   3.472   3.076  1.9296  0.4149 -1.0144
 4238SOL     OW24346   4.151   2.085   6.067  0.2695  0.6348 -0.0872
 4238SOL    HW124347   4.186   2.001   6.036  0.5371 -0.1550  2.3531
 4238SOL    HW224348   4.136   2.073   6.161 -0.2953 -0.1326 -0.2729
 4239SOL     OW24349   4.640   0.184   5.819  0.1866 -0.5088  0.1861
 4239SOL    HW124350   4.667   0.237   5.744  4.1737 -1.3759  1.0033
 4239SOL    HW224351   4.596   0.247   5.876 -4.3992 -2.2947 -1.4249
 4240SOL     OW24352   2.383   2.305   7.018  0.2232  0.1845  0.1150
 4240SOL    HW124353   2.334   2.285   7.098 -0.2440  1.5545  0.1800
 4240SOL    HW224354   2.328   2.381   6.999  1.4185  0.9494 -0.2745
 4241SOL     OW24355   0.653   3.448   2.687 -0.1676 -0.0224  0.1613
 4241SOL    HW124356   0.581   3.386   2.671 -1.1905  1.0215  0.6708
 4241SOL    HW224357   0.625   3.522   2.633 -2.9997 -0.6568  0.7258
 4242SOL     OW24358   3.139   3.289   0.828 -0.1650  0.4767 -0.4766
 4242SOL    HW124359   3.070   3.255   0.884 -0.3432  0.4161 -0.7313
 4242SOL    HW224360   3.092   3.314   0.748 -0.0387  1.2313 -0.3174
 4243SOL     OW24361   2.739   1.301   2.280  0.2907  0.2605 -0.3855
 4243SOL    HW124362   2.771   1.337   2.198  0.7482 -1.8797 -1.1676
 4243SOL    HW224363   2.771   1.210   2.278 -0.6900 -0.0861 -0.3569
 4244SOL     OW24364   1.569   1.988   4.046 -0.1972  0.1276  0.3671
 4244SOL    HW124365   1.477   1.999   4.069 -0.1588  2.1874 -0.4434
 4244SOL    HW224366   1.575   2.000   3.951  3.1561 -1.9172  0.3280
 4245SOL     OW24367   0.197   0.986   4.045 -0.1478  0.1245  0.1409
 4245SOL    HW124368   0.224   0.895   4.029 -1.3477 -0.7106  2.8982
 4245SOL    HW224369   0.174   0.997   4.137 -0.1846 -3.7271  0.6274
 4246SOL     OW24370   0.391   0.932   3.273 -0.1140  0.0007 -0.0385
 4246SOL    HW124371   0.346   0.905   3.354  0.5568 -0.2343  0.2553
 4246SOL    HW224372   0.318   0.945   3.212  0.1302 -1.7230 -0.6948
 4247SOL     OW24373   4.677   0.274   4.081 -0.1522  0.0612  0.1013
 4247SOL    HW124374   4.588   0.292   4.111 -0.5611 -0.5277 -0.7336
 4247SOL    HW224375   4.727   0.320   4.147  0.9204  1.8665 -1.9738
 4248SOL     OW24376   1.233   2.030   5.433  0.2759  0.6324 -0.0063
 4248SOL    HW124377   1.183   2.054   5.355 -1.3610  0.6740  1.0632
 4248SOL    HW224378   1.280   1.953   5.401  0.4239  1.0151 -0.7238
 4249SOL     OW24379   3.077   3.196   9.254 -0.1556 -0.3920 -0.5115
 4249SOL    HW124380   3.095   3.267   9.192  3.5720 -2.5935 -1.9639
 4249SOL    HW224381   2.991   3.165   9.225 -0.4564  0.2760 -0.3185
 4250SOL     OW24382   1.382   0.032   1.021 -0.4976 -0.2204 -0.3485
 4250SOL    HW124383   1.346   0.112   0.985 -0.8409  0.2023  0.9319
 4250SOL    HW224384   1.398   4.716   0.941  0.1136 -0.2134 -0.2293
 4251SOL     OW24385   4.007   1.407  13.111 -0.1184 -0.0386  0.7230
 4251SOL    HW124386   4.013   1.341  13.043  1.4609  1.4188 -0.5597
 4251SOL    HW224387   3.942   1.466  13.074 -1.0856 -1.7397 -0.2480
 4252SOL     OW24388   1.711   2.515   8.969  0.0461 -0.2470 -0.0247
 4252SOL    HW124389   1.651   2.590   8.974 -1.9699 -1.9364  1.3414
 4252SOL    HW224390   1.716   2.506   8.874  1.3958  0.5926 -0.0204
 4253SOL     OW24391   1.267   3.270   2.937  0.7309  0.6193 -0.1510
 4253SOL    HW124392   1.275   3.238   3.027  1.5328  1.1090 -0.0506
 4253SOL    HW224393   1.174   3.250   2.925  0.0161  2.6719  2.0744
 4254SOL     OW24394   1.934   2.644  13.506  0.3567 -0.0469 -0.1521
 4254SOL    HW124395   1.948   2.582  13.577  0.7916 -0.2196 -0.3927
 4254SOL    HW224396   1.917   2.725  13.554 -2.3739 -1.6710  1.6799
 4255SOL     OW24397   4.729   2.855   1.415 -0.5523 -0.1957  0.1848
 4255SOL    HW124398   0.005   2.760   1.418  1.1609  0.0048  0.2117
 4255SOL    HW224399   0.080   2.890   1.439 -0.5829 -0.2287  0.3428
 4256SOL     OW24400   0.513   0.588   7.688  0.0725  0.2126 -0.3712
 4256SOL    HW124401   0.461   0.666   7.708 -2.0366 -0.7436 -2.1993
 4256SOL    HW224402   0.468   0.563   7.608  0.7560  1.4524 -1.1410
 4257SOL     OW24403   4.117   2.553  10.042 -0.1946 -0.7592 -0.3091
 4257SOL    HW124404   4.099   2.526  10.132 -0.2585 -1.7554 -0.6251
 4257SOL    HW224405   4.177   2.481  10.022  0.5084 -0.7032  1.5685
 4258SOL     OW24406   4.217   4.476   6.971 -0.5511  0.3365  0.2516
 4258SOL    HW124407   4.221   4.411   7.041 -0.9748  1.8942  1.7206
 4258SOL    HW224408   4.153   4.436   6.911  2.9261 -0.3591 -3.0368
 4259SOL     OW24409   3.886   0.042   1.606 -0.3903 -0.2386  0.9944
 4259SOL    HW124410   3.884   0.003   1.519 -2.2747  0.8789  0.5419
 4259SOL    HW224411   3.950   0.112   1.597  1.8121 -2.4336 -0.3983
 4260SOL     OW24412   0.398   3.538   6.311  0.0176  0.0125 -0.2838
 4260SOL    HW124413   0.457   3.474   6.270  0.7293 -0.0088  0.7796
 4260SOL    HW224414   0.342   3.568   6.240 -1.1560  0.4168  0.8163
 4261SOL     OW24415   1.135   1.671   3.606  1.0311  0.2762  0.2823
 4261SOL    HW124416   1.087   1.682   3.688 -1.0903 -0.5869 -0.8311
 4261SOL    HW224417   1.227   1.677   3.632  0.9409  1.9181  0.2320
 4262SOL     OW24418   3.569   1.128   7.365 -0.0172  0.0412  0.2479
 4262SOL    HW124419   3.563   1.122   7.460 -1.4124  0.7555  0.1953
 4262SOL    HW224420   3.571   1.034   7.349 -0.2234 -0.1519  1.3905
 4263SOL     OW24421   2.130   3.125   6.116 -0.2227 -0.3475 -0.5896
 4263SOL    HW124422   2.092   3.040   6.093 -2.1708 -0.3183  2.6076
 4263SOL    HW224423   2.205   3.096   6.168 -0.7517 -1.7637 -0.6152
 4264SOL     OW24424   1.076   4.675  17.520 -0.3958  0.0514 -0.5251
 4264SOL    HW124425   0.989   4.713  17.508 -0.6607 -0.2476  0.4564
 4264SOL    HW224426   1.057   4.584  17.540  2.4778 -0.3771  0.2481
 4265SOL     OW24427   2.589   0.535   5.412 -0.4429  0.0750 -0.2806
 4265SOL    HW124428   2.626   0.620   5.384  2.4976 -1.3635 -0.7923
 4265SOL    HW224429   2.594   0.542   5.507  2.1179 -0.9276 -0.3511
 4266SOL     OW24430   0.262   2.109  11.590  0.5156 -0.1113  0.6257
 4266SOL    HW124431   0.344   2.062  11.572  0.2297 -0.5281  0.3938
 4266SOL    HW224432   0.287   2.178  11.650  1.0066  0.4892 -0.2739
 4267SOL     OW24433   0.798   2.385  16.951  0.1552 -0.8701  0.5028
 4267SOL    HW124434   0.867   2.364  17.014 -1.2548 -2.3123  1.5533
 4267SOL    HW224435   0.729   2.420  17.007 -1.4134 -0.3123 -1.7983
 4268SOL     OW24436   2.284   3.366   9.017  0.3430  0.1608 -0.4121
 4268SOL    HW124437   2.227   3.443   9.014  2.2529  1.5318 -1.1127
 4268SOL    HW224438   2.311   3.368   9.109 -0.7927 -0.3562 -0.0634
 4269SOL     OW24439   1.968   3.033   9.893  0.4571  0.6322  0.2870
 4269SOL    HW124440   1.906   2.967   9.861  0.6658  0.6379 -0.1195
 4269SOL    HW224441   2.023   3.041   9.816  2.3792  2.4656  1.8450
 4270SOL     OW24442   3.958   4.167   5.349 -0.2200 -0.1838  0.3672
 4270SOL    HW124443   3.916   4.084   5.370  0.1483 -0.7613 -1.1497
 4270SOL    HW224444   3.968   4.213   5.432  1.7535 -1.1419  0.6458
 4271SOL     OW24445   4.125   1.344   6.018 -0.5040 -0.2470  0.3747
 4271SOL    HW124446   4.094   1.256   6.041  2.2902 -1.3049  0.0405
 4271SOL    HW224447   4.134   1.335   5.923  0.5710 -2.0740  0.6407
 4272SOL     OW24448   1.322   0.500   1.497 -0.6336  0.0477 -0.2913
 4272SOL    HW124449   1.257   0.554   1.543 -1.4799 -1.3750  0.1846
 4272SOL    HW224450   1.349   0.446   1.571 -0.2142 -0.7365 -1.0261
 4273SOL     OW24451   2.978   1.035   6.510 -0.1082 -0.7077  0.2686
 4273SOL    HW124452   2.930   1.106   6.468 -0.4244 -0.5673  0.8668
 4273SOL    HW224453   2.919   0.960   6.520  1.2494 -1.9971 -1.4490
 4274SOL     OW24454   1.543   2.383  10.418 -0.0550 -0.5405  0.2373
 4274SOL    HW124455   1.558   2.293  10.446  1.1798 -0.2922  0.3692
 4274SOL    HW224456   1.460   2.411  10.456  0.5524  2.1474 -0.4096
 4275SOL     OW24457   1.049   3.346   4.878  0.0095 -0.4410 -0.0891
 4275SOL    HW124458   0.975   3.295   4.911  0.1522 -0.2218  0.5666
 4275SOL    HW224459   1.005   3.411   4.823 -2.1963 -3.1023 -1.4653
 4276SOL     OW24460   0.398   4.694   5.910 -0.3489  0.1312  0.1094
 4276SOL    HW124461   0.364   0.004   5.832 -1.4970  0.0423  0.5716
 4276SOL    HW224462   0.336   4.723   5.977 -1.5275 -1.3753 -0.3311
 4277SOL     OW24463   3.647   2.434   1.987  0.6389  0.0597 -0.2034
 4277SOL    HW124464   3.682   2.362   2.039  0.8569 -0.3307 -0.8913
 4277SOL    HW224465   3.580   2.388   1.935 -1.5537  1.0208  1.7588
 4278SOL     OW24466   3.950   0.311  14.973 -0.1559 -0.7173 -0.1853
 4278SOL    HW124467   4.045   0.322  14.982 -0.5293  0.8721  1.9984
 4278SOL    HW224468   3.923   0.299  15.064 -0.4251  0.8219 -0.0624
 4279SOL     OW24469   2.710   4.084   6.604  0.8473  0.8926  0.3192
 4279SOL    HW124470   2.805   4.073   6.592  0.5740 -0.3050 -0.7167
 4279SOL    HW224471   2.696   4.125   6.689  0.4872 -0.9775  1.1709
 4280SOL     OW24472   1.642   0.766  10.265  0.5940 -0.4069  0.1627
 4280SOL    HW124473   1.691   0.844  10.290  0.3514 -0.4415  0.7371
 4280SOL    HW224474   1.618   0.805  10.181  0.8032  1.7596  1.1277
 4281SOL     OW24475   0.758   0.708   2.877  0.0615 -0.5477 -0.2466
 4281SOL    HW124476   0.765   0.779   2.941  2.8726  0.0821 -1.2498
 4281SOL    HW224477   0.732   0.754   2.797 -0.0372 -1.7527 -0.9153
 4282SOL     OW24478   2.293   1.422   2.477 -0.1166  0.2664 -0.3120
 4282SOL    HW124479   2.252   1.380   2.553  0.4207 -3.9451 -2.3511
 4282SOL    HW224480   2.335   1.500   2.513  0.4321 -0.4290  0.5661
 4283SOL     OW24481   1.802   4.474  14.892  0.2993 -0.0062 -0.2595
 4283SOL    HW124482   1.808   4.506  14.981 -0.1575  0.4891 -0.4102
 4283SOL    HW224483   1.721   4.519  14.866  0.5146  0.2558 -0.4795
 4284SOL     OW24484   4.357   3.003  11.480  0.2667  0.2303  0.1892
 4284SOL    HW124485   4.299   3.012  11.556  0.7706  0.3094  0.5646
 4284SOL    HW224486   4.331   2.929  11.425  0.4527 -0.5963  1.2124
 4285SOL     OW24487   1.567   0.594   7.658 -0.3877  0.3535 -0.4873
 4285SOL    HW124488   1.629   0.597   7.732 -0.4591  1.4759 -0.4767
 4285SOL    HW224489   1.527   0.681   7.659  1.4948  1.1969  2.4999
 4286SOL     OW24490   0.674   4.342   3.230 -0.1558 -0.2741  0.1264
 4286SOL    HW124491   0.747   4.390   3.269 -0.3059 -0.2032  0.3177
 4286SOL    HW224492   0.602   4.336   3.293  0.6944  1.5017  1.2828
 4287SOL     OW24493   2.063   1.620  17.582 -0.1578  0.6858 -0.5639
 4287SOL    HW124494   2.117   1.633  17.660 -2.2010  0.7005  0.8514
 4287SOL    HW224495   2.060   1.714  17.564 -1.6306  0.6578 -0.4143
 4288SOL     OW24496   3.633   2.095   4.160 -0.4758 -0.4029  0.3051
 4288SOL    HW124497   3.652   2.092   4.066 -0.1814  0.1874  0.3478
 4288SOL    HW224498   3.583   2.176   4.170 -1.1738 -0.8414  0.3455
 4289SOL     OW24499   4.299   0.961  15.808 -0.2206 -0.0194 -0.3977
 4289SOL    HW124500   4.338   1.040  15.846 -2.2470 -0.0727  1.8218
 4289SOL    HW224501   4.377   0.906  15.814  0.2407  0.7068  0.2095
 4290SOL     OW24502   3.223   2.206   4.371  0.6400  0.4300  0.0703
 4290SOL    HW124503   3.195   2.118   4.397 -0.8084  0.5967 -0.9176
 4290SOL    HW224504   3.185   2.221   4.285 -0.0599  0.7451  0.4313
 4291SOL     OW24505   2.756   2.446   7.606 -0.0826  0.4266 -0.2163
 4291SOL    HW124506   2.671   2.425   7.645 -0.5274  1.0098 -0.8686
 4291SOL    HW224507   2.734   2.527   7.560  0.2106  0.1853 -0.7806
 4292SOL     OW24508   3.999   0.195   9.604 -0.0253  0.0288  0.0317
 4292SOL    HW124509   4.010   0.153   9.520 -0.0321 -0.7346  0.4150
 4292SOL    HW224510   3.984   0.287   9.582 -3.0633 -0.2317  0.8835
 4293SOL     OW24511   0.688   2.349  11.516  0.2613  0.0397  0.4063
 4293SOL    HW124512   0.745   2.275  11.496  0.6792 -0.4101  3.1988
 4293SOL    HW224513   0.734   2.418  11.468 -0.4276 -1.6118 -2.6233
 4294SOL     OW24514   1.353   4.291   1.647 -0.3575  0.1570  0.5441
 4294SOL    HW124515   1.369   4.380   1.616 -1.2342 -0.4876 -1.7592
 4294SOL    HW224516   1.261   4.295   1.675 -1.1166  2.4977 -2.2436
 4295SOL     OW24517   2.547   0.341  15.606 -0.3382 -0.4227  0.0976
 4295SOL    HW124518   2.497   0.423  15.613  1.2670  0.4627  1.3321
 4295SOL    HW224519   2.620   0.360  15.664  1.9505  0.3712 -3.0457
 4296SOL     OW24520   4.010   2.156   3.939 -0.2081 -0.2148  0.0186
 4296SOL    HW124521   3.986   2.100   3.865 -1.7850  0.0048  0.3553
 4296SOL    HW224522   3.933   2.212   3.930 -0.7467 -0.7373  1.4164
 4297SOL     OW24523   1.716   1.845   3.829  0.0206 -0.5675  0.0556
 4297SOL    HW124524   1.701   1.929   3.786 -0.0019 -0.7765 -0.3447
 4297SOL    HW224525   1.782   1.869   3.894  0.2004  1.0474 -0.7134
 4298SOL     OW24526   3.486   1.007   8.162 -0.0232 -0.3224  0.1923
 4298SOL    HW124527   3.397   0.975   8.177 -0.5753 -0.1567 -2.8210
 4298SOL    HW224528   3.531   0.924   8.181 -3.0587 -1.5675  1.9295
 4299SOL     OW24529   1.669   1.873   2.115 -0.1539  0.2635 -0.2458
 4299SOL    HW124530   1.711   1.959   2.119  1.0920 -0.3208 -0.6861
 4299SOL    HW224531   1.587   1.899   2.156  0.0131  2.9665 -1.6243
 4300SOL     OW24532   4.109   1.486   8.119  0.3544 -0.8830 -0.2574
 4300SOL    HW124533   4.085   1.577   8.135 -0.6624 -0.8643 -1.9144
 4300SOL    HW224534   4.022   1.448   8.107 -0.3957  0.2053  1.7177
 4301SOL     OW24535   1.778   0.375   2.357  0.1193 -0.5616  0.5316
 4301SOL    HW124536   1.873   0.382   2.357  0.2027 -1.7267  0.5468
 4301SOL    HW224537   1.751   0.437   2.425 -2.6370 -1.6143  0.4250
 4302SOL     OW24538   4.396   2.710   5.170 -0.7768 -0.2866 -0.0693
 4302SOL    HW124539   4.402   2.664   5.254  0.9217 -3.1167 -1.7197
 4302SOL    HW224540   4.401   2.637   5.109 -0.4409  0.4303 -0.9041
 4303SOL     OW24541   0.256   0.512   5.260  0.4582  0.1342 -0.0523
 4303SOL    HW124542   0.217   0.482   5.342 -2.5598 -0.8786 -1.8694
 4303SOL    HW224543   0.349   0.499   5.280  0.4764 -0.1820 -0.3286
 4304SOL     OW24544   1.994   1.208  12.581 -0.2463  0.6029  0.2904
 4304SOL    HW124545   2.069   1.152  12.600 -1.5649 -1.3814 -0.4552
 4304SOL    HW224546   1.955   1.176  12.500 -0.4093 -0.4996  0.8106
 4305SOL     OW24547   4.107   3.717   3.832  0.2223 -0.2839 -0.2281
 4305SOL    HW124548   4.081   3.803   3.865  0.2237 -0.6427  0.7170
 4305SOL    HW224549   4.057   3.717   3.750 -1.2430 -0.1595  0.6646
 4306SOL     OW24550   0.893   2.905   3.275  0.2279 -0.7407 -0.3262
 4306SOL    HW124551   0.823   2.841   3.259  0.8971 -0.8726 -2.7425
 4306SOL    HW224552   0.835   2.980   3.285 -0.0087 -1.2770  2.2686
 4307SOL     OW24553   1.814   3.158   5.120  0.5888  0.5204 -0.1190
 4307SOL    HW124554   1.858   3.199   5.046  0.1330  0.0724 -0.6362
 4307SOL    HW224555   1.880   3.096   5.153  1.0054  0.0644 -1.8287
 4308SOL     OW24556   3.636   3.119   5.583 -0.0135  0.1164 -0.6474
 4308SOL    HW124557   3.693   3.077   5.647 -1.1056 -0.4085 -0.0276
 4308SOL    HW224558   3.632   3.061   5.507 -3.3305  0.2124 -0.5299
 4309SOL     OW24559   0.867   2.603   8.832 -0.0508  0.1236  0.2268
 4309SOL    HW124560   0.945   2.601   8.775  0.3099 -1.3416  0.7805
 4309SOL    HW224561   0.821   2.685   8.815 -0.8866 -0.9293 -2.6017
 4310SOL     OW24562   0.736   1.783   1.298  0.5740  0.4237 -0.0062
 4310SOL    HW124563   0.705   1.867   1.262 -0.2850 -0.9837 -2.6195
 4310SOL    HW224564   0.656   1.731   1.306  1.2676 -0.3364  1.7185
 4311SOL     OW24565   2.992   4.057   6.566 -0.1182  0.2521 -0.4567
 4311SOL    HW124566   3.046   4.043   6.488  0.9498  0.7981  0.1774
 4311SOL    HW224567   2.988   4.153   6.560 -1.4635  0.0804 -2.1627
 4312SOL     OW24568   2.065   4.278   3.186 -0.1650 -0.2947  0.5454
 4312SOL    HW124569   1.995   4.233   3.140  0.7695  0.9194 -2.0412
 4312SOL    HW224570   2.083   4.219   3.259 -0.2700 -0.7059  0.2324
 4313SOL     OW24571   3.179   3.754   5.123  0.5537  0.3611 -0.5163
 4313SOL    HW124572   3.133   3.821   5.174 -1.5829 -1.9230  0.5219
 4313SOL    HW224573   3.210   3.801   5.045  0.2479  1.2664 -0.0991
 4314SOL     OW24574   4.407   0.623  17.548  0.3125  0.0428 -0.3339
 4314SOL    HW124575   4.386   0.555  17.484  1.2244 -2.8289  2.4248
 4314SOL    HW224576   4.497   0.595  17.564  1.1949  2.0514 -1.7760
 4315SOL     OW24577   4.110   1.616   6.139  0.3621 -0.0635 -0.4068
 4315SOL    HW124578   4.135   1.573   6.221  0.9566  0.8552 -0.0962
 4315SOL    HW224579   4.137   1.546   6.080  0.9860  0.1723 -0.4100
 4316SOL     OW24580   2.143   0.653   1.664 -0.3053 -0.4093 -0.0406
 4316SOL    HW124581   2.144   0.623   1.573  0.8370  0.6636 -0.3769
 4316SOL    HW224582   2.097   0.737   1.660  0.0698 -0.2330 -0.5966
 4317SOL     OW24583   3.598   0.238  14.944  0.0052  0.0090 -0.3489
 4317SOL    HW124584   3.622   0.150  14.972 -3.0567  0.3692  3.5196
 4317SOL    HW224585   3.630   0.296  15.013 -2.7477 -0.1989  1.1320
 4318SOL     OW24586   1.103   2.538   3.405 -0.0284 -0.3555  0.1279
 4318SOL    HW124587   1.084   2.460   3.456 -1.8811  0.9447  1.4418
 4318SOL    HW224588   1.081   2.523   3.313  1.0627  0.2467 -0.2336
 4319SOL     OW24589   2.368   3.408   6.690  0.2134 -0.3412 -0.3539
 4319SOL    HW124590   2.356   3.500   6.666  0.8576  0.0028  0.6499
 4319SOL    HW224591   2.441   3.406   6.753 -1.3659 -1.8483  1.4415
 4320SOL     OW24592   0.615   3.838   6.706 -0.4023 -0.1785 -0.1678
 4320SOL    HW124593   0.619   3.923   6.663 -1.5399 -0.6760 -1.2309
 4320SOL    HW224594   0.676   3.783   6.657  1.1275  1.0255  0.3890
 4321SOL     OW24595   4.390   4.723   2.862  0.1389 -0.0205  0.3210
 4321SOL    HW124596   4.339   4.683   2.932 -2.2934 -0.3743 -1.6411
 4321SOL    HW224597   4.348   4.696   2.780 -0.0059 -1.7846  0.9634
 4322SOL     OW24598   0.188   0.119   1.386 -0.4388  0.0512  0.1374
 4322SOL    HW124599   0.212   0.084   1.472  0.0292 -0.6616 -0.2879
 4322SOL    HW224600   0.204   0.213   1.394  1.0625 -0.1426 -0.5944
 4323SOL     OW24601   1.294   2.484  11.423 -0.2334  0.4817  0.0764
 4323SOL    HW124602   1.238   2.562  11.427  0.3365  0.8192  1.5167
 4323SOL    HW224603   1.377   2.526  11.402  0.7433  0.4248  3.7738
 4324SOL     OW24604   0.490   0.616   9.882  0.5920  0.0248  0.6539
 4324SOL    HW124605   0.395   0.610   9.870  0.4719  1.7725  0.7592
 4324SOL    HW224606   0.503   0.708   9.904  1.4390  0.0225  0.1491
 4325SOL     OW24607   1.089   3.263   7.134  0.5419  0.3847 -0.1605
 4325SOL    HW124608   1.145   3.221   7.201 -0.8942  0.9546  1.3994
 4325SOL    HW224609   1.150   3.284   7.064 -0.2367 -0.2714 -1.0289
 4326SOL     OW24610   4.566   2.167   2.774  0.3505  0.3751  0.4100
 4326SOL    HW124611   4.515   2.144   2.851  0.2419 -1.4274 -0.2187
 4326SOL    HW224612   4.516   2.116   2.711  3.0690 -0.3869 -1.1640
 4327SOL     OW24613   2.337   4.536   2.298 -0.1796 -0.3771  0.3941
 4327SOL    HW124614   2.403   4.468   2.286 -1.2287 -0.8672 -2.7041
 4327SOL    HW224615   2.350   4.586   2.217 -1.4309 -0.6518  0.0223
 4328SOL     OW24616   3.195   0.799   5.710  0.7315  0.8727 -0.0655
 4328SOL    HW124617   3.138   0.873   5.730 -0.5525 -0.5976  1.7019
 4328SOL    HW224618   3.195   0.758   5.797  0.9694  3.2900  1.0640
 4329SOL     OW24619   2.898   0.048   0.972 -0.7469 -0.0991  0.4137
 4329SOL    HW124620   2.828   0.106   1.002 -1.1531 -0.2061 -0.3367
 4329SOL    HW224621   2.941   0.094   0.901  0.4450 -1.5966  0.1554
 4330SOL     OW24622   3.904   4.725  16.350  0.0963  0.2786  0.4482
 4330SOL    HW124623   3.927   4.663  16.281 -1.4456  1.9977 -1.6122
 4330SOL    HW224624   3.973   4.711  16.415 -0.7810 -1.2946  1.0104
 4331SOL     OW24625   2.812   2.118   4.464  0.3138 -0.2454 -0.1821
 4331SOL    HW124626   2.844   2.081   4.546  0.6773  1.7358  0.5619
 4331SOL    HW224627   2.862   2.198   4.448  0.3262 -0.6011 -2.0042
 4332SOL     OW24628   0.762   2.142   8.202  0.4283  0.4801  0.1561
 4332SOL    HW124629   0.803   2.065   8.164 -0.1690 -0.0953  0.6859
 4332SOL    HW224630   0.782   2.122   8.293 -0.8437 -2.5174 -0.2524
 4333SOL     OW24631   3.298   2.470   6.801 -0.1506  0.1037  0.1689
 4333SOL    HW124632   3.353   2.500   6.729 -0.5083 -1.7431 -0.8992
 4333SOL    HW224633   3.359   2.438   6.867  0.7131  0.9511 -0.2239
 4334SOL     OW24634   3.987   1.615  12.711 -0.3136 -0.3579 -0.0404
 4334SOL    HW124635   4.050   1.661  12.656 -0.4151  0.1481  0.2708
 4334SOL    HW224636   3.930   1.679  12.754 -0.6461  0.0874 -1.1476
 4335SOL     OW24637   0.851   2.490   5.300 -0.4917  0.0969 -0.2595
 4335SOL    HW124638   0.897   2.503   5.218 -1.2422  0.5556 -0.6100
 4335SOL    HW224639   0.864   2.570   5.352 -2.5729 -0.4474  1.1097
 4336SOL     OW24640   0.688   4.709  13.448 -0.8000 -0.0555 -0.0079
 4336SOL    HW124641   0.708   0.034  13.520 -0.7585 -2.1595  1.7286
 4336SOL    HW224642   0.743   4.632  13.461 -0.3297  0.3976  0.6633
 4337SOL     OW24643   3.596   3.630   2.368 -0.6876 -0.2504 -1.1189
 4337SOL    HW124644   3.568   3.718   2.392  1.1403 -0.2052  0.8315
 4337SOL    HW224645   3.591   3.634   2.272 -0.8001  2.1717 -0.9946
 4338SOL     OW24646   4.076   1.722   8.405  0.3019  0.6285 -0.0305
 4338SOL    HW124647   4.124   1.652   8.449  1.1746  1.1315 -0.1724
 4338SOL    HW224648   4.104   1.715   8.314  1.4898 -1.5562  0.5134
 4339SOL     OW24649   0.019   4.314   6.353  0.1138  0.1254 -0.2896
 4339SOL    HW124650   4.668   4.305   6.311  0.4902 -2.6752 -0.4800
 4339SOL    HW224651   4.725   4.335   6.441 -0.0374  1.5142 -0.6700
 4340SOL     OW24652   2.575   4.638   9.914  0.4843 -0.0785  0.2199
 4340SOL    HW124653   2.495   4.635   9.862 -0.3472 -0.1041  1.5024
 4340SOL    HW224654   2.564   4.715   9.969  0.9508 -0.3445  0.6874
 4341SOL     OW24655   3.116   1.914   7.691  0.2822 -0.2545  0.0168
 4341SOL    HW124656   3.188   1.924   7.753 -1.4061  3.2406  1.3553
 4341SOL    HW224657   3.093   2.000   7.656 -1.5101  0.0007  1.8934
 4342SOL     OW24658   2.018   1.466   2.833 -0.3408  0.4281  0.2532
 4342SOL    HW124659   2.041   1.380   2.797  1.4061  1.4536 -1.0511
 4342SOL    HW224660   2.090   1.474   2.895  0.1340  0.3706 -0.2890
 4343SOL     OW24661   2.088   3.135   3.814 -0.2076  0.1947  0.5904
 4343SOL    HW124662   2.037   3.211   3.839  0.8612  0.5308  1.7457
 4343SOL    HW224663   2.096   3.097   3.901 -1.8711  0.5875  0.9188
 4344SOL     OW24664   2.283   0.550   3.695 -0.2595  0.6979  0.1148
 4344SOL    HW124665   2.298   0.457   3.683  0.5660  0.8099  0.2721
 4344SOL    HW224666   2.292   0.580   3.604  2.3801  0.3094  0.2611
 4345SOL     OW24667   1.179   3.675   5.559 -0.6734 -0.3804  0.0211
 4345SOL    HW124668   1.111   3.742   5.559 -0.6351 -0.3503  0.9730
 4345SOL    HW224669   1.258   3.722   5.585 -0.2278 -0.6663 -0.7926
 4346SOL     OW24670   2.998   0.359   6.203 -0.1734  0.1719  0.3587
 4346SOL    HW124671   3.007   0.269   6.173  1.2676  1.1649 -2.2031
 4346SOL    HW224672   3.049   0.409   6.139  1.6898 -1.5237  0.5340
 4347SOL     OW24673   1.471   4.359   6.254  0.5906  0.0370 -0.0435
 4347SOL    HW124674   1.465   4.306   6.174 -0.2101 -2.4559  1.6448
 4347SOL    HW224675   1.565   4.373   6.255  0.7671 -1.2129  3.4074
 4348SOL     OW24676   0.506   0.518   7.942 -0.1265 -0.0680  0.2767
 4348SOL    HW124677   0.510   0.526   7.846  1.0891 -0.5444  0.2894
 4348SOL    HW224678   0.554   0.595   7.974 -1.9127  1.6595 -1.2115
 4349SOL     OW24679   1.988   2.511  15.454  0.0688  0.4193 -0.2856
 4349SOL    HW124680   1.915   2.480  15.400  0.2983 -1.5280  0.5502
 4349SOL    HW224681   2.032   2.572  15.393 -0.3516 -0.4702 -1.4762
 4350SOL     OW24682   3.905   0.544   7.573 -0.3574  0.0636  0.1127
 4350SOL    HW124683   3.881   0.452   7.583  0.7182 -0.1004  1.2102
 4350SOL    HW224684   3.998   0.534   7.594  0.0769  1.2156 -1.3036
 4351SOL     OW24685   4.067   3.651  14.042  0.2905  0.1276 -0.2832
 4351SOL    HW124686   4.051   3.699  13.961 -0.6255 -1.1021 -0.8415
 4351SOL    HW224687   4.127   3.713  14.084  2.7402 -1.6931 -1.0960
 4352SOL     OW24688   2.759   0.883   8.582  1.2134  0.3251 -1.3478
 4352SOL    HW124689   2.677   0.933   8.588  0.8843 -0.4891  1.0940
 4352SOL    HW224690   2.751   0.838   8.498  2.7795 -1.4368 -0.5491
 4353SOL     OW24691   1.385   1.876  12.554  0.3369 -0.4500  0.2736
 4353SOL    HW124692   1.328   1.922  12.492  1.0124  1.4688  1.0688
 4353SOL    HW224693   1.382   1.787  12.519 -2.1807  0.1526 -1.0914
 4354SOL     OW24694   2.590   0.069   6.532  0.2608 -0.5406 -0.0926
 4354SOL    HW124695   2.664   0.128   6.517  0.1337 -0.6130 -1.0463
 4354SOL    HW224696   2.624   0.011   6.600 -1.1426 -2.1913 -0.7929
 4355SOL     OW24697   2.531   2.788  12.028 -0.1626 -0.0410 -0.2690
 4355SOL    HW124698   2.587   2.749  12.095 -0.3930  0.8753  0.4517
 4355SOL    HW224699   2.523   2.875  12.067 -2.6763 -0.6339  0.5108
 4356SOL     OW24700   3.375   4.300  16.298  0.6424 -0.2646 -0.0463
 4356SOL    HW124701   3.469   4.303  16.279  0.5596 -0.3737 -0.4716
 4356SOL    HW224702   3.348   4.392  16.295 -0.1766 -0.4789  0.7129
 4357SOL     OW24703   4.207   3.683   8.162 -0.2387  0.1709 -0.2376
 4357SOL    HW124704   4.247   3.740   8.227 -2.4386  2.1875 -0.6436
 4357SOL    HW224705   4.169   3.752   8.108  1.4677  1.2380 -0.0766
 4358SOL     OW24706   4.202   3.854   9.750  0.3227  0.1170  0.7807
 4358SOL    HW124707   4.214   3.763   9.721  0.2474 -0.5905  2.9927
 4358SOL    HW224708   4.112   3.888   9.741  1.6419  3.2662 -0.6533
 4359SOL     OW24709   2.540   1.765  10.200  0.2962  0.5921  0.1100
 4359SOL    HW124710   2.477   1.817  10.150 -2.8497 -2.0222  1.3506
 4359SOL    HW224711   2.606   1.741  10.134  0.2038 -1.3581  0.7344
 4360SOL     OW24712   0.964   3.616  14.715  0.0469  0.2639  0.0697
 4360SOL    HW124713   0.992   3.585  14.629  2.4116 -0.7664  1.1905
 4360SOL    HW224714   0.878   3.653  14.696 -0.6281  0.3451  3.2613
 4361SOL     OW24715   1.104   1.771   2.138  0.4235 -0.1685 -0.5206
 4361SOL    HW124716   1.076   1.681   2.156  2.1384  0.0813  3.4618
 4361SOL    HW224717   1.134   1.797   2.225  0.5313  0.7038 -0.8168
 4362SOL     OW24718   0.423   2.322  15.434 -0.2082  0.3872 -0.4525
 4362SOL    HW124719   0.456   2.377  15.505 -0.3438 -1.2607  0.8780
 4362SOL    HW224720   0.489   2.342  15.367 -0.7263  1.4691 -0.6423
 4363SOL     OW24721   0.182   1.392  17.249  0.0933  0.0885 -0.0453
 4363SOL    HW124722   0.238   1.381  17.173  0.6236  0.2345  0.3201
 4363SOL    HW224723   0.108   1.441  17.215  1.8836  2.0898 -1.0793
 4364SOL     OW24724   2.285   0.949  16.616 -0.6396 -0.7719  0.1380
 4364SOL    HW124725   2.358   0.912  16.566  0.3930 -1.8488  2.4033
 4364SOL    HW224726   2.324   1.035  16.635 -1.4595 -0.9792  2.7749
 4365SOL     OW24727   3.024   3.016   8.712  0.1954  0.3323 -0.0417
 4365SOL    HW124728   3.003   2.975   8.795  0.1371 -1.0728 -0.7527
 4365SOL    HW224729   2.940   3.006   8.667  0.9620 -1.3906 -1.1186
 4366SOL     OW24730   0.467   4.723   8.924  0.0258 -0.3667  0.3710
 4366SOL    HW124731   0.529   4.675   8.869  0.1652  2.2939 -1.7716
 4366SOL    HW224732   0.479   0.077   8.892 -1.2540 -1.4912 -3.2194
 4367SOL     OW24733   1.351   1.320  11.468  0.5658 -0.0592 -0.3173
 4367SOL    HW124734   1.304   1.237  11.478  1.1511 -0.6196 -2.1742
 4367SOL    HW224735   1.423   1.295  11.410  1.4468  1.7806 -0.0100
 4368SOL     OW24736   1.477   1.755  17.192 -0.2477 -0.3562 -0.0189
 4368SOL    HW124737   1.553   1.757  17.134 -2.1650  1.6104 -2.4683
 4368SOL    HW224738   1.477   1.661  17.207  1.5403 -0.6063 -1.6867
 4369SOL     OW24739   2.823   2.089   2.603  0.3747  0.6667  0.2224
 4369SOL    HW124740   2.879   2.167   2.595  1.3582  0.1638  2.3749
 4369SOL    HW224741   2.830   2.056   2.692 -1.6521 -0.6816 -0.1128
 4370SOL     OW24742   2.792   1.474   7.062 -0.4095 -1.1440 -0.1855
 4370SOL    HW124743   2.868   1.419   7.043 -0.8419 -2.3836  1.6236
 4370SOL    HW224744   2.829   1.542   7.118  1.3985 -2.2436 -0.0603
 4371SOL     OW24745   2.515   2.520   3.493 -0.5776  0.2736  0.1731
 4371SOL    HW124746   2.570   2.564   3.428  0.0220  0.5283  0.8618
 4371SOL    HW224747   2.481   2.597   3.538 -0.8036  0.7912 -0.8840
 4372SOL     OW24748   1.220   3.408   6.215 -0.0871 -0.5803 -0.4160
 4372SOL    HW124749   1.262   3.472   6.273 -1.0909  0.7547 -1.1578
 4372SOL    HW224750   1.239   3.449   6.131 -1.3926  1.6210  0.3680
 4373SOL     OW24751   0.221   4.581   3.284  0.2545 -0.2808 -0.3431
 4373SOL    HW124752   0.245   4.601   3.375  1.1661 -0.2505 -0.5878
 4373SOL    HW224753   0.301   4.604   3.236  1.0017  0.1060  1.0659
 4374SOL     OW24754   0.792   2.810   5.101 -0.5133  0.5554  0.1330
 4374SOL    HW124755   0.838   2.751   5.041 -0.6259  0.1359  0.4599
 4374SOL    HW224756   0.715   2.828   5.047 -0.1563 -0.5879 -0.7704
 4375SOL     OW24757   3.612   2.214   9.254 -0.1509  0.3462  0.6950
 4375SOL    HW124758   3.584   2.215   9.345 -2.4294  0.8420 -0.0238
 4375SOL    HW224759   3.607   2.309   9.242 -0.0553  0.5706  2.4091
 4376SOL     OW24760   1.766   0.497   1.851  0.2276  0.5567 -0.4447
 4376SOL    HW124761   1.777   0.534   1.763 -1.5198  2.2824  0.0580
 4376SOL    HW224762   1.676   0.529   1.860  0.9611  1.8193  2.1276
 4377SOL     OW24763   0.456   3.485   5.164 -0.4415 -0.8573  0.0658
 4377SOL    HW124764   0.453   3.523   5.076 -0.7143 -0.7817  0.1090
 4377SOL    HW224765   0.406   3.553   5.209  1.1276 -0.9871  2.0038
 4378SOL     OW24766   2.618   3.245   2.840 -0.0692 -0.1473 -0.2589
 4378SOL    HW124767   2.550   3.291   2.889 -0.1114  0.4484 -0.8749
 4378SOL    HW224768   2.628   3.169   2.897  1.1461 -0.3750 -0.7814
 4379SOL     OW24769   1.321   0.230   4.162  0.4752  0.2153 -0.1298
 4379SOL    HW124770   1.363   0.315   4.175 -2.2413  1.5376  0.0280
 4379SOL    HW224771   1.374   0.208   4.086 -1.7522  0.3853 -1.7330
 4380SOL     OW24772   3.633   1.331   5.446  0.0125  0.5098  0.4999
 4380SOL    HW124773   3.595   1.385   5.515 -0.0750  0.0800  0.7857
 4380SOL    HW224774   3.567   1.261   5.449  2.0866 -1.4847 -0.5418
 4381SOL     OW24775   0.733   4.644   1.684 -0.2823 -0.1477 -0.1333
 4381SOL    HW124776   0.756   4.702   1.756 -1.6738  1.6076 -1.1227
 4381SOL    HW224777   0.660   4.695   1.649 -0.0607 -0.1958 -0.6606
 4382SOL     OW24778   0.344   3.508   5.568  0.6260  0.3697 -0.1774
 4382SOL    HW124779   0.341   3.451   5.491  0.6376  0.5475 -0.3094
 4382SOL    HW224780   0.271   3.569   5.564  0.1597 -0.0850  1.4659
 4383SOL     OW24781   3.613   1.409  10.582  0.1136 -0.0663  0.6808
 4383SOL    HW124782   3.586   1.458  10.660 -0.4009  0.2745  0.2873
 4383SOL    HW224783   3.704   1.400  10.609  0.0941  0.1825  0.8385
 4384SOL     OW24784   4.342   1.297  14.190 -0.1791  0.4159  0.2062
 4384SOL    HW124785   4.437   1.305  14.195  0.0382 -1.0200 -2.0951
 4384SOL    HW224786   4.326   1.240  14.115 -1.6355 -0.5626  1.2575
 4385SOL     OW24787   1.000   4.451   4.614  0.3756  0.4938 -0.0793
 4385SOL    HW124788   1.067   4.464   4.546  0.0334  0.4293 -0.4240
 4385SOL    HW224789   0.921   4.465   4.564  0.2788 -1.3215 -0.4275
 4386SOL     OW24790   1.357   1.073  14.938  0.4512  0.2534  0.6525
 4386SOL    HW124791   1.311   1.105  15.015  3.5567  0.5251  2.3805
 4386SOL    HW224792   1.427   1.018  14.974 -2.2884 -2.9693  0.9924
 4387SOL     OW24793   2.431   4.087   6.618  0.4679 -0.2981 -0.2318
 4387SOL    HW124794   2.505   4.082   6.678  0.1882 -2.9391 -0.1073
 4387SOL    HW224795   2.442   4.011   6.561  0.3568  0.0183 -0.6790
 4388SOL     OW24796   1.822   0.556   2.786 -0.7534 -0.2520 -0.2558
 4388SOL    HW124797   1.755   0.496   2.817 -0.6979 -0.3308 -0.2893
 4388SOL    HW224798   1.861   0.580   2.871 -0.8026  1.7786 -0.8056
 4389SOL     OW24799   1.765   4.525   6.983  0.5347 -0.0039  0.6575
 4389SOL    HW124800   1.802   4.605   6.947  0.9231 -0.1973  0.6317
 4389SOL    HW224801   1.759   4.487   6.895 -2.8276  0.9315  0.5014
 4390SOL     OW24802   2.387   2.347   8.687  0.0727 -0.3127 -0.2177
 4390SOL    HW124803   2.376   2.420   8.626 -0.2829 -1.8435 -1.9698
 4390SOL    HW224804   2.296   2.335   8.712 -0.6394  1.9827 -1.7301
 4391SOL     OW24805   2.184   0.518   8.009  0.8267 -0.3766  0.1843
 4391SOL    HW124806   2.250   0.587   8.004  0.9217 -0.3588  1.6886
 4391SOL    HW224807   2.111   0.568   8.047  2.8608  2.4857  0.3042
 4392SOL     OW24808   0.381   4.485  16.218 -0.0318  0.2718 -0.5355
 4392SOL    HW124809   0.423   4.458  16.137 -0.6150 -1.4364 -0.2639
 4392SOL    HW224810   0.321   4.412  16.234  2.5166 -1.8350 -0.5140
 4393SOL     OW24811   1.543   1.033   6.409  0.3728  0.6169  0.0570
 4393SOL    HW124812   1.450   1.055   6.397 -0.1276 -2.6237 -1.9399
 4393SOL    HW224813   1.535   0.972   6.483  2.1471  0.1565 -0.1502
 4394SOL     OW24814   0.710   0.688   1.520 -0.4733  0.1236 -0.5097
 4394SOL    HW124815   0.769   0.725   1.586  0.0534  0.6689 -1.2999
 4394SOL    HW224816   0.649   0.645   1.580  1.0174  0.3231  1.1354
 4395SOL     OW24817   1.219   2.780   0.068  0.3604 -0.5887 -0.0789
 4395SOL    HW124818   1.250   2.843   0.003 -2.5304  0.3909 -0.5160
 4395SOL    HW224819   1.181   2.717   0.006  1.1043 -0.9427 -0.1767
 4396SOL     OW24820   1.005   0.317   2.512 -0.4724 -0.5042 -0.0096
 4396SOL    HW124821   1.031   0.237   2.466 -2.4369 -1.3470  0.3412
 4396SOL    HW224822   1.051   0.316   2.596 -1.0153 -2.1457  0.2761
 4397SOL     OW24823   3.043   3.584   7.267 -0.0167 -0.0621  0.3940
 4397SOL    HW124824   3.127   3.539   7.257 -0.6072 -1.0375 -0.1996
 4397SOL    HW224825   3.033   3.573   7.362 -1.0641  3.2112  0.6699
 4398SOL     OW24826   4.717   0.115   6.180 -0.0467  0.0812  0.0436
 4398SOL    HW124827   4.700   0.197   6.135  1.0031  0.2169 -0.1081
 4398SOL    HW224828   0.065   0.088   6.140  0.7146 -0.5939  2.0755
 4399SOL     OW24829   3.477   2.969  16.977 -0.2855  0.0492 -0.1727
 4399SOL    HW124830   3.493   2.993  16.886  0.2413  1.7984  0.3934
 4399SOL    HW224831   3.419   3.039  17.004  1.7242  1.4164  0.6414
 4400SOL     OW24832   4.697   2.576   6.386  0.0491  0.1445 -0.1278
 4400SOL    HW124833   0.024   2.531   6.443  0.2754 -0.2149 -0.6532
 4400SOL    HW224834   4.669   2.648   6.442 -0.2750 -2.5149  3.1524
 4401SOL     OW24835   4.131   2.666  15.447  0.3348  0.5057 -0.1032
 4401SOL    HW124836   4.172   2.605  15.508 -0.1414 -0.9080 -1.2009
 4401SOL    HW224837   4.036   2.655  15.460  0.4299  1.1411  1.1763
 4402SOL     OW24838   2.408   1.987   0.312 -1.0619 -0.4083  0.0370
 4402SOL    HW124839   2.463   2.057   0.347 -1.1199 -0.8664  1.0337
 4402SOL    HW224840   2.469   1.917   0.334 -1.3403 -0.7710 -0.3421
 4403SOL     OW24841   2.330   3.167  15.862  0.0050  0.9619 -0.0268
 4403SOL    HW124842   2.236   3.150  15.865 -0.3974  2.8272 -1.6769
 4403SOL    HW224843   2.333   3.251  15.909  2.3463  1.1032 -0.4673
 4404SOL     OW24844   4.067   0.730  13.764  0.1976 -0.3574  0.3631
 4404SOL    HW124845   4.008   0.800  13.735 -0.6123 -0.6212  1.3374
 4404SOL    HW224846   4.117   0.778  13.830  0.8533  0.4189 -0.7210
 4405SOL     OW24847   1.703   0.647  15.300 -0.1787 -0.3102  0.2497
 4405SOL    HW124848   1.753   0.670  15.222 -1.7384  0.9630 -0.3870
 4405SOL    HW224849   1.671   0.732  15.330  3.8996  1.9643 -1.9625
 4406SOL     OW24850   0.658   4.694   0.992  0.5699 -0.8918  0.1993
 4406SOL    HW124851   0.752   4.683   0.977  0.3118 -0.5066 -1.6479
 4406SOL    HW224852   0.625   4.697   0.903  3.0193  0.0830 -0.6860
 4407SOL     OW24853   3.621   2.130   7.209  0.3215 -0.0201 -0.3912
 4407SOL    HW124854   3.711   2.112   7.236 -0.6561 -1.4054  1.9992
 4407SOL    HW224855   3.623   2.219   7.175 -2.0337 -0.0015 -0.5046
 4408SOL     OW24856   1.432   4.005   7.410  0.3221  0.2667  0.2115
 4408SOL    HW124857   1.412   3.978   7.321 -1.2436  0.7066  0.4282
 4408SOL    HW224858   1.526   4.005   7.426 -0.1839  0.1170  3.2617
 4409SOL     OW24859   3.822   3.979   4.707 -0.7468  0.3668 -0.4832
 4409SOL    HW124860   3.827   3.917   4.780  0.2561  0.1938 -0.6894
 4409SOL    HW224861   3.768   3.934   4.643 -0.8546  0.4418 -0.4448
 4410SOL     OW24862   4.677   0.887   6.583 -0.2429 -0.3300  0.2280
 4410SOL    HW124863   4.651   0.820   6.646 -2.0461 -0.1111 -0.2841
 4410SOL    HW224864   4.647   0.970   6.619 -0.8237  0.1909 -1.4485
 4411SOL     OW24865   0.597   2.633   0.936  0.6573  0.0173 -0.1472
 4411SOL    HW124866   0.683   2.618   0.896  0.4699  0.5004 -0.7439
 4411SOL    HW224867   0.615   2.649   1.028  0.7372  0.6893 -0.2782
 4412SOL     OW24868   0.483   0.514   2.803  0.6266  0.2504 -1.0923
 4412SOL    HW124869   0.529   0.509   2.719  0.8550 -0.9353 -0.8962
 4412SOL    HW224870   0.445   0.601   2.794  0.2717  0.0414 -1.5745
 4413SOL     OW24871   3.569   2.207   5.682 -0.9774 -0.8743 -0.5271
 4413SOL    HW124872   3.479   2.184   5.661 -1.4090  0.6880 -0.3673
 4413SOL    HW224873   3.592   2.128   5.731 -1.2422 -1.1311 -0.8152
 4414SOL     OW24874   2.510   0.900   5.525  0.4122  0.4341  0.2611
 4414SOL    HW124875   2.489   0.894   5.618 -4.2543 -0.8103 -0.8304
 4414SOL    HW224876   2.426   0.918   5.481  0.5146  0.3520  0.0312
 4415SOL     OW24877   3.935   4.488  14.203  0.2455  0.5467  0.5302
 4415SOL    HW124878   3.911   4.561  14.260  0.0238 -1.0565  2.5160
 4415SOL    HW224879   3.855   4.470  14.155  0.3507 -3.0009  1.7075
 4416SOL     OW24880   4.496   0.621   6.042 -0.4015 -0.1095  0.1051
 4416SOL    HW124881   4.555   0.619   5.966  0.3398  1.3151  0.6596
 4416SOL    HW224882   4.453   0.536   6.032  1.5159 -1.2888  1.8739
 4417SOL     OW24883   3.840   2.138   5.025 -0.0986 -0.5129  0.1907
 4417SOL    HW124884   3.904   2.067   5.029 -0.7455 -1.0758  0.5405
 4417SOL    HW224885   3.758   2.089   5.020  0.3562 -1.3214  0.7438
 4418SOL     OW24886   2.778   1.771   5.122 -0.6265 -0.1723  0.3184
 4418SOL    HW124887   2.822   1.723   5.192  0.0560 -2.3896 -1.6284
 4418SOL    HW224888   2.701   1.716   5.111 -0.1613 -0.1119 -3.3521
 4419SOL     OW24889   3.468   3.515   5.614 -0.3176 -1.1815 -0.5400
 4419SOL    HW124890   3.474   3.421   5.629  1.1750 -1.0886 -0.5164
 4419SOL    HW224891   3.472   3.539   5.707  2.2676  1.3550 -1.3088
 4420SOL     OW24892   4.382   0.200  15.952  0.2931  0.0372 -0.6934
 4420SOL    HW124893   4.304   0.251  15.930  0.4051  0.1129 -0.9184
 4420SOL    HW224894   4.450   0.260  15.923  0.9233  0.1044  0.9144
 4421SOL     OW24895   2.803   3.619  13.668 -0.2937 -0.0481 -0.3352
 4421SOL    HW124896   2.738   3.558  13.703  0.3382  0.8269  2.3639
 4421SOL    HW224897   2.809   3.598  13.574 -2.8612  0.0992 -0.5429
 4422SOL     OW24898   1.380   1.480   1.506 -0.0887 -0.4418  0.0918
 4422SOL    HW124899   1.294   1.456   1.472  0.6316 -2.2603 -0.4468
 4422SOL    HW224900   1.383   1.574   1.491  0.6441 -0.5580 -0.4972
 4423SOL     OW24901   3.174   2.787   0.053  0.5224  0.4773  0.1449
 4423SOL    HW124902   3.079   2.790   0.041  0.4254 -0.2055  0.7360
 4423SOL    HW224903   3.169   2.829   0.139 -0.4388 -0.3173  0.4772
 4424SOL     OW24904   4.562   2.463   3.555 -0.1915 -0.0803 -0.1814
 4424SOL    HW124905   4.531   2.372   3.559  0.5852 -0.3922 -1.3257
 4424SOL    HW224906   4.628   2.452   3.487  0.7063  0.0158  0.6724
 4425SOL     OW24907   0.929   3.049   5.773  0.2680 -0.0270 -0.4649
 4425SOL    HW124908   0.925   3.144   5.760  0.7805 -0.0986 -1.1144
 4425SOL    HW224909   0.964   3.044   5.862  1.7196 -2.5312 -1.1917
 4426SOL     OW24910   2.769   4.630   2.868  0.4722 -0.2487  0.4562
 4426SOL    HW124911   2.851   4.665   2.904 -0.8418 -0.1775  3.3283
 4426SOL    HW224912   2.740   4.575   2.940 -1.5521  0.3959  0.1151
 4427SOL     OW24913   1.486   4.596   7.581 -0.2488 -0.4937 -0.7730
 4427SOL    HW124914   1.524   4.645   7.655  0.6033 -0.9300 -0.9196
 4427SOL    HW224915   1.399   4.572   7.613 -0.4940 -0.2007 -1.2213
 4428SOL     OW24916   3.059   0.073  13.626 -0.4092  0.1360 -0.8460
 4428SOL    HW124917   2.995   0.142  13.607  0.2951  0.0745 -3.4295
 4428SOL    HW224918   3.018   4.727  13.596 -0.1265 -0.2035 -0.3099
 4429SOL     OW24919   1.469   1.543   6.046  0.6424 -0.2202 -0.2309
 4429SOL    HW124920   1.493   1.634   6.032  1.0089 -0.1449  0.8929
 4429SOL    HW224921   1.558   1.508   6.042  0.1021 -1.4943 -1.2584
 4430SOL     OW24922   0.301   2.179   8.626  0.3692  0.3990 -0.0390
 4430SOL    HW124923   0.362   2.129   8.573  1.6979 -0.6048  2.4303
 4430SOL    HW224924   0.360   2.219   8.690  0.1781 -0.6983  0.8263
 4431SOL     OW24925   3.783   2.155  12.149  0.1032 -0.0946 -0.2399
 4431SOL    HW124926   3.774   2.245  12.180 -0.6233 -0.9327  2.0172
 4431SOL    HW224927   3.691   2.136  12.130  0.6273 -2.9381  0.0245
 4432SOL     OW24928   2.481   0.779  15.843 -0.0692  0.0668  0.2504
 4432SOL    HW124929   2.418   0.818  15.904  0.2316 -2.3747  2.1092
 4432SOL    HW224930   2.467   0.685  15.855  0.3566  0.0761  0.8048
 4433SOL     OW24931   4.371   2.453  16.419 -0.8203  0.3560  0.4118
 4433SOL    HW124932   4.368   2.357  16.426 -3.6038  0.5845  2.5008
 4433SOL    HW224933   4.323   2.473  16.338  1.3588  1.0571 -0.6902
 4434SOL     OW24934   2.227   2.119  12.225  0.6219  0.4061  0.2418
 4434SOL    HW124935   2.217   2.141  12.317  0.8431 -2.3116  0.9260
 4434SOL    HW224936   2.322   2.130  12.217  0.5885 -0.5642 -1.4883
 4435SOL     OW24937   4.046   0.545   9.229 -0.1634  0.0496  0.2073
 4435SOL    HW124938   4.066   0.570   9.139  2.4836  2.9568  1.5866
 4435SOL    HW224939   3.968   0.494   9.211  0.8016 -1.3261 -0.0457
 4436SOL     OW24940   2.350   1.424   1.697 -0.3338 -0.2127  0.4521
 4436SOL    HW124941   2.306   1.350   1.738 -0.4768 -0.8691 -0.8964
 4436SOL    HW224942   2.274   1.481   1.687 -1.4944 -1.5911  1.5258
 4437SOL     OW24943   3.100   1.147   0.334  0.2911 -0.2186  0.7080
 4437SOL    HW124944   3.019   1.132   0.285  1.1639  0.1049 -0.8123
 4437SOL    HW224945   3.077   1.076   0.395 -2.8124  1.9047  2.0274
 4438SOL     OW24946   1.003   0.070   3.218  0.2006  0.3968 -1.0078
 4438SOL    HW124947   0.975   0.137   3.280  0.4945 -0.1775 -0.2492
 4438SOL    HW224948   0.962   0.097   3.136 -1.3737  0.3703 -0.2289
 4439SOL     OW24949   0.766   0.858  15.597  0.5351  0.1775 -0.0123
 4439SOL    HW124950   0.752   0.885  15.507 -2.7604 -2.5653 -0.3494
 4439SOL    HW224951   0.702   0.916  15.637 -0.2316 -0.3718 -0.4397
 4440SOL     OW24952   1.476   1.110   4.930  0.2342 -0.2135 -0.0696
 4440SOL    HW124953   1.538   1.168   4.973  0.8405 -0.1174 -1.0643
 4440SOL    HW224954   1.411   1.088   4.997  0.3707 -3.1189 -0.8967
 4441SOL     OW24955   4.181   4.303   7.186  0.8705 -0.3407 -0.2185
 4441SOL    HW124956   4.101   4.252   7.177 -0.4728  1.8606 -0.8780
 4441SOL    HW224957   4.155   4.346   7.267 -2.2568 -0.7058 -1.0363
 4442SOL     OW24958   2.677   1.385   3.730  0.2433  0.0602  0.2906
 4442SOL    HW124959   2.615   1.427   3.669  0.6087  0.5312  0.2466
 4442SOL    HW224960   2.616   1.347   3.793 -0.3204 -0.4107 -0.5339
 4443SOL     OW24961   2.842   3.706   5.059 -0.3220  0.0212  0.1860
 4443SOL    HW124962   2.872   3.640   5.121 -1.4277 -1.6746 -1.0923
 4443SOL    HW224963   2.778   3.660   5.006 -2.3220  1.2437  1.5068
 4444SOL     OW24964   2.350   2.715  11.853  0.1135  0.0901  0.5299
 4444SOL    HW124965   2.332   2.809  11.843  0.5575  0.1461  0.2255
 4444SOL    HW224966   2.433   2.716  11.902 -0.2539  2.4799  1.1400
 4445SOL     OW24967   0.323   0.639   1.862  0.1469  0.3070  0.3957
 4445SOL    HW124968   0.277   0.642   1.946 -1.3864 -2.7045 -0.3184
 4445SOL    HW224969   0.389   0.708   1.864 -1.1124  1.5030  1.5168
 4446SOL     OW24970   2.551   1.791   5.484  0.1754  0.6405  0.1599
 4446SOL    HW124971   2.533   1.853   5.555  1.6905 -3.1274  3.8655
 4446SOL    HW224972   2.631   1.747   5.515 -0.7878 -2.3607 -1.6682
 4447SOL     OW24973   3.433   2.914  17.236  0.1299 -0.0105  0.4637
 4447SOL    HW124974   3.511   2.892  17.287 -0.1379  0.6783  1.1835
 4447SOL    HW224975   3.461   2.902  17.146 -0.7587  1.0134  0.0455
 4448SOL     OW24976   3.960   0.181   3.817 -0.2307 -0.1208  0.0471
 4448SOL    HW124977   3.924   0.092   3.818 -2.0078  0.5585 -1.6139
 4448SOL    HW224978   4.047   0.155   3.846  0.2443  2.3264  0.8504
 4449SOL     OW24979   1.239   3.272   7.403  0.1162 -0.1440  0.5396
 4449SOL    HW124980   1.326   3.232   7.401 -0.2425 -0.8800 -0.6037
 4449SOL    HW224981   1.270   3.362   7.400  0.7460 -0.3550  0.7687
 4450SOL     OW24982   0.583   2.838   8.600 -0.0841 -0.6265 -0.2289
 4450SOL    HW124983   0.489   2.824   8.611 -0.2758  1.0334  0.1759
 4450SOL    HW224984   0.621   2.804   8.681  1.9848  1.0766 -0.4961
 4451SOL     OW24985   3.817   0.366  10.817 -0.3972 -0.0219  0.1727
 4451SOL    HW124986   3.775   0.280  10.818 -0.0523 -0.1871  0.0185
 4451SOL    HW224987   3.768   0.409  10.888  1.1342  0.5282  0.8907
 4452SOL     OW24988   1.885   1.058   6.796  0.0042 -0.2031  0.3650
 4452SOL    HW124989   1.845   1.003   6.728  0.3776 -0.3854  0.2930
 4452SOL    HW224990   1.814   1.068   6.860 -0.5711 -1.0189 -0.1435
 4453SOL     OW24991   0.980   3.449  11.382 -0.0881  0.1247 -0.0801
 4453SOL    HW124992   0.893   3.422  11.410 -0.6013  1.4796 -0.4092
 4453SOL    HW224993   1.030   3.436  11.463 -0.9517  0.5761  0.5184
 4454SOL     OW24994   2.231   3.725   3.764 -0.2141 -0.0103 -0.5249
 4454SOL    HW124995   2.201   3.796   3.821 -0.9522 -1.8546  1.3722
 4454SOL    HW224996   2.169   3.735   3.692 -0.0062  0.2615 -0.6674
 4455SOL     OW24997   3.234   4.531   8.129  0.2159 -0.1595 -0.4403
 4455SOL    HW124998   3.192   4.444   8.122 -1.4277  0.6395 -0.5976
 4455SOL    HW224999   3.268   4.527   8.219  0.6451  1.7645 -0.5374
 4456SOL     OW25000   3.568   3.506   4.257  0.0955 -0.2464  0.8348
 4456SOL    HW125001   3.658   3.481   4.236 -1.1094 -1.5651 -2.7759
 4456SOL    HW225002   3.567   3.597   4.226 -1.1412 -1.7438 -3.5066
 4457SOL     OW25003   4.359   3.624   2.082 -0.5025  0.2629  0.2439
 4457SOL    HW125004   4.332   3.712   2.107  0.0600  0.4095  0.3350
 4457SOL    HW225005   4.279   3.595   2.039  0.2042 -0.9678 -0.2310
 4458SOL     OW25006   0.266   4.012   7.954  0.3707  0.4513 -0.3272
 4458SOL    HW125007   0.281   4.007   7.860  0.9087 -2.6464 -0.0636
 4458SOL    HW225008   0.197   3.947   7.961  0.7321 -0.0207 -1.1939
 4459SOL     OW25009   4.083   0.123   4.962 -0.3758 -0.1142  0.1275
 4459SOL    HW125010   4.049   0.199   5.008  0.1426 -0.7734  1.6006
 4459SOL    HW225011   4.012   0.105   4.901  2.0348 -0.9459 -2.4454
 4460SOL     OW25012   2.703   0.743   2.301  0.1020 -0.2267 -0.1827
 4460SOL    HW125013   2.790   0.756   2.338 -0.2849  1.2599  0.2080
 4460SOL    HW225014   2.665   0.666   2.341 -0.2643 -0.6851 -1.4088
 4461SOL     OW25015   1.823   0.346  17.210 -0.4255 -0.5435  0.2021
 4461SOL    HW125016   1.890   0.401  17.251 -2.0771  1.5812  0.0746
 4461SOL    HW225017   1.857   0.257  17.222 -0.9409 -1.2318 -3.7422
 4462SOL     OW25018   4.468   2.460   5.335  0.4821  0.9650  0.2155
 4462SOL    HW125019   4.525   2.383   5.339  0.0815  0.6343 -0.5539
 4462SOL    HW225020   4.387   2.413   5.315  1.3109 -1.0908  1.6148
 4463SOL     OW25021   1.793   1.174   1.554  0.3388  0.2812  0.6535
 4463SOL    HW125022   1.824   1.210   1.637 -1.5400  0.2989  1.3388
 4463SOL    HW225023   1.729   1.241   1.530  0.8053 -0.3691 -2.4170
 4464SOL     OW25024   1.247   3.458   5.033 -0.5302  0.2255  0.4028
 4464SOL    HW125025   1.294   3.375   5.032  0.7470  0.9952 -2.3701
 4464SOL    HW225026   1.172   3.434   4.978 -0.1370 -1.8913  0.7981
 4465SOL     OW25027   0.198   0.850   6.079  0.0605  0.6021 -0.2123
 4465SOL    HW125028   0.252   0.912   6.129 -2.3149  2.9780 -0.5727
 4465SOL    HW225029   0.111   0.889   6.083  0.1271  0.5964  1.2945
 4466SOL     OW25030   0.108   3.061  10.931  0.5305  0.0606  0.0319
 4466SOL    HW125031   0.020   3.096  10.917  0.5529 -1.1967 -3.2829
 4466SOL    HW225032   0.160   3.124  10.880  0.0843  0.6168  0.2581
 4467SOL     OW25033   3.885   2.662   9.141  0.2104 -0.1705 -0.3244
 4467SOL    HW125034   3.966   2.645   9.190 -0.9898  0.6719  1.9472
 4467SOL    HW225035   3.864   2.574   9.110  1.3592 -0.4254 -0.3847
 4468SOL     OW25036   1.249   0.502  14.550  0.8412  0.2041  0.1418
 4468SOL    HW125037   1.264   0.592  14.576  1.3589 -0.0233  0.6269
 4468SOL    HW225038   1.274   0.446  14.624  1.9409 -0.5617 -0.8047
 4469SOL     OW25039   2.832   1.628   5.893 -0.3313  0.2628 -0.4165
 4469SOL    HW125040   2.744   1.644   5.928  0.0002 -1.7960  1.3864
 4469SOL    HW225041   2.852   1.538   5.919  0.8612  0.3656 -0.9965
 4470SOL     OW25042   2.170   2.609  10.678 -0.6762 -0.3573  1.0411
 4470SOL    HW125043   2.104   2.541  10.668  1.2864 -2.5290  2.9378
 4470SOL    HW225044   2.249   2.559  10.659 -0.1721  1.3227 -1.3310
 4471SOL     OW25045   0.653   1.675   0.340  0.4486 -0.1851 -0.1370
 4471SOL    HW125046   0.693   1.602   0.389 -0.4696 -0.6969 -0.1473
 4471SOL    HW225047   0.644   1.626   0.259 -1.4270 -0.7557  0.4113
 4472SOL     OW25048   4.345   0.070  12.777 -0.5143 -0.3317  0.1043
 4472SOL    HW125049   4.379   0.156  12.751 -0.3727 -0.5301 -0.3500
 4472SOL    HW225050   4.419   0.013  12.755  0.3015  0.6169  0.3558
 4473SOL     OW25051   0.633   3.178   9.522  0.5820  0.1744 -0.1844
 4473SOL    HW125052   0.629   3.086   9.549 -0.1023 -0.0187 -0.9396
 4473SOL    HW225053   0.557   3.181   9.463 -0.7965 -0.0582  1.5677
 4474SOL     OW25054   0.124   4.090  15.734  0.4550  0.0894 -0.0271
 4474SOL    HW125055   0.192   4.127  15.678  1.0793 -1.0966 -0.0493
 4474SOL    HW225056   0.151   4.124  15.819  1.3460  1.0695 -0.7055
 4475SOL     OW25057   1.851   4.449   8.037  0.0189 -0.3297  0.1948
 4475SOL    HW125058   1.893   4.485   7.959  2.7843 -0.6540  1.5326
 4475SOL    HW225059   1.884   4.359   8.037 -2.0614 -1.0926 -0.3775
 4476SOL     OW25060   0.529   4.483  12.528  0.0234  0.4278  0.6292
 4476SOL    HW125061   0.515   4.563  12.578 -0.7558  1.9037 -1.9211
 4476SOL    HW225062   0.521   4.412  12.592 -1.1279  0.1021  0.1337
 4477SOL     OW25063   3.213   0.893   6.536  0.0276 -0.0582  0.6657
 4477SOL    HW125064   3.138   0.943   6.503  0.8717  0.4138 -0.5460
 4477SOL    HW225065   3.268   0.960   6.577 -0.7759 -0.5377  2.5073
 4478SOL     OW25066   1.573   4.672   3.980 -0.4498  0.5276  0.0393
 4478SOL    HW125067   1.611   4.606   3.922  0.2935  0.1441  0.9591
 4478SOL    HW225068   1.640   0.005   3.973 -2.0800  2.2086  0.7890
 4479SOL     OW25069   0.647   2.121  11.701  0.4619  0.1690 -0.1049
 4479SOL    HW125070   0.731   2.121  11.655 -0.1886 -0.6079 -1.2851
 4479SOL    HW225071   0.591   2.104  11.625 -0.8320  0.4905  0.7832
 4480SOL     OW25072   3.048   4.062   1.904 -0.2134 -0.0626  0.4195
 4480SOL    HW125073   3.090   4.102   1.980 -1.2685 -2.3254  2.1591
 4480SOL    HW225074   2.992   4.134   1.873  1.2148 -0.3177 -2.7484
 4481SOL     OW25075   3.035   0.338   3.024 -0.4611 -0.3361 -0.1074
 4481SOL    HW125076   3.098   0.266   3.028 -0.1661 -0.0513  0.3344
 4481SOL    HW225077   3.039   0.350   2.929  0.2733  0.9139  0.0769
 4482SOL     OW25078   2.553   3.896   3.459 -0.4352  0.1914  0.0788
 4482SOL    HW125079   2.505   3.886   3.376 -1.6944  0.1185  0.8267
 4482SOL    HW225080   2.561   3.806   3.492  0.6773 -0.1432 -1.0952
 4483SOL     OW25081   3.973   4.576  16.141  0.5180 -0.0196  0.0233
 4483SOL    HW125082   3.911   4.552  16.073  1.6249 -0.8712 -0.6859
 4483SOL    HW225083   4.036   4.623  16.086 -0.6883  1.9279  0.3200
 4484SOL     OW25084   2.157   1.488   7.014  0.0098  0.3227 -0.2679
 4484SOL    HW125085   2.082   1.452   6.965  1.7354 -0.5105 -2.2934
 4484SOL    HW225086   2.228   1.433   6.980 -0.2174  0.6134 -1.2318
 4485SOL     OW25087   1.216   3.315   9.470 -0.1771 -0.5178 -0.2033
 4485SOL    HW125088   1.273   3.240   9.486 -1.1169 -1.2291 -0.2161
 4485SOL    HW225089   1.139   3.279   9.427  1.2985 -2.2345 -1.3704
 4486SOL     OW25090   1.380   3.276   2.663 -0.2930 -0.2593 -0.6420
 4486SOL    HW125091   1.349   3.316   2.744 -0.7127 -0.3777 -0.7440
 4486SOL    HW225092   1.410   3.346   2.604  1.7886 -0.2904  0.3966
 4487SOL     OW25093   2.333   0.261   2.167 -0.2169 -0.1098 -0.6381
 4487SOL    HW125094   2.316   0.260   2.073  0.9114  1.5666 -0.8642
 4487SOL    HW225095   2.356   0.354   2.175 -0.2619 -0.1349 -0.1682
 4488SOL     OW25096   0.363   1.332  17.608 -0.0728  0.3450  0.3460
 4488SOL    HW125097   0.292   1.281  17.570  1.5205 -1.0035 -0.8011
 4488SOL    HW225098   0.359   1.408  17.550 -1.3879 -0.0906 -0.1331
 4489SOL     OW25099   3.251   4.304   4.354  0.1560 -0.1627 -0.1512
 4489SOL    HW125100   3.291   4.365   4.416  0.3340  0.3832 -0.8161
 4489SOL    HW225101   3.324   4.250   4.323  1.3613  2.1334 -1.3406
 4490SOL     OW25102   1.707   4.447   6.227  0.2742  0.2739 -0.3382
 4490SOL    HW125103   1.799   4.421   6.221  0.3951 -0.0375  2.8012
 4490SOL    HW225104   1.708   4.498   6.308 -0.2886 -1.0428  0.5009
 4491SOL     OW25105   2.482   1.968   5.690  0.1740  0.2282  0.1574
 4491SOL    HW125106   2.528   1.987   5.771  0.6029 -2.2323  0.4889
 4491SOL    HW225107   2.392   1.973   5.721 -0.2721 -0.5284 -1.0273
 4492SOL     OW25108   2.713   2.994  12.085 -0.1544 -0.3097  0.8230
 4492SOL    HW125109   2.736   3.031  12.170 -2.8905  1.6872  0.7114
 4492SOL    HW225110   2.785   2.932  12.074 -0.2890 -0.4245  0.5928
 4493SOL     OW25111   0.314   3.332  12.940 -0.0115 -0.5207  0.6405
 4493SOL    HW125112   0.340   3.268  12.873 -0.9209 -0.0804 -0.1391
 4493SOL    HW225113   0.402   3.357  12.970 -0.6147  2.7042 -0.2663
 4494SOL     OW25114   3.153   1.831   5.206  0.0872 -0.5576  0.2065
 4494SOL    HW125115   3.191   1.801   5.123 -0.0978 -1.7303  0.5402
 4494SOL    HW225116   3.073   1.779   5.209  3.0257 -5.0800  0.3202
 4495SOL     OW25117   4.391   1.542  12.005 -0.3153 -0.0654 -0.3737
 4495SOL    HW125118   4.387   1.448  11.991 -0.6620 -0.3323  1.5050
 4495SOL    HW225119   4.423   1.580  11.923 -0.3796  1.3495  0.2396
 4496SOL     OW25120   0.816   4.234  10.408  0.2901  0.4364 -0.5046
 4496SOL    HW125121   0.890   4.274  10.361  0.8586  0.6567  0.5466
 4496SOL    HW225122   0.756   4.306  10.391 -0.0933  0.2253 -0.0380
 4497SOL     OW25123   1.484   2.927   2.492  0.2052  0.1531  0.0110
 4497SOL    HW125124   1.463   3.012   2.453  0.1290  0.5768  0.9906
 4497SOL    HW225125   1.541   2.893   2.422  0.3433 -1.5137  0.9366
 4498SOL     OW25126   0.732   1.710   4.994 -0.6747 -0.4561  0.9095
 4498SOL    HW125127   0.683   1.784   4.957  1.6014  0.8449  0.5408
 4498SOL    HW225128   0.666   1.674   5.053 -0.7758  0.6675  1.4688
 4499SOL     OW25129   4.391   1.419   4.640  0.1840  0.4984 -0.0652
 4499SOL    HW125130   4.313   1.465   4.609  0.3800 -0.8540 -2.5546
 4499SOL    HW225131   4.381   1.436   4.733  1.8574 -0.0736  0.2172
 4500SOL     OW25132   1.500   1.755   7.872  0.2873  0.0974 -0.2184
 4500SOL    HW125133   1.436   1.795   7.813 -0.1716 -2.5208 -1.5083
 4500SOL    HW225134   1.583   1.745   7.825  0.6045 -1.7331  0.7003
 4501SOL     OW25135   1.440   0.481   7.979 -0.3162 -0.3699  0.4621
 4501SOL    HW125136   1.373   0.513   8.040  0.0102  0.8068  0.1944
 4501SOL    HW225137   1.393   0.442   7.905  1.0266  1.1245 -1.1680
 4502SOL     OW25138   1.311   2.229   3.327 -0.5609 -0.2558  0.0479
 4502SOL    HW125139   1.385   2.181   3.290 -0.5088  1.0849 -1.6002
 4502SOL    HW225140   1.262   2.277   3.260 -1.5460 -0.4329  0.6351
 4503SOL     OW25141   3.057   0.035   9.404 -0.0975 -0.3470  0.5566
 4503SOL    HW125142   3.001   4.724   9.467 -0.5146 -0.1524  0.3263
 4503SOL    HW225143   3.002   0.111   9.385 -0.5867 -0.0416  3.1858
 4504SOL     OW25144   0.589   1.968   3.450  0.2202  0.4774  0.0623
 4504SOL    HW125145   0.583   1.899   3.516  0.6998  0.7979  0.4339
 4504SOL    HW225146   0.676   1.949   3.416  0.4081  0.4208  0.5868
 4505SOL     OW25147   0.219   1.508   4.573  0.3304 -0.1234 -0.6954
 4505SOL    HW125148   0.288   1.571   4.554  1.0056 -0.3283  1.0731
 4505SOL    HW225149   0.265   1.428   4.600 -1.6125 -0.6965  0.8907
 4506SOL     OW25150   0.607   1.191   0.392  0.7027 -0.3071 -0.1805
 4506SOL    HW125151   0.611   1.166   0.300 -1.7786 -1.0863 -0.0567
 4506SOL    HW225152   0.558   1.273   0.383  0.6328 -0.7317 -3.5280
 4507SOL     OW25153   2.042   1.549  12.104  0.0537 -0.1325 -0.0546
 4507SOL    HW125154   1.997   1.633  12.113  2.2857  1.0512 -0.1476
 4507SOL    HW225155   2.082   1.547  12.191 -1.8869  1.4631  0.8752
 4508SOL     OW25156   3.467   1.681   3.544 -0.2067  0.3720  0.8104
 4508SOL    HW125157   3.507   1.704   3.628  0.5314  1.4003  0.1840
 4508SOL    HW225158   3.375   1.693   3.565  0.1212  0.8688  1.9450
 4509SOL     OW25159   0.450   0.961  16.152  0.1407 -0.0347  0.4237
 4509SOL    HW125160   0.505   0.927  16.223 -0.0870  1.1254  1.1573
 4509SOL    HW225161   0.517   0.991  16.091  1.2615  1.2596  2.2789
 4510SOL     OW25162   2.971   0.130   3.426  0.4355 -0.2499 -0.4421
 4510SOL    HW125163   3.047   0.179   3.393  0.8744 -0.6353  0.0094
 4510SOL    HW225164   2.895   0.184   3.404  0.6614 -0.5777 -2.0602
 4511SOL     OW25165   3.589   0.457   7.616  0.6277 -1.2162 -0.4092
 4511SOL    HW125166   3.493   0.448   7.621  0.5708 -0.3919 -0.0396
 4511SOL    HW225167   3.592   0.485   7.525 -1.3097 -1.7908 -0.6472
 4512SOL     OW25168   2.986   3.568   4.028  0.2003  0.4137 -0.8494
 4512SOL    HW125169   3.008   3.542   3.938  1.2898 -0.2929 -0.3790
 4512SOL    HW225170   2.908   3.622   4.022 -0.4945 -0.6153 -1.0902
 4513SOL     OW25171   1.643   3.855   6.198 -0.0940 -0.0044 -0.3089
 4513SOL    HW125172   1.662   3.800   6.275  1.2226  1.9546  0.7530
 4513SOL    HW225173   1.561   3.897   6.224  0.0822  0.1570 -0.0128
 4514SOL     OW25174   1.539   1.959  11.325  0.0894 -0.2477  0.0586
 4514SOL    HW125175   1.520   1.936  11.234  0.4865  0.1454 -0.1252
 4514SOL    HW225176   1.463   1.949  11.382  0.9445 -2.2993  0.8353
 4515SOL     OW25177   2.693   4.371  17.299  0.9637 -0.7540 -0.1257
 4515SOL    HW125178   2.632   4.440  17.273  0.3450 -1.3458 -0.2491
 4515SOL    HW225179   2.642   4.291  17.295 -1.1343  0.6980 -2.0924
 4516SOL     OW25180   1.806   0.084   9.452 -0.1224 -0.5231 -0.5547
 4516SOL    HW125181   1.899   0.098   9.434 -0.2568 -0.1002 -0.9193
 4516SOL    HW225182   1.799   4.727   9.426  0.7556 -0.3367 -1.4438
 4517SOL     OW25183   0.596   4.676  12.063 -0.6844  0.5984  0.3526
 4517SOL    HW125184   0.668   4.735  12.039 -0.6376  0.7241  0.8135
 4517SOL    HW225185   0.649   4.615  12.113 -1.3236  1.7826  2.4661
 4518SOL     OW25186   1.568   0.682   2.225 -0.2395 -0.5464 -0.0852
 4518SOL    HW125187   1.539   0.748   2.288  0.6437 -0.7497  0.5420
 4518SOL    HW225188   1.651   0.726   2.206 -0.1813 -0.4397  0.4108
 4519SOL     OW25189   2.881   2.944   7.440 -0.3268 -0.0856 -0.6365
 4519SOL    HW125190   2.910   2.853   7.446 -1.1605 -0.3056  0.1175
 4519SOL    HW225191   2.790   2.921   7.418 -0.6438  2.5502 -2.0575
 4520SOL     OW25192   1.505   3.226   6.813  0.4440 -0.5538 -0.1204
 4520SOL    HW125193   1.591   3.188   6.827 -0.2099 -1.3316  1.7841
 4520SOL    HW225194   1.516   3.319   6.794  0.0403 -0.3954  0.4001
 4521SOL     OW25195   1.690   3.156   9.695  0.5120 -0.4693  0.1985
 4521SOL    HW125196   1.610   3.203   9.671  1.9613  2.2099  0.5843
 4521SOL    HW225197   1.658   3.105   9.769  2.0384 -0.0993  1.1333
 4522SOL     OW25198   1.326   0.165   6.427 -0.3726  0.0741 -0.0950
 4522SOL    HW125199   1.240   0.124   6.417 -0.6468  0.7488 -0.4783
 4522SOL    HW225200   1.355   0.144   6.515  1.6628  2.5086 -0.2020
 4523SOL     OW25201   1.688   1.458   4.317  0.1684 -0.2897 -0.3757
 4523SOL    HW125202   1.691   1.553   4.324 -0.8957 -0.3411  0.8038
 4523SOL    HW225203   1.633   1.434   4.392  2.9726  0.3070  1.9091
 4524SOL     OW25204   3.802   1.810   8.364  0.4119  0.0171  0.3580
 4524SOL    HW125205   3.872   1.833   8.425  0.2604 -0.6722  0.7915
 4524SOL    HW225206   3.857   1.787   8.289 -0.1295  0.7256 -0.2569
 4525SOL     OW25207   1.199   1.048  17.400  0.4189  0.2120 -0.3318
 4525SOL    HW125208   1.223   1.067  17.490  2.1555 -1.4243 -0.4328
 4525SOL    HW225209   1.121   0.994  17.414 -0.1029  1.2679  0.7653
 4526SOL     OW25210   2.024   4.046  15.112 -0.8571 -0.2436 -0.0137
 4526SOL    HW125211   2.039   3.974  15.051  0.1013 -0.5003  0.5203
 4526SOL    HW225212   1.989   4.119  15.062 -1.8671 -1.6940 -1.4356
 4527SOL     OW25213   3.448   1.178  11.837  0.1650  0.2569 -0.2822
 4527SOL    HW125214   3.402   1.176  11.921  2.1051  0.6538  0.7654
 4527SOL    HW225215   3.380   1.214  11.779 -0.4576 -0.1729  0.1711
 4528SOL     OW25216   2.207   0.070  17.084 -0.0392  0.0571 -0.1459
 4528SOL    HW125217   2.301   0.076  17.065  0.1687  1.7434  1.3558
 4528SOL    HW225218   2.178   0.010  17.015 -0.8815  2.5758 -1.9980
 4529SOL     OW25219   2.943   0.294  14.962  0.5340  0.4165  0.0232
 4529SOL    HW125220   2.896   0.376  14.945  0.7329  0.6156  0.4178
 4529SOL    HW225221   2.884   0.233  14.918  1.4139 -0.3957 -0.0369
 4530SOL     OW25222   1.974   1.753   3.394 -0.2793 -0.2703  0.4040
 4530SOL    HW125223   1.923   1.713   3.324  1.5118  3.6361 -3.1179
 4530SOL    HW225224   2.062   1.730   3.364 -0.3444  0.6644 -0.4815
 4531SOL     OW25225   3.173   3.916  12.808  0.0756 -0.6876 -0.0723
 4531SOL    HW125226   3.142   3.827  12.823 -0.7995 -0.5232 -0.8205
 4531SOL    HW225227   3.178   3.913  12.712 -1.1718 -0.7402 -0.1432
 4532SOL     OW25228   2.676   2.372  13.533  0.3739  0.1724  0.3288
 4532SOL    HW125229   2.709   2.282  13.542 -2.5152 -0.6802  2.5432
 4532SOL    HW225230   2.666   2.400  13.624  0.1111  1.9980 -0.2610
 4533SOL     OW25231   3.195   1.382   5.577 -0.4002 -0.2796 -0.7881
 4533SOL    HW125232   3.122   1.441   5.561  0.7085  1.6802  1.2686
 4533SOL    HW225233   3.230   1.405   5.664 -0.3648 -0.8684 -0.6494
 4534SOL     OW25234   2.768   0.971   5.855 -0.2937  0.2345  0.0866
 4534SOL    HW125235   2.738   0.900   5.912 -1.0401 -1.5440 -2.5067
 4534SOL    HW225236   2.687   1.021   5.843 -0.0982  0.8450  1.2626
 4535SOL     OW25237   4.029   3.991  15.001  0.2747  0.0756 -0.1482
 4535SOL    HW125238   4.097   3.970  15.065  0.7476 -3.4005 -1.8116
 4535SOL    HW225239   3.991   4.073  15.034 -1.4578  0.9098 -4.2696
 4536SOL     OW25240   2.689   1.593   8.029 -0.3824 -1.0830  0.4395
 4536SOL    HW125241   2.626   1.604   8.101  1.1328 -1.0419  1.7667
 4536SOL    HW225242   2.653   1.517   7.983 -2.0713 -1.1870  1.8864
 4537SOL     OW25243   2.263   2.779   5.950  0.1218 -0.2608  0.2789
 4537SOL    HW125244   2.267   2.823   6.035 -1.8120 -1.8093  1.1702
 4537SOL    HW225245   2.332   2.713   5.959  0.3007 -0.1286 -0.1000
 4538SOL     OW25246   0.443   1.420   5.697  0.0311  0.3350 -0.0116
 4538SOL    HW125247   0.394   1.477   5.756 -1.0834 -1.5430  0.8678
 4538SOL    HW225248   0.522   1.398   5.747  1.3414  0.8527 -1.8463
 4539SOL     OW25249   3.482   3.380   3.556  0.2195 -0.5392  0.3026
 4539SOL    HW125250   3.414   3.329   3.512 -0.1952 -0.5221  0.9301
 4539SOL    HW225251   3.483   3.343   3.644 -1.2353 -0.5556  0.3144
 4540SOL     OW25252   0.792   3.806   3.421 -0.0444  0.5388 -0.4891
 4540SOL    HW125253   0.847   3.866   3.470 -0.0967 -0.4503  0.7741
 4540SOL    HW225254   0.703   3.836   3.437  0.1105  1.3482 -1.1578
 4541SOL     OW25255   0.870   0.118   5.054 -0.5217 -0.7753 -0.0700
 4541SOL    HW125256   0.870   0.211   5.073 -0.1544 -0.5396 -1.2416
 4541SOL    HW225257   0.921   0.113   4.973 -0.1464  0.3182  0.1081
 4542SOL     OW25258   0.287   0.071   4.025 -0.5987 -0.5279  0.1583
 4542SOL    HW125259   0.198   0.036   4.021 -1.3615  1.3066  1.1854
 4542SOL    HW225260   0.305   0.086   3.933  3.1705  0.8508  1.1151
 4543SOL     OW25261   2.812   0.233   1.623 -0.8124 -0.5032 -0.0342
 4543SOL    HW125262   2.762   0.283   1.689  1.0618  3.6634 -1.7643
 4543SOL    HW225263   2.887   0.292   1.613  0.1111 -1.0533  3.4027
 4544SOL     OW25264   3.620   3.120  17.664  0.1755  0.7782 -0.0168
 4544SOL    HW125265   3.706   3.106  17.702  0.0931 -0.9719 -0.4633
 4544SOL    HW225266   3.553   3.063  17.701  0.0180  2.1004  1.7252
 4545SOL     OW25267   1.476   0.669   4.854 -0.1257 -0.0625 -0.5258
 4545SOL    HW125268   1.490   0.761   4.833 -2.4935  0.3361 -0.3956
 4545SOL    HW225269   1.428   0.687   4.935  2.5269  1.9597  0.6031
 4546SOL     OW25270   4.541   1.460   4.028  0.4921  0.2566  0.3986
 4546SOL    HW125271   4.505   1.525   4.089  0.2680  0.6472 -0.1437
 4546SOL    HW225272   4.459   1.423   3.994 -0.0005  1.4484  0.2772
 4547SOL     OW25273   1.422   1.296   7.897  0.3983 -0.4050  0.0123
 4547SOL    HW125274   1.370   1.233   7.847  0.6282  0.1397 -0.9232
 4547SOL    HW225275   1.486   1.232   7.927  2.5374  1.0778 -1.3284
 4548SOL     OW25276   3.677   0.969   5.017  0.2881 -0.0019  0.1411
 4548SOL    HW125277   3.720   0.939   5.097  0.9459  1.3154  0.2785
 4548SOL    HW225278   3.701   1.061   5.017 -0.4507  0.2015  1.3468
 4549SOL     OW25279   1.551   0.909   2.404  0.2260  0.1405 -0.2840
 4549SOL    HW125280   1.553   1.002   2.382  3.6976  0.2612  0.6111
 4549SOL    HW225281   1.634   0.897   2.451 -0.3627  1.0587  0.9819
 4550SOL     OW25282   3.768   0.373   2.700 -0.5166 -0.0980 -0.2305
 4550SOL    HW125283   3.711   0.384   2.624 -0.7453  0.0360 -0.0362
 4550SOL    HW225284   3.741   0.449   2.750 -0.5998  0.6862 -1.4536
 4551SOL     OW25285   0.018   2.597   2.455 -0.1536  0.4003 -0.1320
 4551SOL    HW125286   4.723   2.676   2.501  1.5913  1.5114 -0.8822
 4551SOL    HW225287   4.713   2.527   2.506  0.5762  0.7691  0.9714
 4552SOL     OW25288   2.355   4.565   3.971  0.2745 -0.2667  0.1227
 4552SOL    HW125289   2.397   4.612   4.043  0.2798  0.2794 -0.2345
 4552SOL    HW225290   2.261   4.585   3.963  0.9502  2.0297 -2.2235
 4553SOL     OW25291   4.494   2.013   6.418 -0.2248 -0.4414 -0.6827
 4553SOL    HW125292   4.444   2.088   6.451  0.2784  0.7258 -2.5858
 4553SOL    HW225293   4.513   1.962   6.497 -1.1280 -1.3074 -1.0240
 4554SOL     OW25294   0.703   0.454   3.867 -0.1302  0.1141  0.1126
 4554SOL    HW125295   0.624   0.446   3.813 -0.8644  0.6237  1.1075
 4554SOL    HW225296   0.760   0.463   3.791  0.7593 -1.8818  0.5382
 4555SOL     OW25297   1.929   2.569   3.830 -0.3924  0.6155 -0.0285
 4555SOL    HW125298   1.904   2.659   3.852 -0.2906  0.2548  1.5229
 4555SOL    HW225299   1.966   2.577   3.742  0.6193  2.6587  0.5984
 4556SOL     OW25300   0.805   4.382  11.137 -0.0935 -0.0455  0.0505
 4556SOL    HW125301   0.863   4.421  11.071 -1.2741  0.2317 -0.8176
 4556SOL    HW225302   0.797   4.461  11.191 -1.3679 -1.7176  2.3401
 4557SOL     OW25303   1.407   1.422   4.968 -0.3025  0.2120 -0.3296
 4557SOL    HW125304   1.432   1.405   4.877  2.3158  1.6147  0.1161
 4557SOL    HW225305   1.312   1.416   4.969 -0.4600  2.5350 -1.7722
 4558SOL     OW25306   3.644   1.371  12.182  0.5533 -0.0497  0.4186
 4558SOL    HW125307   3.688   1.453  12.203  0.1138 -0.1352  1.6613
 4558SOL    HW225308   3.561   1.411  12.154  0.5136 -0.6005 -0.2446
 4559SOL     OW25309   0.432   4.377  14.832  0.2932 -0.1087 -0.0376
 4559SOL    HW125310   0.352   4.325  14.842 -1.1471  1.9567 -0.8477
 4559SOL    HW225311   0.408   4.469  14.821  2.1066  0.4705  0.8937
 4560SOL     OW25312   1.005   1.413   0.379  0.0378  0.5237  0.0286
 4560SOL    HW125313   0.912   1.436   0.379  0.3123  1.6111  0.5339
 4560SOL    HW225314   1.001   1.333   0.327  0.0941 -0.5586  1.6821
 4561SOL     OW25315   0.996   1.388   8.473 -0.2270 -0.3746  0.1124
 4561SOL    HW125316   1.019   1.303   8.435 -0.3197 -0.9259  1.2940
 4561SOL    HW225317   0.953   1.425   8.396  0.2184 -1.1918 -0.5260
 4562SOL     OW25318   1.792   2.909   1.129  0.2758 -0.1315  0.4713
 4562SOL    HW125319   1.805   2.954   1.212  1.5483 -1.6032  1.0853
 4562SOL    HW225320   1.836   2.825   1.144  0.1835 -0.6059 -1.9410
 4563SOL     OW25321   3.071   1.471   3.942 -0.5623  0.3632  0.1175
 4563SOL    HW125322   3.134   1.539   3.918  1.2653 -1.8230 -1.3430
 4563SOL    HW225323   3.076   1.465   4.037  0.9204  1.6992  0.1226
 4564SOL     OW25324   0.548   4.322   8.703  0.2001  0.0944 -0.5807
 4564SOL    HW125325   0.576   4.399   8.751  1.0171  0.9560 -2.4330
 4564SOL    HW225326   0.553   4.343   8.609  0.8094 -1.0989 -0.8265
 4565SOL     OW25327   1.454   2.797   6.850 -0.0154  0.3726 -0.2443
 4565SOL    HW125328   1.490   2.795   6.939 -0.2018  2.5130 -0.1259
 4565SOL    HW225329   1.525   2.841   6.804  0.8561  1.4556  2.1665
 4566SOL     OW25330   3.736   3.334  11.907  0.4760 -0.4302  0.0314
 4566SOL    HW125331   3.696   3.261  11.859 -0.6294  0.1840  0.0129
 4566SOL    HW225332   3.690   3.327  11.990  0.7317 -0.5127  0.1648
 4567SOL     OW25333   4.575   3.968   8.300 -0.1423  0.0364 -0.0203
 4567SOL    HW125334   4.572   3.878   8.333 -0.1748 -0.3748 -1.1318
 4567SOL    HW225335   4.497   3.972   8.245 -0.1786  0.5120  0.0708
 4568SOL     OW25336   4.202   4.184   4.454 -0.3370  0.1841 -0.2829
 4568SOL    HW125337   4.127   4.210   4.401  0.4496  0.5375 -1.2167
 4568SOL    HW225338   4.153   4.140   4.524 -2.1280  1.3673 -0.7959
 4569SOL     OW25339   3.030   3.499  16.180  0.5315 -0.0607  0.1778
 4569SOL    HW125340   3.011   3.506  16.273 -1.1100  0.4657 -0.1874
 4569SOL    HW225341   3.019   3.589  16.148 -3.3582 -0.7031 -0.2917
 4570SOL     OW25342   4.577   2.075  12.524 -0.4975  0.2952 -0.9901
 4570SOL    HW125343   4.634   2.006  12.489  0.5228  0.5102  0.2388
 4570SOL    HW225344   4.643   2.141  12.546 -0.4211  0.5096 -1.8696
 4571SOL     OW25345   2.575   3.954  16.993  0.2018  0.4409  0.0430
 4571SOL    HW125346   2.566   4.049  16.980 -0.4738  0.3220 -0.3092
 4571SOL    HW225347   2.540   3.923  16.910 -1.9543  1.3449  0.6026
 4572SOL     OW25348   0.636   3.992   9.104 -0.4410  0.5607  0.1201
 4572SOL    HW125349   0.624   3.999   9.010  0.1789 -1.6386 -0.1183
 4572SOL    HW225350   0.592   4.074   9.128 -1.0371  0.4003 -0.4353
 4573SOL     OW25351   3.076   0.528   7.662 -0.1937  0.1049  0.3594
 4573SOL    HW125352   3.036   0.455   7.614  1.0793 -1.7672  2.1160
 4573SOL    HW225353   3.129   0.487   7.730 -1.0853 -1.1781  0.2941
 4574SOL     OW25354   1.830   4.339  14.385  0.5172 -0.1139 -0.1132
 4574SOL    HW125355   1.821   4.244  14.373 -0.8641  0.3211 -2.4602
 4574SOL    HW225356   1.872   4.359  14.301 -0.6938  1.3953 -0.3574
 4575SOL     OW25357   0.342   0.968   4.976 -0.2587 -0.2481  0.1882
 4575SOL    HW125358   0.295   1.044   4.942 -1.7086 -1.6977 -1.0788
 4575SOL    HW225359   0.410   1.008   5.030 -0.1418  0.8300 -0.7852
 4576SOL     OW25360   1.337   3.279   7.026 -0.1803  0.1360  0.3107
 4576SOL    HW125361   1.358   3.206   7.084  0.5868 -0.5691 -0.8659
 4576SOL    HW225362   1.402   3.265   6.957  0.9329  2.6400  0.8545
 4577SOL     OW25363   4.511   1.771  11.847  0.4098 -0.5320  0.0219
 4577SOL    HW125364   4.541   1.860  11.826 -1.4752  0.3770  1.1642
 4577SOL    HW225365   4.571   1.740  11.915 -0.0663  0.8497  1.0755
 4578SOL     OW25366   0.582   0.931  15.350 -0.3419 -0.6850  0.5888
 4578SOL    HW125367   0.524   0.902  15.421  1.8150 -2.2291  1.7017
 4578SOL    HW225368   0.562   0.871  15.279  0.1937 -0.3490  0.1521
 4579SOL     OW25369   3.506   3.038   3.206  0.4655 -0.0338  0.1227
 4579SOL    HW125370   3.572   3.010   3.270  0.7801  1.4593  0.4356
 4579SOL    HW225371   3.469   2.949   3.206 -0.0114  0.1617 -1.9718
 4580SOL     OW25372   3.323   2.318  10.470  0.1238 -0.1399 -0.1112
 4580SOL    HW125373   3.374   2.311  10.551  1.9113  0.5266 -1.1823
 4580SOL    HW225374   3.233   2.296  10.494 -0.1617 -1.6665 -2.6438
 4581SOL     OW25375   3.493   0.326  13.657  0.0655 -0.2551 -0.1929
 4581SOL    HW125376   3.541   0.294  13.734 -1.3151 -0.6409  0.5155
 4581SOL    HW225377   3.416   0.269  13.663  0.4575 -0.6394  1.1518
 4582SOL     OW25378   1.607   2.133  10.510 -0.2548  0.8571  0.3792
 4582SOL    HW125379   1.694   2.112  10.545  0.5053  0.5788 -1.6771
 4582SOL    HW225380   1.577   2.046  10.483 -1.6217  1.3320  0.3815
 4583SOL     OW25381   2.222   2.169   0.455  0.4159 -0.6108  0.3975
 4583SOL    HW125382   2.272   2.115   0.394  0.6790  0.7444 -0.5802
 4583SOL    HW225383   2.290   2.217   0.502  0.8794 -1.2333  0.3482
 4584SOL     OW25384   1.981   2.100  14.483 -0.2333  0.1728  0.1826
 4584SOL    HW125385   2.019   2.064  14.563 -0.9976 -2.1309 -0.5057
 4584SOL    HW225386   1.955   2.021  14.436  0.7068  0.1958 -0.3778
 4585SOL     OW25387   4.178   0.965   7.287  0.3880  0.0286 -0.4791
 4585SOL    HW125388   4.224   0.893   7.243 -0.5374  0.3221 -1.9239
 4585SOL    HW225389   4.131   0.918   7.356 -2.5176  2.7730 -0.6238
 4586SOL     OW25390   0.937   0.625   3.351 -0.6448 -0.3322  0.6063
 4586SOL    HW125391   0.858   0.618   3.406 -0.7080  0.4183  0.6109
 4586SOL    HW225392   0.896   0.596   3.270  0.8978 -2.7153  0.6691
 4587SOL     OW25393   2.654   1.446   7.799  0.3921 -0.4234 -0.2615
 4587SOL    HW125394   2.722   1.388   7.832  0.5972  0.4702  0.8801
 4587SOL    HW225395   2.706   1.481   7.726  3.4622 -2.2479  1.0854
 4588SOL     OW25396   0.793   0.864  17.010 -0.0232 -0.2057 -0.0152
 4588SOL    HW125397   0.843   0.920  16.951 -0.5375 -0.7431 -0.9594
 4588SOL    HW225398   0.770   0.792  16.951 -0.1226 -0.9104  0.8725
 4589SOL     OW25399   0.780   2.944   2.850  0.8196  0.3544  0.3754
 4589SOL    HW125400   0.863   2.898   2.836 -0.1059 -0.8302 -1.0975
 4589SOL    HW225401   0.812   3.033   2.830  0.3029  0.2448 -0.9482
 4590SOL     OW25402   1.813   0.031  11.842 -0.1975 -0.0427  0.8817
 4590SOL    HW125403   1.745   0.026  11.775  0.9400 -0.1718 -0.2747
 4590SOL    HW225404   1.846   4.678  11.829  1.2209  0.5455  0.4693
 4591SOL     OW25405   1.790   4.645  15.131 -0.1210  0.7200  0.2179
 4591SOL    HW125406   1.781   0.005  15.139 -0.7665  0.6110  0.7926
 4591SOL    HW225407   1.787   4.622  15.224 -0.7035  1.7820  0.4614
 4592SOL     OW25408   0.053   4.533   7.559  0.2387 -0.1158  0.1791
 4592SOL    HW125409   4.729   4.460   7.541 -1.0997  1.1899 -0.6395
 4592SOL    HW225410   0.072   4.561   7.470  0.1008  0.0822  0.2127
 4593SOL     OW25411   0.942   0.817   6.452  0.8501  0.2397 -0.0778
 4593SOL    HW125412   0.989   0.790   6.531  0.3279  1.2247  0.5772
 4593SOL    HW225413   0.955   0.912   6.454 -3.3257  0.8030  1.1515
 4594SOL     OW25414   2.111   0.638   2.684  0.5002  0.1659 -0.4475
 4594SOL    HW125415   2.036   0.580   2.696  2.5387 -2.2271  0.8788
 4594SOL    HW225416   2.174   0.576   2.722  0.1903 -0.8780 -1.6228
 4595SOL     OW25417   0.342   2.646  16.000  0.1076  0.1580  0.3318
 4595SOL    HW125418   0.281   2.587  16.044  0.6276 -0.4700  0.2256
 4595SOL    HW225419   0.279   2.690  15.944  2.3128  3.1044  0.1405
 4596SOL     OW25420   1.345   3.461   8.983  0.0520 -0.1709  0.5733
 4596SOL    HW125421   1.357   3.492   9.072  1.2788 -0.3640  0.4814
 4596SOL    HW225422   1.250   3.450   8.979  0.3049 -1.7717 -1.2536
 4597SOL     OW25423   4.116   3.535  12.109  0.5541 -0.9906  0.2171
 4597SOL    HW125424   4.052   3.532  12.179  1.0790  1.9216  0.8429
 4597SOL    HW225425   4.081   3.475  12.043 -0.1234  1.1504 -1.3825
 4598SOL     OW25426   3.182   2.499   5.106 -0.4997 -0.6470  0.6077
 4598SOL    HW125427   3.273   2.469   5.095 -0.5682 -1.1189  1.3062
 4598SOL    HW225428   3.189   2.590   5.132  0.5375 -0.6817  0.4542
 4599SOL     OW25429   0.861   1.900   8.417 -0.2295 -0.4770  0.2996
 4599SOL    HW125430   0.775   1.941   8.422 -0.6230 -1.2145 -0.5521
 4599SOL    HW225431   0.869   1.870   8.508 -2.1326  0.2656  0.7158
 4600SOL     OW25432   3.476   1.046   6.627 -0.0115 -0.0895 -0.4831
 4600SOL    HW125433   3.467   1.000   6.711  0.0437 -0.0120 -0.4342
 4600SOL    HW225434   3.525   0.984   6.573  0.4082  1.1475 -1.5278
 4601SOL     OW25435   3.439   3.013   1.494  0.4110 -0.1536  0.0001
 4601SOL    HW125436   3.514   2.961   1.465 -0.3251 -0.5096 -1.3133
 4601SOL    HW225437   3.400   3.034   1.409 -0.2013  1.7709  0.7514
 4602SOL     OW25438   0.360   1.448   8.487  0.1670  1.0128  0.1789
 4602SOL    HW125439   0.444   1.403   8.477 -1.4816 -1.6194 -2.0403
 4602SOL    HW225440   0.309   1.385   8.539  0.8827 -0.5692 -1.0121
 4603SOL     OW25441   4.085   0.803  11.579  0.0312 -0.7159 -0.6375
 4603SOL    HW125442   3.995   0.808  11.611  0.1367  0.6077 -0.5474
 4603SOL    HW225443   4.126   0.877  11.624  0.6788 -1.9032  0.7152
 4604SOL     OW25444   4.463   3.343   5.523  0.2798 -0.0879 -0.1117
 4604SOL    HW125445   4.518   3.404   5.571 -0.8556 -0.5832  1.8082
 4604SOL    HW225446   4.394   3.319   5.585 -0.0398 -0.1772 -0.4993
 4605SOL     OW25447   0.539   3.125   3.026  0.1245 -0.5512  0.2948
 4605SOL    HW125448   0.601   3.178   2.976 -1.7190  2.5110  1.2093
 4605SOL    HW225449   0.588   3.105   3.106  2.8027 -0.2279 -1.2596
 4606SOL     OW25450   3.653   4.654   0.328  0.5210 -0.1258 -0.1035
 4606SOL    HW125451   3.701   4.604   0.262  2.4934  1.5118  0.0816
 4606SOL    HW225452   3.717   4.711   0.371  0.0213  0.3946 -0.0327
 4607SOL     OW25453   0.528   3.800   6.331 -0.0503  0.1514 -0.0756
 4607SOL    HW125454   0.496   3.888   6.349 -0.2860 -0.3068  1.7005
 4607SOL    HW225455   0.472   3.780   6.256  1.5848  2.8262 -2.0174
 4608SOL     OW25456   4.052   2.388   5.623  0.0770  0.2825  0.0175
 4608SOL    HW125457   4.106   2.434   5.559 -0.5888  1.7725  0.5459
 4608SOL    HW225458   3.969   2.385   5.577 -0.3159 -0.4886  0.7744
 4609SOL     OW25459   2.509   2.852  10.363 -0.2010 -0.2997  0.2080
 4609SOL    HW125460   2.485   2.760  10.371  0.3030 -0.5645 -1.4040
 4609SOL    HW225461   2.431   2.896  10.329 -0.2307 -0.5112  0.0023
 4610SOL     OW25462   0.912   1.921   7.530  0.5822 -0.6876  0.2001
 4610SOL    HW125463   0.962   1.899   7.451  1.6537  0.4859  0.5526
 4610SOL    HW225464   0.885   1.834   7.559 -0.9273 -0.6626 -1.0909
 4611SOL     OW25465   4.395   4.460   4.433  0.3182 -0.4424  0.3355
 4611SOL    HW125466   4.429   4.405   4.362  2.8468  1.1666  0.2944
 4611SOL    HW225467   4.316   4.501   4.400  0.4378 -0.9235 -0.5345
 4612SOL     OW25468   1.224   2.441   5.217  0.0884 -0.1059 -0.0836
 4612SOL    HW125469   1.267   2.420   5.133  1.7774  2.8268  0.0505
 4612SOL    HW225470   1.222   2.536   5.227  1.4872  0.0762 -1.4473
 4613SOL     OW25471   3.877   2.040   6.698  0.3191 -0.0417 -0.0763
 4613SOL    HW125472   3.801   2.018   6.753 -0.9197 -3.4367 -3.1760
 4613SOL    HW225473   3.829   2.087   6.630  0.6370  0.4868  0.0639
 4614SOL     OW25474   2.672   2.855   8.315 -0.2361  0.0154  0.2369
 4614SOL    HW125475   2.754   2.903   8.306  0.8074 -1.6957  0.5620
 4614SOL    HW225476   2.683   2.805   8.396 -4.3034 -0.1587  0.6889
 4615SOL     OW25477   1.913   1.700   5.943  0.1253 -0.3890  0.1079
 4615SOL    HW125478   1.917   1.796   5.946 -1.4010 -0.3405  0.4876
 4615SOL    HW225479   1.907   1.680   5.849  0.4102  2.2297 -0.4762
 4616SOL     OW25480   2.441   2.318   7.955 -0.1126 -0.3614  0.5781
 4616SOL    HW125481   2.408   2.236   7.919 -1.0321 -0.2407  1.1353
 4616SOL    HW225482   2.398   2.318   8.040 -0.7808  0.9046  0.2519
 4617SOL     OW25483   3.415   4.503   4.044  0.3668  0.3646  0.1373
 4617SOL    HW125484   3.450   4.415   4.027  1.2912  0.0789  3.5101
 4617SOL    HW225485   3.449   4.555   3.972  0.5817  0.7221  0.4993
 4618SOL     OW25486   2.027   1.688   2.543 -1.1531  0.0915 -0.1358
 4618SOL    HW125487   2.091   1.645   2.599  0.2595 -2.0379 -3.4221
 4618SOL    HW225488   2.075   1.686   2.461 -1.5292  0.6659 -0.3668
 4619SOL     OW25489   3.165   1.137  11.869  0.0960 -0.6579  0.4416
 4619SOL    HW125490   3.192   1.228  11.857 -0.8318 -0.2307  1.5560
 4619SOL    HW225491   3.198   1.115  11.956  0.9588 -3.0724 -0.5014
 4620SOL     OW25492   3.720   4.418   3.005 -0.7355 -0.2621  0.6257
 4620SOL    HW125493   3.778   4.343   3.012 -0.9842 -0.5198 -0.0584
 4620SOL    HW225494   3.665   4.409   2.927  2.0048 -1.6227 -1.1354
 4621SOL     OW25495   4.706   0.699   6.390  0.3619  0.4815  0.4674
 4621SOL    HW125496   4.635   0.740   6.341 -2.0834 -1.3879  2.4435
 4621SOL    HW225497   4.717   0.772   6.451  0.0160  0.0307  1.0649
 4622SOL     OW25498   1.373   0.407  15.278 -0.2471  0.4553 -0.2758
 4622SOL    HW125499   1.399   0.327  15.324  0.2231  1.1972  0.7601
 4622SOL    HW225500   1.457   0.445  15.253 -1.0900  2.8547  0.5659
 4623SOL     OW25501   1.953   0.635   3.010 -0.1350 -0.1839  0.3749
 4623SOL    HW125502   2.004   0.578   3.067 -0.1997 -1.0264 -0.4147
 4623SOL    HW225503   1.866   0.645   3.048 -0.8337  0.4636 -1.3612
 4624SOL     OW25504   1.214   1.177  14.710 -0.3091  0.2107 -0.5609
 4624SOL    HW125505   1.175   1.109  14.655  0.8015  1.0572 -2.3965
 4624SOL    HW225506   1.253   1.129  14.783 -3.5349  0.5164  1.3460
 4625SOL     OW25507   1.806   1.565   8.880  0.4316  0.6552  0.4382
 4625SOL    HW125508   1.822   1.642   8.826  0.4142  1.6069  1.7845
 4625SOL    HW225509   1.728   1.535   8.833  1.6564  1.1647 -1.9117
 4626SOL     OW25510   2.982   3.395   5.976  0.4419 -0.0210 -0.2591
 4626SOL    HW125511   2.936   3.316   5.947 -0.1964  0.1969  0.1582
 4626SOL    HW225512   3.062   3.356   6.013  0.1709  2.3038  2.7732
 4627SOL     OW25513   1.637   1.072  17.450  0.1561  0.1904  0.1306
 4627SOL    HW125514   1.647   1.044  17.541 -0.5330  0.8758  0.4188
 4627SOL    HW225515   1.721   1.109  17.422  0.3481  1.0200  1.7704
 4628SOL     OW25516   2.108   3.520   8.731 -0.3873  0.1874 -0.2491
 4628SOL    HW125517   2.180   3.528   8.794  2.3411 -0.2403 -3.3611
 4628SOL    HW225518   2.033   3.546   8.785 -0.3373  1.5921 -0.8523
 4629SOL     OW25519   3.006   0.205   0.773  0.4159 -0.2781  0.5145
 4629SOL    HW125520   2.941   0.275   0.771  2.1355  1.3187  1.0162
 4629SOL    HW225521   3.058   0.223   0.695 -0.2517  2.1394  0.6259
 4630SOL     OW25522   3.488   1.800  13.538 -0.7540  0.1043  0.1372
 4630SOL    HW125523   3.519   1.762  13.620 -0.9505 -1.2452 -0.4128
 4630SOL    HW225524   3.465   1.726  13.483  1.2085 -2.1773  2.4069
 4631SOL     OW25525   2.448   2.047   2.174  0.2437  0.2210 -0.1328
 4631SOL    HW125526   2.452   2.022   2.266 -1.0140 -3.0292 -0.9635
 4631SOL    HW225527   2.369   2.102   2.178 -0.8812 -1.5429  2.1476
 4632SOL     OW25528   1.329   2.529   2.147 -0.2182 -0.3821 -0.4432
 4632SOL    HW125529   1.239   2.515   2.119 -0.0739  0.6815 -1.4721
 4632SOL    HW225530   1.344   2.623   2.132 -0.3266 -0.6509 -2.3212
 4633SOL     OW25531   2.988   4.497   5.399 -0.1802 -0.1864 -0.0548
 4633SOL    HW125532   2.922   4.468   5.463  0.1654  0.2766  0.5176
 4633SOL    HW225533   2.944   4.572   5.360  0.6337 -0.9274 -2.3569
 4634SOL     OW25534   4.595   1.659  11.572 -1.0819 -0.8094  0.7454
 4634SOL    HW125535   4.565   1.693  11.657 -1.5963  0.6009 -0.0015
 4634SOL    HW225536   4.593   1.740  11.521 -0.6069 -1.6885 -0.6433
 4635SOL     OW25537   4.361   1.999  12.707  0.7968 -0.3708 -0.1296
 4635SOL    HW125538   4.392   1.915  12.743  1.4794  0.6627  1.6830
 4635SOL    HW225539   4.432   2.029  12.650  0.4479  0.1722 -0.2655
 4636SOL     OW25540   3.104   3.307   5.078 -0.4153  0.1857  0.3415
 4636SOL    HW125541   3.144   3.375   5.131 -0.5011  0.5949 -0.1227
 4636SOL    HW225542   3.014   3.341   5.074 -0.4421  0.1549  0.6743
 4637SOL     OW25543   1.195   2.843   7.453  0.1187  0.4463 -0.4838
 4637SOL    HW125544   1.155   2.836   7.540 -1.4850  2.8394 -1.0308
 4637SOL    HW225545   1.142   2.789   7.395  0.6408 -0.0750 -0.4766
 4638SOL     OW25546   0.045   0.358  15.418  0.0986 -0.1586  0.1510
 4638SOL    HW125547   0.097   0.277  15.428 -0.4166 -0.2916  1.7583
 4638SOL    HW225548   0.105   0.409  15.364  0.7461 -0.9224  0.1442
 4639SOL     OW25549   2.138   2.894   5.565 -0.0213  0.5777  0.1548
 4639SOL    HW125550   2.159   2.956   5.635  0.9724  0.6695 -0.2186
 4639SOL    HW225551   2.043   2.897   5.571  0.1027  1.1427  1.7472
 4640SOL     OW25552   2.546   2.315  15.884 -0.8161  0.0367  0.3149
 4640SOL    HW125553   2.557   2.393  15.939  0.1728 -0.6894  1.1350
 4640SOL    HW225554   2.451   2.302  15.882 -0.8908  0.8440 -1.6496
 4641SOL     OW25555   4.672   0.113   4.842  0.2366 -0.3463 -0.1851
 4641SOL    HW125556   4.642   0.033   4.798  0.7187  0.2108 -1.5145
 4641SOL    HW225557   4.604   0.126   4.908 -1.0265 -1.6750 -1.2340
 4642SOL     OW25558   4.156   1.559   7.065  0.1109  0.3630 -1.0595
 4642SOL    HW125559   4.084   1.610   7.101  0.2823  2.2377 -3.4457
 4642SOL    HW225560   4.164   1.488   7.129 -1.4185  0.0881 -1.1679
 4643SOL     OW25561   4.545   4.361   3.105 -0.2673  0.3649  0.1639
 4643SOL    HW125562   4.595   4.394   3.179 -0.2739 -0.2696  0.4559
 4643SOL    HW225563   4.572   4.268   3.107  1.1688  0.8527  3.9172
 4644SOL     OW25564   1.992   3.548   9.744 -0.4681  0.2134 -0.0722
 4644SOL    HW125565   2.048   3.556   9.821 -0.7140  2.3863 -0.1047
 4644SOL    HW225566   1.965   3.459   9.765 -2.0553  0.5690 -0.5628
 4645SOL     OW25567   4.523   3.921   3.227 -0.0404 -0.1701 -0.3489
 4645SOL    HW125568   4.583   3.952   3.159  0.6062 -0.7570 -0.0345
 4645SOL    HW225569   4.490   4.001   3.268  0.8944 -0.5540  1.1239
 4646SOL     OW25570   3.121   2.059  13.096 -0.3620  0.1469  0.2467
 4646SOL    HW125571   3.134   2.012  13.179  2.2456  1.0656  0.3428
 4646SOL    HW225572   3.105   2.150  13.123 -1.4975 -0.3082  1.1455
 4647SOL     OW25573   1.757   2.735   6.573 -0.5347  0.3179 -0.0932
 4647SOL    HW125574   1.664   2.722   6.590 -0.7302 -1.4190 -2.3823
 4647SOL    HW225575   1.778   2.789   6.649  0.3438 -0.6110  0.3300
 4648SOL     OW25576   2.724   3.691   4.068  0.1720  0.5325 -0.1478
 4648SOL    HW125577   2.651   3.637   4.099 -0.0324  2.0636  2.0284
 4648SOL    HW225578   2.683   3.770   4.105 -0.2400  0.1851  0.1375
 4649SOL     OW25579   2.326   1.670   5.573 -0.1482  0.2523  0.7834
 4649SOL    HW125580   2.371   1.591   5.603  2.8172  1.3779 -0.6882
 4649SOL    HW225581   2.380   1.688   5.496  0.3746 -4.1502  0.0908
 4650SOL     OW25582   4.667   3.415   7.356  0.5079 -0.4658 -0.2228
 4650SOL    HW125583   0.010   3.443   7.308  0.0667  0.6491 -0.2977
 4650SOL    HW225584   4.622   3.367   7.287 -1.2066  1.5383 -0.5126
 4651SOL     OW25585   3.302   4.076   5.905  0.2787 -0.4563 -0.2323
 4651SOL    HW125586   3.375   4.034   5.858 -0.3942 -0.7469 -1.0220
 4651SOL    HW225587   3.230   4.042   5.852  0.7767  0.0460 -1.2578
 4652SOL     OW25588   2.506   3.190   3.809  0.1770 -0.0872  0.0158
 4652SOL    HW125589   2.548   3.241   3.878 -1.0133  2.0079 -0.8010
 4652SOL    HW225590   2.505   3.106   3.853  0.6757  0.3742  0.9127
 4653SOL     OW25591   1.128   1.094   3.738 -0.2760 -0.3191  0.2439
 4653SOL    HW125592   1.085   1.178   3.756 -2.1699 -1.1154 -0.4470
 4653SOL    HW225593   1.086   1.072   3.654 -0.5863 -1.7996  0.7748
 4654SOL     OW25594   1.468   0.348  16.040  0.0966  0.1447  0.4248
 4654SOL    HW125595   1.505   0.384  16.121 -2.0210  1.2148  0.8998
 4654SOL    HW225596   1.485   0.255  16.056 -2.2764 -0.4329 -0.3930
 4655SOL     OW25597   1.207   4.490   7.359 -0.0094  0.6200 -0.4666
 4655SOL    HW125598   1.141   4.422   7.346 -0.0031  0.3968  0.6310
 4655SOL    HW225599   1.234   4.481   7.451  0.6884 -0.6542 -0.8004
 4656SOL     OW25600   2.703   3.773   1.550 -0.4935  0.4355 -0.2498
 4656SOL    HW125601   2.756   3.714   1.603  1.9844  0.2290 -2.9473
 4656SOL    HW225602   2.622   3.767   1.601  0.3845  0.6184  1.1558
 4657SOL     OW25603   2.780   3.365   8.092  0.5332 -0.7968  0.2799
 4657SOL    HW125604   2.808   3.323   8.174 -0.4072 -0.6200  0.6959
 4657SOL    HW225605   2.731   3.289   8.059  0.9303 -1.1980  0.6098
 4658SOL     OW25606   3.504   0.387   8.838 -0.5364 -0.3423 -0.2066
 4658SOL    HW125607   3.572   0.326   8.867 -0.3772  1.0697  2.4469
 4658SOL    HW225608   3.452   0.334   8.779 -1.8105 -0.1467  0.7413
 4659SOL     OW25609   2.589   2.097   5.486  0.2871 -0.2410  0.0429
 4659SOL    HW125610   2.551   2.056   5.563  0.0789  0.0887  0.1165
 4659SOL    HW225611   2.634   2.025   5.442  0.6827 -0.5931  1.0441
 4660SOL     OW25612   1.146   2.777   9.007  0.2049 -0.0165 -0.5803
 4660SOL    HW125613   1.241   2.786   9.000  0.3973 -0.9642  0.8750
 4660SOL    HW225614   1.128   2.827   9.086  0.0472 -1.0969  0.0687
 4661SOL     OW25615   3.177   4.658  11.507 -0.1325  0.4878  0.0991
 4661SOL    HW125616   3.087   4.655  11.542 -1.0912 -0.3955 -2.4440
 4661SOL    HW225617   3.176   4.702  11.422  2.1272 -0.7780 -0.5805
 4662SOL     OW25618   4.306   2.841   5.870  0.0084 -0.4525 -0.1173
 4662SOL    HW125619   4.371   2.802   5.929 -1.3394  0.8987  2.2686
 4662SOL    HW225620   4.262   2.762   5.838  0.7934 -1.1691  0.5483
 4663SOL     OW25621   3.659   0.522   1.837 -0.3649 -1.1768 -0.2065
 4663SOL    HW125622   3.707   0.520   1.920 -0.3037  1.3916 -0.1987
 4663SOL    HW225623   3.619   0.608   1.847  0.2372 -0.6656 -2.0528
 4664SOL     OW25624   4.019   4.377   8.504 -0.4511 -0.1095 -0.0458
 4664SOL    HW125625   4.109   4.393   8.478 -1.0160 -0.9891 -2.5500
 4664SOL    HW225626   3.963   4.415   8.436 -2.5328 -1.8487  0.6788
 4665SOL     OW25627   0.857   4.618  10.017  0.4713  0.3253  0.1564
 4665SOL    HW125628   0.823   4.537   9.979 -0.2147  0.3562  0.7047
 4665SOL    HW225629   0.770   4.654  10.031  0.0272 -0.6990  0.0447
 4666SOL     OW25630   4.659   2.328  12.633 -0.4110 -0.0746  0.1026
 4666SOL    HW125631   4.649   2.421  12.610  1.0936  0.4857  1.6476
 4666SOL    HW225632   4.694   2.335  12.722 -0.7076  0.8788  0.1492
 4667SOL     OW25633   1.085   1.899   5.650  0.7776 -0.2207 -0.5764
 4667SOL    HW125634   1.113   1.815   5.615  0.9359  0.5057 -2.1874
 4667SOL    HW225635   1.157   1.959   5.629 -0.1337  0.3159 -2.1305
 4668SOL     OW25636   3.060   0.616  10.219 -0.1015  0.1291  0.1614
 4668SOL    HW125637   3.021   0.653  10.299  1.0108  0.7752  0.4102
 4668SOL    HW225638   3.093   0.541  10.267 -0.1657 -0.8664 -1.3656
 4669SOL     OW25639   0.645   1.640   9.477 -0.0409 -0.0593  0.0869
 4669SOL    HW125640   0.626   1.721   9.429 -1.6851 -0.3283  0.2959
 4669SOL    HW225641   0.557   1.611   9.501  0.3993 -0.4841  1.1637
 4670SOL     OW25642   0.561   0.053   6.966  0.0781 -0.5340  0.4569
 4670SOL    HW125643   0.553   4.705   6.920 -0.2834  0.5037 -1.3559
 4670SOL    HW225644   0.512   0.028   7.044 -1.3255  0.1519 -0.2069
 4671SOL     OW25645   1.338   0.400   9.986  0.2446  0.3919  0.0250
 4671SOL    HW125646   1.303   0.313   9.966 -3.2720  1.4424  1.5900
 4671SOL    HW225647   1.432   0.404  10.003  0.4461  1.7807 -1.3802
 4672SOL     OW25648   2.276   2.677   4.632  0.4568 -0.2635  0.2532
 4672SOL    HW125649   2.350   2.737   4.626 -0.1048  0.4403  0.3605
 4672SOL    HW225650   2.298   2.611   4.697 -0.9273  2.4851  3.4964
 4673SOL     OW25651   0.904   2.575   4.738 -0.4709  0.9072  0.7796
 4673SOL    HW125652   0.891   2.522   4.817  1.8505  1.6572  1.6685
 4673SOL    HW225653   0.821   2.569   4.692  0.0650  0.1328 -0.0748
 4674SOL     OW25654   0.915   4.209   6.320  0.1484  0.4204 -0.2973
 4674SOL    HW125655   0.990   4.213   6.380 -1.3915 -0.6340  1.6889
 4674SOL    HW225656   0.894   4.302   6.325  1.3789  0.7239 -0.8349
 4675SOL     OW25657   4.199   0.920   4.079  0.0290  0.1287  0.1639
 4675SOL    HW125658   4.214   0.856   4.149 -1.0031  0.6358  0.8370
 4675SOL    HW225659   4.179   0.993   4.137  0.6577  0.1089  0.4058
 4676SOL     OW25660   3.604   2.546  14.370 -0.3271  0.5879  0.6855
 4676SOL    HW125661   3.634   2.610  14.305 -0.8689  0.4508  0.2980
 4676SOL    HW225662   3.534   2.502  14.320  0.7300 -0.7804  0.4152
 4677SOL     OW25663   1.005   3.276   6.165 -0.7405 -0.1611 -0.0137
 4677SOL    HW125664   1.082   3.322   6.198 -1.0776 -0.4603  1.1635
 4677SOL    HW225665   0.938   3.343   6.181 -0.6616  0.0795 -0.6761
 4678SOL     OW25666   3.635   2.486   9.776  0.2873 -0.5589  0.3423
 4678SOL    HW125667   3.710   2.425   9.775  1.2725  0.6302  1.2111
 4678SOL    HW225668   3.636   2.517   9.685  2.1508 -1.1097  0.1748
 4679SOL     OW25669   3.647   3.398   2.509 -0.3289  0.0440  0.1614
 4679SOL    HW125670   3.674   3.444   2.430  1.6319 -4.2554 -1.6652
 4679SOL    HW225671   3.561   3.438   2.523 -0.8995 -1.3906  0.7798
 4680SOL     OW25672   1.647   0.277   3.345 -0.1874 -0.2064  0.7064
 4680SOL    HW125673   1.575   0.215   3.333  0.1101 -0.6340  1.1149
 4680SOL    HW225674   1.707   0.258   3.272 -0.2628  1.0499  0.3190
 4681SOL     OW25675   0.750   0.940  11.833 -0.0681  0.5836  0.1330
 4681SOL    HW125676   0.789   0.947  11.746  0.2276 -0.4569  0.1775
 4681SOL    HW225677   0.655   0.951  11.820  0.5024  4.1202 -0.9748
 4682SOL     OW25678   0.360   1.447   7.799 -0.2998 -0.2248 -0.3540
 4682SOL    HW125679   0.298   1.441   7.871 -0.8753  3.8272 -0.4951
 4682SOL    HW225680   0.444   1.431   7.842 -0.9701  0.8647  1.3458
 4683SOL     OW25681   3.946   0.641   4.321 -0.4995  0.7210 -0.2615
 4683SOL    HW125682   3.923   0.607   4.408 -1.5354  0.4900 -0.6197
 4683SOL    HW225683   3.980   0.726   4.348 -2.4612  1.4833 -0.1365
 4684SOL     OW25684   3.752   1.670   7.410 -0.0162  0.1811 -0.1499
 4684SOL    HW125685   3.679   1.612   7.431  1.5633 -1.5218  0.6503
 4684SOL    HW225686   3.726   1.750   7.455  0.5963  0.5515 -0.4506
 4685SOL     OW25687   2.055   1.345   7.631  0.1302  0.5123 -0.1796
 4685SOL    HW125688   2.110   1.274   7.664 -2.4815 -1.0785  0.7378
 4685SOL    HW225689   2.037   1.307   7.545 -0.6525 -1.6259  0.9344
 4686SOL     OW25690   0.180   4.304   5.603 -0.0014 -0.1379  0.0319
 4686SOL    HW125691   0.275   4.309   5.613 -0.0509 -0.8639  0.8626
 4686SOL    HW225692   0.169   4.353   5.522  2.8032  0.6257  0.1416
 4687SOL     OW25693   2.558   0.706  11.849 -0.4529  0.7807 -0.0470
 4687SOL    HW125694   2.649   0.723  11.873 -0.7281  1.3683  0.5832
 4687SOL    HW225695   2.569   0.612  11.864 -0.4608  0.7535 -0.2103
 4688SOL     OW25696   1.189   0.343   6.723 -0.1952 -0.4521 -0.0664
 4688SOL    HW125697   1.214   0.306   6.639  1.6483 -1.0181  0.7336
 4688SOL    HW225698   1.168   0.260   6.764  1.2048  0.4448  2.4810
 4689SOL     OW25699   4.340   1.865   4.504 -0.1534  0.8109  0.2732
 4689SOL    HW125700   4.303   1.895   4.421  0.5901  0.8208 -0.0527
 4689SOL    HW225701   4.435   1.879   4.501 -0.0679 -0.0831 -0.7851
 4690SOL     OW25702   2.619   4.250   8.569 -0.1876 -0.1711  0.2244
 4690SOL    HW125703   2.563   4.323   8.594  3.8475  3.8018 -2.3623
 4690SOL    HW225704   2.670   4.289   8.497  0.1523  1.5226  1.3852
 4691SOL     OW25705   4.150   3.945   4.948  0.3930  0.6971 -0.5698
 4691SOL    HW125706   4.124   3.864   4.904 -0.6519  0.4370  0.5203
 4691SOL    HW225707   4.061   3.982   4.948  0.6831  1.4287  2.0450
 4692SOL     OW25708   2.152   3.541  10.571 -0.0597  0.3447  0.0477
 4692SOL    HW125709   2.062   3.529  10.539 -0.8752  1.1430  2.0729
 4692SOL    HW225710   2.211   3.511  10.502 -2.7399 -0.9272 -1.6883
 4693SOL     OW25711   2.234   1.064   6.201 -0.1567  0.0053  0.3507
 4693SOL    HW125712   2.152   1.114   6.208  0.1738  0.8409 -1.4715
 4693SOL    HW225713   2.200   0.976   6.214  0.7473 -0.5292 -0.9166
 4694SOL     OW25714   4.259   0.082   6.069 -0.2487  0.4798 -0.0827
 4694SOL    HW125715   4.351   0.056   6.069 -0.6477 -0.9585 -2.4296
 4694SOL    HW225716   4.264   0.160   6.124  2.4831  0.8059 -0.7970
 4695SOL     OW25717   0.262   0.106  17.211 -0.2737  0.2095  0.0192
 4695SOL    HW125718   0.234   0.041  17.148  0.7775 -3.2865  3.1631
 4695SOL    HW225719   0.267   0.047  17.286  1.7040  1.4914  0.9163
 4696SOL     OW25720   0.552   3.680   4.990 -0.2387  0.4058 -0.1301
 4696SOL    HW125721   0.643   3.681   5.019 -0.6723 -0.1791  1.2420
 4696SOL    HW225722   0.537   3.767   5.028 -0.2614  0.5511 -0.4653
 4697SOL     OW25723   4.232   3.929   8.686 -0.0651 -0.5302  0.3627
 4697SOL    HW125724   4.281   3.848   8.672  0.4655  0.4401 -3.4555
 4697SOL    HW225725   4.306   3.989   8.693  0.4622 -0.8880 -2.1101
 4698SOL     OW25726   3.071   2.963  14.885  0.0512  0.0054  0.4787
 4698SOL    HW125727   3.158   2.950  14.922 -0.2929 -1.3855  0.8056
 4698SOL    HW225728   3.049   3.046  14.928  1.2813  1.1678 -1.1390
 4699SOL     OW25729   1.732   3.058   7.293  0.2288  0.2930  0.0019
 4699SOL    HW125730   1.792   2.994   7.330  2.4921  2.6825  0.4736
 4699SOL    HW225731   1.787   3.117   7.241  1.1692 -0.1925  0.4594
 4700SOL     OW25732   3.187   3.558   6.263  0.4116  0.4308 -0.1798
 4700SOL    HW125733   3.104   3.510   6.254 -0.1341  0.8200  2.7087
 4700SOL    HW225734   3.176   3.584   6.355 -5.5753  0.7501 -0.9534
 4701SOL     OW25735   4.145   1.097   1.836 -0.0950 -0.3846 -0.0269
 4701SOL    HW125736   4.084   1.096   1.910 -2.2274 -1.9908 -1.7837
 4701SOL    HW225737   4.140   1.003   1.817 -1.3558 -0.4108  0.3928
 4702SOL     OW25738   0.694   2.149   3.212 -0.3726 -0.3225  0.2020
 4702SOL    HW125739   0.645   2.087   3.158  2.5984 -0.9018 -1.8486
 4702SOL    HW225740   0.626   2.208   3.244 -0.3253 -0.5907  0.7876
 4703SOL     OW25741   2.173   3.738   6.865 -0.6532  0.3127 -0.0321
 4703SOL    HW125742   2.180   3.831   6.842  3.0598 -0.1403 -0.8183
 4703SOL    HW225743   2.255   3.703   6.830 -2.2866 -0.5642 -3.0530
 4704SOL     OW25744   0.360   0.722   5.077  0.5354  0.3357  0.2057
 4704SOL    HW125745   0.365   0.799   5.020  0.1360 -0.2260 -0.5882
 4704SOL    HW225746   0.267   0.703   5.078  0.3376  1.1605 -1.7613
 4705SOL     OW25747   0.604   3.916   8.434  0.4747  0.2110 -0.2269
 4705SOL    HW125748   0.548   3.993   8.425 -2.2085 -1.4124  2.7241
 4705SOL    HW225749   0.658   3.918   8.354 -0.8965 -0.7724 -1.1928
 4706SOL     OW25750   2.885   4.720   4.561 -0.4963  0.3208 -0.9871
 4706SOL    HW125751   2.813   0.041   4.531 -0.0424  1.4294 -0.0309
 4706SOL    HW225752   2.866   4.723   4.655 -2.2970  0.2848 -1.3463
 4707SOL     OW25753   4.324   4.210   5.319 -0.4628  0.0290  0.2452
 4707SOL    HW125754   4.240   4.249   5.296 -0.9455 -0.9080  0.4166
 4707SOL    HW225755   4.390   4.274   5.292  0.4547 -0.6629  0.8645
 4708SOL     OW25756   2.781   2.126  16.652 -0.3649 -0.3373  0.3551
 4708SOL    HW125757   2.751   2.159  16.737  0.9609  0.6340  0.4443
 4708SOL    HW225758   2.848   2.074  16.697  1.4153 -0.9530 -3.0316
 4709SOL     OW25759   1.819   2.935   1.436 -0.0691 -0.4334  0.6380
 4709SOL    HW125760   1.786   2.852   1.471 -1.2814 -0.1346  0.1955
 4709SOL    HW225761   1.911   2.928   1.414 -0.1250  0.9449 -0.0148
 4710SOL     OW25762   2.073   4.488   6.120 -0.0404 -0.5888  0.4514
 4710SOL    HW125763   2.163   4.515   6.101 -0.1787 -0.6286 -0.2789
 4710SOL    HW225764   2.029   4.491   6.035 -0.2363  0.3228  0.5841
 4711SOL     OW25765   0.121   3.143   9.863  0.2848  0.5504  0.1703
 4711SOL    HW125766   0.136   3.212   9.798  2.7121  0.1110  0.2713
 4711SOL    HW225767   0.190   3.164   9.927 -0.6406  1.3904  0.8941
 4712SOL     OW25768   3.153   0.830   6.996 -0.4125  0.2222 -0.2303
 4712SOL    HW125769   3.207   0.874   7.062 -0.3972 -0.6657  0.3473
 4712SOL    HW225770   3.088   0.794   7.057 -0.5612  1.8179  0.5750
 4713SOL     OW25771   0.891   1.026  15.341  0.0034  0.3369  0.3726
 4713SOL    HW125772   0.976   1.014  15.300  0.5291  0.2823  1.4858
 4713SOL    HW225773   0.847   0.960  15.287  1.9202  0.1680 -0.9614
 4714SOL     OW25774   1.262   1.414   9.540  0.1527  0.6002  0.2746
 4714SOL    HW125775   1.237   1.328   9.505  1.0180  1.6291 -2.8671
 4714SOL    HW225776   1.343   1.390   9.583  1.1099  3.5279  0.1093
 4715SOL     OW25777   4.677   1.692  16.747 -0.1872  0.2639  0.0444
 4715SOL    HW125778   4.730   1.753  16.696  0.8493  0.4237  1.3008
 4715SOL    HW225779   4.676   1.733  16.833 -0.1251  1.4213 -0.5056
 4716SOL     OW25780   4.259   0.706  10.960  0.3914  0.3660  0.1856
 4716SOL    HW125781   4.339   0.707  10.907 -0.8467  1.2823 -1.6644
 4716SOL    HW225782   4.260   0.794  10.998  0.4331 -0.3320  1.8191
 4717SOL     OW25783   3.908   2.049   3.707 -0.1185  0.0142 -0.1618
 4717SOL    HW125784   3.932   1.957   3.716  1.9405  0.7453  1.8179
 4717SOL    HW225785   3.863   2.044   3.623  1.5362 -2.0418 -0.9035
 4718SOL     OW25786   2.063   2.014   4.277 -0.2151  0.6222 -0.1069
 4718SOL    HW125787   2.020   1.937   4.240  0.1798  0.0157  0.6929
 4718SOL    HW225788   2.054   2.066   4.197  2.4973  2.0841  0.5487
 4719SOL     OW25789   3.910   1.143  16.631  0.4373 -0.1763  0.5668
 4719SOL    HW125790   3.997   1.154  16.591  0.3133  0.3201  0.4403
 4719SOL    HW225791   3.929   1.066  16.685  1.6286 -0.3759 -0.1217
 4720SOL     OW25792   2.199   3.799  11.614  0.0868 -0.3649  0.1223
 4720SOL    HW125793   2.206   3.761  11.526 -0.5080  0.5910 -0.3324
 4720SOL    HW225794   2.146   3.738  11.666 -0.9060  1.1080  0.8208
 4721SOL     OW25795   0.343   0.259   4.193 -0.7360  0.0234 -0.2003
 4721SOL    HW125796   0.253   0.289   4.202 -0.3535  1.3419 -0.7820
 4721SOL    HW225797   0.328   0.179   4.143 -2.7315  0.4943 -0.3278
 4722SOL     OW25798   2.179   3.036   9.430  0.0436 -0.0877 -0.1875
 4722SOL    HW125799   2.199   3.012   9.521  2.3713  2.4037 -0.0680
 4722SOL    HW225800   2.088   3.068   9.433  1.0190  2.7960 -1.8112
 4723SOL     OW25801   4.586   1.554  12.285  0.5683 -0.1028  0.3316
 4723SOL    HW125802   4.609   1.645  12.263  2.6290 -0.7860 -0.3566
 4723SOL    HW225803   4.497   1.560  12.251  0.7195 -1.9412 -0.3731
 4724SOL     OW25804   4.719   4.022   0.209  0.0833 -0.0457 -0.4174
 4724SOL    HW125805   0.065   4.045   0.163 -0.8682  0.6064 -1.8054
 4724SOL    HW225806   0.025   3.974   0.281  2.1662  2.2167 -0.0881
 4725SOL     OW25807   4.038   4.331   9.173 -0.1061 -0.0701 -0.4816
 4725SOL    HW125808   4.030   4.351   9.266  1.7480  1.4158 -0.6214
 4725SOL    HW225809   4.033   4.236   9.182 -2.1666  0.0245 -0.6540
 4726SOL     OW25810   2.789   0.294   5.894 -0.5127 -0.2066  0.0491
 4726SOL    HW125811   2.881   0.317   5.886 -0.2452 -2.1013 -2.3539
 4726SOL    HW225812   2.760   0.383   5.915 -0.9590 -0.2012 -0.5859
 4727SOL     OW25813   0.490   3.779   7.417  0.1950 -0.2183 -0.1155
 4727SOL    HW125814   0.431   3.785   7.492  1.7214 -3.4374  1.3126
 4727SOL    HW225815   0.516   3.687   7.418 -0.4108 -0.3772  0.3722
 4728SOL     OW25816   4.128   2.129   4.688 -0.0917  0.2849 -0.3199
 4728SOL    HW125817   4.039   2.144   4.656  0.7046  1.4255 -2.0289
 4728SOL    HW225818   4.155   2.069   4.618  2.7085 -0.0321  1.0130
 4729SOL     OW25819   2.683   0.148   8.668 -0.2795  0.0962  0.1324
 4729SOL    HW125820   2.655   0.125   8.757 -1.4010 -1.8033 -0.7023
 4729SOL    HW225821   2.772   0.179   8.682 -0.6724  1.5748 -0.6142
 4730SOL     OW25822   3.349   2.447   5.847 -0.3660  0.4285  0.2420
 4730SOL    HW125823   3.368   2.422   5.938  1.0111 -0.0694 -0.1811
 4730SOL    HW225824   3.259   2.416   5.845  0.2382 -1.4034  1.8530
 4731SOL     OW25825   3.629   2.905   5.437  0.2593  0.3414  0.5474
 4731SOL    HW125826   3.600   2.859   5.359  2.6009 -0.0511 -0.0888
 4731SOL    HW225827   3.683   2.837   5.477  2.8859  1.1880 -1.6217
 4732SOL     OW25828   4.088   0.219  16.174 -0.3104 -0.3002  0.2516
 4732SOL    HW125829   4.089   0.139  16.121  1.8222 -0.3173  0.3154
 4732SOL    HW225830   4.126   0.280  16.111 -0.8707 -1.4959 -1.2466
 4733SOL     OW25831   0.303   0.160   2.471  0.2051  0.6531  0.5713
 4733SOL    HW125832   0.208   0.158   2.486 -0.0969  0.2575 -1.4477
 4733SOL    HW225833   0.307   0.255   2.458 -1.6966  0.6688  0.1429
 4734SOL     OW25834   2.263   1.593  13.337 -0.2192  0.1206  0.4650
 4734SOL    HW125835   2.183   1.596  13.389 -0.6944 -0.3889 -0.2425
 4734SOL    HW225836   2.241   1.536  13.264  0.2903 -0.7280  0.9717
 4735SOL     OW25837   1.457   3.404   3.727 -0.7569  0.1370 -0.1659
 4735SOL    HW125838   1.527   3.443   3.780  1.7088 -1.9121 -1.9533
 4735SOL    HW225839   1.371   3.426   3.763 -0.8787  0.7255 -0.8196
 4736SOL     OW25840   0.700   1.796   1.599  0.0933  0.1092 -0.8385
 4736SOL    HW125841   0.638   1.820   1.529 -0.3747 -0.3769 -0.5963
 4736SOL    HW225842   0.681   1.702   1.604  0.8272  0.0525  0.6512
 4737SOL     OW25843   1.079   4.283   6.553 -0.0651  0.2749  0.1228
 4737SOL    HW125844   1.016   4.355   6.559 -1.1361 -0.5885 -0.6197
 4737SOL    HW225845   1.094   4.263   6.645  2.6362  2.8929  0.2401
 4738SOL     OW25846   1.068   0.281   2.134  1.0344 -0.4921 -0.1354
 4738SOL    HW125847   1.011   0.204   2.136 -0.9396  0.9681  0.4871
 4738SOL    HW225848   1.134   0.252   2.072  0.8901 -0.2693 -0.3937
 4739SOL     OW25849   0.416   4.251   2.097 -0.0384 -0.4742 -0.4563
 4739SOL    HW125850   0.492   4.305   2.121 -0.7798  1.0628 -1.5946
 4739SOL    HW225851   0.441   4.234   2.006  1.2167 -0.7730 -0.0621
 4740SOL     OW25852   4.531   1.611   9.192  0.2039 -0.0483 -0.0145
 4740SOL    HW125853   4.586   1.682   9.225 -0.2316  0.8302 -1.2080
 4740SOL    HW225854   4.449   1.655   9.172 -1.2021 -3.1386 -1.1660
 4741SOL     OW25855   3.868   1.636   7.172 -0.2173 -0.0080 -0.0530
 4741SOL    HW125856   3.816   1.656   7.250 -2.2471 -2.6493 -0.7162
 4741SOL    HW225857   3.864   1.716   7.121  0.1509 -1.1439 -1.8817
 4742SOL     OW25858   3.747   4.502   8.615 -0.2082 -0.0117  0.1639
 4742SOL    HW125859   3.684   4.462   8.675  1.4570 -2.8414  0.0299
 4742SOL    HW225860   3.749   4.431   8.551 -1.7661  0.2942 -0.2184
 4743SOL     OW25861   3.206   4.545   6.184 -0.4030 -0.0900  0.3783
 4743SOL    HW125862   3.209   4.454   6.153  0.2625  0.0699 -0.0122
 4743SOL    HW225863   3.164   4.585   6.108 -0.4138  1.0452  0.9856
 4744SOL     OW25864   4.669   2.039   7.804 -0.2784 -0.1433  0.7673
 4744SOL    HW125865   4.726   2.001   7.738  0.0427  1.2615  0.2345
 4744SOL    HW225866   4.725   2.044   7.882  0.5043 -2.7344  0.3532
 4745SOL     OW25867   3.117   4.509  11.214  0.4364 -0.0687  0.2112
 4745SOL    HW125868   3.153   4.479  11.298  0.9864  1.4982  0.5475
 4745SOL    HW225869   3.108   4.602  11.234  1.3349 -0.1744  1.1146
 4746SOL     OW25870   3.408   0.446  15.087  0.1332 -0.4008 -0.3125
 4746SOL    HW125871   3.500   0.452  15.063  0.8073  1.7904  2.7992
 4746SOL    HW225872   3.403   0.363  15.134 -0.6169 -0.0538  0.2330
 4747SOL     OW25873   3.242   3.921  15.959 -0.2102 -0.4523 -0.2960
 4747SOL    HW125874   3.289   3.960  15.885 -1.7073 -2.5132 -2.3230
 4747SOL    HW225875   3.247   3.995  16.019 -1.8144 -1.0693  0.5968
 4748SOL     OW25876   1.887   0.176   1.122 -0.4732  0.3369 -0.5245
 4748SOL    HW125877   1.903   0.130   1.040 -1.4842 -0.9064 -0.0376
 4748SOL    HW225878   1.792   0.163   1.123 -0.3526 -0.6894 -1.8270
 4749SOL     OW25879   3.808   2.461   4.212  0.0509  0.2190  0.4130
 4749SOL    HW125880   3.795   2.430   4.302 -1.2495  0.2511  0.2290
 4749SOL    HW225881   3.737   2.524   4.202  1.2278  1.2991 -1.2214
 4750SOL     OW25882   4.214   0.791   1.275 -0.4307 -0.1260  0.0021
 4750SOL    HW125883   4.195   0.730   1.203  1.2071 -2.3778  1.4959
 4750SOL    HW225884   4.277   0.855   1.242  2.1710 -2.3105  0.7629
 4751SOL     OW25885   2.417   2.191   2.908 -0.0566 -0.1181 -0.8577
 4751SOL    HW125886   2.346   2.251   2.887 -1.2085 -0.9792  0.6161
 4751SOL    HW225887   2.364   2.138   2.967 -0.0888 -0.1128 -0.8822
 4752SOL     OW25888   1.543   2.773  10.742  0.5940 -1.0564 -0.0082
 4752SOL    HW125889   1.447   2.782  10.742  0.8707  1.8413 -2.3667
 4752SOL    HW225890   1.566   2.839  10.677  2.3769 -0.5869  1.1267
 4753SOL     OW25891   0.563   3.781   9.281  0.2472  0.0082  0.5018
 4753SOL    HW125892   0.530   3.839   9.350  1.0684  2.3037 -1.0254
 4753SOL    HW225893   0.589   3.839   9.210  0.5450 -0.2050  0.4369
 4754SOL     OW25894   1.518   3.873   2.729 -0.4234 -0.1269  0.0559
 4754SOL    HW125895   1.479   3.815   2.664 -0.9550 -1.0635  1.1984
 4754SOL    HW225896   1.496   3.961   2.699  1.0870 -0.2838 -1.5245
 4755SOL     OW25897   3.622   2.570  17.642 -0.5113  0.0111 -0.8698
 4755SOL    HW125898   3.661   2.635  17.582  1.2068  0.3475  0.6185
 4755SOL    HW225899   3.548   2.628  17.660  1.1882  1.6187  0.9074
 4756SOL     OW25900   3.046   0.948   4.228 -0.4570 -0.0251 -0.5156
 4756SOL    HW125901   2.967   0.898   4.250 -0.7127  0.2064 -0.9106
 4756SOL    HW225902   3.104   0.873   4.213  0.8668  1.3099 -2.0481
 4757SOL     OW25903   0.036   1.995   5.155 -0.1965 -0.3080 -0.4275
 4757SOL    HW125904   0.002   2.042   5.231 -0.1978  0.2566 -0.7803
 4757SOL    HW225905   0.130   2.010   5.168 -0.7560  0.1755  3.1667
 4758SOL     OW25906   2.147   2.051   8.061  0.5461 -0.1738  0.0291
 4758SOL    HW125907   2.091   1.999   8.119 -0.6516 -0.9371 -1.8172
 4758SOL    HW225908   2.130   2.002   7.981  1.5074 -1.9017  0.8876
 4759SOL     OW25909   2.051   0.180   9.618 -0.1668  0.0816 -0.1029
 4759SOL    HW125910   2.106   0.133   9.681  0.1693 -0.9260 -1.1463
 4759SOL    HW225911   2.074   0.120   9.547  1.3507  0.9725 -0.3612
 4760SOL     OW25912   0.038   1.405   1.768 -0.3643  0.5951 -0.7604
 4760SOL    HW125913   4.699   1.429   1.822 -0.1149  3.1392 -1.5818
 4760SOL    HW225914   4.735   1.334   1.716 -2.0323  1.4085 -0.6289
 4761SOL     OW25915   2.093   0.451   9.181  0.1895  0.0825  0.0277
 4761SOL    HW125916   2.119   0.400   9.258  1.0076  0.3656 -0.0647
 4761SOL    HW225917   2.020   0.505   9.213 -0.1755 -1.0206  1.0634
 4762SOL     OW25918   2.413   2.062   9.301  0.5995 -0.0986  0.4805
 4762SOL    HW125919   2.326   2.102   9.306  0.7572  0.0059  2.3668
 4762SOL    HW225920   2.434   2.079   9.209 -1.0167  1.5555  0.4068
 4763SOL     OW25921   1.740   3.444   1.260  0.0481 -0.3107 -0.2268
 4763SOL    HW125922   1.794   3.518   1.286 -0.9375 -0.5731  2.6087
 4763SOL    HW225923   1.749   3.383   1.333 -0.1035 -1.7813 -1.4301
 4764SOL     OW25924   1.741   4.605   3.201  0.1165 -0.1611  0.0503
 4764SOL    HW125925   1.819   4.599   3.147  0.4579  0.6406  0.4506
 4764SOL    HW225926   1.692   4.528   3.172 -1.9090  0.9776  0.4649
 4765SOL     OW25927   4.333   0.995   6.761  0.4225  0.3199 -0.5272
 4765SOL    HW125928   4.407   1.050   6.735  1.0170  0.3197  1.1583
 4765SOL    HW225929   4.323   1.019   6.853  1.4260 -0.6488 -0.1502
 4766SOL     OW25930   1.725   0.639   5.037  0.1811  0.1684 -0.2768
 4766SOL    HW125931   1.659   0.641   4.969 -1.0206  1.1290  0.9081
 4766SOL    HW225932   1.803   0.637   4.982 -0.1535 -2.1670 -0.6673
 4767SOL     OW25933   1.129   3.323  12.425 -0.0517  0.0026  0.6838
 4767SOL    HW125934   1.049   3.306  12.376  1.0313  0.4367 -1.2056
 4767SOL    HW225935   1.148   3.236  12.462 -0.3627 -0.5365 -0.4329
 4768SOL     OW25936   2.146   2.696  13.308 -0.5178  0.0067  0.4850
 4768SOL    HW125937   2.080   2.664  13.369 -1.0691  0.2326  0.0035
 4768SOL    HW225938   2.162   2.620  13.252 -0.0277 -0.4773  1.2792
 4769SOL     OW25939   0.509   2.534  15.587 -0.2605 -0.3101  0.1139
 4769SOL    HW125940   0.578   2.535  15.653 -0.2453 -1.0121  0.1115
 4769SOL    HW225941   0.528   2.616  15.542  0.2050 -1.1012 -1.1422
 4770SOL     OW25942   4.097   2.587   3.103  0.0366  0.3258 -0.3036
 4770SOL    HW125943   4.176   2.539   3.129 -1.2828 -2.2094 -1.0423
 4770SOL    HW225944   4.143   2.670   3.085 -0.7200  0.8712  0.3032
 4771SOL     OW25945   0.160   3.212   7.282 -0.3651 -0.7301 -0.0686
 4771SOL    HW125946   0.221   3.228   7.355 -1.4848  2.2930  0.1899
 4771SOL    HW225947   0.146   3.301   7.252  1.4169  0.4273  2.5466
 4772SOL     OW25948   0.704   0.607  15.014 -0.7143 -0.5915 -0.4104
 4772SOL    HW125949   0.696   0.527  15.067 -0.5003  1.4271  2.6531
 4772SOL    HW225950   0.707   0.570  14.926 -0.8804 -2.1351  0.2283
 4773SOL     OW25951   1.125   2.163   8.250 -0.7957 -0.2439 -0.1502
 4773SOL    HW125952   1.217   2.160   8.276 -0.9967 -2.6218  0.2534
 4773SOL    HW225953   1.111   2.097   8.183  1.7721  0.0216 -0.9222
 4774SOL     OW25954   1.688   3.904   0.610  0.9818 -0.5614  0.1216
 4774SOL    HW125955   1.744   3.974   0.644 -1.4117  1.0949  0.6194
 4774SOL    HW225956   1.686   3.849   0.688 -1.8936 -0.0151  0.4178
 4775SOL     OW25957   0.567   3.666  10.796  0.0621  0.3399 -0.2349
 4775SOL    HW125958   0.513   3.742  10.820 -0.4778 -0.3961  0.8929
 4775SOL    HW225959   0.622   3.648  10.872 -0.6122 -0.8624 -0.0328
 4776SOL     OW25960   1.814   3.409   3.696  0.1469  0.1328 -0.1057
 4776SOL    HW125961   1.764   3.415   3.777 -1.6192  0.9238 -1.2414
 4776SOL    HW225962   1.887   3.365   3.739 -2.1338 -2.9844  0.6188
 4777SOL     OW25963   3.891   3.577   6.474 -0.2392  0.5092  0.3499
 4777SOL    HW125964   3.853   3.489   6.479  0.4656  0.2662  1.2578
 4777SOL    HW225965   3.953   3.564   6.403  1.9211 -0.5122  2.4505
 4778SOL     OW25966   3.345   0.027   0.734  0.5118  0.0108 -0.2087
 4778SOL    HW125967   3.277   4.703   0.702  0.8465 -0.8671  0.6834
 4778SOL    HW225968   3.296   0.076   0.800  1.4364  0.5282  0.0982
 4779SOL     OW25969   3.870   4.680   8.428  0.0432 -0.1811 -0.3564
 4779SOL    HW125970   3.834   4.615   8.488  0.8026 -0.7000 -0.4556
 4779SOL    HW225971   3.881   4.626   8.350 -0.9044  0.6531 -1.0674
 4780SOL     OW25972   1.475   4.155   8.191  0.2006 -0.1810  0.7855
 4780SOL    HW125973   1.545   4.171   8.255  1.4732  0.8615 -0.8341
 4780SOL    HW225974   1.488   4.060   8.189  2.2557  0.1419 -0.9457
 4781SOL     OW25975   2.254   3.462  12.200 -0.2158  0.2917  0.4666
 4781SOL    HW125976   2.242   3.554  12.174  1.1781  0.9644  2.1628
 4781SOL    HW225977   2.274   3.418  12.117 -0.2184 -0.7068  1.0043
 4782SOL     OW25978   1.768   2.145   4.658  0.8336 -0.5161 -0.2933
 4782SOL    HW125979   1.680   2.177   4.679  1.0020  0.4963 -1.1050
 4782SOL    HW225980   1.779   2.178   4.568 -0.2062 -0.9047 -0.5574
 4783SOL     OW25981   0.974   4.636   7.757 -0.4391 -0.0257 -0.4158
 4783SOL    HW125982   0.972   4.629   7.853 -2.5790  0.6482 -0.3996
 4783SOL    HW225983   0.896   4.584   7.736  0.1227 -0.6386 -0.9543
 4784SOL     OW25984   3.921   1.706   9.294 -0.2640 -0.4099 -0.5886
 4784SOL    HW125985   3.863   1.634   9.322 -3.0928  1.4950 -1.5201
 4784SOL    HW225986   3.895   1.726   9.204 -0.1995  0.2490 -0.4573
 4785SOL     OW25987   3.341   3.590   2.056  0.4279  0.1118  0.4918
 4785SOL    HW125988   3.357   3.603   1.963 -1.5043 -1.0257  0.0008
 4785SOL    HW225989   3.288   3.667   2.075 -1.2590 -0.3571 -2.3161
 4786SOL     OW25990   1.832   2.670   7.297 -0.0233  0.5082 -0.7085
 4786SOL    HW125991   1.870   2.753   7.266 -0.8873  1.0218 -0.4043
 4786SOL    HW225992   1.828   2.679   7.393 -3.6776 -2.9996 -0.5136
 4787SOL     OW25993   3.725   0.353   3.534 -0.6247  0.4211 -0.2744
 4787SOL    HW125994   3.791   0.401   3.484 -1.4946  1.4995 -0.3842
 4787SOL    HW225995   3.647   0.377   3.485 -0.0710 -1.8884 -2.2828
 4788SOL     OW25996   0.521   3.013   3.620  0.9511  0.4793 -0.8463
 4788SOL    HW125997   0.603   2.987   3.661  0.7801 -0.0481 -0.8412
 4788SOL    HW225998   0.499   2.926   3.585  1.8100 -0.7090  1.5648
 4789SOL     OW25999   2.752   3.791   6.015  0.3263 -0.6999  0.9387
 4789SOL    HW126000   2.683   3.728   6.037 -1.7587  0.4576 -2.3007
 4789SOL    HW226001   2.762   3.831   6.101  3.9413  0.0774  0.1741
 4790SOL     OW26002   4.728   3.133   4.271  0.5103  0.0740 -0.0443
 4790SOL    HW126003   0.018   3.139   4.179 -0.1817 -1.4822 -0.3319
 4790SOL    HW226004   0.035   3.215   4.299 -0.2474 -0.3646  2.3779
 4791SOL     OW26005   2.470   0.057   5.197  0.3744  0.8211 -0.0614
 4791SOL    HW126006   2.476   0.015   5.282  2.6681  0.3342 -0.4761
 4791SOL    HW226007   2.488   0.149   5.213  0.4799  0.9052 -0.6533
 4792SOL     OW26008   2.178   4.296  10.078  0.1987 -0.2878 -0.4087
 4792SOL    HW126009   2.100   4.242  10.064 -1.4584  1.0324  3.9051
 4792SOL    HW226010   2.130   4.375  10.102  0.1696 -0.9128  1.5531
 4793SOL     OW26011   3.415   1.266   0.139  0.0534 -0.2691  0.3847
 4793SOL    HW126012   3.379   1.179   0.154 -0.2105 -0.0903  0.7883
 4793SOL    HW226013   3.472   1.292   0.211  0.9604 -0.2137 -0.3487
 4794SOL     OW26014   2.561   3.398   2.637  0.4428 -0.0078  0.4334
 4794SOL    HW126015   2.528   3.468   2.694  0.5319 -0.5466  1.1545
 4794SOL    HW226016   2.591   3.335   2.703 -1.4202  2.4216  3.6446
 4795SOL     OW26017   0.039   2.456   3.375  0.2248  0.2702 -0.4255
 4795SOL    HW126018   0.077   2.429   3.292 -1.4384  0.3612 -1.2112
 4795SOL    HW226019   0.118   2.438   3.427  1.7129 -0.6034 -2.9820
 4796SOL     OW26020   0.502   1.681   1.326 -0.0824 -0.1586  0.2075
 4796SOL    HW126021   0.409   1.690   1.304  0.0194 -0.0450 -0.1799
 4796SOL    HW226022   0.518   1.591   1.355 -1.2613  0.1459  1.7795
 4797SOL     OW26023   4.342   1.177  10.641  0.4090 -0.3709  0.2233
 4797SOL    HW126024   4.357   1.087  10.612  0.4751 -0.2047 -0.2581
 4797SOL    HW226025   4.414   1.178  10.703  1.8113  3.0241 -1.4489
 4798SOL     OW26026   2.204   0.867  14.075  0.0490 -0.0003 -0.3082
 4798SOL    HW126027   2.294   0.837  14.068 -0.1568 -0.8212  0.5425
 4798SOL    HW226028   2.183   0.877  13.983 -0.2029 -0.2252 -0.2743
 4799SOL     OW26029   1.702   1.292   8.423  0.5550 -0.0940  0.2039
 4799SOL    HW126030   1.611   1.262   8.423 -0.1342  1.9738  0.2913
 4799SOL    HW226031   1.756   1.215   8.405  0.4581 -0.1661  0.2144
 4800SOL     OW26032   0.869   4.565   3.232  0.8668 -0.2191  0.0181
 4800SOL    HW126033   0.923   4.644   3.237  2.6666 -1.5471  1.6178
 4800SOL    HW226034   0.880   4.544   3.139  1.7149 -3.8040  0.9283
 4801SOL     OW26035   0.536   0.129  14.060 -0.2744 -0.1640 -0.3381
 4801SOL    HW126036   0.573   0.124  14.148 -0.4998 -1.9493 -0.3341
 4801SOL    HW226037   0.509   0.037  14.057 -0.4850 -0.1489  1.1766
 4802SOL     OW26038   0.165   3.551   0.448 -0.0189 -0.1672  0.2324
 4802SOL    HW126039   0.089   3.555   0.507  0.3681 -0.7204  0.7685
 4802SOL    HW226040   0.193   3.642   0.443  0.2497 -0.2178  0.7890
 4803SOL     OW26041   2.253   1.173   7.216  0.2015  0.7145 -0.3622
 4803SOL    HW126042   2.284   1.191   7.127  1.3520 -0.4507 -0.1905
 4803SOL    HW226043   2.242   1.264   7.244  0.4974  1.0678 -1.3812
 4804SOL     OW26044   2.199   3.737   8.040 -0.8390 -0.0626  0.0325
 4804SOL    HW126045   2.243   3.690   8.111 -1.2605  0.7012  0.7968
 4804SOL    HW226046   2.251   3.722   7.961  0.2101  0.6622  0.5848
 4805SOL     OW26047   3.309   2.428   1.448  0.8992 -0.2099 -0.1023
 4805SOL    HW126048   3.379   2.431   1.513 -0.3843  1.2802  1.1854
 4805SOL    HW226049   3.293   2.521   1.432 -2.4805 -1.0690 -1.6931
 4806SOL     OW26050   0.741   3.608   0.770 -0.2426 -0.7396 -0.1941
 4806SOL    HW126051   0.791   3.530   0.744  1.1829 -0.0208  0.3931
 4806SOL    HW226052   0.665   3.554   0.792  0.6237 -1.0326  2.0289
 4807SOL     OW26053   1.888   1.300   3.381  0.8625  0.3507  0.4149
 4807SOL    HW126054   1.941   1.341   3.312 -1.9023  2.6743 -0.3438
 4807SOL    HW226055   1.843   1.236   3.326 -0.2010  2.1801 -0.8570
 4808SOL     OW26056   3.538   2.484   1.233 -0.3167 -0.0463  0.4394
 4808SOL    HW126057   3.534   2.521   1.321  0.4975  1.3117 -0.0984
 4808SOL    HW226058   3.525   2.392   1.255  0.0005 -0.1484  0.1974
 4809SOL     OW26059   3.154   1.073   4.987  0.1253  0.3124  0.2517
 4809SOL    HW126060   3.223   1.077   5.053  0.1898  1.7642  0.0856
 4809SOL    HW226061   3.109   1.156   5.004  0.2024  0.2880  0.5648
 4810SOL     OW26062   2.823   3.860   9.058  0.6630 -0.6504 -0.5930
 4810SOL    HW126063   2.834   3.809   8.977 -1.2158 -0.0195 -1.2311
 4810SOL    HW226064   2.892   3.820   9.112  1.9524  1.2572 -0.8133
 4811SOL     OW26065   3.013   0.141   6.783 -0.1662  0.2180  0.0813
 4811SOL    HW126066   3.080   0.166   6.719 -0.5949  2.4165  0.4746
 4811SOL    HW226067   2.948   0.105   6.723 -0.4635  0.3826  0.3043
 4812SOL     OW26068   3.630   4.401  16.192  0.0237  0.2036  0.4728
 4812SOL    HW126069   3.651   4.429  16.281  3.3278  0.9352 -0.5182
 4812SOL    HW226070   3.702   4.340  16.175 -0.1606 -0.0473  0.5968
 4813SOL     OW26071   0.834   1.202   1.305  0.0897 -0.0516 -0.4949
 4813SOL    HW126072   0.806   1.187   1.214 -0.2195 -1.2720 -0.1942
 4813SOL    HW226073   0.843   1.297   1.303 -0.1976 -0.0105  0.4286
 4814SOL     OW26074   0.264   0.998   6.686  0.4707 -0.2969  1.0133
 4814SOL    HW126075   0.294   0.917   6.728  1.2470 -0.5848 -0.0867
 4814SOL    HW226076   0.338   1.056   6.703 -0.1344  0.2860  1.6813
 4815SOL     OW26077   2.776   3.539   6.417  0.1154  0.1143  0.0556
 4815SOL    HW126078   2.801   3.631   6.429 -0.7062  0.5103 -1.1817
 4815SOL    HW226079   2.856   3.492   6.393 -0.1949 -0.3924  0.0080
 4816SOL     OW26080   3.322   2.117  15.227  0.2559  0.0635  0.7975
 4816SOL    HW126081   3.408   2.120  15.268  1.4014  1.8185 -1.7271
 4816SOL    HW226082   3.268   2.080  15.297  0.4294 -0.4685  0.6460
 4817SOL     OW26083   0.333   1.998   8.959  0.6546  0.0002 -0.2165
 4817SOL    HW126084   0.303   2.002   8.869  1.0864 -1.7178 -0.4372
 4817SOL    HW226085   0.253   1.962   8.998  1.6756 -2.4273 -0.3930
 4818SOL     OW26086   3.708   3.554   1.033 -0.4072 -0.1948 -0.1564
 4818SOL    HW126087   3.680   3.497   1.105 -1.8167  0.8532  0.1120
 4818SOL    HW226088   3.654   3.530   0.958 -0.0632 -0.2436 -0.3858
 4819SOL     OW26089   1.330   1.326   6.802  0.4570  0.0703  0.3181
 4819SOL    HW126090   1.370   1.254   6.754  0.3082 -1.4765  2.4689
 4819SOL    HW226091   1.238   1.314   6.776  0.3520 -0.9424  1.1629
 4820SOL     OW26092   0.053   1.315   7.085 -0.2758  0.0492 -0.0745
 4820SOL    HW126093   0.103   1.388   7.048 -1.4168  0.4267 -0.8690
 4820SOL    HW226094   0.120   1.247   7.077  0.2720  0.3715  1.9757
 4821SOL     OW26095   3.863   2.976  11.804  0.6845  0.6126  0.4007
 4821SOL    HW126096   3.790   3.036  11.817 -0.1593 -0.2039 -0.5285
 4821SOL    HW226097   3.811   2.902  11.771  0.9640  0.3995  0.4318
 4822SOL     OW26098   1.512   0.086   9.402  0.8949  0.1705  0.0397
 4822SOL    HW126099   1.606   0.096   9.416  0.7936 -1.6911  2.0964
 4822SOL    HW226100   1.499   0.097   9.307 -2.0427 -0.7388  0.3182
 4823SOL     OW26101   3.145   2.549   5.576 -0.3126 -0.5742 -0.6572
 4823SOL    HW126102   3.059   2.563   5.537  0.5949  0.9784 -2.1282
 4823SOL    HW226103   3.199   2.618   5.537 -1.3200 -0.4202 -1.8061
 4824SOL     OW26104   0.835   3.509   8.692 -0.5252  0.0189  0.4667
 4824SOL    HW126105   0.765   3.537   8.752  1.7105  0.6386  2.8314
 4824SOL    HW226106   0.892   3.585   8.710  0.1776 -0.5752  0.7391
 4825SOL     OW26107   1.857   4.734   4.681  0.0757 -0.0175  0.3844
 4825SOL    HW126108   1.786   4.686   4.637 -1.2217  1.4110  0.9533
 4825SOL    HW226109   1.837   4.732   4.774 -0.3956  0.7798  0.2944
 4826SOL     OW26110   1.541   3.611   8.132  0.2159  0.0116  0.1470
 4826SOL    HW126111   1.599   3.579   8.063  0.8527 -1.0538  1.1901
 4826SOL    HW226112   1.459   3.620   8.083  0.0791  2.9481  0.9231
 4827SOL     OW26113   2.229   2.791  10.472  0.1975  0.1682  0.0646
 4827SOL    HW126114   2.290   2.720  10.456  0.8208  0.4382  1.2586
 4827SOL    HW226115   2.181   2.750  10.544 -0.2547  0.7943  0.1245
 4828SOL     OW26116   2.704   1.993   2.368 -0.9807 -0.2564  0.0286
 4828SOL    HW126117   2.715   1.898   2.373 -1.9844 -0.4813 -1.8474
 4828SOL    HW226118   2.735   2.027   2.452 -3.9625 -0.2244  1.0963
 4829SOL     OW26119   4.373   3.987   8.106  0.2113 -0.4026 -0.1224
 4829SOL    HW126120   4.336   4.057   8.052 -1.2614 -0.0539  1.3534
 4829SOL    HW226121   4.293   3.945   8.136  0.8423 -0.2952  1.7225
 4830SOL     OW26122   2.977   1.445   0.222 -0.1369 -0.2783  0.6910
 4830SOL    HW126123   3.054   1.438   0.278  0.2900 -0.8789  0.0291
 4830SOL    HW226124   3.012   1.473   0.138 -0.2064 -0.6950  0.5223
 4831SOL     OW26125   2.912   2.897  16.699 -0.4075 -0.5557 -0.2442
 4831SOL    HW126126   2.926   2.966  16.764 -1.5561 -0.2076 -0.3549
 4831SOL    HW226127   2.995   2.850  16.710  0.5110  1.6021  1.9907
 4832SOL     OW26128   4.563   0.284   2.593 -0.1965 -0.4039  0.4421
 4832SOL    HW126129   4.525   0.224   2.529  1.1344 -0.6519 -0.1155
 4832SOL    HW226130   4.495   0.288   2.660 -0.8753  1.3532 -0.3309
 4833SOL     OW26131   0.829   0.067  11.462 -0.1379 -0.0561 -0.4898
 4833SOL    HW126132   0.741   0.069  11.499  0.3658 -0.5412  0.7453
 4833SOL    HW226133   0.886   0.113  11.524 -1.9285 -0.2599  1.2730
 4834SOL     OW26134   3.461   1.455  11.275 -0.5018 -0.8604 -0.1401
 4834SOL    HW126135   3.388   1.395  11.265 -1.7214  0.5017  0.5418
 4834SOL    HW226136   3.521   1.433  11.204 -1.0985 -0.0839 -0.8802
 4835SOL     OW26137   2.819   1.514   4.809 -0.4373  1.2363 -0.6312
 4835SOL    HW126138   2.847   1.468   4.730 -1.3615 -0.0172 -0.2365
 4835SOL    HW226139   2.854   1.600   4.787  0.9452  0.5801 -0.9520
 4836SOL     OW26140   1.160   1.208   8.817 -0.1974  0.1232 -0.2152
 4836SOL    HW126141   1.072   1.234   8.788 -1.0773 -1.7274  0.8013
 4836SOL    HW226142   1.202   1.294   8.812  2.8334 -1.3884 -0.3742
 4837SOL     OW26143   4.087   0.188   9.322  0.0902  0.0309 -0.6171
 4837SOL    HW126144   4.182   0.193   9.330  0.4399 -2.9818 -3.3037
 4837SOL    HW226145   4.069   0.248   9.250  0.9512  1.1643  0.0903
 4838SOL     OW26146   1.285   1.784   4.645 -0.2945  0.8685 -0.2766
 4838SOL    HW126147   1.194   1.773   4.618  0.1889 -0.3156 -1.3688
 4838SOL    HW226148   1.288   1.842   4.722 -2.7096 -0.9291  1.1839
 4839SOL     OW26149   1.892   1.143   2.207  0.1820  0.2420 -0.2395
 4839SOL    HW126150   1.928   1.205   2.145 -0.3018  0.0899 -0.6751
 4839SOL    HW226151   1.901   1.059   2.162  2.1968 -0.0427  0.6824
 4840SOL     OW26152   0.957   1.673   3.828  0.2232  0.1601  0.6310
 4840SOL    HW126153   0.919   1.585   3.836 -0.5096  0.6259  2.2456
 4840SOL    HW226154   0.903   1.717   3.893 -0.6693  1.9311 -1.3222
 4841SOL     OW26155   0.703   2.293   1.286  0.2336 -0.1128  0.7526
 4841SOL    HW126156   0.681   2.331   1.201  0.0848 -1.0629  0.3664
 4841SOL    HW226157   0.745   2.367   1.329  2.1993  0.7904 -2.6851
 4842SOL     OW26158   1.822   0.080   7.618  0.1308 -0.6032  0.1438
 4842SOL    HW126159   1.768   0.023   7.673 -0.8130 -1.1739 -1.3379
 4842SOL    HW226160   1.902   0.071   7.669  0.0378 -1.8894  0.0839
 4843SOL     OW26161   1.087   3.208   2.700  0.1272  0.8724 -0.6473
 4843SOL    HW126162   1.174   3.234   2.668  0.6573 -0.3011 -0.1322
 4843SOL    HW226163   1.087   3.115   2.677  0.8716  0.4147  1.2892
 4844SOL     OW26164   0.146   1.404   6.295  0.0562  0.6428 -0.1090
 4844SOL    HW126165   0.215   1.378   6.356  0.5253  4.1817  0.8688
 4844SOL    HW226166   0.090   1.462   6.345  0.0790  0.0653  0.5942
 4845SOL     OW26167   2.169   0.554   3.232 -0.0695  1.0181  0.9177
 4845SOL    HW126168   2.083   0.533   3.267 -0.1357  1.3646  0.9588
 4845SOL    HW226169   2.227   0.511   3.296  1.2407 -0.3814 -1.1749
 4846SOL     OW26170   4.532   2.830   2.902 -0.3381  0.5257  0.6193
 4846SOL    HW126171   4.558   2.914   2.940  1.3154  0.1995  0.1670
 4846SOL    HW226172   4.612   2.780   2.917  0.7455  1.6624 -1.3301
 4847SOL     OW26173   0.182   0.505   3.022 -0.2420  0.0433  0.3500
 4847SOL    HW126174   0.200   0.435   2.960 -0.3776  0.9954 -0.7697
 4847SOL    HW226175   0.100   0.473   3.059 -0.2521 -0.3596 -0.0190
 4848SOL     OW26176   3.275   1.231   0.975  0.2271 -0.6022 -0.2577
 4848SOL    HW126177   3.222   1.309   0.991 -2.3226 -1.7386 -3.1962
 4848SOL    HW226178   3.314   1.249   0.889 -1.0010  0.4986 -0.5707
 4849SOL     OW26179   2.580   0.746   1.586 -0.0783  0.2738  0.3318
 4849SOL    HW126180   2.513   0.691   1.627  0.7995  0.4370  1.9614
 4849SOL    HW226181   2.630   0.778   1.660 -0.4100 -0.4623  0.8682
 4850SOL     OW26182   0.754   3.888   8.234 -0.4963  0.4493 -0.5379
 4850SOL    HW126183   0.841   3.919   8.206  0.4423 -1.9407 -0.2392
 4850SOL    HW226184   0.749   3.804   8.189  0.5165 -0.2975  0.7356
 4851SOL     OW26185   3.509   2.721   6.996  0.6597  0.7939  0.0651
 4851SOL    HW126186   3.524   2.802   6.946  1.6577  0.5789  0.0109
 4851SOL    HW226187   3.419   2.734   7.026  1.0465 -0.2940  1.6440
 4852SOL     OW26188   2.972   1.038   6.933  0.4908 -0.3419  0.3978
 4852SOL    HW126189   2.915   0.984   6.878  0.8110 -0.3334  0.0528
 4852SOL    HW226190   3.036   0.973   6.964  0.1513 -0.2244  1.3499
 4853SOL     OW26191   4.489   0.953  10.630  0.5990 -0.2430 -0.4608
 4853SOL    HW126192   4.580   0.923  10.630  0.7677  0.2563 -2.7735
 4853SOL    HW226193   4.455   0.889  10.693 -0.5529 -0.3523 -1.1907
 4854SOL     OW26194   3.685   3.242  11.485 -0.2104 -0.4186  0.1752
 4854SOL    HW126195   3.761   3.297  11.464 -1.1501  0.2415 -1.4921
 4854SOL    HW226196   3.646   3.305  11.545 -0.8048 -1.0103  0.4065
 4855SOL     OW26197   4.288   2.414   4.224 -0.2982 -0.1297 -0.1718
 4855SOL    HW126198   4.213   2.447   4.274 -0.5198 -1.3156  0.2706
 4855SOL    HW226199   4.306   2.483   4.160  1.9802 -0.1128  0.4876
 4856SOL     OW26200   4.077   3.858   5.496  0.0309 -0.2613  0.3604
 4856SOL    HW126201   4.078   3.945   5.536 -0.9150  0.8420 -1.9957
 4856SOL    HW226202   4.021   3.879   5.421  0.2761 -0.1164  0.2150
 4857SOL     OW26203   2.649   2.453   5.179 -0.5078 -0.2170 -0.3444
 4857SOL    HW126204   2.682   2.475   5.092 -0.0815 -1.9679 -0.6204
 4857SOL    HW226205   2.593   2.384   5.143  1.2800 -3.0412  2.2776
 4858SOL     OW26206   2.969   2.560  17.634 -0.0420 -0.3028 -0.6342
 4858SOL    HW126207   2.946   2.629  17.572  0.3723  1.3535  1.0424
 4858SOL    HW226208   2.938   2.597  17.717 -0.7204  0.4705 -1.2351
 4859SOL     OW26209   3.828   2.091   9.889 -0.1965 -0.3556  0.2269
 4859SOL    HW126210   3.748   2.049   9.920  1.1997 -1.0242  2.9411
 4859SOL    HW226211   3.852   2.018   9.831 -1.1512 -0.5379  0.0659
 4860SOL     OW26212   1.677   1.300   6.881  0.2766 -0.5602  1.0138
 4860SOL    HW126213   1.641   1.283   6.968  1.5546 -1.1285  1.4454
 4860SOL    HW226214   1.627   1.239   6.827 -0.8416 -0.7245  2.2474
 4861SOL     OW26215   1.075   1.837   4.487 -0.3097  0.8537  0.2297
 4861SOL    HW126216   1.121   1.919   4.505 -0.6860  1.1738 -0.2839
 4861SOL    HW226217   1.000   1.845   4.546 -0.0065 -0.4186  0.7989
 4862SOL     OW26218   2.036   3.375  11.865  0.3304 -0.0542  0.3091
 4862SOL    HW126219   1.996   3.296  11.901  2.9738 -1.4277  0.2157
 4862SOL    HW226220   1.988   3.395  11.785  0.7164  1.6408  0.4884
 4863SOL     OW26221   4.115   2.579  15.167 -0.1093 -0.0239  0.2650
 4863SOL    HW126222   4.113   2.596  15.261 -0.5529 -0.9404  0.4199
 4863SOL    HW226223   4.120   2.669  15.132  1.0609 -0.6000 -1.0610
 4864SOL     OW26224   3.671   2.907   5.094  0.2044  0.8025 -0.3740
 4864SOL    HW126225   3.603   2.849   5.060  0.5355 -0.1230  0.5607
 4864SOL    HW226226   3.642   2.994   5.066 -1.0729  1.5502  3.1831
 4865SOL     OW26227   2.742   0.981   2.053 -0.0200 -0.0172  0.3571
 4865SOL    HW126228   2.789   1.059   2.023 -1.6678  0.3400 -1.2979
 4865SOL    HW226229   2.812   0.915   2.049 -1.1724 -1.1545 -1.3517
 4866SOL     OW26230   0.942   4.544   1.252 -0.3561  0.0264 -0.1325
 4866SOL    HW126231   0.986   4.501   1.179  0.3309 -2.3857  1.6863
 4866SOL    HW226232   0.867   4.487   1.274  0.1066 -0.4927  0.0963
 4867SOL     OW26233   0.033   4.495  14.818 -0.0379  0.1785  0.1932
 4867SOL    HW126234   0.089   4.424  14.848 -0.9855 -1.0472 -0.9251
 4867SOL    HW226235   0.070   4.578  14.848 -0.1648  0.1394  0.4562
 4868SOL     OW26236   1.224   1.934   3.741  0.6030  0.0949  0.2433
 4868SOL    HW126237   1.151   1.985   3.705  0.1392 -0.3768  0.5293
 4868SOL    HW226238   1.296   1.949   3.680  0.8068  2.2487  0.9967
 4869SOL     OW26239   3.786   3.313   6.469 -0.1081  0.0965 -0.2031
 4869SOL    HW126240   3.834   3.240   6.508  1.5465  0.9418 -0.6777
 4869SOL    HW226241   3.755   3.267   6.390 -0.6386  2.1564 -1.1984
 4870SOL     OW26242   4.180   1.213   3.368 -0.1533 -0.3190  0.1169
 4870SOL    HW126243   4.257   1.179   3.324 -0.1241  0.1569 -0.1975
 4870SOL    HW226244   4.166   1.151   3.440 -1.1488 -0.8294 -0.5101
 4871SOL     OW26245   4.441   3.598  15.237  0.3863 -0.0888  0.5830
 4871SOL    HW126246   4.484   3.588  15.321 -0.2057  2.5165  1.1942
 4871SOL    HW226247   4.494   3.672  15.208  3.0668 -1.6031  1.5730
 4872SOL     OW26248   2.250   1.354  16.102  0.6994 -0.4089  0.0180
 4872SOL    HW126249   2.176   1.359  16.042  1.1291  1.4292 -0.3846
 4872SOL    HW226250   2.201   1.314  16.173 -0.1494 -1.6635 -1.2826
 4873SOL     OW26251   4.062   4.363  14.008 -0.1469  0.0084  0.0384
 4873SOL    HW126252   4.024   4.398  14.088  2.0537 -0.7370  1.4166
 4873SOL    HW226253   4.091   4.445  13.967 -1.6966 -0.5405 -2.1857
 4874SOL     OW26254   3.890   0.011   7.353  0.3700  0.0764  0.2910
 4874SOL    HW126255   3.917   4.666   7.399  2.0656 -0.6766 -2.0322
 4874SOL    HW226256   3.801   4.720   7.330  0.7224 -0.5437 -0.3650
 4875SOL     OW26257   0.034   2.238   5.842  0.0415 -0.3169 -0.0194
 4875SOL    HW126258   0.123   2.237   5.807 -0.0893  0.4092 -0.3736
 4875SOL    HW226259   0.035   2.157   5.893  1.3053 -0.9366 -1.0412
 4876SOL     OW26260   1.908   0.573   3.711 -0.4158 -0.2730 -0.0048
 4876SOL    HW126261   1.959   0.519   3.771  2.7212  1.7142 -0.9211
 4876SOL    HW226262   1.833   0.589   3.769 -0.4365 -3.0598  0.7549
 4877SOL     OW26263   2.097   0.369   1.014  0.5251 -0.3449 -0.1661
 4877SOL    HW126264   2.007   0.396   1.030 -0.0046 -2.1192 -0.1215
 4877SOL    HW226265   2.099   0.418   0.932  0.1399 -1.5089 -0.8855
 4878SOL     OW26266   1.906   2.813   3.933 -0.6791 -0.1610  0.5603
 4878SOL    HW126267   1.966   2.857   3.993 -1.0852  0.8957  0.1843
 4878SOL    HW226268   1.847   2.881   3.901  0.1333 -0.0742 -0.7528
 4879SOL     OW26269   3.320   0.678   8.391 -0.1305 -0.3837  0.3156
 4879SOL    HW126270   3.253   0.623   8.431  2.4310 -3.3544  0.5239
 4879SOL    HW226271   3.400   0.644   8.430 -0.2675 -0.1660  0.7799
 4880SOL     OW26272   3.819   2.185   4.722  0.1922  0.1895  0.0940
 4880SOL    HW126273   3.730   2.182   4.687  0.5979 -0.6178 -0.8597
 4880SOL    HW226274   3.806   2.146   4.809 -2.4355 -1.9230 -1.2418
 4881SOL     OW26275   2.494   2.448   7.731  0.0974 -0.3174 -0.2973
 4881SOL    HW126276   2.481   2.396   7.810 -0.6845 -0.7975 -0.7379
 4881SOL    HW226277   2.411   2.454   7.684  0.4583 -2.3771 -1.2140
 4882SOL     OW26278   1.685   1.483   3.469  1.1572 -0.3433 -0.3895
 4882SOL    HW126279   1.769   1.442   3.452 -0.3578 -2.9242 -1.6882
 4882SOL    HW226280   1.705   1.528   3.551  1.7147  0.2839 -0.8729
 4883SOL     OW26281   2.361   0.384  12.417  0.4575 -0.4120 -0.5385
 4883SOL    HW126282   2.313   0.385  12.334 -0.7978 -0.9114  0.1797
 4883SOL    HW226283   2.323   0.470  12.436 -0.2138 -1.2702  1.9987
 4884SOL     OW26284   0.546   0.522  16.418 -0.2055  0.0333 -0.7481
 4884SOL    HW126285   0.474   0.516  16.356 -3.4267  3.6432  2.6275
 4884SOL    HW226286   0.600   0.472  16.357 -0.4553  0.6500 -1.4766
 4885SOL     OW26287   1.913   1.452   6.883 -0.0523 -0.2425 -0.1278
 4885SOL    HW126288   1.931   1.483   6.795 -0.6980  0.8536  0.1252
 4885SOL    HW226289   1.823   1.419   6.876  0.9289 -3.7088  3.6370
 4886SOL     OW26290   0.997   3.866   7.945 -0.0548 -0.4398 -0.1860
 4886SOL    HW126291   1.025   3.864   8.037 -1.5505 -1.8943  0.2342
 4886SOL    HW226292   0.982   3.961   7.955 -0.4160 -0.5240  0.0916
 4887SOL     OW26293   0.970   1.401  17.603  0.2050  0.5681 -0.2142
 4887SOL    HW126294   1.003   1.374  17.517  0.8756  0.5374  0.0515
 4887SOL    HW226295   0.920   1.321  17.616  0.9065  0.5028  2.1242
 4888SOL     OW26296   2.046   2.740   0.946  0.0334  0.1148 -0.8067
 4888SOL    HW126297   1.969   2.724   1.000  1.0257  0.4059  0.7021
 4888SOL    HW226298   2.022   2.827   0.914 -0.2698 -0.3515 -1.8463
 4889SOL     OW26299   3.563   3.053   7.182  0.5266  0.0859  0.3679
 4889SOL    HW126300   3.578   3.037   7.089  0.7074  3.0892 -0.1318
 4889SOL    HW226301   3.520   2.972   7.207 -0.5200  0.4917 -0.1433
 4890SOL     OW26302   0.238   0.172   7.626  0.1509  0.0350 -0.1549
 4890SOL    HW126303   0.152   0.213   7.625  0.0735 -0.1187  0.3974
 4890SOL    HW226304   0.241   0.136   7.715  1.6483 -0.0409 -0.2314
 4891SOL     OW26305   3.960   2.414   3.712  0.6569  0.1290  0.7758
 4891SOL    HW126306   4.043   2.419   3.759 -0.0264  0.5507  1.9316
 4891SOL    HW226307   3.937   2.503   3.685 -0.9849 -0.5279  0.0165
 4892SOL     OW26308   2.962   1.493  17.068 -0.1876  0.1161 -0.1586
 4892SOL    HW126309   3.028   1.518  17.003 -0.8165  1.2065 -0.3804
 4892SOL    HW226310   2.928   1.410  17.036 -0.4897  0.5261 -0.8930
 4893SOL     OW26311   4.142   3.283   6.130  0.0426  0.0838 -0.3216
 4893SOL    HW126312   4.090   3.235   6.066 -0.3544  2.1565 -1.5693
 4893SOL    HW226313   4.192   3.347   6.078  1.6094 -1.1975 -0.3878
 4894SOL     OW26314   4.126   3.104   4.921 -0.6803 -0.1308 -0.1606
 4894SOL    HW126315   4.033   3.128   4.917 -1.0139 -1.1227  1.9809
 4894SOL    HW226316   4.127   3.016   4.959 -0.7173  0.9556  2.3205
 4895SOL     OW26317   2.093   4.382   4.963  0.2813  0.3586 -0.1174
 4895SOL    HW126318   2.124   4.295   4.988 -0.1385  0.6806  1.5201
 4895SOL    HW226319   2.136   4.383   4.878 -0.4816  1.2171 -0.5011
 4896SOL     OW26320   1.518   0.405   4.712 -0.0710  0.3414 -0.1428
 4896SOL    HW126321   1.513   0.488   4.759 -1.2306  0.2554 -0.1011
 4896SOL    HW226322   1.494   0.348   4.785  1.1227 -1.4741 -1.1762
 4897SOL     OW26323   1.873   0.802   8.461 -0.0580  0.1140 -0.3096
 4897SOL    HW126324   1.791   0.768   8.499  0.2540  1.3933  1.5056
 4897SOL    HW226325   1.911   0.842   8.539  0.8321 -1.8722  0.2782
 4898SOL     OW26326   2.031   1.271  15.910 -0.3557 -0.4394  0.0731
 4898SOL    HW126327   2.008   1.327  15.985 -0.1937 -3.1780  2.1997
 4898SOL    HW226328   2.034   1.342  15.846  1.6638 -0.8462 -0.2825
 4899SOL     OW26329   1.889   2.758   5.634 -0.3139  0.1757 -0.0550
 4899SOL    HW126330   1.934   2.730   5.714  0.1064  1.1482  0.0595
 4899SOL    HW226331   1.801   2.772   5.669 -0.1660  2.3708 -0.5575
 4900SOL     OW26332   2.001   1.878   5.312  0.0849 -0.0970  0.1644
 4900SOL    HW126333   2.094   1.872   5.332 -0.2054 -1.0602  1.2574
 4900SOL    HW226334   1.984   1.972   5.305  1.0299  0.0364 -0.2720
 4901SOL     OW26335   0.334   4.203  15.616 -0.0238 -0.1640  0.2875
 4901SOL    HW126336   0.374   4.231  15.533  0.1726  3.4167  1.5648
 4901SOL    HW226337   0.415   4.207  15.668 -1.2819  2.9135  2.0384
 4902SOL     OW26338   2.803   0.352  16.106 -0.5135  0.3617 -0.3525
 4902SOL    HW126339   2.854   0.433  16.101  2.0131 -1.3272 -1.8189
 4902SOL    HW226340   2.841   0.309  16.183  1.0068 -1.1049 -1.9255
 4903SOL     OW26341   0.542   3.428   4.811 -0.1819 -0.6916  0.0647
 4903SOL    HW126342   0.487   3.371   4.864  0.4097 -0.9531  0.3921
 4903SOL    HW226343   0.560   3.495   4.877 -1.9155 -0.0500 -0.1039
 4904SOL     OW26344   2.246   2.736  10.925  0.0589 -0.0722 -0.1842
 4904SOL    HW126345   2.249   2.702  10.835 -0.1821 -2.7046  0.8095
 4904SOL    HW226346   2.203   2.664  10.972 -0.7947  0.4284 -0.1799
 4905SOL     OW26347   3.880   4.528   7.531 -0.0362  0.4915  0.2055
 4905SOL    HW126348   3.853   4.456   7.588  0.1662  0.4422  0.2394
 4905SOL    HW226349   3.851   4.603   7.582  1.5666  0.7467  0.7173
 4906SOL     OW26350   2.702   3.167  16.120 -0.2605  0.1852  0.2673
 4906SOL    HW126351   2.607   3.154  16.124 -0.2014  0.0274  1.3952
 4906SOL    HW226352   2.722   3.082  16.080  0.2216  2.3189 -3.9032
 4907SOL     OW26353   0.198   0.618   8.175 -0.1557 -0.1567  0.7047
 4907SOL    HW126354   0.211   0.697   8.227 -3.2780  0.3896  0.6673
 4907SOL    HW226355   0.264   0.565   8.219  0.2817  0.0776  0.3248
 4908SOL     OW26356   1.958   1.285  13.202  0.0890 -0.0170  0.2512
 4908SOL    HW126357   1.891   1.316  13.262 -0.3170 -0.5197  0.0538
 4908SOL    HW226358   2.009   1.364  13.179 -1.5419  0.2812 -2.2887
 4909SOL     OW26359   2.103   1.906  10.187 -0.3370  0.6396 -0.1162
 4909SOL    HW126360   2.172   1.946  10.240 -0.5367  1.4487 -0.4668
 4909SOL    HW226361   2.102   1.945  10.099 -0.5977 -0.0591 -0.4320
 4910SOL     OW26362   3.840   2.691   1.860 -0.3850 -0.5974  0.5044
 4910SOL    HW126363   3.839   2.646   1.775 -0.7308 -1.0274  0.7357
 4910SOL    HW226364   3.869   2.777   1.831 -1.7534 -0.4487 -0.4379
 4911SOL     OW26365   2.136   1.184  16.294  0.0692 -0.5860 -0.5099
 4911SOL    HW126366   2.082   1.142  16.227 -0.9999  1.0195 -0.6386
 4911SOL    HW226367   2.087   1.178  16.375 -0.4145 -0.7271 -0.8173
 4912SOL     OW26368   2.117   2.688   4.409 -0.2559 -0.2070 -0.1173
 4912SOL    HW126369   2.131   2.595   4.392  0.2294  0.1435 -1.6577
 4912SOL    HW226370   2.148   2.699   4.499 -3.0623  1.6495  0.6047
 4913SOL     OW26371   1.551   2.752   3.185  0.3037  0.3919  0.1212
 4913SOL    HW126372   1.610   2.724   3.255  0.0681  2.7153  1.2425
 4913SOL    HW226373   1.489   2.795   3.244 -0.5423  2.2752 -2.1224
 4914SOL     OW26374   4.710   2.534   3.978 -0.3754 -0.2099 -0.1767
 4914SOL    HW126375   4.654   2.463   3.948 -0.1152 -0.6379  0.3633
 4914SOL    HW226376   4.727   2.523   4.071 -1.9313  2.0641  0.3914
 4915SOL     OW26377   3.213   0.280   3.348 -0.1032 -0.2792  0.3535
 4915SOL    HW126378   3.204   0.373   3.331 -1.0815 -0.5848 -0.7890
 4915SOL    HW226379   3.271   0.269   3.424  0.7284  0.7995 -0.1324
 4916SOL     OW26380   2.861   2.934   2.401  0.0666  0.1135 -0.2958
 4916SOL    HW126381   2.829   2.980   2.323 -0.5069  0.9113  0.3984
 4916SOL    HW226382   2.936   2.988   2.425 -0.0329  0.5665 -1.0043
 4917SOL     OW26383   2.577   2.377   0.338 -0.4820 -0.5673 -0.0391
 4917SOL    HW126384   2.535   2.336   0.263 -1.4971  0.0561  0.1820
 4917SOL    HW226385   2.602   2.304   0.394  0.0121 -1.2776 -1.2068
 4918SOL     OW26386   4.263   4.286   8.083 -0.0158 -0.1541  0.3459
 4918SOL    HW126387   4.208   4.365   8.079 -1.0819 -1.0307 -2.0170
 4918SOL    HW226388   4.347   4.324   8.111 -0.3350  1.7637 -1.2947
 4919SOL     OW26389   3.801   1.162  16.051  0.1916  0.5848  0.1911
 4919SOL    HW126390   3.831   1.209  15.973 -0.6327  0.5042 -0.1678
 4919SOL    HW226391   3.739   1.097  16.016  1.6753 -1.1163  0.7050
 4920SOL     OW26392   3.492   0.992  14.229  0.0376 -0.2000 -0.1793
 4920SOL    HW126393   3.530   1.070  14.187  0.5028 -0.8576 -0.9744
 4920SOL    HW226394   3.514   0.928  14.162 -0.6050  2.4390 -2.9052
 4921SOL     OW26395   1.434   1.346  17.397 -0.2470 -0.2569  0.5586
 4921SOL    HW126396   1.419   1.260  17.358  0.6691 -1.0833  2.0602
 4921SOL    HW226397   1.410   1.334  17.489  2.8961  0.1809  1.4092
 4922SOL     OW26398   0.583   1.200   2.555  0.1071  0.7488  0.1018
 4922SOL    HW126399   0.591   1.182   2.649 -3.2317  1.0019  0.4536
 4922SOL    HW226400   0.676   1.215   2.539  0.4987 -0.5850  1.1170
 4923SOL     OW26401   0.116   3.537  13.562  0.6335  0.1265  0.0880
 4923SOL    HW126402   0.022   3.532  13.580  0.9891  2.3318  2.4736
 4923SOL    HW226403   0.129   3.615  13.615  1.7182  1.1294 -1.6457
 4924SOL     OW26404   3.513   2.585   7.464 -0.6148 -0.1553 -0.1591
 4924SOL    HW126405   3.424   2.553   7.481 -0.9851  0.5837 -0.6838
 4924SOL    HW226406   3.514   2.654   7.531 -0.9079 -0.5453  0.2486
 4925SOL     OW26407   3.096   4.474  12.988  0.2450  0.1208  0.2068
 4925SOL    HW126408   3.178   4.521  13.001  1.0816 -1.3181  0.2248
 4925SOL    HW226409   3.115   4.409  13.057 -1.3516 -0.2382  0.3033
 4926SOL     OW26410   3.424   4.267   7.705 -0.1267 -0.7638 -0.1220
 4926SOL    HW126411   3.371   4.334   7.662  0.7898 -0.5698 -0.9696
 4926SOL    HW226412   3.494   4.261   7.640  0.7181 -0.3684  0.7342
 4927SOL     OW26413   0.173   2.248   0.641 -0.1840  0.2985  0.4413
 4927SOL    HW126414   0.097   2.243   0.698  0.7401 -0.3838  1.6215
 4927SOL    HW226415   0.184   2.155   0.622  0.6238  0.5004 -0.1040
 4928SOL     OW26416   4.043   0.058   9.848 -0.1482 -0.2597  0.3428
 4928SOL    HW126417   4.027   0.120   9.777  1.5190  0.0574  0.2370
 4928SOL    HW226418   4.066   0.119   9.918  0.7660 -0.5306  0.2796
 4929SOL     OW26419   1.562   3.687   4.560  0.5638  0.1155 -0.3396
 4929SOL    HW126420   1.484   3.740   4.575  0.5140 -0.1901  0.4960
 4929SOL    HW226421   1.562   3.626   4.633  1.3032  0.3639 -0.1343
 4930SOL     OW26422   0.986   1.666  17.234 -0.1033  0.2957  0.0413
 4930SOL    HW126423   0.962   1.687  17.324  1.9411 -4.4559  1.6807
 4930SOL    HW226424   1.040   1.587  17.245  0.0355  0.0744 -2.0478
 4931SOL     OW26425   0.852   4.127   8.682 -0.4712 -0.1269 -0.1898
 4931SOL    HW126426   0.857   4.055   8.618 -0.0414  1.2797 -1.7530
 4931SOL    HW226427   0.776   4.101   8.733  0.1462 -0.2394  0.6611
 4932SOL     OW26428   2.442   1.635   9.285 -0.6778 -0.1602 -0.1962
 4932SOL    HW126429   2.361   1.617   9.237 -0.6966 -3.5125  1.1068
 4932SOL    HW226430   2.468   1.544   9.298 -3.5070 -1.1475 -1.4181
 4933SOL     OW26431   4.654   0.278   1.643  0.0716 -0.2955  0.0849
 4933SOL    HW126432   4.726   0.330   1.678  0.2752  0.3329 -1.3133
 4933SOL    HW226433   4.606   0.337   1.586  2.1677 -0.4849 -1.8522
 4934SOL     OW26434   1.030   2.115   0.081  0.2630 -0.4143  0.0879
 4934SOL    HW126435   0.976   2.176   0.132  2.7073 -0.3265  2.5331
 4934SOL    HW226436   1.115   2.118   0.124  0.7705 -0.3924 -0.9099
 4935SOL     OW26437   0.286   4.675  11.981  0.3582 -0.0782 -0.2497
 4935SOL    HW126438   0.372   4.716  11.979  0.9530 -1.1930  3.0539
 4935SOL    HW226439   0.296   4.611  12.051  1.5118 -0.5626 -0.8698
 4936SOL     OW26440   1.214   1.664   5.545 -0.6382  0.0069  0.2229
 4936SOL    HW126441   1.254   1.602   5.606  2.8227  1.5074 -0.5040
 4936SOL    HW226442   1.251   1.632   5.463  1.2849 -1.7905  1.7937
 4937SOL     OW26443   1.458   0.614  10.401  0.0211 -0.2993 -0.3159
 4937SOL    HW126444   1.517   0.541  10.416  1.0062  0.9551  1.9717
 4937SOL    HW226445   1.506   0.669  10.339 -0.9880 -1.5113 -2.1800
 4938SOL     OW26446   1.492   0.959   5.961 -0.2307 -0.5866 -0.3122
 4938SOL    HW126447   1.399   0.980   5.973 -0.0544  0.9831 -1.7509
 4938SOL    HW226448   1.525   1.026   6.021 -0.0613 -0.0718 -0.9936
 4939SOL     OW26449   0.813   0.283   4.071 -0.2723 -1.0742  0.8155
 4939SOL    HW126450   0.901   0.256   4.045 -0.4484 -1.3744  0.5221
 4939SOL    HW226451   0.795   0.354   4.009 -2.0908 -0.5237  1.9844
 4940SOL     OW26452   4.694   3.902   4.748 -0.1100 -0.0613  0.1840
 4940SOL    HW126453   4.656   3.935   4.830  1.5106 -0.2915  1.0207
 4940SOL    HW226454   4.670   3.810   4.743 -0.7428  0.1331 -0.3783
 4941SOL     OW26455   1.908   3.223   7.147 -0.2261  0.0951  0.5505
 4941SOL    HW126456   1.956   3.305   7.142  2.5019 -1.5624 -0.2693
 4941SOL    HW226457   1.918   3.201   7.054 -0.0285  0.8181  0.3976
 4942SOL     OW26458   4.316   1.627   2.848 -0.3695  0.7768  0.3343
 4942SOL    HW126459   4.228   1.663   2.837  0.0390  1.5551 -0.3939
 4942SOL    HW226460   4.297   1.551   2.902 -2.4539 -0.3437 -1.9509
 4943SOL     OW26461   1.978   3.861  12.039 -0.0467  0.7101  0.0122
 4943SOL    HW126462   1.900   3.860  11.984 -0.2698  2.8888  0.2650
 4943SOL    HW226463   1.927   3.913  12.102 -0.3160 -1.1735  1.3464
 4944SOL     OW26464   4.551   3.540   0.520  0.3423 -0.5250 -0.0366
 4944SOL    HW126465   4.581   3.489   0.445 -4.0501 -2.5869 -0.3714
 4944SOL    HW226466   4.624   3.537   0.582 -1.3415  0.4129  1.9520
 4945SOL     OW26467   3.851   1.382   5.816  0.0629 -0.3749 -0.0901
 4945SOL    HW126468   3.863   1.354   5.907 -1.0118  0.9273  0.4420
 4945SOL    HW226469   3.863   1.296   5.776  4.8393 -0.1740  0.8704
 4946SOL     OW26470   4.409   4.450   8.849 -0.1595  0.0067 -0.0693
 4946SOL    HW126471   4.352   4.522   8.821 -0.2358 -0.0203  0.0199
 4946SOL    HW226472   4.388   4.448   8.942 -2.1998 -1.2888 -0.5677
 4947SOL     OW26473   0.649   1.113   4.451 -0.2133  0.1509  0.5968
 4947SOL    HW126474   0.712   1.173   4.410 -3.0206  2.0897 -0.8939
 4947SOL    HW226475   0.700   1.094   4.530  0.4257  1.4053  0.4971
 4948SOL     OW26476   0.894   1.976  12.304 -0.0652  0.6582 -0.7883
 4948SOL    HW126477   0.969   1.916  12.298 -0.6290 -0.1976  0.6446
 4948SOL    HW226478   0.823   1.914  12.287  0.5483 -0.4970  0.8614
 4949SOL     OW26479   3.980   0.153   2.074  0.2236  0.3478 -0.6827
 4949SOL    HW126480   3.909   0.137   2.137  1.3498  0.6140  0.6570
 4949SOL    HW226481   3.923   0.176   2.000 -0.5209 -1.9413 -0.8227
 4950SOL     OW26482   0.391   2.649   4.700  0.1366  0.2402  0.1932
 4950SOL    HW126483   0.403   2.743   4.687 -0.5213  0.2125 -0.5852
 4950SOL    HW226484   0.297   2.654   4.719  0.1043  1.2358 -0.2017
 4951SOL     OW26485   3.114   4.670   8.512  0.1330  0.4672 -0.2531
 4951SOL    HW126486   3.164   4.650   8.433  0.8364  2.5360 -0.3390
 4951SOL    HW226487   3.083   4.584   8.540  1.4363  0.7217  1.9717
 4952SOL     OW26488   4.034   2.829   6.420 -0.3701  0.0130 -0.3072
 4952SOL    HW126489   4.096   2.796   6.354  0.2268  1.5217 -0.4837
 4952SOL    HW226490   4.017   2.916   6.385 -0.1488  0.2276  0.1275
 4953SOL     OW26491   4.207   1.745  12.621 -0.4871  0.2947  0.3564
 4953SOL    HW126492   4.194   1.836  12.594  0.8371 -0.3253 -2.3699
 4953SOL    HW226493   4.268   1.719  12.552  0.3988  2.8452  0.1721
 4954SOL     OW26494   2.681   4.176   3.036 -0.1274  0.6787 -0.0279
 4954SOL    HW126495   2.670   4.090   3.077  2.3103 -0.0144 -0.8283
 4954SOL    HW226496   2.776   4.172   3.024  0.2716 -1.8614  3.9157
 4955SOL     OW26497   0.788   3.845   8.865  0.0510 -0.2427  0.1662
 4955SOL    HW126498   0.719   3.779   8.860 -1.4781  1.2032  2.3745
 4955SOL    HW226499   0.727   3.914   8.840  0.3011 -0.4941 -1.1636
 4956SOL     OW26500   3.012   3.957   8.051 -0.0562 -0.0081  0.0199
 4956SOL    HW126501   3.097   4.000   8.046  1.4782 -3.0448 -0.1999
 4956SOL    HW226502   3.034   3.874   8.094  0.5101 -0.3344 -0.9038
 4957SOL     OW26503   2.201   3.955   9.365 -1.0186 -0.5536  0.3929
 4957SOL    HW126504   2.272   3.912   9.317 -1.8831 -0.4175 -1.0134
 4957SOL    HW226505   2.223   3.927   9.454 -2.8406  0.0747  1.0437
 4958SOL     OW26506   2.512   3.109  15.642  0.4328  0.4272 -0.1630
 4958SOL    HW126507   2.441   3.144  15.696  1.9653  1.4336  1.1968
 4958SOL    HW226508   2.579   3.086  15.706  1.7653  2.3830 -0.8334
 4959SOL     OW26509   3.377   2.929   5.245  0.0844 -0.2298  0.5055
 4959SOL    HW126510   3.363   3.024   5.244 -1.3810 -0.4632 -1.6943
 4959SOL    HW226511   3.345   2.919   5.155  0.5713  1.2532  0.1514
 4960SOL     OW26512   0.455   0.840  12.671  0.0093  0.3982 -0.3145
 4960SOL    HW126513   0.374   0.830  12.621  1.6112 -2.2976 -2.3914
 4960SOL    HW226514   0.496   0.764  12.630 -1.6409 -1.0083  0.6432
 4961SOL     OW26515   0.458   3.885   8.114 -0.3039  0.2347  0.0113
 4961SOL    HW126516   0.538   3.914   8.070 -0.1788  1.4389  1.0538
 4961SOL    HW226517   0.390   3.937   8.071 -0.0139  2.0426  1.7611
 4962SOL     OW26518   1.044   3.617   6.991  0.3718 -0.2341 -0.0453
 4962SOL    HW126519   0.972   3.565   6.955  0.7739  0.2030 -1.4781
 4962SOL    HW226520   1.025   3.604   7.084  1.4257  1.2439  0.3708
 4963SOL     OW26521   0.900   4.037  10.139  0.1565 -0.6605  0.4806
 4963SOL    HW126522   0.932   4.113  10.090  1.8126 -1.5131  0.2611
 4963SOL    HW226523   0.873   4.082  10.220  0.8710  1.1039 -0.2623
 4964SOL     OW26524   0.531   4.212   1.063 -0.4624 -0.0808  0.2619
 4964SOL    HW126525   0.542   4.126   1.103 -0.1422  0.3868  1.1745
 4964SOL    HW226526   0.458   4.209   1.001  0.2415  4.8768 -0.7933
 4965SOL     OW26527   4.332   2.374  10.073  0.3306  0.0643  0.0919
 4965SOL    HW126528   4.397   2.391  10.005 -0.2504  0.1122 -0.4578
 4965SOL    HW226529   4.370   2.371  10.160 -1.0227  0.3882  0.6931
 4966SOL     OW26530   1.753   4.707  15.556 -0.5653  0.0122 -0.5824
 4966SOL    HW126531   1.721   0.050  15.603 -1.4659 -0.9634  0.4131
 4966SOL    HW226532   1.831   0.010  15.514  0.3530  0.8133  1.8507
 4967SOL     OW26533   0.678   1.753   8.128  0.2422  0.4536  0.7660
 4967SOL    HW126534   0.646   1.840   8.104 -2.5654 -1.4444 -2.2966
 4967SOL    HW226535   0.771   1.768   8.148  0.6210 -1.9720  0.7547
 4968SOL     OW26536   1.958   1.573   3.826 -0.2195 -0.0252 -0.0043
 4968SOL    HW126537   1.947   1.652   3.772 -3.4622 -0.4295  0.0714
 4968SOL    HW226538   2.048   1.545   3.807 -0.4084  0.1816 -1.2700
 4969SOL     OW26539   4.230   1.694   4.028 -0.1998  0.8445  0.2669
 4969SOL    HW126540   4.294   1.764   4.043  3.0237 -1.8624 -0.8054
 4969SOL    HW226541   4.212   1.703   3.935 -0.4216  0.8902  0.3138
 4970SOL     OW26542   4.427   0.597  16.064  0.2240 -0.3285 -0.3358
 4970SOL    HW126543   4.337   0.567  16.050  0.4941 -1.3440  0.1056
 4970SOL    HW226544   4.461   0.578  15.977  0.6619 -2.0034  0.2029
 4971SOL     OW26545   2.134   2.011   2.076  0.0803 -0.4408  0.0431
 4971SOL    HW126546   2.090   2.018   1.991  1.4087  0.5947 -0.5543
 4971SOL    HW226547   2.167   2.097   2.102 -0.4568  0.6301 -2.8361
 4972SOL     OW26548   3.567   1.268  14.697 -0.1688 -0.1426 -0.8760
 4972SOL    HW126549   3.616   1.216  14.633 -0.6293  1.3641 -2.4360
 4972SOL    HW226550   3.518   1.322  14.635  0.7535  2.4457  0.6551
 4973SOL     OW26551   2.894   2.597   0.446  0.2250  0.5129 -0.2416
 4973SOL    HW126552   2.950   2.674   0.459  1.9817 -0.7288 -0.3727
 4973SOL    HW226553   2.808   2.637   0.432  0.1831  0.5491  0.1004
 4974SOL     OW26554   3.583   3.194   6.641 -0.2746 -0.2622 -0.2359
 4974SOL    HW126555   3.601   3.281   6.606 -0.3251 -0.8420 -1.7169
 4974SOL    HW226556   3.663   3.144   6.627 -0.2552 -0.4075  0.3905
 4975SOL     OW26557   1.114   0.146  11.104  0.1436 -0.2767  0.6047
 4975SOL    HW126558   1.196   0.191  11.086 -0.3029  0.1983 -0.2365
 4975SOL    HW226559   1.055   0.216  11.132  1.3082  0.9269 -0.0132
 4976SOL     OW26560   2.692   3.063  15.238  0.2768  0.6965 -0.0044
 4976SOL    HW126561   2.737   3.123  15.178  0.5684  0.4922  0.0084
 4976SOL    HW226562   2.640   3.129  15.283  0.3366 -0.6381  2.0156
 4977SOL     OW26563   4.452   2.519   2.831  0.6408  0.0663 -0.0486
 4977SOL    HW126564   4.536   2.473   2.827  0.6251 -0.1671  2.7406
 4977SOL    HW226565   4.464   2.579   2.756  0.5724  0.4889  0.2784
 4978SOL     OW26566   3.388   4.202  16.558  0.3154 -0.2180 -0.1979
 4978SOL    HW126567   3.411   4.236  16.472  0.2745  0.9734  0.2527
 4978SOL    HW226568   3.310   4.147  16.547 -1.9826  2.7869  0.9805
 4979SOL     OW26569   2.596   2.372   8.868 -0.2860  0.1508  0.2591
 4979SOL    HW126570   2.594   2.468   8.873  0.3616  0.1151  1.1136
 4979SOL    HW226571   2.519   2.369   8.811  0.2605 -1.6131 -0.3893
 4980SOL     OW26572   2.812   1.986  10.733 -0.6687  0.2119  0.0276
 4980SOL    HW126573   2.766   2.029  10.805 -1.1326  1.4353 -1.0075
 4980SOL    HW226574   2.853   1.914  10.782  0.0261  1.6062  1.4704
 4981SOL     OW26575   1.572   2.861   7.084 -0.6489 -0.3286 -0.0188
 4981SOL    HW126576   1.625   2.934   7.116 -0.1236 -1.1928  1.0656
 4981SOL    HW226577   1.508   2.857   7.155 -1.5447  3.5806 -0.6069
 4982SOL     OW26578   2.040   1.134  11.188  0.2049  0.5688  0.0859
 4982SOL    HW126579   2.028   1.210  11.245  1.0032 -0.8511  2.1365
 4982SOL    HW226580   2.018   1.064  11.248  1.9643  0.4933  0.6547
 4983SOL     OW26581   3.413   1.608   2.376  0.0596 -0.4186  0.0037
 4983SOL    HW126582   3.329   1.595   2.420  0.9357 -2.7002  1.0150
 4983SOL    HW226583   3.391   1.694   2.341 -0.0465  0.2917  1.7993
 4984SOL     OW26584   1.776   2.652   3.375  0.2099 -0.3167  0.0098
 4984SOL    HW126585   1.738   2.651   3.462  2.3605 -1.2955  0.9231
 4984SOL    HW226586   1.801   2.560   3.369 -0.6803 -0.4527 -1.8301
 4985SOL     OW26587   3.740   3.654   7.216 -0.2390  0.1223 -0.6315
 4985SOL    HW126588   3.731   3.570   7.171  2.3307  0.4785 -1.7969
 4985SOL    HW226589   3.835   3.661   7.215 -0.2045 -0.3754 -0.9525
 4986SOL     OW26590   3.885   3.530   1.614  0.1225 -0.1368  0.4257
 4986SOL    HW126591   3.924   3.615   1.633 -1.1845  0.4797  0.3984
 4986SOL    HW226592   3.791   3.550   1.622  0.0856 -0.1545  0.0587
 4987SOL     OW26593   3.063   2.811   1.024 -0.0074  0.0709  0.0079
 4987SOL    HW126594   3.061   2.883   1.088  1.8944 -0.1629  0.3192
 4987SOL    HW226595   3.134   2.753   1.048 -0.2325  0.3004  1.2644
 4988SOL     OW26596   1.043   2.910   0.247  0.3817  0.4576 -0.3055
 4988SOL    HW126597   1.101   2.883   0.176  0.9699  0.6120  0.1207
 4988SOL    HW226598   0.981   2.837   0.237  0.7929  0.0679  0.0065
 4989SOL     OW26599   2.204   0.636   7.710  0.5064 -0.4508 -0.2919
 4989SOL    HW126600   2.174   0.702   7.773 -1.5099 -2.3808  0.7380
 4989SOL    HW226601   2.126   0.589   7.682  0.4338  0.1793 -1.1790
 4990SOL     OW26602   4.144   1.438  12.345 -0.1408 -0.0736 -0.0439
 4990SOL    HW126603   4.114   1.398  12.427 -2.2545 -0.4034 -0.9808
 4990SOL    HW226604   4.119   1.376  12.277 -1.0952 -1.2555  1.3833
 4991SOL     OW26605   3.088   1.251  13.814  0.1449  0.3026  0.1525
 4991SOL    HW126606   3.006   1.202  13.809 -0.0929  0.6890  0.2668
 4991SOL    HW226607   3.154   1.181  13.811 -0.6714 -0.4165 -0.9355
 4992SOL     OW26608   3.065   3.451   1.677 -0.3412  0.0822  0.1454
 4992SOL    HW126609   3.090   3.394   1.750  2.4239  1.1493  0.0192
 4992SOL    HW226610   3.129   3.414   1.617  0.0782  0.1030  0.5766
 4993SOL     OW26611   2.556   2.006   8.077  0.0126  0.5679 -0.7141
 4993SOL    HW126612   2.499   1.936   8.045  2.0120 -1.8860  1.0464
 4993SOL    HW226613   2.640   1.974   8.045  1.0825  2.8365 -0.1409
 4994SOL     OW26614   1.155   4.246  14.384  0.2013  0.3015  0.1219
 4994SOL    HW126615   1.238   4.293  14.371 -0.7400  2.0228  0.3373
 4994SOL    HW226616   1.120   4.244  14.295 -4.3853 -1.2428  1.9775
 4995SOL     OW26617   0.641   0.545   3.226  0.5576  0.2679  0.2258
 4995SOL    HW126618   0.686   0.496   3.158  1.2050  1.3928 -0.1478
 4995SOL    HW226619   0.584   0.598   3.171  0.6073 -0.6728 -0.7321
 4996SOL     OW26620   3.471   0.650   6.707  0.4749  0.4769 -0.7394
 4996SOL    HW126621   3.385   0.648   6.749 -0.6345 -0.9603 -3.0732
 4996SOL    HW226622   3.538   0.650   6.775  0.6782 -0.0784 -0.9360
 4997SOL     OW26623   2.160   0.396   0.052 -0.3974  0.3362  0.6769
 4997SOL    HW126624   2.172   0.305   0.080 -1.1912  0.0052 -0.0624
 4997SOL    HW226625   2.198   0.445   0.124  1.0189  0.2462 -0.0084
 4998SOL     OW26626   1.681   1.010   2.762  0.6431 -0.0634 -0.1093
 4998SOL    HW126627   1.737   1.075   2.719 -1.3793  1.4019 -0.5084
 4998SOL    HW226628   1.692   0.943   2.694  2.2777  0.8282 -0.7203
 4999SOL     OW26629   1.185   1.372  13.373 -0.3218 -0.3254 -0.4045
 4999SOL    HW126630   1.261   1.325  13.339  1.2132  3.0650 -1.7317
 4999SOL    HW226631   1.134   1.399  13.297 -0.2588  0.5922 -0.1220
 5000SOL     OW26632   2.962   0.798   2.393  0.3614  0.4133  0.2667
 5000SOL    HW126633   3.057   0.794   2.385  0.2713  1.2609 -1.1568
 5000SOL    HW226634   2.956   0.779   2.487 -1.3912  0.8313  0.2410
 5001SOL     OW26635   1.200   0.303   3.737 -0.1446  0.4252  0.0560
 5001SOL    HW126636   1.245   0.246   3.799 -1.0111 -0.9764 -0.6160
 5001SOL    HW226637   1.140   0.336   3.803  2.1024  1.0593  1.7994
 5002SOL     OW26638   1.871   1.195   4.546  0.0436 -0.3769 -0.3717
 5002SOL    HW126639   1.795   1.220   4.599  0.6423  0.1760  0.2281
 5002SOL    HW226640   1.938   1.259   4.573  0.8616 -0.5970 -1.8894
 5003SOL     OW26641   3.507   4.239   5.481 -0.7137  0.2357  0.4557
 5003SOL    HW126642   3.592   4.215   5.517  0.8288  1.2490 -2.5678
 5003SOL    HW226643   3.469   4.152   5.471 -0.3635  0.0290  0.9241
 5004SOL     OW26644   1.629   2.976  11.977 -0.1277  0.0210 -0.5185
 5004SOL    HW126645   1.659   3.035  12.046 -1.1684 -2.0707  1.7006
 5004SOL    HW226646   1.534   2.986  11.981 -0.2154 -0.4492 -1.2649
 5005SOL     OW26647   1.585   3.720  15.109  0.2959 -0.7364 -0.5264
 5005SOL    HW126648   1.677   3.729  15.085 -0.2502  1.8078 -1.6394
 5005SOL    HW226649   1.572   3.802  15.156  0.5884  0.1824 -2.0624
 5006SOL     OW26650   2.966   2.185   8.368  0.3573 -0.0317  0.2493
 5006SOL    HW126651   2.943   2.119   8.304 -1.2279  0.8077 -0.0459
 5006SOL    HW226652   3.056   2.160   8.389  0.2973 -0.0180  0.5193
 5007SOL     OW26653   2.401   1.172   8.084 -0.2429  0.3264 -0.0382
 5007SOL    HW126654   2.418   1.122   8.004  2.3036 -0.1260  0.7978
 5007SOL    HW226655   2.387   1.093   8.137 -2.5918  1.4334  0.9991
 5008SOL     OW26656   0.576   3.067   5.083  0.1932 -0.5231 -0.1917
 5008SOL    HW126657   0.653   3.119   5.108  0.7273 -0.3326 -2.2751
 5008SOL    HW226658   0.521   3.138   5.049  0.0298 -0.6580 -0.2074
 5009SOL     OW26659   1.600   3.647   0.214 -0.4624  0.2037 -0.6968
 5009SOL    HW126660   1.586   3.731   0.259  1.3419 -1.4908  3.0447
 5009SOL    HW226661   1.583   3.583   0.284  0.5222  0.1655 -0.4973
 5010SOL     OW26662   2.977   3.387   6.299 -0.2789  0.3427  0.4936
 5010SOL    HW126663   3.024   3.368   6.380 -1.0767  1.0738  1.1354
 5010SOL    HW226664   3.011   3.315   6.246 -0.3710  0.3826  0.3800
 5011SOL     OW26665   3.802   4.459   0.179  0.2440 -0.3299 -0.1909
 5011SOL    HW126666   3.865   4.394   0.146  0.1097 -1.9964  2.8523
 5011SOL    HW226667   3.755   4.400   0.238 -2.2916  2.4247  0.5029
 5012SOL     OW26668   1.090   2.182  16.297 -0.3811  0.1680  0.1825
 5012SOL    HW126669   1.087   2.213  16.387 -0.0589 -1.7705  0.8583
 5012SOL    HW226670   1.084   2.087  16.301  2.1067  0.0457  1.1958
 5013SOL     OW26671   0.702   0.735   4.547 -0.0830  0.0338  0.1752
 5013SOL    HW126672   0.665   0.680   4.479 -0.2967 -1.1335  1.2397
 5013SOL    HW226673   0.652   0.704   4.623 -0.4951 -1.7931 -0.8449
 5014SOL     OW26674   2.467   0.564   6.304  0.7146 -0.0251 -0.0925
 5014SOL    HW126675   2.458   0.521   6.390  3.1090 -1.4234 -0.5371
 5014SOL    HW226676   2.550   0.529   6.271  2.2481  2.7607  0.8415
 5015SOL     OW26677   3.338   3.124   7.932 -0.2645 -0.8447  0.5229
 5015SOL    HW126678   3.394   3.123   8.009 -1.4237 -1.1787  1.3598
 5015SOL    HW226679   3.396   3.189   7.892 -1.6300 -0.7415 -1.3216
 5016SOL     OW26680   2.879   0.272   7.844 -0.0003 -0.4425 -0.6562
 5016SOL    HW126681   2.926   0.197   7.807  1.4168  0.9396 -1.6744
 5016SOL    HW226682   2.868   0.245   7.935 -1.8259  1.4835 -0.3190
 5017SOL     OW26683   4.345   1.366   7.607  0.3164  0.1707  0.2861
 5017SOL    HW126684   4.394   1.342   7.528  0.3886  0.6352  0.1917
 5017SOL    HW226685   4.321   1.285   7.652 -2.1620  0.0184 -1.2928
 5018SOL     OW26686   2.888   0.510   8.762  0.6284  0.3803  0.1476
 5018SOL    HW126687   2.971   0.479   8.725  0.2340  0.6320 -0.9713
 5018SOL    HW226688   2.915   0.549   8.845 -1.8941 -1.8161  1.9530
 5019SOL     OW26689   4.158   3.567  15.526  0.1394 -0.0055 -0.0096
 5019SOL    HW126690   4.136   3.574  15.433 -0.6494 -0.4390  0.1457
 5019SOL    HW226691   4.226   3.501  15.516  0.3229  0.4027 -1.3795
 5020SOL     OW26692   1.948   0.836  16.090  0.1029  0.7398  0.4753
 5020SOL    HW126693   1.990   0.920  16.104 -0.8420  1.0567  1.3776
 5020SOL    HW226694   1.893   0.875  16.022  1.2643  0.8404 -0.4116
 5021SOL     OW26695   3.424   3.998   3.175  0.0436 -0.0132  0.1005
 5021SOL    HW126696   3.473   3.990   3.093 -0.9371 -1.1574 -0.3638
 5021SOL    HW226697   3.376   4.079   3.156 -0.9031 -0.3248  1.2017
 5022SOL     OW26698   2.236   2.333  13.670 -0.0023  0.4479 -0.3475
 5022SOL    HW126699   2.156   2.379  13.698 -1.2176 -1.6885 -0.2851
 5022SOL    HW226700   2.215   2.316  13.578  1.2904 -0.6548 -0.4277
 5023SOL     OW26701   1.098   0.680   5.484 -0.3194  0.4547 -0.4668
 5023SOL    HW126702   1.008   0.650   5.494 -0.4187  0.6843 -0.6749
 5023SOL    HW226703   1.088   0.753   5.422  1.4460  1.2362  0.1503
 5024SOL     OW26704   2.721   1.341   5.435 -0.2917  0.0386 -0.7873
 5024SOL    HW126705   2.814   1.319   5.445 -0.5570  0.6379  2.8951
 5024SOL    HW226706   2.678   1.256   5.440 -1.5239  0.7529  0.8394
 5025SOL     OW26707   4.648   3.197  16.478  0.2331 -0.1718 -0.0899
 5025SOL    HW126708   4.657   3.242  16.394  1.0137 -0.4419 -0.1569
 5025SOL    HW226709   4.727   3.143  16.482  0.1687 -0.2978 -0.4961
 5026SOL     OW26710   0.460   1.684   8.793  0.1916 -0.3003 -0.3782
 5026SOL    HW126711   0.427   1.614   8.850 -0.6239  0.1252 -0.3280
 5026SOL    HW226712   0.372   1.715   8.774  1.2120  3.0447  0.4063
 5027SOL     OW26713   3.475   1.874  15.967  0.2703  0.3929 -0.2551
 5027SOL    HW126714   3.497   1.790  16.007 -1.2411  1.2911  2.4529
 5027SOL    HW226715   3.390   1.899  16.004  0.6298 -0.9657  1.4944
 5028SOL     OW26716   3.928   4.215  11.516  0.4839 -0.5666 -0.6296
 5028SOL    HW126717   3.894   4.300  11.542  3.1149  0.8844 -1.9388
 5028SOL    HW226718   4.015   4.240  11.484 -0.0314  0.3928 -1.2546
 5029SOL     OW26719   0.153   2.076   1.925 -0.0841  0.1250 -0.0086
 5029SOL    HW126720   0.188   2.150   1.975  2.3893 -1.3852  0.4997
 5029SOL    HW226721   0.068   2.070   1.970  0.4475  1.0942  1.1393
 5030SOL     OW26722   1.834   1.854   5.629 -0.0990 -0.1704 -0.0883
 5030SOL    HW126723   1.858   1.938   5.588  1.6635 -0.7855 -0.3151
 5030SOL    HW226724   1.905   1.802   5.591  0.4188  0.3592  0.1620
 5031SOL     OW26725   0.651   3.216   6.543  0.3549  0.6000  0.0518
 5031SOL    HW126726   0.565   3.180   6.520 -1.1265  3.0200  1.7892
 5031SOL    HW226727   0.670   3.170   6.625 -1.4361  2.1709  1.3587
 5032SOL     OW26728   2.780   1.309   5.916 -0.0338  0.0595 -0.0329
 5032SOL    HW126729   2.714   1.336   5.980  1.4986 -0.1455  1.6253
 5032SOL    HW226730   2.714   1.281   5.853  0.3126 -0.5653 -0.1176
 5033SOL     OW26731   1.548   3.540   2.598 -0.0893  0.1746  0.4021
 5033SOL    HW126732   1.609   3.611   2.577  1.1577 -1.4205 -1.3215
 5033SOL    HW226733   1.564   3.481   2.524 -1.1876 -1.1352  1.2119
 5034SOL     OW26734   3.200   2.291   6.115  0.1820 -0.1899  0.1875
 5034SOL    HW126735   3.234   2.201   6.110 -0.8972 -0.4346 -3.0007
 5034SOL    HW226736   3.160   2.285   6.028 -0.5842 -4.3523  0.8050
 5035SOL     OW26737   4.533   4.656   4.698  0.2989 -0.7388  0.2237
 5035SOL    HW126738   4.472   4.726   4.720 -0.6424 -1.9196  1.4301
 5035SOL    HW226739   4.486   4.604   4.633  0.1565 -1.1013  0.6176
 5036SOL     OW26740   2.926   4.376  17.442 -0.1412  0.2974  0.4108
 5036SOL    HW126741   2.855   4.384  17.379  0.8162 -0.5041 -0.7809
 5036SOL    HW226742   2.941   4.281  17.444 -3.2878 -0.2380 -1.4667
 5037SOL     OW26743   2.384   0.078   0.517 -0.3987  0.2665  0.3309
 5037SOL    HW126744   2.336   0.152   0.554  0.1170  0.5580  0.4130
 5037SOL    HW226745   2.323   0.007   0.536  0.3319 -1.1313 -2.5333
 5038SOL     OW26746   4.267   4.426   0.773 -0.2445  0.0618  0.2445
 5038SOL    HW126747   4.230   4.511   0.750  0.6998  0.1536 -0.9456
 5038SOL    HW226748   4.196   4.372   0.739 -0.6940  1.4729 -1.0407
 5039SOL     OW26749   0.607   2.904  16.214 -0.3630 -0.3661  0.0612
 5039SOL    HW126750   0.587   2.996  16.230 -1.3329 -0.1953 -2.1710
 5039SOL    HW226751   0.565   2.863  16.289 -0.1134  1.2217  1.0742
 5040SOL     OW26752   2.933   0.237   3.689  0.1187 -0.0032  0.0487
 5040SOL    HW126753   2.894   0.309   3.639 -0.3683 -0.0256  0.3835
 5040SOL    HW226754   2.899   0.163   3.639 -0.4596  1.2416 -1.4012
 5041SOL     OW26755   0.216   2.022   7.232 -0.4272  0.5979 -0.0180
 5041SOL    HW126756   0.257   1.938   7.250  0.6788  1.6750  2.4958
 5041SOL    HW226757   0.151   2.001   7.165 -0.0346  1.3272 -0.6262
 5042SOL     OW26758   2.064   2.875   1.394  0.1050 -0.0548  0.6522
 5042SOL    HW126759   2.106   2.812   1.336 -1.1719 -0.5675  0.2902
 5042SOL    HW226760   2.130   2.931   1.435  1.1141 -1.8503  1.4943
 5043SOL     OW26761   1.739   2.617  10.861 -0.2201 -0.0801 -0.2695
 5043SOL    HW126762   1.697   2.667  10.791 -0.0126  2.8341  1.6775
 5043SOL    HW226763   1.686   2.537  10.861 -0.7908  0.2833  2.0984
 5044SOL     OW26764   0.512   0.258   5.141  0.2611  0.1743 -0.1413
 5044SOL    HW126765   0.436   0.244   5.084 -0.8717  0.8659  1.2124
 5044SOL    HW226766   0.499   0.351   5.163 -0.4683 -0.0816  0.5006
 5045SOL     OW26767   4.121   0.342   1.097 -0.2751 -0.2042  0.4322
 5045SOL    HW126768   4.159   0.422   1.133  0.4038 -0.9419  1.3286
 5045SOL    HW226769   4.185   0.282   1.135  1.1937  1.3408  0.4102
 5046SOL     OW26770   1.138   2.232  11.397  0.2998 -0.0712  0.2873
 5046SOL    HW126771   1.159   2.184  11.477 -0.7185  0.1430  0.6873
 5046SOL    HW226772   1.137   2.321  11.435 -2.7031 -0.1957  0.4713
 5047SOL     OW26773   0.037   3.275  15.732 -0.0149  0.3764  0.0938
 5047SOL    HW126774   0.094   3.350  15.715 -0.3242  0.8032  0.9344
 5047SOL    HW226775   0.021   3.293  15.824 -0.5712 -2.1414  0.4972
 5048SOL     OW26776   3.775   0.658  15.984 -0.4317  0.1792 -0.0319
 5048SOL    HW126777   3.851   0.636  15.930  0.1129 -0.4099  0.9851
 5048SOL    HW226778   3.780   0.599  16.060 -1.4750  0.0165 -0.0783
 5049SOL     OW26779   3.100   0.047  11.249  0.2226  0.3584  0.2302
 5049SOL    HW126780   3.135   0.123  11.296  1.5507 -0.7088  0.9833
 5049SOL    HW226781   3.085   0.081  11.161 -1.9589  0.0298  0.4799
 5050SOL     OW26782   2.866   0.623   7.435 -0.0547  0.3648  0.0010
 5050SOL    HW126783   2.817   0.656   7.511  0.4289 -1.2461  1.0113
 5050SOL    HW226784   2.869   0.698   7.376  1.2145  0.8557  0.6841
 5051SOL     OW26785   4.422   2.714   6.708  0.1627 -0.0497 -0.4006
 5051SOL    HW126786   4.360   2.786   6.693 -1.6620 -1.2094  1.6442
 5051SOL    HW226787   4.381   2.643   6.659 -1.1987 -0.5863  1.5163
 5052SOL     OW26788   2.804   3.180   6.851  0.1853 -0.2929 -0.0844
 5052SOL    HW126789   2.764   3.108   6.801 -1.2448  0.9958 -0.8157
 5052SOL    HW226790   2.795   3.145   6.939 -1.4436 -0.4748 -0.3096
 5053SOL     OW26791   0.293   2.960   4.804 -0.0504 -0.4314 -1.0268
 5053SOL    HW126792   0.362   2.948   4.738  0.7345  1.5041 -0.5728
 5053SOL    HW226793   0.215   2.974   4.750 -0.3671  1.4331 -0.0830
 5054SOL     OW26794   2.712   1.606   2.646 -0.0737  0.7259  0.4840
 5054SOL    HW126795   2.668   1.682   2.685  0.5031  1.7532 -0.8695
 5054SOL    HW226796   2.702   1.621   2.552 -1.3486 -1.8937  0.2018
 5055SOL     OW26797   1.818   0.723   1.369  0.4512  0.0105 -0.3554
 5055SOL    HW126798   1.820   0.631   1.342  1.1219  0.2295 -1.0288
 5055SOL    HW226799   1.890   0.753   1.314  0.0242 -1.5415 -1.7730
 5056SOL     OW26800   0.969   4.116   9.199 -0.1233  0.5456 -0.0977
 5056SOL    HW126801   0.928   4.031   9.183  2.1103 -0.5995  0.1859
 5056SOL    HW226802   0.985   4.132   9.106  0.2502 -1.6089 -0.4144
 5057SOL     OW26803   4.274   3.246  12.150  0.9257 -0.0112  0.6626
 5057SOL    HW126804   4.343   3.225  12.088  0.8011 -0.3926  0.6533
 5057SOL    HW226805   4.288   3.340  12.163 -1.6864  0.3557  0.9178
 5058SOL     OW26806   3.490   2.701  13.898  1.0047  0.0448  0.3872
 5058SOL    HW126807   3.515   2.737  13.812  0.9253  2.2054  1.2692
 5058SOL    HW226808   3.480   2.783  13.947 -0.3294  0.6379 -0.8498
 5059SOL     OW26809   1.058   4.030  16.321  0.0769 -0.2787 -0.0333
 5059SOL    HW126810   0.982   4.003  16.372 -0.7455  1.5879 -0.2869
 5059SOL    HW226811   1.126   3.982  16.368  0.5200 -0.4668 -0.8573
 5060SOL     OW26812   0.194   2.393   3.158 -0.1648  0.0817 -0.3708
 5060SOL    HW126813   0.235   2.308   3.140 -0.8081  0.1277 -2.0412
 5060SOL    HW226814   0.269   2.441   3.122 -1.9704  2.9727 -0.2954
 5061SOL     OW26815   0.998   4.113   8.039  0.4377  0.0520  0.3583
 5061SOL    HW126816   0.928   4.178   8.037 -1.3973 -1.8986  0.6016
 5061SOL    HW226817   1.078   4.160   8.061  0.2089  0.8024 -0.4357
 5062SOL     OW26818   2.857   4.278   0.560  0.3288  0.1033 -0.2589
 5062SOL    HW126819   2.801   4.354   0.576  0.3065  0.2108 -0.8702
 5062SOL    HW226820   2.941   4.316   0.536 -0.2699  1.2313 -0.5407
 5063SOL     OW26821   3.341   0.426  12.142 -0.7241  0.3734  0.2187
 5063SOL    HW126822   3.282   0.493  12.106  1.2020  1.6752 -0.5226
 5063SOL    HW226823   3.339   0.361  12.071  1.5241  0.0770  0.4346
 5064SOL     OW26824   3.098   3.194   6.168 -0.0289  1.2281 -0.0620
 5064SOL    HW126825   3.189   3.202   6.138  0.3775 -1.4834  0.4181
 5064SOL    HW226826   3.081   3.102   6.145  3.5388  0.3346  0.8509
 5065SOL     OW26827   4.651   0.078   1.425  0.1481 -0.0382  0.2853
 5065SOL    HW126828   0.011   0.080   1.429  0.2462 -1.6446 -1.0652
 5065SOL    HW226829   4.636   0.101   1.517  1.9359 -0.2236  0.6243
 5066SOL     OW26830   4.376   1.150  10.949 -0.9456  0.3542 -0.1970
 5066SOL    HW126831   4.402   1.232  10.991 -4.2674  1.7707 -0.8876
 5066SOL    HW226832   4.349   1.099  11.025 -3.6416 -0.7969 -1.9292
 5067SOL     OW26833   1.911   0.108   4.438  0.0626  0.5158 -0.6421
 5067SOL    HW126834   1.897   0.068   4.524  2.9387  2.6985  0.8625
 5067SOL    HW226835   1.829   0.148   4.412 -2.0626 -1.8592  2.3744
 5068SOL     OW26836   0.478   4.371   2.495 -0.0437 -0.0387  0.8444
 5068SOL    HW126837   0.486   4.281   2.466  1.6378  0.8462 -1.4760
 5068SOL    HW226838   0.383   4.378   2.492  0.0589  0.9623 -0.1119
 5069SOL     OW26839   2.966   2.543  14.238 -0.5310 -0.6338 -0.4188
 5069SOL    HW126840   3.033   2.568  14.175 -1.5267  0.7726 -0.9095
 5069SOL    HW226841   2.911   2.620  14.226 -2.4814 -2.0890 -0.8980
 5070SOL     OW26842   1.638   2.882   8.388 -0.2658  0.3042 -0.0202
 5070SOL    HW126843   1.581   2.956   8.371  0.2971  0.6808 -0.2597
 5070SOL    HW226844   1.608   2.864   8.477 -0.7820 -0.6510 -0.3883
 5071SOL     OW26845   4.649   1.835   2.631 -0.2570 -0.2576 -0.3328
 5071SOL    HW126846   4.565   1.880   2.644 -0.7823 -1.3089 -0.0010
 5071SOL    HW226847   4.637   1.789   2.548 -0.7976 -1.0213  0.1644
 5072SOL     OW26848   0.881   3.533   2.750 -0.6682 -0.5368  0.4840
 5072SOL    HW126849   0.925   3.552   2.667 -2.2120 -0.2806 -0.2593
 5072SOL    HW226850   0.797   3.502   2.718 -0.7642  0.4638 -0.2277
 5073SOL     OW26851   2.575   3.680  10.667  0.1316 -0.2021  0.4633
 5073SOL    HW126852   2.535   3.596  10.690 -1.5088  0.3628 -0.3194
 5073SOL    HW226853   2.549   3.681  10.575 -2.0896 -3.7040  1.0499
 5074SOL     OW26854   1.475   1.543  14.639  0.0017 -0.4857 -0.4959
 5074SOL    HW126855   1.525   1.546  14.557  1.3344 -2.2304  0.2595
 5074SOL    HW226856   1.515   1.469  14.684 -1.4125 -2.0704 -1.8325
 5075SOL     OW26857   3.618   1.453  16.475 -0.0406 -0.4008  0.5914
 5075SOL    HW126858   3.674   1.425  16.547 -0.5040 -1.5402  0.5149
 5075SOL    HW226859   3.648   1.387  16.412 -0.7232 -0.1971  0.0435
 5076SOL     OW26860   3.464   2.448   8.932 -0.5789 -0.7986 -0.2208
 5076SOL    HW126861   3.474   2.415   9.021  1.1659  1.1713  0.3113
 5076SOL    HW226862   3.389   2.395   8.905  0.4071 -1.6604 -1.2598
 5077SOL     OW26863   0.853   3.367   6.674  0.1225 -0.1153 -0.1082
 5077SOL    HW126864   0.767   3.328   6.658 -1.2212  1.7570  2.6024
 5077SOL    HW226865   0.905   3.288   6.655  0.4306  0.2467 -0.7753
 5078SOL     OW26866   0.953   0.868   3.640  0.0788 -0.1618  0.4195
 5078SOL    HW126867   0.901   0.925   3.697 -0.8573 -1.7204  1.1453
 5078SOL    HW226868   0.965   0.797   3.703 -2.4127 -0.9522  0.0109
 5079SOL     OW26869   0.778   4.452  15.269 -0.7965 -0.1504  0.2181
 5079SOL    HW126870   0.741   4.410  15.191 -2.3180  2.5569 -0.5154
 5079SOL    HW226871   0.829   4.516  15.220 -1.4187  1.1522  1.2841
 5080SOL     OW26872   3.421   0.035   1.425 -0.0090  0.7673 -0.0080
 5080SOL    HW126873   3.476   0.066   1.498 -1.1973 -0.2744  1.3364
 5080SOL    HW226874   3.415   4.676   1.444 -0.9036  0.6068 -1.0923
 5081SOL     OW26875   4.018   3.957   6.509 -0.3603  0.5150  0.3277
 5081SOL    HW126876   4.090   4.020   6.515 -0.1996  0.2633  1.0926
 5081SOL    HW226877   3.991   3.959   6.417 -0.3154  0.8851  0.3255
 5082SOL     OW26878   3.565   3.997   2.706 -0.0796  0.1182 -0.1159
 5082SOL    HW126879   3.639   3.943   2.680 -0.0745 -0.0655  0.2805
 5082SOL    HW226880   3.603   4.035   2.785  1.9397  1.3320 -1.6596
 5083SOL     OW26881   2.202   4.646  16.476  0.2800  0.0622 -0.0799
 5083SOL    HW126882   2.126   4.612  16.430 -1.2001  0.8789  1.7717
 5083SOL    HW226883   2.195   0.007  16.469  0.2155  0.2291  2.4074
 5084SOL     OW26884   2.899   2.507   5.427 -0.2985  0.3309 -0.4785
 5084SOL    HW126885   2.850   2.450   5.486  0.5428  0.6595  0.5414
 5084SOL    HW226886   2.824   2.566   5.415  0.5809  1.8656  1.4436
 5085SOL     OW26887   3.361   4.264   1.237  0.1017  0.1104  0.4216
 5085SOL    HW126888   3.328   4.260   1.327 -0.6434 -1.3817  0.0753
 5085SOL    HW226889   3.321   4.349   1.215  0.0479 -0.2194 -0.7349
 5086SOL     OW26890   3.637   2.780   6.295 -0.1026  0.7732  0.0261
 5086SOL    HW126891   3.689   2.802   6.373 -0.3218 -0.1468  0.4252
 5086SOL    HW226892   3.560   2.833   6.314 -0.7664 -0.3118  0.3374
 5087SOL     OW26893   0.277   0.634   8.838 -0.0994 -0.4839 -0.0514
 5087SOL    HW126894   0.335   0.655   8.910  1.2390  1.4054 -1.6813
 5087SOL    HW226895   0.240   0.548   8.861 -1.5933  0.2759  0.4197
 5088SOL     OW26896   0.821   3.718   5.040  0.3799  0.3214 -0.5297
 5088SOL    HW126897   0.832   3.787   5.105 -1.6981 -0.3735  0.5680
 5088SOL    HW226898   0.911   3.688   5.047  0.4447  0.9637  1.5012
 5089SOL     OW26899   2.630   0.527   2.929 -0.2121  0.9492 -0.1427
 5089SOL    HW126900   2.566   0.490   2.990 -0.1696 -0.8318 -1.1831
 5089SOL    HW226901   2.711   0.517   2.978  2.3379  0.6405 -4.3852
 5090SOL     OW26902   3.564   2.730   9.869  0.2939  0.0037 -0.2062
 5090SOL    HW126903   3.474   2.711   9.894  1.0254 -1.3334  1.4732
 5090SOL    HW226904   3.605   2.645   9.853  1.0291  0.0851  1.2039
 5091SOL     OW26905   4.589   4.649   9.313  0.1567  0.1243  0.4010
 5091SOL    HW126906   4.566   4.689   9.229  4.1181 -0.6626 -1.0962
 5091SOL    HW226907   4.601   4.729   9.365 -2.5618 -0.7506  2.3259
 5092SOL     OW26908   3.842   2.290   8.079 -0.0139 -0.3979 -0.5156
 5092SOL    HW126909   3.767   2.233   8.096  1.4714 -1.8928  1.0002
 5092SOL    HW226910   3.813   2.377   8.106  0.9046 -0.2109 -0.1077
 5093SOL     OW26911   4.343   2.225   4.394  0.1405 -0.6846  0.3867
 5093SOL    HW126912   4.253   2.196   4.382  0.1491 -0.8681  0.7729
 5093SOL    HW226913   4.342   2.306   4.343  0.6287 -1.7357 -1.3103
 5094SOL     OW26914   2.671   2.397  16.837 -0.6108  0.3556 -0.2808
 5094SOL    HW126915   2.591   2.429  16.796 -1.0072  0.2907  0.4387
 5094SOL    HW226916   2.726   2.475  16.846  1.0867 -1.2427  3.3043
 5095SOL     OW26917   1.493   4.266  13.658 -0.2825  0.1204  0.2670
 5095SOL    HW126918   1.550   4.197  13.692 -0.4675 -0.0170  0.2955
 5095SOL    HW226919   1.458   4.314  13.733  1.5589 -1.5021  2.1811
 5096SOL     OW26920   3.373   1.213   5.416  0.1855  0.1915  0.1809
 5096SOL    HW126921   3.353   1.126   5.450  0.1419  0.5494  1.0763
 5096SOL    HW226922   3.318   1.264   5.476 -0.3629  0.6659 -0.7223
 5097SOL     OW26923   4.651   0.655   5.128 -0.1009  0.5472  0.6348
 5097SOL    HW126924   0.005   0.623   5.111  0.5515  2.1161  1.1830
 5097SOL    HW226925   4.639   0.721   5.060 -1.0570 -1.6225 -1.3096
 5098SOL     OW26926   2.517   1.001   7.198 -0.2949 -0.2238 -0.1435
 5098SOL    HW126927   2.550   1.090   7.201 -1.1518  0.0917 -0.1172
 5098SOL    HW226928   2.424   1.018   7.212 -0.0426  0.6453  0.4550
 5099SOL     OW26929   3.094   2.050   3.081 -0.4118 -0.3673  0.3596
 5099SOL    HW126930   3.061   2.053   3.170  1.5290 -1.9165  1.1347
 5099SOL    HW226931   3.182   2.017   3.099 -0.5825 -0.2183  1.4637
 5100SOL     OW26932   4.715   4.220   8.972  0.8150  0.4217  0.0531
 5100SOL    HW126933   4.638   4.181   9.013  0.3897 -0.4830 -1.6522
 5100SOL    HW226934   4.704   4.306   9.015  0.0616  0.4457 -0.1983
 5101SOL     OW26935   1.018   1.240  11.057  0.4274 -0.4386 -0.7216
 5101SOL    HW126936   0.949   1.270  10.998 -0.9186  1.2754  1.6981
 5101SOL    HW226937   1.096   1.260  11.006  0.1047  1.5234 -0.4597
 5102SOL     OW26938   1.205   0.465   0.348  0.0400 -0.4278  0.4969
 5102SOL    HW126939   1.160   0.468   0.264  2.1345  2.0699 -0.5610
 5102SOL    HW226940   1.143   0.411   0.396  1.1516 -1.6279  0.6061
 5103SOL     OW26941   1.696   0.615  17.442 -0.1600  0.1149  0.2706
 5103SOL    HW126942   1.645   0.673  17.386  3.1589  0.6639 -2.1927
 5103SOL    HW226943   1.738   0.679  17.500  3.1155 -0.1478 -1.8229
 5104SOL     OW26944   3.168   0.924  11.200  0.2782  0.3356  0.7361
 5104SOL    HW126945   3.227   0.998  11.185 -0.1449  0.6718  0.7309
 5104SOL    HW226946   3.219   0.845  11.180 -1.8084 -0.7705 -0.2277
 5105SOL     OW26947   0.161   0.525   1.066 -0.2775  0.1140  0.3989
 5105SOL    HW126948   0.244   0.500   1.026  0.8491  2.3206  1.3561
 5105SOL    HW226949   0.142   0.450   1.121 -1.1706  0.0001 -0.0551
 5106SOL     OW26950   1.917   0.479   3.299 -0.2052  0.3080  0.1354
 5106SOL    HW126951   1.850   0.463   3.233 -0.3106  2.1485 -0.2015
 5106SOL    HW226952   1.924   0.391   3.336 -0.8565  0.4639  0.6275
 5107SOL     OW26953   3.679   0.000  16.199  0.2074  0.0527  0.9067
 5107SOL    HW126954   3.747   0.004  16.266  0.4288  1.6695  0.5859
 5107SOL    HW226955   3.650   4.645  16.210  0.1077  0.1834  1.6706
 5108SOL     OW26956   2.452   1.888   9.534 -0.4099  0.0846  0.4098
 5108SOL    HW126957   2.481   1.956   9.474 -0.8216  0.3629  0.5184
 5108SOL    HW226958   2.449   1.814   9.475  0.5338  0.2392  0.1802
 5109SOL     OW26959   0.103   0.762   1.212  0.3955 -0.2466 -0.4888
 5109SOL    HW126960   0.191   0.749   1.246  0.6958  1.2769 -0.6667
 5109SOL    HW226961   0.099   0.672   1.181  0.2450 -0.1924 -0.6275
 5110SOL     OW26962   0.577   3.571  15.461  0.5299 -0.7133  0.1671
 5110SOL    HW126963   0.523   3.605  15.532  0.7459  2.2230 -1.0729
 5110SOL    HW226964   0.604   3.490  15.504  0.8311 -1.4107 -1.3370
 5111SOL     OW26965   0.208   1.155   5.799 -0.2854 -0.9348 -0.4077
 5111SOL    HW126966   0.283   1.195   5.843 -2.2429  2.0166  0.1955
 5111SOL    HW226967   0.168   1.221   5.743  0.6223 -0.2243 -0.2232
 5112SOL     OW26968   1.020   1.899   2.961 -0.5661  0.0444  0.9542
 5112SOL    HW126969   1.027   1.805   2.946  0.0335  0.2873 -0.3163
 5112SOL    HW226970   1.048   1.902   3.052 -0.6371 -1.3032  1.0097
 5113SOL     OW26971   1.887   3.435  11.644 -1.0555 -0.1682  0.1440
 5113SOL    HW126972   1.849   3.349  11.626  0.4539 -0.9165  0.6138
 5113SOL    HW226973   1.856   3.478  11.564 -4.9113 -0.5542  1.4174
 5114SOL     OW26974   1.576   3.803   9.099  0.6660  0.5739  0.6163
 5114SOL    HW126975   1.636   3.859   9.149 -0.5316  1.1319  1.4182
 5114SOL    HW226976   1.638   3.731   9.083 -1.5337 -1.2478  0.3077
 5115SOL     OW26977   2.359   2.572   0.398  0.0844  0.3854  0.3348
 5115SOL    HW126978   2.413   2.499   0.429  0.2940 -0.1839 -1.3446
 5115SOL    HW226979   2.289   2.538   0.342 -0.1734  0.4454  0.6221
 5116SOL     OW26980   2.216   3.796   9.006 -0.1468  0.3542  0.0571
 5116SOL    HW126981   2.147   3.738   9.037  1.8932 -0.9830  2.1458
 5116SOL    HW226982   2.250   3.757   8.926  0.1470 -1.6215  1.1481
 5117SOL     OW26983   3.338   0.530  12.748 -0.1343  1.1937 -0.3567
 5117SOL    HW126984   3.321   0.465  12.816 -0.8035  1.5916 -0.1441
 5117SOL    HW226985   3.249   0.553  12.719 -0.3373  0.4708 -0.2976
 5118SOL     OW26986   0.167   0.946  15.947 -0.1593  0.1926 -0.4157
 5118SOL    HW126987   0.168   1.008  16.020 -0.4628  0.4179 -0.5996
 5118SOL    HW226988   0.119   0.997  15.881 -0.3706 -1.4947 -1.5668
 5119SOL     OW26989   1.867   0.856   7.965 -0.8593  0.3478 -0.5033
 5119SOL    HW126990   1.871   0.941   8.009  0.2436 -0.5311  1.1016
 5119SOL    HW226991   1.806   0.880   7.896  1.8113  0.7726 -2.7244
 5120SOL     OW26992   0.636   0.517   6.385 -0.2694  0.3200  0.1749
 5120SOL    HW126993   0.703   0.567   6.338 -1.1903 -0.0024 -1.4818
 5120SOL    HW226994   0.631   0.570   6.464 -0.1913 -0.6859  0.8477
 5121SOL     OW26995   1.235   4.557   3.441 -0.5082 -0.0114 -0.0066
 5121SOL    HW126996   1.182   4.493   3.489 -0.2989 -0.8248 -0.8685
 5121SOL    HW226997   1.319   4.511   3.439 -0.1525  0.5834  1.0103
 5122SOL     OW26998   3.884   0.826   9.061 -0.0544  0.5595  0.0634
 5122SOL    HW126999   3.805   0.785   9.028  1.9728 -2.5757 -0.9033
 5122SOL    HW227000   3.848   0.903   9.106  0.1602  0.7121 -0.0250
 5123SOL     OW27001   2.929   3.271  11.001 -0.5321  0.5088  0.0327
 5123SOL    HW127002   2.924   3.245  11.093 -0.0904  0.5404  0.0644
 5123SOL    HW227003   2.960   3.360  11.019  1.2068  0.3826 -2.3991
 5124SOL     OW27004   3.491   3.293   4.451  0.0112 -0.2874  0.1351
 5124SOL    HW127005   3.518   3.214   4.404 -1.0257 -0.4360 -0.2083
 5124SOL    HW227006   3.512   3.361   4.386 -0.1930 -0.5179 -0.1709
 5125SOL     OW27007   1.912   3.495   8.450 -0.3223  0.4636 -0.5996
 5125SOL    HW127008   1.945   3.584   8.456 -0.2065  0.1984  2.7080
 5125SOL    HW227009   1.816   3.501   8.453 -0.4429 -0.5703 -2.2103
 5126SOL     OW27010   0.199   3.674  16.945  0.0833 -0.2072 -0.2281
 5126SOL    HW127011   0.222   3.746  16.886  1.0567  0.8114  1.4008
 5126SOL    HW227012   0.209   3.725  17.025 -0.0366 -0.5871  0.0241
 5127SOL     OW27013   1.512   0.857   2.922 -0.0226  0.1711  0.2309
 5127SOL    HW127014   1.563   0.901   2.855 -0.3839  1.0872  0.5558
 5127SOL    HW227015   1.439   0.915   2.945 -0.6071 -0.2233 -0.6080
 5128SOL     OW27016   0.359   4.037   4.101  0.2797 -0.0751 -0.3499
 5128SOL    HW127017   0.339   4.124   4.134  2.6350 -0.6203  2.5897
 5128SOL    HW227018   0.276   4.014   4.060 -0.0298 -0.3703  0.4476
 5129SOL     OW27019   4.074   3.247   3.535  0.0508  0.1505 -0.0911
 5129SOL    HW127020   4.128   3.203   3.469  1.2193 -0.0670  1.0157
 5129SOL    HW227021   3.997   3.258   3.479 -0.5558  0.5831  0.8251
 5130SOL     OW27022   4.086   2.984   3.949  0.1941  0.0699 -0.2515
 5130SOL    HW127023   4.178   2.962   3.968  0.4909  2.9107  1.5644
 5130SOL    HW227024   4.056   3.036   4.023 -0.8674 -1.4950  0.4350
 5131SOL     OW27025   4.155   2.424   2.747 -0.1439 -0.1487 -0.2265
 5131SOL    HW127026   4.158   2.511   2.708 -0.0630  0.0643  0.2509
 5131SOL    HW227027   4.237   2.415   2.797  1.1425  0.3126 -2.2346
 5132SOL     OW27028   0.653   3.822   7.756 -0.2108  0.0740 -0.3106
 5132SOL    HW127029   0.680   3.782   7.839 -0.0255  0.0777 -0.3670
 5132SOL    HW227030   0.689   3.760   7.691  0.5516 -1.8938  1.9815
 5133SOL     OW27031   0.613   0.456   2.165 -0.6214 -0.4554  0.2998
 5133SOL    HW127032   0.595   0.420   2.252 -3.2468  1.6214  0.6171
 5133SOL    HW227033   0.709   0.456   2.173 -0.6875  1.8310  1.3055
 5134SOL     OW27034   1.532   1.644   4.085  0.0616  0.2528  0.1802
 5134SOL    HW127035   1.625   1.629   4.065  0.0818  1.7035 -0.8634
 5134SOL    HW227036   1.543   1.680   4.173  2.3378  1.5918 -0.6248
 5135SOL     OW27037   3.468   3.346   6.257 -0.4165  0.0955 -0.2612
 5135SOL    HW127038   3.486   3.300   6.340 -1.6886  0.7512  0.3810
 5135SOL    HW227039   3.440   3.265   6.213 -2.5624  0.4476  0.4288
 5136SOL     OW27040   0.356   3.402   0.574 -0.7709  0.9619 -0.4061
 5136SOL    HW127041   0.291   3.427   0.508  0.3382  0.2063 -1.7826
 5136SOL    HW227042   0.291   3.362   0.632  1.0090 -1.1980  0.0755
 5137SOL     OW27043   4.403   4.474  17.163 -0.6444  0.4591 -0.2111
 5137SOL    HW127044   4.456   4.438  17.234 -2.0489  0.4927  0.8661
 5137SOL    HW227045   4.460   4.527  17.107 -1.5533 -0.3003 -1.8572
 5138SOL     OW27046   0.736   3.167   7.883  0.1789 -0.0415 -0.0689
 5138SOL    HW127047   0.789   3.207   7.814  0.9548 -1.1627 -0.1293
 5138SOL    HW227048   0.793   3.174   7.959  0.9158 -1.9887 -0.4334
 5139SOL     OW27049   1.029   2.191  15.989 -0.0988 -0.5154  0.3319
 5139SOL    HW127050   1.115   2.162  15.961  0.2058  1.4290 -0.7711
 5139SOL    HW227051   1.041   2.183  16.084 -0.2135  0.8027  0.4595
 5140SOL     OW27052   1.016   0.485   6.488 -0.5183  0.6848  0.7192
 5140SOL    HW127053   0.956   0.503   6.416 -0.8285 -1.3240  0.4604
 5140SOL    HW227054   0.964   0.434   6.550  1.1704 -1.2204  0.5591
 5141SOL     OW27055   0.773   4.316  16.748  0.2163 -0.8849 -0.0302
 5141SOL    HW127056   0.760   4.410  16.763  1.1038 -0.2336 -3.3575
 5141SOL    HW227057   0.817   4.313  16.664 -0.2901 -2.4359 -0.2471
 5142SOL     OW27058   1.780   2.563   3.054 -0.1936  0.0560  0.1940
 5142SOL    HW127059   1.836   2.545   3.130 -1.9748 -0.5112  1.3756
 5142SOL    HW227060   1.760   2.655   3.073  1.6796  0.6486 -0.7069
 5143SOL     OW27061   1.074   3.667   5.018  0.5105  0.0015 -0.5319
 5143SOL    HW127062   1.109   3.728   5.083  2.0343  1.0435 -2.3274
 5143SOL    HW227063   1.129   3.591   5.037  1.6153  1.6923  3.0940
 5144SOL     OW27064   2.644   4.120   6.032  0.0247 -0.2134 -0.0926
 5144SOL    HW127065   2.558   4.096   5.998 -0.6250 -0.6757  1.8303
 5144SOL    HW227066   2.656   4.212   6.011 -0.8962 -0.0633  0.0416
 5145SOL     OW27067   4.096   0.748   5.969 -0.3403  0.4096  0.0567
 5145SOL    HW127068   4.126   0.677   6.026  2.5629  2.6593  1.3461
 5145SOL    HW227069   4.005   0.720   5.972 -0.5191  1.1835  1.8790
 5146SOL     OW27070   3.352   4.348   3.426 -0.1440 -0.0371  0.1159
 5146SOL    HW127071   3.354   4.295   3.506  4.1173  0.7184  0.5050
 5146SOL    HW227072   3.270   4.310   3.392 -0.7701  2.4209 -1.0500
 5147SOL     OW27073   1.742   1.104   9.359 -0.2814  0.1073  0.7825
 5147SOL    HW127074   1.682   1.173   9.330  0.8854  0.5560 -0.5316
 5147SOL    HW227075   1.752   1.055   9.278  1.4529 -0.5586  1.3960
 5148SOL     OW27076   3.626   2.480   6.903 -0.3694 -0.0414  0.0676
 5148SOL    HW127077   3.628   2.488   6.808  1.0653 -3.2079 -0.1852
 5148SOL    HW227078   3.594   2.568   6.920 -0.7932 -0.2697  0.4405
 5149SOL     OW27079   1.849   3.642   8.808  0.3778  0.2667  0.9469
 5149SOL    HW127080   1.818   3.730   8.788 -0.3328 -0.3695 -0.7205
 5149SOL    HW227081   1.762   3.613   8.837  0.8010 -1.9661 -0.0009
 5150SOL     OW27082   1.304   1.728   7.347 -0.8340 -0.0106 -0.4764
 5150SOL    HW127083   1.256   1.736   7.264  0.5425 -1.8397 -1.4626
 5150SOL    HW227084   1.335   1.637   7.351  0.9833  0.6760  0.6611
 5151SOL     OW27085   1.461   1.097  17.259 -0.3202  0.2351 -0.2642
 5151SOL    HW127086   1.382   1.060  17.298 -0.2367  0.0653 -0.2562
 5151SOL    HW227087   1.524   1.099  17.331 -0.4364  1.8272 -0.1943
 5152SOL     OW27088   1.314   3.054   6.636 -0.3648  0.1326 -0.3420
 5152SOL    HW127089   1.387   3.109   6.664  1.0832  0.0755 -3.9607
 5152SOL    HW227090   1.308   3.099   6.552  0.3203  2.8173  1.0625
 5153SOL     OW27091   3.434   0.546   3.456  0.3792 -0.0291 -0.0615
 5153SOL    HW127092   3.417   0.574   3.366  0.8888 -0.8004 -0.3944
 5153SOL    HW227093   3.465   0.632   3.485 -0.4433  0.1284  0.3560
 5154SOL     OW27094   2.346   2.835   8.827  0.4881  0.2013 -0.5627
 5154SOL    HW127095   2.336   2.777   8.752  1.2584  0.4584 -0.8618
 5154SOL    HW227096   2.307   2.912   8.787  0.2041 -0.6309 -1.9105
 5155SOL     OW27097   2.071   1.873   7.874 -0.3132  0.5146  0.0991
 5155SOL    HW127098   2.010   1.809   7.911  0.7002  0.4972  1.7338
 5155SOL    HW227099   2.149   1.819   7.875 -0.3155  0.4980 -1.0810
 5156SOL     OW27100   2.089   3.718  15.366  0.0061  0.3316 -0.8953
 5156SOL    HW127101   2.177   3.696  15.395  0.0829  0.3895 -1.0823
 5156SOL    HW227102   2.062   3.630  15.338 -1.6599 -0.0353  1.8218
 5157SOL     OW27103   1.407   1.673  15.604 -0.3491  0.0570  0.4301
 5157SOL    HW127104   1.432   1.582  15.589 -0.4259  0.0915  0.0900
 5157SOL    HW227105   1.485   1.693  15.655  1.3760 -1.4772 -1.6151
 5158SOL     OW27106   4.126   2.531   1.847 -0.1951  0.3760 -0.0565
 5158SOL    HW127107   4.058   2.474   1.882  0.5754  0.0371  0.8615
 5158SOL    HW227108   4.055   2.576   1.801  0.6451  0.3974 -1.3402
 5159SOL     OW27109   0.653   3.261   7.003  0.1904 -0.5579 -0.2218
 5159SOL    HW127110   0.664   3.199   6.932  1.2972  2.2837 -2.5377
 5159SOL    HW227111   0.571   3.228   7.039 -0.3590 -0.7275 -1.6205
 5160SOL     OW27112   1.206   1.416  14.858  0.0806  0.3392 -0.3724
 5160SOL    HW127113   1.130   1.378  14.904 -0.2434  1.3092 -0.1087
 5160SOL    HW227114   1.225   1.348  14.794  0.9233 -0.1269  0.3751
 5161SOL     OW27115   3.365   4.044   4.346 -0.1388 -0.2169 -0.2742
 5161SOL    HW127116   3.351   3.951   4.366  0.8401 -0.0960  0.9477
 5161SOL    HW227117   3.302   4.058   4.275 -2.2227  0.5282  1.7103
 5162SOL     OW27118   3.183   0.760   7.843 -0.0250  0.0687  0.4087
 5162SOL    HW127119   3.100   0.713   7.849  1.7877 -2.9970  1.6862
 5162SOL    HW227120   3.231   0.687   7.882 -0.1358 -0.8662 -1.1958
 5163SOL     OW27121   2.393   4.043   8.948 -0.0296 -0.2558  0.1608
 5163SOL    HW127122   2.381   3.948   8.952 -1.2993 -0.1856 -2.0648
 5163SOL    HW227123   2.426   4.065   8.861 -0.0328  1.8079  0.6759
 5164SOL     OW27124   3.276   0.847   8.196  0.2911  0.5511 -0.2125
 5164SOL    HW127125   3.286   0.768   8.144  0.6330  0.4116  0.0621
 5164SOL    HW227126   3.281   0.803   8.281  0.9236  0.5740 -0.2370
 5165SOL     OW27127   4.449   2.876  16.303  0.0395 -0.4626  0.5960
 5165SOL    HW127128   4.397   2.840  16.231  0.9436 -0.6731  0.0399
 5165SOL    HW227129   4.401   2.835  16.375  0.8683 -0.8748  0.9120
 5166SOL     OW27130   2.537   2.301   3.638  0.5353  0.3797  0.1801
 5166SOL    HW127131   2.590   2.250   3.576  0.5679 -0.1531  0.6432
 5166SOL    HW227132   2.515   2.382   3.593 -1.5057  0.0473  0.5916
 5167SOL     OW27133   0.646   1.802  15.806 -0.7800 -0.0212 -0.0440
 5167SOL    HW127134   0.616   1.837  15.722  0.8039  3.0383  0.6413
 5167SOL    HW227135   0.695   1.723  15.782 -1.1061 -0.6724  1.4853
 5168SOL     OW27136   0.298   4.301   4.395  0.1768 -0.6799 -0.2571
 5168SOL    HW127137   0.272   4.337   4.480  0.5681  0.3303 -0.5610
 5168SOL    HW227138   0.299   4.209   4.419  1.3763  0.0741  2.6208
 5169SOL     OW27139   2.279   4.712   2.522  0.4933 -0.0458  0.0875
 5169SOL    HW127140   2.287   4.653   2.447 -2.0251 -1.6250  1.0525
 5169SOL    HW227141   2.282   0.064   2.481 -0.6638  0.0147  0.1392
 5170SOL     OW27142   1.477   2.520   4.514 -0.2750 -0.2871 -0.3469
 5170SOL    HW127143   1.560   2.544   4.556 -0.4123  1.3341 -1.0066
 5170SOL    HW227144   1.513   2.461   4.448 -1.1481 -2.9144  1.5230
 5171SOL     OW27145   3.091   0.633  16.126 -0.5722  0.0772  0.4693
 5171SOL    HW127146   3.139   0.551  16.138  0.8059  0.7936 -0.1456
 5171SOL    HW227147   3.090   0.660  16.218  1.1577  0.2102  0.4541
 5172SOL     OW27148   0.644   2.188  16.588 -0.3998 -0.3456 -0.0740
 5172SOL    HW127149   0.677   2.100  16.571 -2.6786 -0.7522 -2.2788
 5172SOL    HW227150   0.636   2.192  16.684  0.2376 -0.5100 -0.0096
 5173SOL     OW27151   0.357   3.811   1.086  0.0532  0.6014 -0.0240
 5173SOL    HW127152   0.303   3.796   1.163  0.9351 -0.7810  0.3275
 5173SOL    HW227153   0.294   3.795   1.015  0.7946 -1.8806 -0.1354
 5174SOL     OW27154   1.940   2.246   6.091 -0.4713 -0.2007 -0.0627
 5174SOL    HW127155   1.929   2.180   6.022  2.1897 -2.8956  2.1332
 5174SOL    HW227156   1.889   2.207   6.162 -1.3212  0.8057 -0.1022
 5175SOL     OW27157   2.225   1.606   7.554 -0.1057  0.3754  0.5392
 5175SOL    HW127158   2.164   1.539   7.584 -1.1374  1.2788  0.4345
 5175SOL    HW227159   2.306   1.566   7.588 -0.9479  0.6208  2.8757
 5176SOL     OW27160   1.681   1.485   2.380  0.1244  0.0122 -0.0469
 5176SOL    HW127161   1.619   1.428   2.424  0.3655 -0.3084 -0.1284
 5176SOL    HW227162   1.758   1.430   2.388 -0.5615 -0.9851 -0.2995
 5177SOL     OW27163   2.902   4.570   4.297 -0.2051 -0.0083  0.2702
 5177SOL    HW127164   2.924   4.517   4.373 -0.0919 -0.5809 -0.1601
 5177SOL    HW227165   2.976   4.631   4.297  2.0644 -2.7811  1.7360
 5178SOL     OW27166   3.411   4.615   7.062 -0.1207 -0.0011  0.2020
 5178SOL    HW127167   3.499   4.592   7.091 -1.5271 -3.0224  2.1338
 5178SOL    HW227168   3.417   4.555   6.987 -1.1171 -0.2349  0.3045
 5179SOL     OW27169   4.725   0.581   8.015  0.4184 -0.7250  0.1301
 5179SOL    HW127170   4.706   0.675   8.004 -0.5927 -1.1315 -1.6054
 5179SOL    HW227171   0.065   0.572   8.074 -0.0068 -0.7985  0.6532
 5180SOL     OW27172   2.527   1.610   8.253  0.1223  0.5769  0.7447
 5180SOL    HW127173   2.503   1.579   8.341 -0.6456 -1.9894 -0.3749
 5180SOL    HW227174   2.440   1.647   8.237  0.2449  1.1027  1.2792
 5181SOL     OW27175   1.110   3.940  12.052 -0.0207  0.2409  0.2313
 5181SOL    HW127176   1.078   3.851  12.057 -1.4220  0.8025  1.2402
 5181SOL    HW227177   1.129   3.948  11.958  0.8424  0.8203  0.4497
 5182SOL     OW27178   3.025   3.604  12.246  0.6244  0.5442  0.0663
 5182SOL    HW127179   3.116   3.575  12.247  1.0533  1.8940  0.1436
 5182SOL    HW227180   2.977   3.537  12.199  1.2174 -1.0562  1.7428
 5183SOL     OW27181   0.421   2.965   5.384  0.4988 -0.7184  0.3689
 5183SOL    HW127182   0.398   2.997   5.297  2.0741  0.7232  0.4747
 5183SOL    HW227183   0.507   2.931   5.361  0.9656  1.7116 -1.5038
 5184SOL     OW27184   4.225   0.056  15.655 -0.0241  0.1949  0.1439
 5184SOL    HW127185   4.319   0.067  15.639 -0.0172  1.4703  1.0284
 5184SOL    HW227186   4.226   4.726  15.724  0.5641  1.2998  1.1843
 5185SOL     OW27187   3.555   0.359   6.576 -0.0039  0.1618  0.3411
 5185SOL    HW127188   3.527   0.319   6.659  2.4187 -0.6410  0.7606
 5185SOL    HW227189   3.615   0.424   6.613  0.0790 -0.3373  1.0849
 5186SOL     OW27190   3.546   1.219  10.301  0.0322  0.0700  0.5679
 5186SOL    HW127191   3.592   1.149  10.255  0.8904  0.9407  0.0980
 5186SOL    HW227192   3.465   1.180  10.266  1.5491  0.1769 -3.0734
 5187SOL     OW27193   4.545   2.993   5.910  0.3482 -0.3831 -0.0024
 5187SOL    HW127194   4.453   2.976   5.894  0.0372 -0.3340  1.7542
 5187SOL    HW227195   4.586   2.942   5.840  0.9034  0.6841 -0.4645
 5188SOL     OW27196   0.218   0.117   7.015  0.4358 -0.3317 -0.5514
 5188SOL    HW127197   0.149   0.088   6.955  1.0193  0.4535 -1.6100
 5188SOL    HW227198   0.246   0.035   7.055 -1.3386 -0.9425 -0.5729
 5189SOL     OW27199   1.547   3.517   9.219 -0.1903  0.1155 -0.1488
 5189SOL    HW127200   1.456   3.547   9.226 -1.2987 -3.2450 -0.0187
 5189SOL    HW227201   1.538   3.422   9.218 -0.7079  0.1363  2.2897
 5190SOL     OW27202   0.431   1.197  12.915  0.7377 -0.2815 -0.0672
 5190SOL    HW127203   0.345   1.207  12.874  1.4453  0.7095 -1.2992
 5190SOL    HW227204   0.402   1.213  13.004  1.9948  2.3296 -0.1204
 5191SOL     OW27205   3.806   2.583   6.175 -0.3274 -0.3137  0.3906
 5191SOL    HW127206   3.776   2.510   6.228 -0.5447 -0.5350 -0.0389
 5191SOL    HW227207   3.758   2.654   6.219  1.1581  0.0723  1.4015
 5192SOL     OW27208   0.249   4.628   5.578  0.3470 -0.4765 -0.0820
 5192SOL    HW127209   0.164   4.585   5.581 -1.3781  2.9108 -0.5820
 5192SOL    HW227210   0.242   4.720   5.605 -0.2895 -0.7380  0.6162
 5193SOL     OW27211   3.039   2.777   2.970 -0.3040 -0.0601  0.0113
 5193SOL    HW127212   2.963   2.818   3.012 -1.0785 -0.2815 -1.1698
 5193SOL    HW227213   3.012   2.686   2.959 -0.4950  0.0640 -0.5434
 5194SOL     OW27214   2.421   2.782   6.262 -0.3165  0.3962  0.0327
 5194SOL    HW127215   2.378   2.706   6.302 -1.0447  0.2835 -0.9851
 5194SOL    HW227216   2.505   2.747   6.231  0.0075  0.7776  0.4766
 5195SOL     OW27217   2.907   0.792   7.962  0.5084 -0.3064  0.7983
 5195SOL    HW127218   2.846   0.848   8.010 -0.1792  0.2556 -0.7239
 5195SOL    HW227219   2.885   0.701   7.981  1.1879 -1.0541 -2.0258
 5196SOL     OW27220   1.855   4.522   4.991 -0.8586  0.0480  0.4983
 5196SOL    HW127221   1.938   4.478   4.973  0.0505  1.3531  1.5445
 5196SOL    HW227222   1.806   4.449   5.030 -0.9355 -1.0337 -1.6398
 5197SOL     OW27223   2.528   0.118   8.272 -0.2007  0.3548  0.2660
 5197SOL    HW127224   2.510   0.027   8.249 -1.2091  0.5236  0.3900
 5197SOL    HW227225   2.487   0.124   8.359  1.9454 -0.3892  1.3131
 5198SOL     OW27226   0.398   1.004   4.533  0.0265 -0.1887 -0.0506
 5198SOL    HW127227   0.412   0.911   4.549 -3.1719  0.0595  4.0818
 5198SOL    HW227228   0.488   1.020   4.502  0.9129 -1.3439  1.9391
 5199SOL     OW27229   4.664   3.416   6.817 -0.2114 -0.3123  0.1586
 5199SOL    HW127230   4.631   3.337   6.859 -0.1564 -1.9033 -2.8136
 5199SOL    HW227231   0.024   3.411   6.821 -0.1478 -0.9542 -2.2588
 5200SOL     OW27232   4.213   1.514   9.041 -0.2294  1.0860  0.6056
 5200SOL    HW127233   4.281   1.458   9.080  0.3873  0.6340 -1.1339
 5200SOL    HW227234   4.126   1.479   9.059  0.5944 -0.1629  2.1583
 5201SOL     OW27235   2.746   0.883   1.769  0.0646  0.5998  0.4192
 5201SOL    HW127236   2.802   0.949   1.728  0.1983 -0.0633 -0.4702
 5201SOL    HW227237   2.803   0.841   1.833  0.8658  2.0480  0.6504
 5202SOL     OW27238   3.128   1.301   3.711  0.4661  0.0047 -0.0880
 5202SOL    HW127239   3.059   1.336   3.654 -1.7765  1.0472  3.2403
 5202SOL    HW227240   3.108   1.341   3.796 -0.7891  0.7931 -0.7490
 5203SOL     OW27241   4.000   1.240   0.956  0.0485  0.0802 -0.0775
 5203SOL    HW127242   4.002   1.335   0.944  2.9178  0.2089  1.4606
 5203SOL    HW227243   4.042   1.219   0.872 -1.5087 -2.1425 -0.2851
 5204SOL     OW27244   1.700   1.506   1.843 -0.5988 -0.4065 -0.6821
 5204SOL    HW127245   1.684   1.598   1.826  0.2490 -0.3394 -1.0691
 5204SOL    HW227246   1.726   1.513   1.935 -0.7914  0.7953 -0.7190
 5205SOL     OW27247   4.267   0.038  13.176  0.3409  0.0008  0.5268
 5205SOL    HW127248   4.271   4.680  13.199  2.7274  0.2920  1.3040
 5205SOL    HW227249   4.254   0.080  13.262 -0.5965 -3.1168  1.9290
 5206SOL     OW27250   3.783   0.764  16.382 -0.3926  0.2321  0.2056
 5206SOL    HW127251   3.833   0.803  16.454 -1.0314 -0.1310  0.8479
 5206SOL    HW227252   3.839   0.697  16.342 -1.0660 -0.3642  0.2573
 5207SOL     OW27253   0.817   4.103  16.947 -0.4313 -0.0318 -0.0037
 5207SOL    HW127254   0.819   4.181  16.891 -2.0588 -0.1697 -0.2675
 5207SOL    HW227255   0.896   4.117  16.999 -0.6908 -2.1654  0.9685
 5208SOL     OW27256   3.305   0.118   8.246 -0.1926 -0.0395 -0.2479
 5208SOL    HW127257   3.283   0.202   8.285  2.1491  1.2887 -1.8289
 5208SOL    HW227258   3.250   0.124   8.168  2.4312  0.2626 -2.0650
 5209SOL     OW27259   2.881   3.471   2.904 -0.0197 -0.3991  0.5201
 5209SOL    HW127260   2.935   3.469   2.983  3.3571  0.3970 -1.7456
 5209SOL    HW227261   2.864   3.379   2.886 -1.1975 -0.3267  1.3013
 5210SOL     OW27262   1.302   0.506   3.247 -0.5092 -0.0073 -0.7225
 5210SOL    HW127263   1.260   0.472   3.326  1.6570  0.1030  0.4760
 5210SOL    HW227264   1.315   0.422   3.204  0.8960  0.1632 -0.6453
 5211SOL     OW27265   2.742   4.094   4.123 -0.5911 -0.2889  0.4943
 5211SOL    HW127266   2.826   4.130   4.151 -0.3104 -0.3597 -0.2510
 5211SOL    HW227267   2.735   4.127   4.033 -0.9041 -1.5487  0.0606
 5212SOL     OW27268   2.135   0.921   0.792  0.7483 -0.4584 -0.2513
 5212SOL    HW127269   2.185   0.899   0.713 -0.3280 -2.3462 -0.4046
 5212SOL    HW227270   2.085   0.998   0.765 -2.7144 -2.5694  0.2618
 5213SOL     OW27271   4.386   1.690   0.252 -0.2826  0.9079  0.1714
 5213SOL    HW127272   4.455   1.728   0.308  0.5607  0.0923 -0.3189
 5213SOL    HW227273   4.313   1.735   0.294  0.0236 -1.0411  2.7833
 5214SOL     OW27274   1.376   1.617  12.355 -0.4809  0.6911 -0.4324
 5214SOL    HW127275   1.415   1.578  12.433 -1.7039  1.2641  0.4759
 5214SOL    HW227276   1.436   1.581  12.290  0.2497 -0.9080  1.1462
 5215SOL     OW27277   3.596   0.859  12.104 -0.3396  0.2049  0.2707
 5215SOL    HW127278   3.522   0.920  12.114 -0.2241  0.4524 -0.3796
 5215SOL    HW227279   3.589   0.822  12.192  1.5665 -0.0973  0.2843
 5216SOL     OW27280   0.116   3.002  13.365 -0.1458 -0.0589 -0.1868
 5216SOL    HW127281   0.044   2.941  13.346  1.5628 -2.7529  1.9954
 5216SOL    HW227282   0.073   3.088  13.367  0.4628  0.2715 -1.3115
 5217SOL     OW27283   1.725   1.793  17.024 -0.5149 -0.0453  0.3789
 5217SOL    HW127284   1.680   1.865  16.979 -1.7847 -1.3268 -0.3959
 5217SOL    HW227285   1.803   1.839  17.055  0.7694 -2.0169  0.0073
 5218SOL     OW27286   3.770   3.161   6.251  0.4471  0.5459 -0.1333
 5218SOL    HW127287   3.847   3.104   6.255 -1.7110 -2.2825  1.0118
 5218SOL    HW227288   3.714   3.120   6.186  0.6926  2.4112 -1.5231
 5219SOL     OW27289   2.136   1.911   9.288  0.3523  0.3197  0.5148
 5219SOL    HW127290   2.167   1.983   9.234 -0.2696  1.0580  1.1281
 5219SOL    HW227291   2.144   1.846   9.218 -1.0228  1.0466 -0.3176
 5220SOL     OW27292   2.613   3.244   4.075  0.2303  0.4476 -0.1767
 5220SOL    HW127293   2.694   3.259   4.026  0.0337  1.0201 -0.3352
 5220SOL    HW227294   2.632   3.185   4.148  0.3981  3.2351  2.0460
 5221SOL     OW27295   1.240   1.058  11.497  0.2071 -0.3553  0.7835
 5221SOL    HW127296   1.210   1.086  11.410 -3.2612 -0.1260  2.0490
 5221SOL    HW227297   1.285   0.980  11.464 -0.5502 -0.4376 -0.0605
 5222SOL     OW27298   3.764   3.802   3.409  0.1850  0.1949 -0.3700
 5222SOL    HW127299   3.671   3.810   3.391  0.3291 -1.9506 -2.0639
 5222SOL    HW227300   3.787   3.891   3.382  1.2575 -0.6933 -2.3986
 5223SOL     OW27301   4.132   4.483  16.384 -0.1192  0.2994 -0.1603
 5223SOL    HW127302   4.213   4.512  16.342 -0.3112 -1.1168 -1.5318
 5223SOL    HW227303   4.087   4.479  16.299 -0.5010  0.0536  0.0515
 5224SOL     OW27304   4.161   2.067   3.280 -0.0190 -0.0845 -0.0058
 5224SOL    HW127305   4.167   2.046   3.373 -1.0224 -1.8120 -0.3320
 5224SOL    HW227306   4.218   2.144   3.292 -1.3275  0.7603  0.7460
 5225SOL     OW27307   2.390   2.716  17.303  0.4722  0.1608 -0.2294
 5225SOL    HW127308   2.339   2.638  17.324 -0.9677  1.7235  2.1167
 5225SOL    HW227309   2.457   2.720  17.372 -0.3612  1.7439  0.4748
 5226SOL     OW27310   2.907   4.017  10.790 -0.1001  0.5713 -0.0958
 5226SOL    HW127311   2.826   3.982  10.751 -1.7888  2.3040  1.8624
 5226SOL    HW227312   2.956   4.063  10.722  1.6918 -0.0204  0.8184
 5227SOL     OW27313   4.334   3.129   1.287 -0.2972 -0.3702  0.3158
 5227SOL    HW127314   4.406   3.125   1.349 -0.0728 -1.6359 -0.0394
 5227SOL    HW227315   4.385   3.118   1.207  0.7809 -1.2767  1.1219
 5228SOL     OW27316   3.417   4.607  11.638 -0.1170 -0.5986  0.1316
 5228SOL    HW127317   3.335   4.635  11.597  0.1706 -0.7131 -0.5188
 5228SOL    HW227318   3.386   4.602  11.729  1.2505 -1.1972  0.5541
 5229SOL     OW27319   0.143   4.285   3.386 -0.2143 -0.2971 -0.1421
 5229SOL    HW127320   0.212   4.331   3.338 -1.1448  0.3455 -0.8427
 5229SOL    HW227321   0.176   4.304   3.474 -1.4897  1.7877 -0.1342
 5230SOL     OW27322   2.923   1.549   8.508  0.0417 -0.3273 -0.2425
 5230SOL    HW127323   2.980   1.475   8.485  1.9151  1.6514 -1.9678
 5230SOL    HW227324   2.885   1.512   8.588 -0.9347  1.3494  0.0552
 5231SOL     OW27325   3.417   2.614  11.805 -0.4467 -0.3009 -0.3311
 5231SOL    HW127326   3.397   2.552  11.875  2.0391  1.5273  1.9855
 5231SOL    HW227327   3.426   2.552  11.732  1.3181  1.2992 -1.4802
 5232SOL     OW27328   0.279   4.509  13.510  0.1825 -0.1619 -0.2894
 5232SOL    HW127329   0.280   4.593  13.556  1.5129 -0.4428  0.1784
 5232SOL    HW227330   0.218   4.530  13.439  1.4227 -1.6154 -1.7696
 5233SOL     OW27331   1.165   3.512   3.187  0.3298 -0.3516  0.1293
 5233SOL    HW127332   1.123   3.480   3.107  0.2865  2.3563 -0.9084
 5233SOL    HW227333   1.254   3.476   3.192  1.3188  2.0378 -0.3035
 5234SOL     OW27334   3.489   3.604   1.520 -0.4570 -0.2318 -0.2791
 5234SOL    HW127335   3.503   3.667   1.448  0.7765  0.2435  0.3722
 5234SOL    HW227336   3.539   3.645   1.590 -0.9234 -0.7089  0.3309
 5235SOL     OW27337   2.363   1.654   3.856  0.1280  0.0634 -0.4140
 5235SOL    HW127338   2.310   1.722   3.898  2.2725  1.0708  0.6081
 5235SOL    HW227339   2.350   1.686   3.767  0.9481 -2.2849 -1.3841
 5236SOL     OW27340   0.158   0.112   0.636  0.4669 -0.0075  0.2655
 5236SOL    HW127341   0.192   0.030   0.670 -1.2043 -1.1716 -0.8330
 5236SOL    HW227342   0.081   0.081   0.588  0.7418  0.9333 -0.7863
 5237SOL     OW27343   2.570   1.065   2.577 -0.4760 -0.4477 -0.3719
 5237SOL    HW127344   2.578   1.043   2.484 -0.1765  2.4502 -1.0273
 5237SOL    HW227345   2.624   1.001   2.623 -0.6515 -0.8391 -0.7089
 5238SOL     OW27346   1.886   1.187   3.648  0.2171 -0.4220  0.1047
 5238SOL    HW127347   1.916   1.244   3.578 -1.0976  2.7168  2.0686
 5238SOL    HW227348   1.927   1.103   3.631 -0.8906 -1.2439  1.4011
 5239SOL     OW27349   0.919   1.010  13.502  0.1358 -0.1598 -0.4209
 5239SOL    HW127350   0.957   0.937  13.551  2.0630  1.3114  0.2947
 5239SOL    HW227351   0.828   0.984  13.491  0.7276 -1.6618 -1.6781
 5240SOL     OW27352   2.496   0.016   1.969  0.6421 -0.5194 -0.0141
 5240SOL    HW127353   2.549   4.702   1.906  2.3164 -1.4594  2.1213
 5240SOL    HW227354   2.410   4.710   1.961 -0.1227  1.2255 -0.7916
 5241SOL     OW27355   4.683   3.199  11.787 -0.0314  0.0856 -0.2042
 5241SOL    HW127356   4.635   3.281  11.801  1.2409  0.4527  2.0010
 5241SOL    HW227357   4.608   3.140  11.798  0.5045 -0.0189  2.7623
 5242SOL     OW27358   4.312   3.671   3.542 -0.3403  0.2062  0.0896
 5242SOL    HW127359   4.258   3.612   3.595 -1.5908  1.4681  0.2265
 5242SOL    HW227360   4.243   3.720   3.497 -0.7840 -0.7381 -0.2464
 5243SOL     OW27361   4.716   0.885   7.493  0.5476  0.3619 -0.8016
 5243SOL    HW127362   0.002   0.951   7.558  1.2255 -1.3529  0.7192
 5243SOL    HW227363   4.624   0.875   7.517  0.9008  0.0182  0.4309
 5244SOL     OW27364   1.791   0.837   4.718  0.0866 -0.1166  0.2561
 5244SOL    HW127365   1.819   0.749   4.693 -0.2893 -0.9217  2.6637
 5244SOL    HW227366   1.696   0.838   4.710 -0.0673 -0.3986  2.0704
 5245SOL     OW27367   1.926   3.357   1.055  0.0184  0.0520  0.2568
 5245SOL    HW127368   1.870   3.349   1.132 -0.8980  0.9065 -0.3238
 5245SOL    HW227369   2.001   3.309   1.090  1.3540  0.3099 -2.2508
 5246SOL     OW27370   0.476   0.082  15.670  0.5562 -0.1039 -0.2639
 5246SOL    HW127371   0.400   0.138  15.687 -0.6482 -2.1288  1.0331
 5246SOL    HW227372   0.544   0.149  15.677 -0.9706  1.0799  2.9111
 5247SOL     OW27373   3.050   2.386   0.582  0.4178  0.3103  0.2552
 5247SOL    HW127374   3.043   2.416   0.673  0.5830 -0.3488  0.4857
 5247SOL    HW227375   3.014   2.459   0.532 -0.9363 -0.6639 -0.1937
 5248SOL     OW27376   0.535   3.837   2.165  0.0984  0.5793 -0.1263
 5248SOL    HW127377   0.595   3.898   2.124 -0.8152  1.1684 -0.6046
 5248SOL    HW227378   0.542   3.857   2.258  0.8356 -4.4836  0.9002
 5249SOL     OW27379   1.935   2.022   5.904  0.0191  0.1111 -0.5313
 5249SOL    HW127380   1.922   2.051   5.813  1.8978 -2.0703 -1.4981
 5249SOL    HW227381   1.849   1.988   5.928 -0.3924  1.0645 -0.6606
 5250SOL     OW27382   3.554   2.373   7.754 -0.3011 -0.1407  0.2215
 5250SOL    HW127383   3.631   2.377   7.698 -1.3457  0.5183 -1.1855
 5250SOL    HW227384   3.580   2.422   7.831 -1.4586 -0.3903  0.7735
 5251SOL     OW27385   2.321   1.261   6.956  0.1411  0.4939  0.3006
 5251SOL    HW127386   2.279   1.239   6.873  0.0324  0.0186  0.4855
 5251SOL    HW227387   2.410   1.228   6.942 -0.6879 -2.0443  1.0565
 5252SOL     OW27388   0.228   1.301   7.594 -0.2875  0.5991  0.7531
 5252SOL    HW127389   0.242   1.364   7.665 -0.0316 -0.3153  1.5085
 5252SOL    HW227390   0.242   1.358   7.519 -1.9918 -0.1049 -0.1055
 5253SOL     OW27391   3.225   3.133   0.609 -0.2978  0.0040  0.1600
 5253SOL    HW127392   3.164   3.193   0.566  0.6346  0.3521 -0.6783
 5253SOL    HW227393   3.229   3.174   0.695 -1.5104 -0.0311  0.2371
 5254SOL     OW27394   0.256   3.200   9.482 -0.0761 -0.2383  0.1816
 5254SOL    HW127395   0.222   3.290   9.490  0.9484  0.2429 -0.8547
 5254SOL    HW227396   0.301   3.192   9.566 -1.3006  0.5325  0.9218
 5255SOL     OW27397   2.710   0.636   4.869 -0.3779 -0.8124  0.5057
 5255SOL    HW127398   2.733   0.586   4.792  0.5801  0.7589 -0.2231
 5255SOL    HW227399   2.633   0.682   4.836 -0.5857 -1.6777 -0.2039
 5256SOL     OW27400   2.586   4.432  14.308 -0.1687 -0.0016  0.7021
 5256SOL    HW127401   2.507   4.432  14.362 -0.5159  0.9853  0.1974
 5256SOL    HW227402   2.619   4.343  14.318 -0.1903 -0.3160 -2.0215
 5257SOL     OW27403   2.641   0.574  17.150 -0.1962 -0.0182 -0.2218
 5257SOL    HW127404   2.553   0.543  17.129 -0.3382  0.7685 -0.7777
 5257SOL    HW227405   2.644   0.558  17.244  0.0209  3.6563  0.4051
 5258SOL     OW27406   0.891   2.325   9.166  0.3928 -0.1498  0.2108
 5258SOL    HW127407   0.924   2.413   9.147 -2.2232  0.2250 -2.6839
 5258SOL    HW227408   0.882   2.329   9.261 -0.8647  0.3030  0.0692
 5259SOL     OW27409   3.019   3.397   4.681  0.2671 -0.5729 -0.1214
 5259SOL    HW127410   2.979   3.482   4.695  1.6277  0.0851 -0.2031
 5259SOL    HW227411   3.065   3.418   4.600  1.3825 -1.2039  0.3339
 5260SOL     OW27412   0.017   0.543   1.998 -0.5247  0.0496 -0.2229
 5260SOL    HW127413   4.724   0.520   2.087 -1.0330 -0.6656 -0.5643
 5260SOL    HW227414   4.721   0.633   1.991  0.2860  0.3883  0.4337
 5261SOL     OW27415   3.723   1.305   2.333  0.0339  0.5630  0.2049
 5261SOL    HW127416   3.750   1.345   2.250  1.3002 -1.5642 -0.4114
 5261SOL    HW227417   3.628   1.299   2.325 -0.1050 -1.6038  3.5595
 5262SOL     OW27418   1.755   4.103   0.914  0.3626 -0.0272  0.3095
 5262SOL    HW127419   1.672   4.064   0.889  0.3806 -0.1955  0.5108
 5262SOL    HW227420   1.818   4.071   0.850  1.6012 -1.1444  2.0602
 5263SOL     OW27421   2.379   1.961  13.723 -0.0866 -0.1479  0.1087
 5263SOL    HW127422   2.331   1.933  13.800  1.1653 -1.8189  0.2794
 5263SOL    HW227423   2.373   2.056  13.731 -2.2076 -0.0681 -2.3395
 5264SOL     OW27424   2.505   2.221   4.297  0.0722 -0.3403  0.3044
 5264SOL    HW127425   2.491   2.260   4.384  0.1556  1.1702 -0.3528
 5264SOL    HW227426   2.539   2.135   4.320 -0.2616 -0.5266  0.1029
 5265SOL     OW27427   0.621   1.482   7.552  0.1302 -0.4513  0.0896
 5265SOL    HW127428   0.705   1.454   7.516  0.2580 -0.8783  0.7201
 5265SOL    HW227429   0.648   1.476   7.644 -1.4908 -2.0527  0.4716
 5266SOL     OW27430   4.687   1.411   8.470 -0.0608 -0.7803  0.1050
 5266SOL    HW127431   4.619   1.369   8.524 -0.7479  1.6603  1.1189
 5266SOL    HW227432   4.725   1.331   8.433  0.7225  0.5574 -1.9484
 5267SOL     OW27433   1.520   1.147   6.669  0.1842 -0.3739 -0.2896
 5267SOL    HW127434   1.555   1.148   6.581  0.5395 -0.9318 -0.1482
 5267SOL    HW227435   1.532   1.056   6.694  1.4195 -0.1802 -0.1729
 5268SOL     OW27436   1.386   1.846  13.723 -0.3252 -0.0738  0.3738
 5268SOL    HW127437   1.393   1.941  13.731  0.2820 -0.2217  1.5488
 5268SOL    HW227438   1.366   1.832  13.630 -0.9014  3.8899 -0.1250
 5269SOL     OW27439   1.003   1.293   1.028  0.3797 -0.0785 -0.6794
 5269SOL    HW127440   1.093   1.289   1.061  0.8266  0.0770 -1.8728
 5269SOL    HW227441   0.994   1.388   1.032 -2.3538 -0.3127 -1.2138
 5270SOL     OW27442   2.198   3.765  14.308 -0.3513  0.2341 -0.0081
 5270SOL    HW127443   2.224   3.834  14.369 -2.4246 -0.0355  1.1737
 5270SOL    HW227444   2.215   3.690  14.365 -0.2331  0.4891  0.2882
 5271SOL     OW27445   2.064   3.541   9.036 -0.1388  0.2604  0.0100
 5271SOL    HW127446   1.977   3.568   9.007 -0.1145  2.2533  1.7963
 5271SOL    HW227447   2.044   3.497   9.119 -1.7140  0.5523 -0.2085
 5272SOL     OW27448   3.946   4.195   4.030  0.5115 -0.7949  0.7921
 5272SOL    HW127449   3.857   4.229   4.031  0.3970 -1.1055  2.1582
 5272SOL    HW227450   4.004   4.266   4.060 -3.0544  2.8515 -0.9828
 5273SOL     OW27451   4.340   2.561   6.278  0.3196  0.1187 -0.9021
 5273SOL    HW127452   4.395   2.483   6.270  3.1153  1.8211  1.4839
 5273SOL    HW227453   4.322   2.597   6.191  1.6058 -2.0818 -2.0936
 5274SOL     OW27454   1.221   3.333  13.395  0.1350 -0.8672 -0.3361
 5274SOL    HW127455   1.254   3.407  13.445 -3.5594 -0.0977  0.9804
 5274SOL    HW227456   1.281   3.263  13.421 -0.5901 -1.4133 -0.1319
 5275SOL     OW27457   4.187   3.272  10.024  0.2061  0.0339 -0.5180
 5275SOL    HW127458   4.283   3.270  10.024  0.2198  0.8758 -0.1120
 5275SOL    HW227459   4.166   3.364  10.033  1.4891  0.1822  0.9825
 5276SOL     OW27460   2.669   3.489   4.976 -0.3871  0.2148 -0.0924
 5276SOL    HW127461   2.731   3.418   4.993  0.4606  1.4006  1.8737
 5276SOL    HW227462   2.596   3.472   5.036  0.1369  0.1488  0.5303
 5277SOL     OW27463   1.542   2.855   2.921  0.1533  0.3952 -0.2741
 5277SOL    HW127464   1.529   2.949   2.907  0.1922  0.2891 -1.0216
 5277SOL    HW227465   1.565   2.848   3.014  0.0935  0.9150 -0.2203
 5278SOL     OW27466   1.360   2.690  15.069  0.3214 -0.1800  0.3395
 5278SOL    HW127467   1.303   2.739  15.130 -0.8251 -2.4077  1.0504
 5278SOL    HW227468   1.337   2.732  14.986 -0.1564  2.3745  1.7635
 5279SOL     OW27469   2.274   1.820  13.167  0.6484 -0.0116 -0.1072
 5279SOL    HW127470   2.316   1.766  13.234  0.1233  0.1655  0.3622
 5279SOL    HW227471   2.299   1.906  13.200 -0.0987  0.8712 -1.8066
 5280SOL     OW27472   3.062   3.530  15.307  0.4779  0.3779 -0.3440
 5280SOL    HW127473   3.022   3.604  15.260 -2.6143 -1.6588 -0.8747
 5280SOL    HW227474   3.142   3.574  15.337 -0.2748  0.6896  1.1435
 5281SOL     OW27475   1.009   0.212   6.887  0.1323  0.3532  0.0510
 5281SOL    HW127476   0.980   0.125   6.914 -3.6189  1.4110 -0.5626
 5281SOL    HW227477   0.994   0.253   6.972 -0.5705 -1.0438  0.5940
 5282SOL     OW27478   3.959   0.009   5.985 -0.0204  0.3060  0.2232
 5282SOL    HW127479   4.015   0.086   5.983  0.7127 -0.2504 -0.7109
 5282SOL    HW227480   3.907   0.038   6.060 -0.2632 -0.4385  0.3469
 5283SOL     OW27481   3.716   2.600   4.471 -0.0426  0.2273 -0.1698
 5283SOL    HW127482   3.637   2.594   4.524 -1.0469  1.0749 -1.5906
 5283SOL    HW227483   3.784   2.560   4.526  0.6328  0.1154 -1.0798
 5284SOL     OW27484   4.595   1.553   1.949 -0.9707  0.0116  0.1551
 5284SOL    HW127485   4.654   1.622   1.918 -0.3894 -0.1954  0.8062
 5284SOL    HW227486   4.526   1.557   1.883  0.3831  0.8925 -1.2245
 5285SOL     OW27487   3.578   2.531   8.705 -0.3307 -0.2775  0.0361
 5285SOL    HW127488   3.545   2.493   8.786  0.4716 -1.7206 -0.3099
 5285SOL    HW227489   3.617   2.450   8.672  2.2198  1.2228 -0.6535
 5286SOL     OW27490   2.567   2.472   2.217 -0.0347  0.2994  0.4271
 5286SOL    HW127491   2.657   2.503   2.206  0.0946  0.2338  1.2668
 5286SOL    HW227492   2.582   2.391   2.266  1.2726 -0.5949 -1.4402
 5287SOL     OW27493   1.747   4.670   5.409  0.5613  0.0634 -0.0767
 5287SOL    HW127494   1.686   0.009   5.416 -2.2731 -2.2520 -0.4763
 5287SOL    HW227495   1.699   4.598   5.448 -0.7848  0.7504 -0.4469
 5288SOL     OW27496   3.358   2.064  14.317  0.4253  0.0622  0.0138
 5288SOL    HW127497   3.383   1.989  14.371 -0.1787  0.9970  1.5883
 5288SOL    HW227498   3.396   2.140  14.359  0.4643  1.1485 -1.9799
 5289SOL     OW27499   1.003   2.097   9.075 -0.3331  0.0922  0.1423
 5289SOL    HW127500   0.957   2.174   9.109  2.6724  2.3310 -0.8770
 5289SOL    HW227501   1.077   2.138   9.032 -1.9635  2.2186 -0.6576
 5290SOL     OW27502   1.392   1.036   3.864 -0.7334  0.0627 -0.5044
 5290SOL    HW127503   1.368   1.108   3.922  0.1051  0.1819 -0.3097
 5290SOL    HW227504   1.334   1.047   3.789 -0.2299  1.7142 -0.6478
 5291SOL     OW27505   0.611   4.139   3.527 -0.3914  0.3021 -0.6784
 5291SOL    HW127506   0.521   4.116   3.552  0.1135 -0.0986  0.7790
 5291SOL    HW227507   0.664   4.075   3.575 -1.0127  1.5436  1.6909
 5292SOL     OW27508   1.235   3.515   2.852  0.3423 -0.1999  0.5842
 5292SOL    HW127509   1.251   3.429   2.891 -1.0118 -0.5419  0.3917
 5292SOL    HW227510   1.143   3.521   2.876 -0.1935  0.5019 -1.5837
 5293SOL     OW27511   1.040   0.674   2.082  0.2036  0.4497 -0.0000
 5293SOL    HW127512   1.019   0.684   1.989  2.5991 -0.7859 -0.6595
 5293SOL    HW227513   1.135   0.678   2.078  0.2146  1.9573  1.5592
 5294SOL     OW27514   2.784   2.854  16.429  0.5244 -0.1410  0.0746
 5294SOL    HW127515   2.816   2.838  16.518  0.5238  0.0543  0.1086
 5294SOL    HW227516   2.740   2.938  16.437  1.2732  0.2275  0.3544
 5295SOL     OW27517   0.279   1.246   4.620 -0.1730  0.1886  0.4093
 5295SOL    HW127518   0.325   1.173   4.577  2.0632  1.7096  0.2305
 5295SOL    HW227519   0.186   1.227   4.606 -0.6195  2.8028 -0.0599
 5296SOL     OW27520   2.345   2.680   2.639  0.5352  0.6119  0.1959
 5296SOL    HW127521   2.297   2.708   2.561  0.6520  2.1790  0.6777
 5296SOL    HW227522   2.272   2.674   2.701 -0.2208 -0.1635 -0.7772
 5297SOL     OW27523   3.263   1.703   4.167 -0.5967 -0.1373  0.2680
 5297SOL    HW127524   3.348   1.662   4.151 -0.2825  1.0347 -1.0694
 5297SOL    HW227525   3.211   1.633   4.207 -0.7965 -0.2839 -0.2323
 5298SOL     OW27526   0.073   0.565  10.273  0.0867  0.9973 -0.0399
 5298SOL    HW127527   0.059   0.476  10.305 -2.1311  0.1367 -3.3722
 5298SOL    HW227528   0.167   0.584  10.283  0.7773 -1.5632 -1.6850
 5299SOL     OW27529   2.603   2.743   6.917 -0.1814  0.4194 -0.0643
 5299SOL    HW127530   2.588   2.678   6.848  2.0595 -0.3676  0.1836
 5299SOL    HW227531   2.666   2.695   6.972  2.7311  2.6228 -1.4811
 5300SOL     OW27532   2.190   0.874   5.512  0.0331  0.0155 -0.3673
 5300SOL    HW127533   2.225   0.785   5.507 -1.1312 -0.2614 -3.6198
 5300SOL    HW227534   2.105   0.866   5.555  0.0963  0.1957 -0.2078
 5301SOL     OW27535   4.283   4.375  17.642 -0.3732 -0.4605  0.1719
 5301SOL    HW127536   4.356   4.324  17.678 -0.4210 -1.5692 -1.3028
 5301SOL    HW227537   4.331   4.454  17.620 -0.5709 -0.2030  0.6607
 5302SOL     OW27538   1.529   4.670  12.154 -0.3494  0.0464 -0.5805
 5302SOL    HW127539   1.602   4.710  12.202 -1.3042  0.4280  0.5609
 5302SOL    HW227540   1.471   4.653  12.228 -1.2600  2.2006 -0.8224
 5303SOL     OW27541   3.228   2.571   8.599 -0.7560 -0.3564  0.2741
 5303SOL    HW127542   3.278   2.626   8.539  0.2803 -1.5017  0.0719
 5303SOL    HW227543   3.258   2.485   8.568 -2.6217 -0.3602 -1.5332
 5304SOL     OW27544   3.060   4.616   3.304 -0.0503 -0.0361  0.7445
 5304SOL    HW127545   3.089   4.573   3.385  3.2847 -0.5963 -0.7661
 5304SOL    HW227546   3.035   4.702   3.339  1.8440  0.9149 -0.2178
 5305SOL     OW27547   1.734   3.885   9.584  0.0801 -0.1532 -0.1787
 5305SOL    HW127548   1.657   3.847   9.541 -0.8731 -0.8136  2.0751
 5305SOL    HW227549   1.797   3.820   9.555  1.1150  0.1684  1.3319
 5306SOL     OW27550   2.996   0.163   2.227 -0.3512 -0.4378 -0.0847
 5306SOL    HW127551   2.940   0.199   2.159 -0.4201 -2.2194 -0.9649
 5306SOL    HW227552   2.931   0.172   2.297 -1.5902 -0.6631 -1.2070
 5307SOL     OW27553   4.681   3.388   5.729 -0.9086  0.3061  0.4453
 5307SOL    HW127554   0.039   3.389   5.748 -0.7905 -0.8703 -0.0454
 5307SOL    HW227555   4.645   3.391   5.817 -0.1326 -3.8984  0.9013
 5308SOL     OW27556   1.066   2.972   4.433 -0.1991 -0.3557 -0.3154
 5308SOL    HW127557   1.126   3.003   4.366  1.5774 -1.8219  0.5950
 5308SOL    HW227558   1.131   2.938   4.495  0.4876 -0.1111 -0.9085
 5309SOL     OW27559   1.977   2.303   7.803  0.0704  0.1288 -0.1576
 5309SOL    HW127560   2.031   2.241   7.753  0.4440  1.4428 -1.3841
 5309SOL    HW227561   2.035   2.378   7.815  0.8238 -0.4275 -0.2669
 5310SOL     OW27562   2.680   0.371   7.621 -0.2951 -0.3133  0.0563
 5310SOL    HW127563   2.674   0.398   7.712  2.5997  2.0715 -0.4604
 5310SOL    HW227564   2.679   0.277   7.642  0.3666 -0.7395 -1.8166
 5311SOL     OW27565   2.009   1.631   2.204  0.2149 -0.6006  0.4671
 5311SOL    HW127566   2.065   1.687   2.258 -1.9153  1.6873  0.2939
 5311SOL    HW227567   2.028   1.653   2.113  0.2450  0.3899  0.7030
 5312SOL     OW27568   1.536   1.681   6.613  0.3230 -0.5764 -0.2410
 5312SOL    HW127569   1.471   1.737   6.571 -0.1989 -2.3218 -1.7348
 5312SOL    HW227570   1.567   1.743   6.679  0.3600 -2.4455  1.5321
 5313SOL     OW27571   3.774   3.065   8.139 -0.0330  0.3028 -0.0121
 5313SOL    HW127572   3.805   3.155   8.148 -1.9934  1.1771 -2.0716
 5313SOL    HW227573   3.756   3.055   8.045  0.1364  2.0823 -0.2403
 5314SOL     OW27574   1.182   0.796  12.371 -0.4435 -0.1566 -0.2553
 5314SOL    HW127575   1.119   0.837  12.430 -0.7690  2.7481 -2.5765
 5314SOL    HW227576   1.152   0.823  12.284  1.1990  0.3226 -0.6723
 5315SOL     OW27577   0.048   3.366  14.283  0.7930  0.2498  0.2169
 5315SOL    HW127578   4.693   3.372  14.251  0.9697 -0.3830 -0.3802
 5315SOL    HW227579   0.077   3.412  14.205 -0.3565 -1.1454 -1.0234
 5316SOL     OW27580   4.719   2.451   8.161  0.5199  0.6533  0.0659
 5316SOL    HW127581   0.042   2.487   8.229 -1.1322  2.5180  0.5059
 5316SOL    HW227582   0.050   2.419   8.099  1.4947  0.2849  1.2845
 5317SOL     OW27583   0.155   3.895   9.913 -0.1449 -0.1517 -0.1451
 5317SOL    HW127584   0.064   3.907   9.885 -0.5935  1.6398  2.0475
 5317SOL    HW227585   0.149   3.966   9.976 -2.2751  0.6161 -1.2099
 5318SOL     OW27586   3.816   1.791   3.568 -0.1281  0.5653  0.4810
 5318SOL    HW127587   3.849   1.716   3.616 -0.3514 -1.2224 -2.1346
 5318SOL    HW227588   3.743   1.812   3.626 -0.6209  0.1103  0.0272
 5319SOL     OW27589   2.233   2.602   0.736  0.4239  0.3687  0.6525
 5319SOL    HW127590   2.232   2.636   0.826  0.9257  0.5435  0.5925
 5319SOL    HW227591   2.251   2.684   0.691  1.2994  0.6129  1.4435
 5320SOL     OW27592   3.200   1.997  15.441  0.2907 -0.2992 -0.3809
 5320SOL    HW127593   3.148   2.010  15.520 -0.7216 -1.6862 -0.8262
 5320SOL    HW227594   3.276   1.960  15.486 -0.2498 -0.8536  0.0705
 5321SOL     OW27595   3.279   0.183   2.996 -0.1804 -0.4351 -0.3933
 5321SOL    HW127596   3.272   0.088   3.004  3.4220 -0.7370 -0.5028
 5321SOL    HW227597   3.350   0.195   3.060  1.1530  0.4908 -2.0289
 5322SOL     OW27598   1.841   0.058  14.734  0.1089 -0.0522 -0.1107
 5322SOL    HW127599   1.904   0.031  14.802  0.6754  0.0207 -0.6095
 5322SOL    HW227600   1.788   4.714  14.728 -1.5413  1.1884 -1.6965
 5323SOL     OW27601   3.885   0.115  16.753  0.4364 -0.2186  0.0085
 5323SOL    HW127602   3.940   0.070  16.689 -0.6705 -0.3824 -0.8326
 5323SOL    HW227603   3.887   0.061  16.833 -1.7794  2.7756  2.0671
 5324SOL     OW27604   0.070   1.720  14.954 -0.6804  0.4842  0.2193
 5324SOL    HW127605   0.134   1.687  15.018 -1.9770 -0.2772  1.1100
 5324SOL    HW227606   0.114   1.796  14.917  0.3899  0.0973  0.6654
 5325SOL     OW27607   3.407   1.429  16.188  0.6501 -0.2817 -0.1402
 5325SOL    HW127608   3.318   1.393  16.191  0.3076  0.4158 -1.6049
 5325SOL    HW227609   3.454   1.394  16.263 -0.3823  1.3149  1.2686
 5326SOL     OW27610   3.007   3.685   8.181  0.2497 -0.0676 -0.3841
 5326SOL    HW127611   2.959   3.642   8.110  1.4183 -0.2477 -1.0636
 5326SOL    HW227612   3.077   3.623   8.201  2.0589  2.3779  0.8951
 5327SOL     OW27613   0.981   3.961   0.289 -0.8710  0.4350  0.1707
 5327SOL    HW127614   1.067   3.964   0.248 -2.1812 -0.7341 -2.7235
 5327SOL    HW227615   0.956   3.873   0.260 -0.3705 -0.6223  2.9971
 5328SOL     OW27616   2.352   4.484   3.694  0.1944 -0.0576 -0.0696
 5328SOL    HW127617   2.304   4.556   3.653 -0.5703 -0.1739  0.6294
 5328SOL    HW227618   2.377   4.524   3.777  0.6463 -0.4380 -0.0242
 5329SOL     OW27619   3.880   3.339   5.919 -0.0465 -0.1945  0.0959
 5329SOL    HW127620   3.929   3.263   5.951  0.4939 -0.0005 -0.2683
 5329SOL    HW227621   3.792   3.307   5.896  0.8403 -2.7335  0.2219
 5330SOL     OW27622   3.653   4.026  16.883 -0.3711 -0.1407  0.2774
 5330SOL    HW127623   3.718   4.072  16.935  1.9336 -2.9097 -0.1337
 5330SOL    HW227624   3.699   3.999  16.803  2.2613  1.8859  1.0938
 5331SOL     OW27625   2.734   1.917   7.131 -0.8249  0.4271 -0.5444
 5331SOL    HW127626   2.787   1.996   7.135 -0.1408 -0.0713  0.2899
 5331SOL    HW227627   2.683   1.940   7.054  0.5422 -2.8458 -2.4570
 5332SOL     OW27628   3.261   3.449  12.225  0.4867  0.1230  0.6021
 5332SOL    HW127629   3.252   3.355  12.239  0.6813 -0.0642 -0.4901
 5332SOL    HW227630   3.320   3.451  12.150 -0.2726 -0.5666 -0.0209
 5333SOL     OW27631   1.037   2.296   4.154 -0.0741 -0.4197  0.0003
 5333SOL    HW127632   0.993   2.212   4.165 -0.5412  0.1476  2.4620
 5333SOL    HW227633   1.123   2.274   4.191  0.2012  1.5801  0.5627
 5334SOL     OW27634   1.363   2.337   2.711 -0.1322 -0.2167 -0.3433
 5334SOL    HW127635   1.331   2.310   2.625 -2.0574  0.4663  0.1641
 5334SOL    HW227636   1.447   2.378   2.689  1.0724 -2.7557 -0.5784
 5335SOL     OW27637   1.344   1.099  17.699 -0.2594  0.6977 -0.2278
 5335SOL    HW127638   1.424   1.052  17.721  0.3482  2.0494  0.5143
 5335SOL    HW227639   1.284   1.059   0.022 -0.6877  1.8365  0.0955
 5336SOL     OW27640   1.010   1.909  17.650  0.6789 -0.1765 -0.3163
 5336SOL    HW127641   1.104   1.907  17.629  0.6289 -1.0312 -0.4771
 5336SOL    HW227642   1.003   1.978  17.716 -1.7047 -0.0675 -0.6985
 5337SOL     OW27643   2.525   2.248   2.445 -0.5551  0.2310  0.4343
 5337SOL    HW127644   2.551   2.284   2.530  1.3741  1.5850 -0.7130
 5337SOL    HW227645   2.611   2.210   2.425  0.0149  1.0688  1.2849
 5338SOL     OW27646   0.244   2.222   2.512 -0.1385  0.1378  0.1257
 5338SOL    HW127647   0.165   2.201   2.462  0.1569 -0.8395  0.0678
 5338SOL    HW227648   0.296   2.142   2.503  1.8737  1.3211  1.1795
 5339SOL     OW27649   3.026   1.068  14.813  0.1625 -0.5374 -0.1475
 5339SOL    HW127650   2.980   1.055  14.896 -1.6086 -1.0293 -1.1860
 5339SOL    HW227651   3.106   1.019  14.830 -0.3630 -1.6590 -0.8476
 5340SOL     OW27652   3.646   0.717   1.627 -0.2468 -0.5992  0.8001
 5340SOL    HW127653   3.579   0.650   1.630 -1.5178  0.6040 -1.0497
 5340SOL    HW227654   3.715   0.650   1.625  0.2181 -0.0594 -1.2433
 5341SOL     OW27655   0.531   1.105   1.343  0.1917  0.5490 -0.3363
 5341SOL    HW127656   0.469   1.055   1.289 -1.2517  1.1536  0.7728
 5341SOL    HW227657   0.609   1.088   1.290  0.3851 -0.0674  0.1383
 5342SOL     OW27658   0.486   0.640   8.607 -0.3154  0.4783  0.0217
 5342SOL    HW127659   0.472   0.732   8.627 -0.1410  0.2599  1.1556
 5342SOL    HW227660   0.397   0.619   8.579  1.3481 -2.3118 -3.2763
 5343SOL     OW27661   3.115   0.032  17.239  0.2336 -0.3774 -0.0866
 5343SOL    HW127662   3.068   0.051  17.157 -0.4167  0.0308  0.3788
 5343SOL    HW227663   3.201   0.055  17.205  1.4141 -0.7585  2.6671
 5344SOL     OW27664   0.690   1.027  14.661 -0.4188 -0.6638  0.3403
 5344SOL    HW127665   0.648   1.094  14.608 -1.7754 -1.3990  0.5041
 5344SOL    HW227666   0.614   0.983  14.700 -0.7839  0.9434  1.4274
 5345SOL     OW27667   4.603   1.495  16.889 -0.1778  0.1541 -0.1568
 5345SOL    HW127668   4.654   1.418  16.864 -0.1753 -0.8341  2.8570
 5345SOL    HW227669   4.641   1.567  16.839  0.1176  1.2515  1.6744
 5346SOL     OW27670   0.599   0.603   1.300  0.9038 -0.0641 -0.0003
 5346SOL    HW127671   0.648   0.634   1.376  0.9547  3.2089 -1.3671
 5346SOL    HW227672   0.655   0.645   1.235 -0.4195  1.5545 -0.1185
 5347SOL     OW27673   2.438   3.148  16.156  0.4408  0.5642 -0.1864
 5347SOL    HW127674   2.376   3.108  16.094  1.0370  0.0849 -0.4751
 5347SOL    HW227675   2.381   3.183  16.224 -0.3434  0.7968 -0.9591
 5348SOL     OW27676   4.188   4.706   2.641  0.0179 -0.6699  0.1564
 5348SOL    HW127677   4.124   4.646   2.604  2.6334 -1.7304 -2.6549
 5348SOL    HW227678   4.204   0.035   2.572 -1.4320  1.5260  1.8404
 5349SOL     OW27679   3.980   2.679  16.413  0.1378 -0.3074 -0.2110
 5349SOL    HW127680   3.945   2.701  16.327 -1.8879  0.8615  0.9166
 5349SOL    HW227681   3.970   2.586  16.393  0.0324 -0.1259 -0.9800
 5350SOL     OW27682   2.015   3.099   7.738 -0.3017 -0.0529 -0.1082
 5350SOL    HW127683   2.002   3.159   7.811 -1.3331  0.6071 -0.8377
 5350SOL    HW227684   2.076   3.150   7.685  0.6509 -0.3351  0.7164
 5351SOL     OW27685   4.728   0.714   2.421  0.2635 -0.4772 -0.2070
 5351SOL    HW127686   4.669   0.638   2.424 -0.0986 -0.2112 -0.7902
 5351SOL    HW227687   4.683   0.779   2.474  0.4945 -0.1983 -0.3558
 5352SOL     OW27688   1.791   4.273   4.275 -0.1648  0.0004  0.3575
 5352SOL    HW127689   1.876   4.276   4.319  0.4720  2.7211 -1.0970
 5352SOL    HW227690   1.797   4.350   4.220 -0.4264 -0.9632 -1.0164
 5353SOL     OW27691   1.697   0.157   6.667 -0.3804  0.0280 -0.0056
 5353SOL    HW127692   1.643   0.080   6.652 -2.0386  1.0452  0.7997
 5353SOL    HW227693   1.650   0.222   6.615 -1.7422 -0.5907  0.4584
 5354SOL     OW27694   4.101   3.102   9.845  0.0925  0.0806  0.1900
 5354SOL    HW127695   4.178   3.084   9.791 -1.3277 -0.0164 -1.7871
 5354SOL    HW227696   4.130   3.174   9.901 -3.7671  1.7856  0.0344
 5355SOL     OW27697   2.747   2.569   3.347 -0.3582  0.3125  0.2879
 5355SOL    HW127698   2.780   2.480   3.343  1.1897  0.8761  0.6402
 5355SOL    HW227699   2.777   2.599   3.433  2.1688 -0.5338 -0.3117
 5356SOL     OW27700   3.793   0.772   4.860 -0.3104  0.1788 -0.1113
 5356SOL    HW127701   3.789   0.859   4.898 -2.9200  0.0452 -0.0960
 5356SOL    HW227702   3.741   0.777   4.780 -0.2152 -3.1867 -0.3922
 5357SOL     OW27703   1.681   4.376   7.654 -0.0477  0.3222 -0.0364
 5357SOL    HW127704   1.626   4.453   7.647  0.5266  0.7071 -0.3345
 5357SOL    HW227705   1.626   4.325   7.713  2.6929 -1.6302  0.8915
 5358SOL     OW27706   4.686   3.853   4.390 -0.3535  0.1181  0.6002
 5358SOL    HW127707   4.633   3.829   4.466  1.0666  1.2818  1.9660
 5358SOL    HW227708   0.033   3.810   4.414  0.8465  1.0994 -1.7923
 5359SOL     OW27709   4.029   3.986  12.320 -0.9539 -0.0808 -0.0273
 5359SOL    HW127710   4.045   3.916  12.256 -0.7985 -2.1161  2.2288
 5359SOL    HW227711   4.113   4.029  12.308 -1.6474  1.0928 -0.6138
 5360SOL     OW27712   0.823   1.343   1.902 -0.2358 -0.5400  0.2190
 5360SOL    HW127713   0.855   1.287   1.973 -3.0031 -2.7501 -0.2642
 5360SOL    HW227714   0.736   1.302   1.897 -0.5411  0.2182 -0.7152
 5361SOL     OW27715   1.365   2.145   9.656  0.3529  0.0294 -0.2381
 5361SOL    HW127716   1.438   2.099   9.615  0.2058 -1.9331  1.7393
 5361SOL    HW227717   1.412   2.226   9.678  1.1621  0.0708 -2.0918
 5362SOL     OW27718   1.694   4.639   2.118  0.3054 -1.0855  0.0865
 5362SOL    HW127719   1.685   4.622   2.211  1.8502  1.7362  0.7588
 5362SOL    HW227720   1.750   4.716   2.105 -1.5597  0.4853  1.3699
 5363SOL     OW27721   4.061   3.874   1.039 -0.3223  0.3093 -0.0398
 5363SOL    HW127722   4.044   3.870   1.133 -1.6821 -1.7303 -0.3801
 5363SOL    HW227723   4.095   3.786   1.025 -2.7891 -0.9285  1.5788
 5364SOL     OW27724   2.600   0.517   5.977  0.2643  0.0026  0.0331
 5364SOL    HW127725   2.507   0.514   5.956  0.5234  2.2351 -1.3547
 5364SOL    HW227726   2.607   0.483   6.067 -0.7481  0.5648  0.3203
 5365SOL     OW27727   4.395   1.584   5.850  0.4495 -0.3284 -0.1997
 5365SOL    HW127728   4.319   1.608   5.797 -0.6339 -1.3610  0.8955
 5365SOL    HW227729   4.411   1.495   5.817  0.2315 -0.0142 -1.1696
 5366SOL     OW27730   1.633   1.406   1.604  0.0106  0.7008  0.8281
 5366SOL    HW127731   1.679   1.429   1.685 -0.5869 -0.4763  1.5050
 5366SOL    HW227732   1.556   1.463   1.601 -0.2966  0.2535  0.1245
 5367SOL     OW27733   1.751   0.302   8.404 -0.2349  0.2665 -0.3930
 5367SOL    HW127734   1.834   0.350   8.404 -0.3545  0.4522 -3.1270
 5367SOL    HW227735   1.725   0.319   8.494  0.0723 -3.5518  0.4164
 5368SOL     OW27736   0.432   3.570   9.360 -0.0279 -0.0819 -0.6638
 5368SOL    HW127737   0.438   3.527   9.446  4.0618  2.4651  0.3426
 5368SOL    HW227738   0.506   3.631   9.357  0.1410 -0.3553 -2.2052
 5369SOL     OW27739   1.970   4.075   6.825  0.2017  0.3266 -0.0817
 5369SOL    HW127740   2.061   4.070   6.796 -1.0263 -0.5950 -3.7999
 5369SOL    HW227741   1.936   4.076   6.736 -0.5407  2.0709  0.2192
 5370SOL     OW27742   3.906   2.553   7.220  0.1685  0.0564  0.2408
 5370SOL    HW127743   3.910   2.458   7.234  0.3108 -0.2748 -2.2115
 5370SOL    HW227744   3.911   2.560   7.125 -0.1874 -1.7723  0.0790
 5371SOL     OW27745   1.541   0.094   4.835  0.5390 -0.1273  0.1046
 5371SOL    HW127746   1.615   0.148   4.863 -0.8641  1.2723  1.1049
 5371SOL    HW227747   1.569   0.012   4.876  0.8533 -0.7378 -1.3183
 5372SOL     OW27748   0.780   3.425  12.994 -0.0905 -0.3004 -0.3608
 5372SOL    HW127749   0.745   3.417  13.082  0.9887 -1.0561  0.0056
 5372SOL    HW227750   0.734   3.358  12.943  0.6011 -1.4400  0.4997
 5373SOL     OW27751   3.552   2.883   9.626  0.0770 -0.3540  0.1972
 5373SOL    HW127752   3.614   2.878   9.553  0.4994  0.7868  0.4738
 5373SOL    HW227753   3.596   2.838   9.698 -1.5765  2.0350  2.6607
 5374SOL     OW27754   1.478   1.909   8.086 -0.2079 -0.3682 -0.3313
 5374SOL    HW127755   1.563   1.947   8.062 -0.2408 -0.8183 -1.1326
 5374SOL    HW227756   1.490   1.832   8.031 -0.3381 -0.9769  0.4852
 5375SOL     OW27757   1.029   1.881  16.269 -0.2350 -0.0135  0.6148
 5375SOL    HW127758   0.937   1.878  16.241  0.2953  1.3663 -1.2656
 5375SOL    HW227759   1.077   1.918  16.194  2.3806 -2.5435  1.0602
 5376SOL     OW27760   1.402   4.717   8.301 -0.4890 -0.3109  0.1647
 5376SOL    HW127761   1.432   0.020   8.219 -0.2758  0.1870  0.4719
 5376SOL    HW227762   1.363   0.058   8.344 -3.2963 -1.5851 -0.1534
 5377SOL     OW27763   1.826   3.582  12.306  0.2765  0.7306 -0.1271
 5377SOL    HW127764   1.858   3.528  12.379 -1.6762  1.6825  1.4342
 5377SOL    HW227765   1.873   3.665  12.320  0.4620  1.1197 -3.0690
 5378SOL     OW27766   1.439   3.283   7.688  0.2118 -0.1819 -0.1453
 5378SOL    HW127767   1.525   3.286   7.647  0.1790 -0.4060 -0.2309
 5378SOL    HW227768   1.401   3.206   7.645 -1.0497 -0.0687  0.7742
 5379SOL     OW27769   0.999   3.719   8.724  0.3849  0.0216 -0.0725
 5379SOL    HW127770   0.944   3.796   8.738  0.0659 -0.1908 -0.1764
 5379SOL    HW227771   1.065   3.766   8.673  0.0017  0.9664  0.3050
 5380SOL     OW27772   2.337   2.714   8.595 -0.0928 -0.4130  0.2092
 5380SOL    HW127773   2.295   2.647   8.541 -2.3870  0.2864  1.1246
 5380SOL    HW227774   2.353   2.776   8.524  1.0305  0.3446  1.1316
 5381SOL     OW27775   4.545   0.539   8.615 -0.0643 -0.6011  0.7596
 5381SOL    HW127776   4.555   0.598   8.690 -4.1251  2.5575 -1.1855
 5381SOL    HW227777   4.487   0.471   8.648 -0.4652 -0.0684  1.1443
 5382SOL     OW27778   2.886   2.050   1.373  0.0003 -0.3220 -0.3862
 5382SOL    HW127779   2.966   2.085   1.412  0.3309  1.9044 -3.1162
 5382SOL    HW227780   2.906   1.958   1.355  0.1357 -1.0266  3.2745
 5383SOL     OW27781   4.249   0.165   3.234 -0.1755 -0.7002  0.1793
 5383SOL    HW127782   4.231   0.233   3.169  1.3482 -0.0651  0.4117
 5383SOL    HW227783   4.183   0.102   3.206  0.6060 -0.5806 -1.9233
 5384SOL     OW27784   1.943   1.895   1.766 -0.1368 -0.7862 -0.0230
 5384SOL    HW127785   1.979   1.920   1.681  2.4155 -1.6895  0.7939
 5384SOL    HW227786   1.939   1.976   1.816  1.1075 -0.5365 -0.3111
 5385SOL     OW27787   1.185   3.044  12.490  1.1060  0.2354 -0.2146
 5385SOL    HW127788   1.130   2.980  12.535  2.3827 -1.9735 -1.7920
 5385SOL    HW227789   1.241   3.060  12.565  2.1513 -0.0693 -0.9291
 5386SOL     OW27790   0.651   0.930  13.558  0.0021  0.1241 -0.6855
 5386SOL    HW127791   0.617   0.944  13.646 -0.6960  0.0938 -0.9567
 5386SOL    HW227792   0.625   0.840  13.542  2.4188 -0.6305 -0.4654
 5387SOL     OW27793   4.192   1.658   2.249  0.0153  0.3821  0.1342
 5387SOL    HW127794   4.214   1.736   2.300 -0.3744  0.4439  0.2027
 5387SOL    HW227795   4.214   1.585   2.307 -2.6294 -1.9841 -1.8605
 5388SOL     OW27796   3.827   4.024  10.471 -0.2754  0.0202  0.7748
 5388SOL    HW127797   3.802   4.003  10.561 -0.2141 -0.0744  0.7705
 5388SOL    HW227798   3.920   4.003  10.487 -0.4940 -0.6640  1.1742
 5389SOL     OW27799   1.761   4.188  10.101  0.6386  0.1635 -0.0980
 5389SOL    HW127800   1.684   4.175  10.046 -1.0112  0.2757  2.2130
 5389SOL    HW227801   1.839   4.163  10.051 -0.0814  0.0679 -1.1599
 5390SOL     OW27802   1.428   3.964   7.808 -0.7887  0.1200 -0.3048
 5390SOL    HW127803   1.393   3.881   7.841 -1.3001  0.9379  1.2059
 5390SOL    HW227804   1.521   3.958   7.833 -0.0302  1.7758 -2.8233
 5391SOL     OW27805   1.007   0.044   1.448 -0.3239 -0.3182 -0.7973
 5391SOL    HW127806   1.093   0.059   1.410 -0.3883  1.1352 -0.3618
 5391SOL    HW227807   0.968   4.723   1.380 -0.6187 -1.1183  0.0372
 5392SOL     OW27808   4.659   3.173  11.251  0.0685  0.0715 -0.0117
 5392SOL    HW127809   4.598   3.168  11.177 -0.4380  1.7152  0.2790
 5392SOL    HW227810   4.601   3.192  11.325 -0.2297 -2.5424  0.4031
 5393SOL     OW27811   0.098   4.060   7.724 -0.0969  0.0657 -0.0611
 5393SOL    HW127812   0.114   3.986   7.665 -1.3247 -0.3392  0.1232
 5393SOL    HW227813   0.009   4.046   7.755  0.2421 -0.3849  0.6966
 5394SOL     OW27814   2.800   3.997   6.248  0.4035  0.0197 -0.0713
 5394SOL    HW127815   2.865   4.067   6.239 -1.1939  1.4080 -1.0342
 5394SOL    HW227816   2.750   4.017   6.169  0.9207 -0.5395 -0.5344
 5395SOL     OW27817   2.947   3.668   4.675 -0.0210  0.1874 -0.5812
 5395SOL    HW127818   2.940   3.743   4.734  3.0894  1.0184 -1.2689
 5395SOL    HW227819   2.864   3.683   4.630  0.7890  1.3780 -1.6606
 5396SOL     OW27820   1.544   2.423   5.849 -0.1397  0.1822 -0.1297
 5396SOL    HW127821   1.449   2.425   5.839 -0.1586 -3.2259 -0.7119
 5396SOL    HW227822   1.561   2.389   5.936  3.7100 -0.8369 -1.2842
 5397SOL     OW27823   3.391   0.300   4.747  1.0752 -0.1981  0.2278
 5397SOL    HW127824   3.468   0.331   4.699 -0.6259  0.4818 -2.0870
 5397SOL    HW227825   3.373   0.213   4.711  2.0313 -0.0595 -0.5615
 5398SOL     OW27826   0.090   4.662  15.569 -0.3658  0.3694 -0.0518
 5398SOL    HW127827   0.136   4.587  15.606 -2.4735 -0.2020  1.3715
 5398SOL    HW227828   0.047   4.687  15.651 -0.6079  0.1888 -0.1242
 5399SOL     OW27829   1.626   4.411  16.683 -0.1380 -0.1238 -0.7674
 5399SOL    HW127830   1.720   4.410  16.702 -0.0004  0.2191 -1.4305
 5399SOL    HW227831   1.601   4.416  16.776  0.2992 -1.0356 -0.6021
 5400SOL     OW27832   4.658   2.413   6.892  0.5907  0.3665  0.8030
 5400SOL    HW127833   4.656   2.501   6.856 -0.9303  0.1239  0.2901
 5400SOL    HW227834   4.632   2.430   6.983  0.4058 -1.8111  1.1575
 5401SOL     OW27835   4.552   2.009   8.167 -0.3548  0.6075 -0.6108
 5401SOL    HW127836   4.529   2.093   8.126 -1.6176  0.8025  0.4701
 5401SOL    HW227837   4.500   2.015   8.247 -1.9717  0.0069 -1.5951
 5402SOL     OW27838   2.651   0.322   0.743 -0.4469 -0.0816 -0.0486
 5402SOL    HW127839   2.588   0.392   0.754  1.1800  1.3725  0.0255
 5402SOL    HW227840   2.734   0.370   0.735 -0.1050 -0.3772  1.7615
 5403SOL     OW27841   3.054   2.433  16.476 -0.0738  0.2473 -0.0632
 5403SOL    HW127842   2.966   2.430  16.514  1.0043  1.5637  2.4850
 5403SOL    HW227843   3.059   2.520  16.435 -0.0031 -0.4673 -1.5972
 5404SOL     OW27844   1.489   2.928   8.098 -0.2545  0.1530  0.1036
 5404SOL    HW127845   1.444   2.980   8.165  3.8865  2.3924  1.1245
 5404SOL    HW227846   1.527   2.861   8.154  0.7491 -0.4449 -1.3058
 5405SOL     OW27847   2.403   2.915   7.751 -0.2266  0.1069 -0.3209
 5405SOL    HW127848   2.457   2.919   7.830 -0.0114 -1.8560 -0.3747
 5405SOL    HW227849   2.455   2.849   7.705  0.7195  1.3457 -1.0553
 5406SOL     OW27850   3.141   0.105   6.164 -0.3604  0.0547 -0.3582
 5406SOL    HW127851   3.170   0.036   6.223 -0.3385 -0.0493 -0.4915
 5406SOL    HW227852   3.092   0.061   6.094 -0.5016 -1.4597  0.7008
 5407SOL     OW27853   1.966   0.146  14.489 -0.6032 -0.3504 -0.0782
 5407SOL    HW127854   1.928   0.114  14.571 -0.8215  0.8468  0.2812
 5407SOL    HW227855   2.011   0.227  14.513  1.8879 -2.3683  2.1892
 5408SOL     OW27856   1.586   2.926   7.594 -0.0569 -0.2364  0.5051
 5408SOL    HW127857   1.679   2.943   7.583 -0.7499  1.6713 -2.1311
 5408SOL    HW227858   1.576   2.927   7.690 -2.1935  1.0776  0.2633
 5409SOL     OW27859   2.799   4.486   6.423 -0.0052  0.2489  0.2218
 5409SOL    HW127860   2.716   4.442   6.444  1.3830 -1.6598  1.6360
 5409SOL    HW227861   2.794   4.464   6.330 -0.1920 -1.0279  0.5310
 5410SOL     OW27862   3.872   1.665  10.843  0.5339  0.3792 -0.6201
 5410SOL    HW127863   3.886   1.571  10.836  2.6986  0.7838 -1.8073
 5410SOL    HW227864   3.958   1.685  10.880 -0.2479  2.8083 -0.0919
 5411SOL     OW27865   2.233   1.490   8.925  0.0323 -0.1614  0.3075
 5411SOL    HW127866   2.325   1.515   8.920  0.6239 -2.7698 -2.2995
 5411SOL    HW227867   2.236   1.459   9.015  0.4104  3.2554  1.4682
 5412SOL     OW27868   3.235   3.668   8.821  0.5190  0.5260  0.2005
 5412SOL    HW127869   3.330   3.662   8.813  0.5198  2.4687 -1.3828
 5412SOL    HW227870   3.207   3.578   8.807 -3.4970  1.9441 -1.0606
 5413SOL     OW27871   4.370   0.173   9.435 -0.6320  0.1055  0.5277
 5413SOL    HW127872   4.455   0.136   9.458 -0.9238  0.0888  1.5728
 5413SOL    HW227873   4.388   0.261   9.401 -3.0293  1.0289  1.6942
 5414SOL     OW27874   2.295   3.209   1.951  0.1561 -0.4144  0.4654
 5414SOL    HW127875   2.333   3.127   1.983 -2.6486 -1.6228  0.6832
 5414SOL    HW227876   2.201   3.197   1.959  0.4594 -1.6212  2.2079
 5415SOL     OW27877   4.458   1.487   3.479 -0.9381 -0.1552  0.1455
 5415SOL    HW127878   4.503   1.408   3.448  0.9768  0.5427  1.1853
 5415SOL    HW227879   4.430   1.528   3.397 -0.5157 -0.2874 -0.0657
 5416SOL     OW27880   3.616   1.723   1.098 -0.1645  0.1454  0.1572
 5416SOL    HW127881   3.553   1.656   1.124 -1.3421  1.3665  0.4940
 5416SOL    HW227882   3.565   1.775   1.036 -2.0901  0.3521  1.9112
 5417SOL     OW27883   1.308   2.251   4.220 -0.2593  0.1406  0.2953
 5417SOL    HW127884   1.319   2.167   4.175  1.6746  0.9753 -0.7637
 5417SOL    HW227885   1.388   2.248   4.272 -0.5102  0.4534  0.6966
 5418SOL     OW27886   2.772   0.345  13.654 -0.5059 -0.0854 -0.1308
 5418SOL    HW127887   2.841   0.341  13.588  0.9890 -1.2161  1.4830
 5418SOL    HW227888   2.797   0.420  13.707  0.1506  1.8178 -3.1231
 5419SOL     OW27889   4.204   2.615   3.545 -0.1954 -0.0949  0.2550
 5419SOL    HW127890   4.290   2.619   3.587  0.0401  3.2741 -0.5420
 5419SOL    HW227891   4.198   2.697   3.497  1.5905  0.7243  1.4339
 5420SOL     OW27892   2.620   1.939   6.878 -0.3539 -0.0175 -0.2184
 5420SOL    HW127893   2.581   1.857   6.847 -3.1998  0.8979  0.9782
 5420SOL    HW227894   2.687   1.960   6.813  1.5373 -2.7169  0.8700
 5421SOL     OW27895   3.393   2.322   2.675  0.2522 -0.1368  0.2015
 5421SOL    HW127896   3.401   2.411   2.710  3.7403  0.0783 -1.1476
 5421SOL    HW227897   3.449   2.272   2.734 -1.7327 -0.4985  1.7583
 5422SOL     OW27898   1.886   4.667   0.432  0.2299 -0.0453 -0.8122
 5422SOL    HW127899   1.799   4.648   0.397 -0.4285  0.9742  0.2858
 5422SOL    HW227900   1.909   4.586   0.478  1.1171 -0.1894 -1.5098
 5423SOL     OW27901   1.535   3.237   9.345  0.4539  0.2500  0.3097
 5423SOL    HW127902   1.624   3.219   9.315 -0.8102 -3.7153 -1.0260
 5423SOL    HW227903   1.498   3.218   9.259  1.9355 -1.3083  0.0064
 5424SOL     OW27904   3.693   2.102   6.483  0.0547 -0.0479 -0.3675
 5424SOL    HW127905   3.699   2.049   6.404 -0.2258  0.6875 -0.8766
 5424SOL    HW227906   3.599   2.120   6.480  0.3749  1.4055 -1.7206
 5425SOL     OW27907   2.357   0.404   3.362  0.4765 -0.3978 -0.6247
 5425SOL    HW127908   2.420   0.405   3.434  0.7586 -0.3735 -0.8718
 5425SOL    HW227909   2.326   0.313   3.367 -0.0589 -0.0769  1.8236
 5426SOL     OW27910   4.505   0.606   0.561 -0.2540  0.4374  0.1683
 5426SOL    HW127911   4.454   0.684   0.540  0.9299  1.3212  0.5722
 5426SOL    HW227912   4.505   0.572   0.472  2.1747  4.3553 -1.2864
 5427SOL     OW27913   4.638   0.710   5.470 -1.1544  0.1427  0.1303
 5427SOL    HW127914   4.601   0.685   5.384  1.6257  0.5388 -1.1743
 5427SOL    HW227915   4.562   0.753   5.508  0.2453  1.1677  1.7214
 5428SOL     OW27916   2.291   4.003  12.891 -0.1262  0.3200 -0.0510
 5428SOL    HW127917   2.205   4.021  12.931 -0.8135 -0.4845 -1.1695
 5428SOL    HW227918   2.346   4.040  12.960  0.5271  0.4784 -0.6575
 5429SOL     OW27919   3.363   1.029  17.094 -0.4267 -0.2661  0.2442
 5429SOL    HW127920   3.371   1.101  17.157  0.2936 -0.0745 -0.0715
 5429SOL    HW227921   3.304   0.966  17.137  1.0042 -2.1558 -0.5897
 5430SOL     OW27922   4.546   1.808   5.987  0.0788  0.9601 -0.3950
 5430SOL    HW127923   4.498   1.730   5.960  2.3428 -0.7998  0.6081
 5430SOL    HW227924   4.496   1.825   6.067 -1.6167 -0.0849 -1.2451
 5431SOL     OW27925   1.424   0.030   9.661 -0.0442  0.1554  0.1954
 5431SOL    HW127926   1.473   0.046   9.581  1.5641 -0.6169  1.0183
 5431SOL    HW227927   1.476   0.081   9.723 -1.2149  3.7835 -1.8154
 5432SOL     OW27928   1.524   1.792  17.716  0.0387 -0.1233  0.2667
 5432SOL    HW127929   1.598   1.780  17.657 -2.1399 -0.6938 -2.3611
 5432SOL    HW227930   1.455   1.814  17.653  0.9052  2.5498  0.2269
 5433SOL     OW27931   4.698   3.645   3.327 -0.0685  0.6155  0.5719
 5433SOL    HW127932   0.035   3.660   3.267  2.0084 -0.0430  2.9216
 5433SOL    HW227933   4.652   3.730   3.325 -0.1357  0.5499 -0.5999
 5434SOL     OW27934   1.086   4.310   1.683 -0.2250  0.0593 -0.1555
 5434SOL    HW127935   1.086   4.307   1.778 -2.0813 -0.3787 -0.1654
 5434SOL    HW227936   1.008   4.363   1.665 -0.4918 -0.3833 -0.3005
 5435SOL     OW27937   1.916   2.126   5.618 -0.4826 -0.6122 -0.1825
 5435SOL    HW127938   1.882   2.207   5.655  0.5102 -0.4148  0.3143
 5435SOL    HW227939   2.006   2.152   5.599 -0.7458 -0.3004 -0.9953
 5436SOL     OW27940   2.867   4.590  17.602 -0.6236  0.0424  0.1399
 5436SOL    HW127941   2.831   4.624  17.520  0.0836  1.3094  0.3681
 5436SOL    HW227942   2.894   4.505  17.566 -0.9786 -0.0502  0.0918
 5437SOL     OW27943   3.815   2.106   9.063 -0.3487  0.6705  0.3097
 5437SOL    HW127944   3.736   2.149   9.096  0.4221  1.8786  0.5669
 5437SOL    HW227945   3.837   2.164   8.989 -1.2598 -0.4488 -0.8483
 5438SOL     OW27946   4.248   0.425   1.565 -0.0847 -0.5532  0.7555
 5438SOL    HW127947   4.341   0.425   1.543 -1.0245  0.5808 -3.3383
 5438SOL    HW227948   4.226   0.516   1.547 -1.1978 -0.7548  1.0439
 5439SOL     OW27949   1.049   3.886   0.688 -0.2148  0.1381  0.1538
 5439SOL    HW127950   1.013   3.827   0.754  1.5707 -1.1145  0.0117
 5439SOL    HW227951   1.026   3.830   0.614 -0.8669 -0.5926  0.9080
 5440SOL     OW27952   2.556   1.834   2.683 -0.0440  0.1017  0.0659
 5440SOL    HW127953   2.501   1.913   2.688  0.3848  0.5321 -2.1136
 5440SOL    HW227954   2.544   1.804   2.774  1.0091  0.0136  0.1740
 5441SOL     OW27955   1.117   1.379  14.522  0.0258 -0.1470  0.0772
 5441SOL    HW127956   1.107   1.340  14.435 -0.9031 -2.4486  1.1914
 5441SOL    HW227957   1.141   1.301  14.573 -1.4405  1.2388  2.8839
 5442SOL     OW27958   3.928   2.355   1.883  0.2453 -0.2614 -0.4729
 5442SOL    HW127959   3.891   2.302   1.953  0.3558  1.8491  1.1720
 5442SOL    HW227960   3.848   2.404   1.862  0.9219  1.2083  0.3992
 5443SOL     OW27961   0.113   3.219   8.581 -0.4330 -0.0900 -0.1578
 5443SOL    HW127962   0.063   3.167   8.517 -1.5935  2.9448 -1.7147
 5443SOL    HW227963   0.134   3.287   8.517 -0.9524  0.9886  0.8159
 5444SOL     OW27964   2.504   2.221   4.023 -0.4374 -0.1021 -0.7073
 5444SOL    HW127965   2.413   2.245   4.039 -0.5559 -0.1650 -1.2940
 5444SOL    HW227966   2.529   2.213   4.115 -3.3026  1.9343  0.2567
 5445SOL     OW27967   0.998   2.862  12.579 -0.4481  0.3698 -0.0668
 5445SOL    HW127968   0.964   2.891  12.665 -2.8191 -0.7498 -0.6274
 5445SOL    HW227969   0.939   2.788  12.569 -2.5655  1.7452  2.1201
 5446SOL     OW27970   4.143   3.047  11.703 -0.1077 -0.1136  0.7595
 5446SOL    HW127971   4.060   3.019  11.742  0.7602 -1.2561  1.7810
 5446SOL    HW227972   4.129   3.132  11.660  1.6341 -0.8162 -1.1996
 5447SOL     OW27973   2.133   3.974  14.110  0.2329 -0.1606 -0.3759
 5447SOL    HW127974   2.149   3.919  14.187  0.9553  2.3229  1.2211
 5447SOL    HW227975   2.195   3.936  14.048  1.7402  2.7519 -0.6246
 5448SOL     OW27976   2.194   4.136   8.463  0.4569  1.2476 -0.2642
 5448SOL    HW127977   2.113   4.102   8.425  1.4697 -0.6737 -0.6704
 5448SOL    HW227978   2.143   4.190   8.523  1.5343  0.9606  0.9139
 5449SOL     OW27979   1.921   2.860   8.343  0.2643 -0.4182 -0.4693
 5449SOL    HW127980   1.950   2.797   8.409  0.0229 -1.6657 -1.5591
 5449SOL    HW227981   1.829   2.877   8.361 -0.1721 -3.7787  0.3370
 5450SOL     OW27982   3.021   1.495  11.901 -0.4693  0.0157  0.7344
 5450SOL    HW127983   2.974   1.415  11.876  1.4652 -0.6597 -0.7660
 5450SOL    HW227984   3.051   1.488  11.992 -1.1750  2.1320  1.1091
 5451SOL     OW27985   1.225   1.214   0.711 -0.2732 -0.5424  0.3675
 5451SOL    HW127986   1.288   1.266   0.761  1.3159 -1.6294 -0.4804
 5451SOL    HW227987   1.171   1.286   0.679  1.7075  1.5970  1.8744
 5452SOL     OW27988   0.274   2.221   5.423 -0.1414 -0.2109 -0.1187
 5452SOL    HW127989   0.290   2.290   5.488  0.8010 -1.2842  0.7932
 5452SOL    HW227990   0.240   2.152   5.480 -1.2353  1.2016  0.9384
 5453SOL     OW27991   2.998   3.558   5.679 -1.1050  0.0099  0.1632
 5453SOL    HW127992   3.016   3.568   5.772  1.2846 -0.6609 -0.2295
 5453SOL    HW227993   3.011   3.463   5.679 -2.6717 -0.1984 -0.0084
 5454SOL     OW27994   4.210   1.235   9.415 -0.3686  0.3208 -0.1266
 5454SOL    HW127995   4.215   1.319   9.369 -0.2226  0.2644 -0.2145
 5454SOL    HW227996   4.177   1.273   9.497  0.2872  0.3092  0.1473
 5455SOL     OW27997   2.651   4.420   5.974 -0.1509 -0.2987  0.3131
 5455SOL    HW127998   2.637   4.444   5.883  0.0526 -1.7559 -0.1016
 5455SOL    HW227999   2.617   4.487   6.034 -0.1442 -0.4993  0.5417
 5456SOL     OW28000   4.347   0.248   7.237  0.4351 -0.1706  0.1301
 5456SOL    HW128001   4.377   0.181   7.175 -0.5905 -0.2813 -0.2340
 5456SOL    HW228002   4.391   0.225   7.319  1.3237 -1.7307 -0.7665
 5457SOL     OW28003   3.452   2.354   4.468 -0.6838 -0.1426  0.0112
 5457SOL    HW128004   3.382   2.291   4.457 -2.2948  1.6813 -0.2652
 5457SOL    HW228005   3.470   2.358   4.374 -3.2324  1.1030 -0.4319
 5458SOL     OW28006   3.664   1.584   8.502  0.1633  0.2884  0.0744
 5458SOL    HW128007   3.572   1.608   8.496  0.0729 -0.0865  0.0096
 5458SOL    HW228008   3.704   1.663   8.464  2.8872 -1.3908 -0.5990
 5459SOL     OW28009   3.706   4.412   6.102  0.7978 -1.2769 -0.2925
 5459SOL    HW128010   3.732   4.489   6.152  0.3928 -1.3437  0.0298
 5459SOL    HW228011   3.630   4.440   6.050  0.8288 -1.5526 -0.4899
 5460SOL     OW28012   3.301   2.167   8.141  0.0976  0.1761  0.0962
 5460SOL    HW128013   3.216   2.177   8.097  1.1668  0.0081 -1.9904
 5460SOL    HW228014   3.298   2.084   8.189 -2.4837  1.8963  2.8906
 5461SOL     OW28015   1.218   2.085   7.613 -0.0678  0.5950 -0.2217
 5461SOL    HW128016   1.260   2.133   7.541  1.6670 -0.2117  0.2675
 5461SOL    HW228017   1.138   2.135   7.630 -1.3148 -1.4095 -0.2845
 5462SOL     OW28018   4.352   3.964   4.373 -1.1375 -0.6944  0.1239
 5462SOL    HW128019   4.422   3.999   4.318 -0.9467 -0.7613  0.3289
 5462SOL    HW228020   4.300   4.043   4.388 -1.1399 -1.0978  2.1352
 5463SOL     OW28021   4.489   3.258   4.068 -0.3109  0.2652 -0.2060
 5463SOL    HW128022   4.567   3.313   4.056 -1.6445  2.2632  0.3621
 5463SOL    HW228023   4.524   3.168   4.065  1.4620  0.8805  1.7503
 5464SOL     OW28024   0.711   2.113   6.878  0.6510  0.3162  0.1645
 5464SOL    HW128025   0.629   2.158   6.858  1.5957  2.1073  0.3232
 5464SOL    HW228026   0.701   2.038   6.819 -0.4109  0.7039 -0.1342
 5465SOL     OW28027   2.627   3.145   8.002 -0.0458  0.6337  0.0702
 5465SOL    HW128028   2.705   3.090   8.000 -1.5234 -1.4353 -0.8730
 5465SOL    HW228029   2.558   3.078   7.997 -1.4868  2.2664 -2.0354
 5466SOL     OW28030   0.466   4.103   4.759 -0.0978 -0.4916  0.1668
 5466SOL    HW128031   0.508   4.018   4.771 -0.6435 -0.3645  2.9641
 5466SOL    HW228032   0.383   4.086   4.804  0.2910  0.4766  1.2585
 5467SOL     OW28033   4.561   3.490  11.273  0.3969 -0.1398  0.5100
 5467SOL    HW128034   4.630   3.520  11.214  0.5759 -0.2697  0.6532
 5467SOL    HW228035   4.622   3.464  11.342  0.8790 -1.6167 -0.4858
 5468SOL     OW28036   0.696   1.578   1.049  0.1306 -0.0821 -0.7319
 5468SOL    HW128037   0.676   1.671   1.060  0.4742 -0.2629  1.4156
 5468SOL    HW228038   0.791   1.580   1.043 -0.0005  1.8598 -2.1496
 5469SOL     OW28039   3.408   4.441   7.344  0.0990 -0.0184  0.1483
 5469SOL    HW128040   3.316   4.415   7.335  0.3578 -1.2811  1.1961
 5469SOL    HW228041   3.402   4.530   7.309 -2.0157  0.0808  0.7610
 5470SOL     OW28042   3.232   0.197   6.638 -0.1805 -0.3488 -0.5059
 5470SOL    HW128043   3.290   0.164   6.706  1.5470  1.8741 -0.8927
 5470SOL    HW228044   3.255   0.141   6.564  1.1162  0.0283 -0.4023
 5471SOL     OW28045   0.084   4.359  15.141  0.0510  0.0233 -0.3163
 5471SOL    HW128046   4.731   4.324  15.157 -0.0709  0.8126  0.7236
 5471SOL    HW228047   0.093   4.331  15.050 -0.1343  1.2166 -0.6939
 5472SOL     OW28048   1.059   4.527   8.005  0.0452  0.1447  0.3145
 5472SOL    HW128049   1.022   4.439   7.997 -0.1505  0.2055  0.5906
 5472SOL    HW228050   1.146   4.499   8.034  0.4027 -0.3823 -1.2517
 5473SOL     OW28051   2.300   3.569   2.518  0.3792 -0.0419  0.0406
 5473SOL    HW128052   2.371   3.624   2.487  0.0608  0.0531 -0.5326
 5473SOL    HW228053   2.240   3.574   2.443  0.7423 -1.2230 -0.3412
 5474SOL     OW28054   2.768   0.676  15.454 -0.1458 -0.3153  0.1825
 5474SOL    HW128055   2.678   0.666  15.483 -0.6632  0.8082 -1.0355
 5474SOL    HW228056   2.789   0.740  15.522 -0.6777 -0.1127  0.1538
 5475SOL     OW28057   1.773   3.178   6.759  0.4881  0.3899 -0.3134
 5475SOL    HW128058   1.841   3.151   6.821 -0.7881 -1.2695  0.3573
 5475SOL    HW228059   1.815   3.158   6.675  0.0039 -0.9815 -0.2197
 5476SOL     OW28060   3.898   3.867  17.180 -0.2452 -0.2689 -0.4807
 5476SOL    HW128061   3.940   3.880  17.265  0.0100  0.4070 -0.7107
 5476SOL    HW228062   3.880   3.959  17.161  0.2994 -0.1258 -0.2996
 5477SOL     OW28063   0.863   2.019   2.084 -0.4660  0.8255  0.4788
 5477SOL    HW128064   0.949   1.982   2.066 -1.3256  0.2690 -2.6310
 5477SOL    HW228065   0.819   1.989   2.005  1.6265 -2.8158  0.7138
 5478SOL     OW28066   0.113   2.950  16.094  0.3060  0.2597 -0.4000
 5478SOL    HW128067   0.104   2.893  16.018  0.4115 -0.2446 -0.0322
 5478SOL    HW228068   0.032   2.998  16.112  0.6930  0.7042  0.1548
 5479SOL     OW28069   3.183   0.992   8.578  0.1472 -0.4504 -0.3155
 5479SOL    HW128070   3.100   1.032   8.603  1.5156  1.6288  0.8730
 5479SOL    HW228071   3.237   0.998   8.656 -1.4958  1.1706  0.7024
 5480SOL     OW28072   0.429   4.043   6.087  0.1165 -0.1316 -0.4644
 5480SOL    HW128073   0.341   4.071   6.062  0.3064  1.0409  0.1838
 5480SOL    HW228074   0.477   4.055   6.006  0.9978  0.5589  0.1636
 5481SOL     OW28075   0.420   1.112   1.728  0.5069  0.3845  0.3407
 5481SOL    HW128076   0.336   1.123   1.772  0.2986 -1.0810  0.3006
 5481SOL    HW228077   0.403   1.184   1.667  0.3365 -0.3264 -0.4476
 5482SOL     OW28078   2.495   3.755  17.308 -0.8761 -0.2156  0.0485
 5482SOL    HW128079   2.412   3.709  17.319 -0.1152 -0.9164  3.0581
 5482SOL    HW228080   2.513   3.781  17.399 -1.3889 -1.9685  0.6631
 5483SOL     OW28081   2.589   1.309  17.107  0.2831 -0.9873 -0.1414
 5483SOL    HW128082   2.615   1.223  17.076 -0.9806 -1.6303  0.5915
 5483SOL    HW228083   2.495   1.304  17.125  0.5817 -0.1433  1.6816
 5484SOL     OW28084   0.612   0.265   3.453 -0.4479 -0.8034 -0.1373
 5484SOL    HW128085   0.610   0.203   3.380  0.4063 -0.4866 -0.4368
 5484SOL    HW228086   0.687   0.243   3.509  0.5916 -0.3576 -1.3338
 5485SOL     OW28087   1.615   4.404   5.357 -0.4121  0.0353  0.3370
 5485SOL    HW128088   1.686   4.344   5.381  0.1137 -0.2349 -1.9530
 5485SOL    HW228089   1.536   4.379   5.406  0.2630  0.0176  1.4118
 5486SOL     OW28090   0.794   4.592   3.510 -0.1363  0.1274 -0.2777
 5486SOL    HW128091   0.820   4.610   3.420 -0.5444 -1.8973 -0.7919
 5486SOL    HW228092   0.804   4.497   3.514  3.2151  0.3949 -2.1230
 5487SOL     OW28093   4.132   4.295   6.325 -0.1867 -0.0455 -0.0911
 5487SOL    HW128094   4.192   4.222   6.340  0.3618  0.4611  0.1549
 5487SOL    HW228095   4.147   4.320   6.234 -2.4141 -0.6608 -0.6250
 5488SOL     OW28096   4.161   3.403   9.727 -0.5154  0.0642 -0.2546
 5488SOL    HW128097   4.087   3.345   9.710 -0.4450  0.3035 -1.3508
 5488SOL    HW228098   4.181   3.366   9.813  0.8198 -1.0090 -1.0055
 5489SOL     OW28099   4.701   2.172   7.330  0.1283 -0.4114  0.1842
 5489SOL    HW128100   4.726   2.191   7.420 -1.0944  1.2061  0.1632
 5489SOL    HW228101   0.045   2.138   7.287  1.9953  1.5198  2.0914
 5490SOL     OW28102   0.669   3.057   3.321 -0.6061  0.2674 -0.1502
 5490SOL    HW128103   0.594   3.000   3.342 -1.4499  1.4953  0.2136
 5490SOL    HW228104   0.655   3.143   3.360 -0.6016 -0.2420  0.9714
 5491SOL     OW28105   0.769   3.354   5.641 -0.2670  0.7222  0.2146
 5491SOL    HW128106   0.789   3.447   5.655 -0.4701  0.8644 -0.3927
 5491SOL    HW228107   0.673   3.358   5.638 -0.2444  0.8634 -0.3784
 5492SOL     OW28108   4.418   1.974   5.248  0.7882  0.5099 -0.0651
 5492SOL    HW128109   4.370   2.017   5.177  0.8544 -1.6427 -1.4266
 5492SOL    HW228110   4.463   2.055   5.270  1.2082 -0.0859  1.2896
 5493SOL     OW28111   4.519   0.779  13.916 -0.2963 -0.0697  0.0445
 5493SOL    HW128112   4.432   0.797  13.952 -0.3302  0.3228 -0.2474
 5493SOL    HW228113   4.517   0.795  13.822 -0.1111  0.0791  0.0667
 5494SOL     OW28114   3.900   4.369   1.473  0.3473 -0.0282 -0.0588
 5494SOL    HW128115   3.821   4.345   1.425  0.9892 -4.0459  0.9192
 5494SOL    HW228116   3.927   4.454   1.436  2.0249 -0.0183  1.1401
 5495SOL     OW28117   0.021   4.291   5.895  0.5705  0.0297  0.4642
 5495SOL    HW128118   4.691   4.342   5.944 -0.0900 -2.2156  1.9184
 5495SOL    HW228119   0.063   4.358   5.841  1.3374 -0.3553  0.5891
 5496SOL     OW28120   1.743   1.949   7.584 -0.5984  0.1677  0.7157
 5496SOL    HW128121   1.757   1.878   7.647 -1.0679  1.3316  2.1375
 5496SOL    HW228122   1.671   1.914   7.532  0.8204  0.5387 -1.4991
 5497SOL     OW28123   0.363   0.331  17.328  0.3527  0.8982 -0.1949
 5497SOL    HW128124   0.395   0.381  17.253  0.5382  1.0952  0.0145
 5497SOL    HW228125   0.333   0.251  17.284  1.9421 -0.0245  0.3979
 5498SOL     OW28126   0.210   4.450  15.755  0.0034 -0.5948  0.0143
 5498SOL    HW128127   0.203   4.394  15.832  2.3123  0.3619  0.9414
 5498SOL    HW228128   0.224   4.385  15.686  0.2992  0.7369 -1.1828
 5499SOL     OW28129   1.155   2.000   2.020 -0.2913 -0.2727 -0.3352
 5499SOL    HW128130   1.143   1.917   2.067  1.9499  1.8073  3.9029
 5499SOL    HW228131   1.249   2.006   2.007  0.1475 -1.9794  2.1324
 5500SOL     OW28132   2.990   2.170   3.502 -0.0100  0.5115  0.2511
 5500SOL    HW128133   2.978   2.249   3.449  2.0976  0.1319 -0.7990
 5500SOL    HW228134   3.059   2.194   3.563  1.6057 -2.7057 -0.2921
 5501SOL     OW28135   3.088   2.266   2.915 -0.3172 -0.2911 -0.2640
 5501SOL    HW128136   3.094   2.205   2.988 -0.6948 -0.1738 -0.1342
 5501SOL    HW228137   3.090   2.213   2.835  0.5445 -1.8771  0.8231
 5502SOL     OW28138   2.960   3.713  17.156  0.5187 -0.0774  0.4463
 5502SOL    HW128139   2.896   3.783  17.150 -0.0455 -0.5945  0.3501
 5502SOL    HW228140   2.952   3.668  17.072  2.6311 -0.7149  0.5749
 5503SOL     OW28141   1.761   4.395  15.606  0.5893  0.8227 -0.3612
 5503SOL    HW128142   1.675   4.357  15.627  0.9609  0.8221  1.1147
 5503SOL    HW228143   1.751   4.484  15.640 -0.6738  0.2386  0.8145
 5504SOL     OW28144   0.314   3.778   7.627 -0.1272  0.9815 -0.7556
 5504SOL    HW128145   0.220   3.773   7.613  0.0881  1.6850 -2.4489
 5504SOL    HW228146   0.322   3.690   7.664 -3.8188  0.9808 -0.0002
 5505SOL     OW28147   4.423   0.842   5.549  0.1376 -0.0297 -0.2781
 5505SOL    HW128148   4.392   0.761   5.507 -1.1820 -0.4843  1.5858
 5505SOL    HW228149   4.369   0.843   5.628  1.1712 -0.0973  0.4244
 5506SOL     OW28150   1.704   2.301   3.064 -0.4074  0.1054 -0.4464
 5506SOL    HW128151   1.618   2.332   3.035 -0.3303  0.9883  0.2620
 5506SOL    HW228152   1.733   2.383   3.104  1.7242 -1.4522  1.1474
 5507SOL     OW28153   1.548   3.684   8.570 -0.7403  0.0844 -0.0834
 5507SOL    HW128154   1.524   3.698   8.661  1.7446 -0.2371  0.6314
 5507SOL    HW228155   1.576   3.775   8.562 -2.4243  0.4387 -1.7508
 5508SOL     OW28156   4.593   0.204   4.515  0.1886 -0.0511  0.3118
 5508SOL    HW128157   4.636   0.133   4.467  2.4071  1.8546 -0.5210
 5508SOL    HW228158   4.504   0.170   4.529  0.3947 -1.2461 -1.2677
 5509SOL     OW28159   1.665   2.035   8.457  0.4967 -0.4284  0.0943
 5509SOL    HW128160   1.676   2.086   8.377 -1.9998 -0.9163 -0.5768
 5509SOL    HW228161   1.707   1.952   8.434  0.8668 -0.4166  0.7303
 5510SOL     OW28162   1.086   1.200  10.217  1.0593 -0.2200  0.2705
 5510SOL    HW128163   1.147   1.271  10.200  0.7692  0.3261  1.4783
 5510SOL    HW228164   1.009   1.247  10.248  1.6904  2.6585 -2.6490
 5511SOL     OW28165   2.504   2.810   4.501  0.1048  0.5778 -0.2710
 5511SOL    HW128166   2.578   2.854   4.460 -0.9290  1.7029 -0.9230
 5511SOL    HW228167   2.512   2.718   4.477  2.8896  0.8769 -0.4188
 5512SOL     OW28168   2.587   3.047   7.341 -0.5058  0.1363  0.2623
 5512SOL    HW128169   2.582   3.140   7.319 -2.3063 -0.1172 -0.4267
 5512SOL    HW228170   2.500   3.029   7.377 -1.3827  0.3803 -1.7016
 5513SOL     OW28171   1.096   2.506   1.911 -0.0358  0.4766 -0.6111
 5513SOL    HW128172   1.159   2.478   1.845  1.0893 -1.3694  1.2369
 5513SOL    HW228173   1.045   2.425   1.913 -0.1592  0.5672  0.1789
 5514SOL     OW28174   2.611   1.275   9.196  0.0964 -0.0646 -0.0682
 5514SOL    HW128175   2.568   1.327   9.264 -0.8952  1.9202 -2.2137
 5514SOL    HW228176   2.693   1.250   9.239 -0.0825 -1.1091 -0.3142
 5515SOL     OW28177   3.480   0.835  12.818  0.1196  0.1718  0.0104
 5515SOL    HW128178   3.575   0.835  12.828 -0.2033  1.0681  3.0670
 5515SOL    HW228179   3.446   0.795  12.899  2.3888 -0.9636  0.4111
 5516SOL     OW28180   4.512   1.940  12.275  0.2131 -0.8399  0.2052
 5516SOL    HW128181   4.581   1.878  12.298 -0.4993 -0.5914  3.0131
 5516SOL    HW228182   4.478   1.970  12.359  3.3692  0.8190  0.8751
 5517SOL     OW28183   3.282   3.603   4.298  0.6229  0.0429  0.7130
 5517SOL    HW128184   3.365   3.566   4.325  0.4881 -1.4174 -0.8519
 5517SOL    HW228185   3.293   3.645   4.212  1.4159 -1.3615  0.1407
 5518SOL     OW28186   1.927   3.398   9.521  0.3437  0.2219  0.1598
 5518SOL    HW128187   1.938   3.457   9.596 -0.8146 -1.0848  1.3624
 5518SOL    HW228188   1.868   3.450   9.467 -0.2087 -3.2008 -2.5108
 5519SOL     OW28189   4.258   2.090   5.026 -0.3568  0.4736 -0.6874
 5519SOL    HW128190   4.251   2.172   4.978 -3.6882 -0.0323 -1.0665
 5519SOL    HW228191   4.167   2.060   5.023 -0.0429 -0.6550  1.1063
 5520SOL     OW28192   2.309   4.251   5.722 -0.2728  0.2658  0.4162
 5520SOL    HW128193   2.215   4.233   5.722 -0.4545  1.2701 -0.2795
 5520SOL    HW228194   2.336   4.193   5.794 -1.4523 -0.0281  0.6235
 5521SOL     OW28195   1.161   0.132   2.959  0.3451 -0.2396 -0.1672
 5521SOL    HW128196   1.194   0.042   2.961  0.7338 -0.1088 -0.8770
 5521SOL    HW228197   1.069   0.112   2.979  0.3751  0.1021  0.3160
 5522SOL     OW28198   2.910   2.099   5.348  0.0919 -0.0497  0.2186
 5522SOL    HW128199   2.870   2.074   5.265 -1.8537 -1.0490  1.4566
 5522SOL    HW228200   2.943   2.183   5.317 -0.0069 -0.0987 -0.0192
 5523SOL     OW28201   2.954   2.433  12.724  0.2894  0.2383  0.0383
 5523SOL    HW128202   2.957   2.419  12.818  1.8848  0.2118 -0.0253
 5523SOL    HW228203   2.873   2.385  12.704  0.4852  0.1088 -0.4427
 5524SOL     OW28204   0.940   2.661   5.808  0.0043  0.0411 -0.0139
 5524SOL    HW128205   1.020   2.707   5.832  1.6996 -1.4693 -2.7773
 5524SOL    HW228206   0.910   2.723   5.742  0.4881 -0.5692 -0.7959
 5525SOL     OW28207   2.795   1.399   8.720 -0.8625 -0.2704 -0.6155
 5525SOL    HW128208   2.726   1.423   8.781  1.6208  1.7886  1.3680
 5525SOL    HW228209   2.843   1.332   8.769  1.2027 -0.1429 -2.4658
 5526SOL     OW28210   0.461   2.064   4.117 -0.1390  0.0101  0.7179
 5526SOL    HW128211   0.496   1.976   4.133  1.2250  0.0135 -2.2397
 5526SOL    HW228212   0.529   2.099   4.060 -1.5180  0.3971 -0.6675
 5527SOL     OW28213   4.610   0.145   8.698 -0.3051  0.0754  0.5435
 5527SOL    HW128214   4.606   0.076   8.764 -0.8413 -2.1798 -1.8651
 5527SOL    HW228215   4.654   0.218   8.742 -3.2877  1.3440  1.3978
 5528SOL     OW28216   2.108   2.505   3.145  0.3189  0.0551 -0.0285
 5528SOL    HW128217   2.164   2.580   3.126 -0.6104  1.0236  1.0456
 5528SOL    HW228218   2.159   2.439   3.097 -0.0088 -0.3491  0.1784
 5529SOL     OW28219   0.121   0.259  14.106  0.2166  0.0452  0.5049
 5529SOL    HW128220   0.074   0.181  14.136  1.1538 -0.1608  1.4385
 5529SOL    HW228221   0.065   0.290  14.035 -1.3560 -2.0756  0.8273
 5530SOL     OW28222   0.485   2.830  12.781  0.8229  0.0788 -0.8838
 5530SOL    HW128223   0.413   2.768  12.768 -0.9260  2.0073 -0.5001
 5530SOL    HW228224   0.563   2.775  12.785 -1.1574 -2.7634 -1.2817
 5531SOL     OW28225   2.202   0.656   4.350 -0.2873 -0.1763  0.3754
 5531SOL    HW128226   2.271   0.679   4.287 -0.9888 -0.9974 -0.6768
 5531SOL    HW228227   2.131   0.716   4.328  1.3633  2.0988  1.1658
 5532SOL     OW28228   1.235   2.456  16.338  0.0707  0.0360 -0.2702
 5532SOL    HW128229   1.187   2.422  16.414 -1.1685 -0.3456 -1.2302
 5532SOL    HW228230   1.303   2.390  16.323  1.2336  0.5592  2.6930
 5533SOL     OW28231   0.079   0.883  13.465  0.4348 -0.0888  0.3015
 5533SOL    HW128232   0.170   0.873  13.495  0.4236  1.1305  0.7758
 5533SOL    HW228233   0.092   0.913  13.375  0.7041 -2.9601 -0.5896
 5534SOL     OW28234   0.156   3.833   3.268 -0.3327 -0.6144  0.5357
 5534SOL    HW128235   0.096   3.896   3.308 -3.0305 -1.7660 -1.6837
 5534SOL    HW228236   0.239   3.881   3.272 -1.4497  1.1456  2.5570
 5535SOL     OW28237   4.433   3.626   5.310 -0.0237  0.3805  0.4634
 5535SOL    HW128238   4.400   3.676   5.385 -1.2681  0.3438 -0.0510
 5535SOL    HW228239   4.376   3.548   5.314  3.5903 -2.3328 -0.8166
 5536SOL     OW28240   3.355   1.315  17.197  0.5162 -0.1080 -0.1063
 5536SOL    HW128241   3.288   1.383  17.197 -1.8713 -2.4431 -1.4760
 5536SOL    HW228242   3.407   1.344  17.271  0.3781 -1.5908  0.5610
 5537SOL     OW28243   0.837   0.391   0.002  0.2411 -0.2327  0.5295
 5537SOL    HW128244   0.841   0.303  17.703 -2.9763  0.3694 -1.2684
 5537SOL    HW228245   0.757   0.422  17.698  0.0550 -2.2910 -0.6367
 5538SOL     OW28246   2.806   1.649   6.852 -0.0277 -0.1881  0.2042
 5538SOL    HW128247   2.894   1.615   6.835 -0.6057 -0.7348 -1.7324
 5538SOL    HW228248   2.779   1.603   6.931 -1.1617  0.0211 -0.0543
 5539SOL     OW28249   0.177   1.032   1.435  0.1814 -0.0292  0.9011
 5539SOL    HW128250   0.224   1.058   1.355 -0.9240 -1.3805 -0.1901
 5539SOL    HW228251   0.197   0.939   1.447  2.2321  0.5813  2.2286
 5540SOL     OW28252   0.841   0.937   3.364 -0.2822 -0.5940  0.4324
 5540SOL    HW128253   0.856   0.861   3.420  0.9860 -0.3905  0.3485
 5540SOL    HW228254   0.834   1.015   3.419 -1.5132 -1.1192  1.0420
 5541SOL     OW28255   0.850   1.099   0.941  0.2717 -0.2651 -0.6316
 5541SOL    HW128256   0.927   1.151   0.961 -0.1156 -0.4231  1.2635
 5541SOL    HW228257   0.884   1.011   0.958  1.0333  0.2486  0.5215
 5542SOL     OW28258   4.257   0.301  14.614  0.9201 -0.0304  0.4375
 5542SOL    HW128259   4.325   0.271  14.676  1.7629 -0.0058 -0.4793
 5542SOL    HW228260   4.228   0.379  14.661  1.5865  0.0135  0.7767
 5543SOL     OW28261   4.116   3.799   3.395  0.0909  0.4017 -0.3731
 5543SOL    HW128262   4.082   3.862   3.458 -1.5650 -0.1614 -0.7209
 5543SOL    HW228263   4.050   3.815   3.328 -1.9506 -1.3313  1.2059
 5544SOL     OW28264   0.313   1.625   2.881 -0.0334  0.0669 -0.0786
 5544SOL    HW128265   0.353   1.611   2.967  2.9202  0.7798 -1.3482
 5544SOL    HW228266   0.220   1.624   2.903 -0.1969 -0.1647 -0.7793
 5545SOL     OW28267   3.131   1.359   2.139  0.0791 -0.1448 -0.3673
 5545SOL    HW128268   3.215   1.403   2.124  0.1191 -0.8132 -2.0962
 5545SOL    HW228269   3.094   1.408   2.212 -1.8944  0.6806 -1.9160
 5546SOL     OW28270   4.252   3.401   7.692  0.2150  0.0443 -0.4122
 5546SOL    HW128271   4.286   3.484   7.727 -0.5079 -0.2355  0.9629
 5546SOL    HW228272   4.311   3.381   7.620 -0.4122  0.6700 -1.0961
 5547SOL     OW28273   0.198   2.101   6.130 -0.1616  0.4506  0.5719
 5547SOL    HW128274   0.192   2.046   6.209 -1.1449 -0.5371 -0.2046
 5547SOL    HW228275   0.108   2.094   6.101  0.9365  0.0748 -2.7090
 5548SOL     OW28276   3.401   2.373  16.158 -0.3373  0.9434  0.4274
 5548SOL    HW128277   3.321   2.320  16.155  0.3873 -0.0533 -1.1036
 5548SOL    HW228278   3.362   2.458  16.139  1.1391  2.1310  2.7836
 5549SOL     OW28279   4.632   4.173   2.676 -0.3181 -0.0683 -0.0006
 5549SOL    HW128280   4.617   4.079   2.685 -0.5274  0.1969  2.4038
 5549SOL    HW228281   4.655   4.177   2.583  1.0672  1.4348  0.4137
 5550SOL     OW28282   0.562   0.664   6.600  0.0837  0.1222 -0.7697
 5550SOL    HW128283   0.550   0.652   6.694 -0.6995  2.1052 -0.6197
 5550SOL    HW228284   0.490   0.722   6.576 -0.9137 -0.0649  1.8077
 5551SOL     OW28285   1.971   0.629   8.126  0.7310  0.0905 -0.1856
 5551SOL    HW128286   1.909   0.561   8.152 -2.0466  2.2330 -1.1867
 5551SOL    HW228287   1.904   0.694   8.104  1.4113  0.7293 -0.3576
 5552SOL     OW28288   0.332   2.433   4.040 -0.4632  0.3639 -0.4417
 5552SOL    HW128289   0.292   2.478   3.966 -2.0083 -1.6830 -0.8485
 5552SOL    HW228290   0.385   2.366   3.996  2.4580  3.7748 -2.0698
 5553SOL     OW28291   1.684   3.848  11.993  0.4147 -0.1752  0.5233
 5553SOL    HW128292   1.665   3.793  11.917 -0.1697 -0.7069  1.0589
 5553SOL    HW228293   1.604   3.897  12.012 -0.5639 -1.5857 -0.0180
 5554SOL     OW28294   3.681   0.977   7.011 -0.0035 -0.1193  0.6211
 5554SOL    HW128295   3.668   0.977   7.106 -0.7313  1.5267  0.5159
 5554SOL    HW228296   3.775   0.993   7.012  0.0487 -0.4977  2.5247
 5555SOL     OW28297   1.444   3.907   6.756 -0.5669  0.0878  0.2583
 5555SOL    HW128298   1.389   3.980   6.786  0.3446  0.7413  0.3530
 5555SOL    HW228299   1.393   3.900   6.675  0.9026 -0.7581 -0.6027
 5556SOL     OW28300   1.354   0.396   7.713 -0.6129 -0.1215  0.2127
 5556SOL    HW128301   1.281   0.405   7.652  0.0141 -0.8312 -0.6518
 5556SOL    HW228302   1.399   0.479   7.697 -1.2735  0.3558  0.8649
 5557SOL     OW28303   3.377   1.813  14.169 -0.0849  0.2206 -0.4712
 5557SOL    HW128304   3.434   1.854  14.234 -2.3830  2.2239  0.2616
 5557SOL    HW228305   3.303   1.787  14.224  0.7188 -0.1558  0.4360
 5558SOL     OW28306   0.234   2.324  14.631  0.2731  1.1969 -0.3344
 5558SOL    HW128307   0.171   2.281  14.574  0.2596 -2.3505  2.3927
 5558SOL    HW228308   0.245   2.252  14.692 -4.3576  2.6318  2.1807
 5559SOL     OW28309   4.422   1.996   2.635  0.4004  0.0940  0.2613
 5559SOL    HW128310   4.405   1.989   2.541  0.2312  1.0401  0.2205
 5559SOL    HW228311   4.346   1.954   2.677  0.5059 -0.0007  0.3583
 5560SOL     OW28312   4.008   0.126   6.268 -0.5530 -0.0455 -0.1316
 5560SOL    HW128313   3.925   0.169   6.245 -0.5838 -0.0865 -0.0987
 5560SOL    HW228314   4.077   0.182   6.233 -0.9442  1.2192  1.1009
 5561SOL     OW28315   2.566   4.321   6.407 -0.0164  0.2040 -0.2736
 5561SOL    HW128316   2.545   4.230   6.427 -0.7287  0.8296  1.8750
 5561SOL    HW228317   2.509   4.336   6.331  0.1622 -0.2944 -0.5040
 5562SOL     OW28318   0.333   2.749   9.101  0.3502  0.1309 -0.5702
 5562SOL    HW128319   0.300   2.773   9.015 -1.7699  0.4602  0.3416
 5562SOL    HW228320   0.426   2.736   9.080 -0.4865 -4.5801 -1.2537
 5563SOL     OW28321   1.778   2.331   5.714  0.2337 -0.1842 -0.4347
 5563SOL    HW128322   1.699   2.366   5.673  1.4447 -1.1075 -3.5058
 5563SOL    HW228323   1.783   2.392   5.788  1.0287 -1.2592  0.4046
 5564SOL     OW28324   3.673   2.795  12.938 -0.7991 -0.2498  0.9244
 5564SOL    HW128325   3.705   2.885  12.928  0.4911 -0.6480  1.4384
 5564SOL    HW228326   3.644   2.780  12.848  0.2274 -0.5610  0.6389
 5565SOL     OW28327   3.231   1.712   4.974  0.3390 -0.0378 -0.3897
 5565SOL    HW128328   3.283   1.725   4.896 -2.0188 -0.8583 -2.1027
 5565SOL    HW228329   3.225   1.617   4.972 -0.1903 -0.0472  0.8577
 5566SOL     OW28330   1.567   2.485  15.115  0.3822  1.0088 -0.5041
 5566SOL    HW128331   1.520   2.417  15.068 -0.3595 -1.4998  3.8048
 5566SOL    HW228332   1.505   2.557  15.104 -1.5458 -0.8225 -1.5499
 5567SOL     OW28333   2.118   1.245   4.134  0.1191 -0.1983 -0.2235
 5567SOL    HW128334   2.109   1.152   4.156 -2.1967  0.2857  0.8564
 5567SOL    HW228335   2.086   1.242   4.044  0.1665 -0.2254 -0.2396
 5568SOL     OW28336   0.940   4.365   0.725 -0.4690  0.1280 -0.7274
 5568SOL    HW128337   0.963   4.274   0.741 -2.1661 -0.7018 -3.0554
 5568SOL    HW228338   0.850   4.357   0.754 -0.1105 -0.3985  0.2396
 5569SOL     OW28339   4.512   2.725  10.399 -0.5121  0.5324  0.4041
 5569SOL    HW128340   4.457   2.687  10.331 -2.4132  0.4369  1.9879
 5569SOL    HW228341   4.583   2.777  10.362 -1.3709  1.8850  0.6496
 5570SOL     OW28342   1.259   1.283   1.139  0.2416  0.6055  0.1971
 5570SOL    HW128343   1.233   1.255   1.226 -0.1302 -0.5467 -0.2840
 5570SOL    HW228344   1.354   1.276   1.150  0.3307  1.9287  0.3670
 5571SOL     OW28345   2.948   4.211   4.535 -0.1945 -0.0329  0.1889
 5571SOL    HW128346   2.896   4.233   4.613  1.0161  0.2661  0.9194
 5571SOL    HW228347   2.983   4.299   4.520 -0.2598 -0.2139 -0.9575
 5572SOL     OW28348   4.730   4.372   1.908  0.2103  0.5223 -0.1711
 5572SOL    HW128349   0.067   4.316   1.879 -2.2780 -1.7173 -2.0990
 5572SOL    HW228350   0.037   4.444   1.955  0.4999 -0.3018  0.8243
 5573SOL     OW28351   0.906   2.244   3.080  0.4409 -0.1471  0.0780
 5573SOL    HW128352   0.840   2.187   3.121  1.9053  0.4213  3.2601
 5573SOL    HW228353   0.932   2.198   3.000  2.7831  1.7219 -0.2269
 5574SOL     OW28354   2.784   4.682   3.202 -0.7138  0.0249  0.9507
 5574SOL    HW128355   2.734   4.606   3.174  1.4635 -0.6646 -1.0360
 5574SOL    HW228356   2.856   4.645   3.254 -0.3349 -1.5547 -0.6974
 5575SOL     OW28357   4.595   2.513   3.167 -0.2682  0.0485  0.1847
 5575SOL    HW128358   4.654   2.480   3.099  0.0806  0.6516  0.1996
 5575SOL    HW228359   4.643   2.488   3.246  2.1355 -0.7687 -1.5122
 5576SOL     OW28360   3.062   0.871   4.576  0.4514 -0.5712 -0.1510
 5576SOL    HW128361   3.087   0.878   4.668  2.5801 -0.0435 -0.7784
 5576SOL    HW228362   3.127   0.806   4.552  0.9048 -0.3146  0.3809
 5577SOL     OW28363   4.009   0.076   5.289 -0.2148 -0.1741  0.5064
 5577SOL    HW128364   3.925   0.117   5.309  0.4811  2.1300 -1.3779
 5577SOL    HW228365   3.981   0.005   5.231  0.0588  2.2604 -2.5728
 5578SOL     OW28366   0.799   3.012   6.405 -0.2506 -0.0463 -0.5891
 5578SOL    HW128367   0.728   2.988   6.345 -2.0523  4.4692 -0.2573
 5578SOL    HW228368   0.766   3.095   6.440 -1.5198 -0.7796 -0.0689
 5579SOL     OW28369   2.946   1.422  15.795  0.3245  0.4950  0.5195
 5579SOL    HW128370   2.896   1.502  15.813  1.5769  0.8314  2.4861
 5579SOL    HW228371   3.025   1.470  15.820  1.1234 -1.4772  1.7675
 5580SOL     OW28372   1.850   2.455   4.333  0.2744  0.5027  0.2934
 5580SOL    HW128373   1.894   2.437   4.415  1.8880 -1.0123 -0.9300
 5580SOL    HW228374   1.836   2.550   4.332  0.3912  0.5174 -0.1078
 5581SOL     OW28375   3.162   0.581  12.015 -0.2185  0.5322  0.1959
 5581SOL    HW128376   3.107   0.652  12.049  1.6419  1.8596  0.4226
 5581SOL    HW228377   3.219   0.620  11.949  1.6105  1.4216  2.2970
 5582SOL     OW28378   1.029   0.612   8.342  0.0498  0.1516  0.4598
 5582SOL    HW128379   0.946   0.656   8.361 -1.1824 -1.4355 -1.2325
 5582SOL    HW228380   1.000   0.534   8.295  0.1483  1.2343 -1.3772
 5583SOL     OW28381   4.207   0.859   8.783 -0.7411  0.0571 -0.0858
 5583SOL    HW128382   4.164   0.813   8.711  1.8793 -3.8777  0.8891
 5583SOL    HW228383   4.283   0.884   8.730  1.5162 -0.4964  2.8935
 5584SOL     OW28384   3.067   1.299   8.475 -0.4220 -0.1434  1.0165
 5584SOL    HW128385   3.091   1.329   8.563 -0.2641 -1.0144  1.2656
 5584SOL    HW228386   2.993   1.246   8.505 -1.5533 -0.6590 -2.7627
 5585SOL     OW28387   4.008   1.353   4.236 -0.3471 -0.2385  0.7636
 5585SOL    HW128388   4.024   1.286   4.169 -0.9084  0.2328  0.1672
 5585SOL    HW228389   4.090   1.403   4.234 -0.6507  0.1288 -2.2088
 5586SOL     OW28390   4.247   2.171   6.454  0.4044  0.4535  0.4814
 5586SOL    HW128391   4.205   2.254   6.431 -1.3732 -0.4690  0.3122
 5586SOL    HW228392   4.218   2.156   6.544  0.9259 -0.4834  0.4911
 5587SOL     OW28393   0.501   4.108   6.584  0.1515  0.2304  0.2205
 5587SOL    HW128394   0.534   4.122   6.495  1.1263 -0.7699  0.4156
 5587SOL    HW228395   0.406   4.098   6.576  0.3398 -0.6148 -1.0363
 5588SOL     OW28396   4.022   2.914   2.361  0.2155  0.1998  0.0937
 5588SOL    HW128397   3.970   2.925   2.282  0.5659  0.0405 -0.1634
 5588SOL    HW228398   4.028   2.818   2.354  3.5035  0.2506  2.0057
 5589SOL     OW28399   4.436   3.621   7.286 -0.5248 -0.5010 -0.5282
 5589SOL    HW128400   4.411   3.699   7.236  0.4889 -1.0300 -1.8789
 5589SOL    HW228401   4.521   3.593   7.251 -0.3212  1.8358 -1.8867
 5590SOL     OW28402   4.692   3.653   3.626 -0.8940 -0.0710  0.3677
 5590SOL    HW128403   4.682   3.664   3.531  0.6229 -3.0371 -0.1311
 5590SOL    HW228404   4.635   3.578   3.642 -1.9382  0.5827 -0.2648
 5591SOL     OW28405   0.464   0.736   4.041  0.6439 -0.7816 -0.3207
 5591SOL    HW128406   0.413   0.698   3.970  0.2853 -0.7959 -0.0576
 5591SOL    HW228407   0.463   0.657   4.095 -0.3934 -0.6394 -0.1282
 5592SOL     OW28408   0.448   0.920  13.163 -0.0760 -0.0185  0.7438
 5592SOL    HW128409   0.399   0.837  13.166 -0.1620 -0.0112 -0.3683
 5592SOL    HW228410   0.475   0.919  13.071  0.5638 -0.4735  0.9374
 5593SOL     OW28411   0.850   1.506   0.111 -0.1156  0.2744 -0.3946
 5593SOL    HW128412   0.921   1.501   0.175  0.0135  0.6317 -0.5108
 5593SOL    HW228413   0.874   1.464   0.029  0.1984  0.0719 -0.1974
 5594SOL     OW28414   0.670   1.119   7.491  0.2248  0.3890 -0.4057
 5594SOL    HW128415   0.611   1.164   7.553 -0.7816 -1.1436 -0.2519
 5594SOL    HW228416   0.661   1.031   7.526 -0.7630  1.3890  1.9072
 5595SOL     OW28417   1.179   0.372  13.350  0.3509 -0.3751 -0.1827
 5595SOL    HW128418   1.182   0.320  13.270  1.9308 -0.3676 -0.1337
 5595SOL    HW228419   1.118   0.317  13.398 -0.9349  0.3833 -0.9691
 5596SOL     OW28420   3.324   1.019   3.096  0.0263 -0.3396 -0.1167
 5596SOL    HW128421   3.409   0.977   3.108  0.1742  0.0194  0.0944
 5596SOL    HW228422   3.326   1.078   3.172 -0.0512 -1.0905  0.4607
 5597SOL     OW28423   0.506   0.059   2.631  0.0110  0.4212 -0.6717
 5597SOL    HW128424   0.461   0.099   2.706  0.3140  0.6620 -0.6219
 5597SOL    HW228425   0.443   0.084   2.564 -0.3393 -1.8275 -1.2062
 5598SOL     OW28426   3.143   0.871   4.829 -0.2116 -0.3528  0.1185
 5598SOL    HW128427   3.072   0.823   4.870  0.1845 -0.6564  0.4509
 5598SOL    HW228428   3.154   0.947   4.886 -1.4982  0.1188 -0.2835
 5599SOL     OW28429   4.196   2.585   6.967 -0.5213  0.0858 -0.5568
 5599SOL    HW128430   4.128   2.526   6.999  1.0545 -1.0620  0.7279
 5599SOL    HW228431   4.237   2.532   6.898 -1.3668 -0.0852 -0.9210
 5600SOL     OW28432   1.564   3.959  15.224  0.4750 -0.0346  0.0912
 5600SOL    HW128433   1.588   4.052  15.220  0.8298 -0.1047  0.5462
 5600SOL    HW228434   1.471   3.971  15.241  0.7159 -0.4881  1.7836
 5601SOL     OW28435   0.136   2.809   4.625  0.4036 -0.3040  0.3208
 5601SOL    HW128436   0.149   2.727   4.577  4.4746  0.4347  0.2174
 5601SOL    HW228437   0.083   2.865   4.568  0.9900  1.1556  1.2098
 5602SOL     OW28438   4.718   0.190   9.924  0.0601  0.2311 -0.3356
 5602SOL    HW128439   4.642   0.179   9.981  0.4001 -2.0558 -0.3126
 5602SOL    HW228440   4.687   0.144   9.846 -2.1634  1.3523 -0.1121
 5603SOL     OW28441   0.575   2.098   1.815 -0.0506 -0.2869 -0.0261
 5603SOL    HW128442   0.579   2.158   1.889  0.9475  0.2914 -0.5429
 5603SOL    HW228443   0.656   2.047   1.815 -0.5025 -0.9943  2.1837
 5604SOL     OW28444   2.676   2.439   5.999 -0.1603 -0.3453 -0.1610
 5604SOL    HW128445   2.747   2.428   5.935  1.0383  1.2565  0.8915
 5604SOL    HW228446   2.663   2.349   6.027 -1.8580  0.0686  0.3617
 5605SOL     OW28447   1.215   0.564   9.795 -0.0391  0.1163  0.0048
 5605SOL    HW128448   1.236   0.653   9.824  1.4258 -0.6583  1.2868
 5605SOL    HW228449   1.250   0.523   9.874  1.6428  0.9709 -0.3038
 5606SOL     OW28450   3.313   1.482   4.509  0.0312 -0.3560 -0.7020
 5606SOL    HW128451   3.241   1.544   4.496 -1.7762 -2.9037 -2.6653
 5606SOL    HW228452   3.274   1.411   4.561 -0.4594  0.8170  0.5419
 5607SOL     OW28453   0.814   3.934  16.430 -0.2132 -0.1381 -0.9374
 5607SOL    HW128454   0.770   3.989  16.495  3.2162  1.2695  0.1862
 5607SOL    HW228455   0.773   3.848  16.438 -0.2194  0.0989  1.6139
 5608SOL     OW28456   3.813   4.043   3.724 -0.5304 -0.2355 -0.4850
 5608SOL    HW128457   3.744   4.026   3.789  0.2194 -0.6076  0.2093
 5608SOL    HW228458   3.762   4.089   3.657 -2.1848  1.7168  2.1162
 5609SOL     OW28459   0.257   3.763   6.170  0.1154 -0.3846 -0.6841
 5609SOL    HW128460   0.210   3.802   6.244  0.0109 -2.5863  0.3866
 5609SOL    HW228461   0.196   3.696   6.141  0.0793 -0.8413  0.4590
 5610SOL     OW28462   2.537   0.712  11.556 -0.3491 -0.5363 -0.5805
 5610SOL    HW128463   2.510   0.675  11.640 -0.1692 -0.4413 -0.4805
 5610SOL    HW228464   2.484   0.789  11.539  0.0398 -0.1510 -0.0411
 5611SOL     OW28465   3.024   4.619   7.219 -0.0686 -0.2716  0.1142
 5611SOL    HW128466   2.948   4.664   7.255 -0.6118  0.6143 -2.1557
 5611SOL    HW228467   3.076   4.599   7.297 -2.0488 -1.7801  1.0629
 5612SOL     OW28468   0.917   2.500   1.119 -0.1294 -0.0917  0.4444
 5612SOL    HW128469   0.871   2.503   1.203 -2.1569  1.0256 -0.7091
 5612SOL    HW228470   0.846   2.488   1.056  1.3972  0.0813 -1.2776
 5613SOL     OW28471   3.832   3.433   8.941 -0.0507 -0.2307 -0.1693
 5613SOL    HW128472   3.780   3.512   8.932 -1.4678 -1.0802  0.6115
 5613SOL    HW228473   3.791   3.395   9.019 -2.2446 -1.3626 -1.8830
 5614SOL     OW28474   1.338   2.293   7.449 -0.0044  0.5760 -0.1438
 5614SOL    HW128475   1.415   2.337   7.485  0.2476 -0.7813  0.9814
 5614SOL    HW228476   1.370   2.275   7.361 -0.5021 -1.3793  0.0859
 5615SOL     OW28477   2.929   3.169   4.774 -0.0799  0.2834 -0.0008
 5615SOL    HW128478   2.986   3.102   4.736 -0.4304 -0.1971  0.3219
 5615SOL    HW228479   2.942   3.244   4.716  2.5650 -0.7937 -0.7896
 5616SOL     OW28480   1.535   0.641   7.122  0.5484  0.2848 -0.2728
 5616SOL    HW128481   1.548   0.629   7.216 -2.5840 -0.1754  0.0848
 5616SOL    HW228482   1.565   0.554   7.097 -0.6622 -0.1430 -0.2192
 5617SOL     OW28483   1.048   3.490   7.710  0.4895  0.5295 -0.3075
 5617SOL    HW128484   1.074   3.581   7.727  1.6070  0.2764 -0.6445
 5617SOL    HW228485   1.131   3.445   7.726 -0.5883 -1.5828 -0.6191
 5618SOL     OW28486   3.490   0.634   4.751 -0.1112  0.1705 -0.7620
 5618SOL    HW128487   3.512   0.726   4.736  0.9743 -0.3424 -2.2940
 5618SOL    HW228488   3.535   0.623   4.835 -0.6051 -0.6461 -0.6086
 5619SOL     OW28489   3.402   0.723   5.955 -0.0260  0.4080  0.1295
 5619SOL    HW128490   3.413   0.665   5.880 -0.3669 -1.8324  1.8214
 5619SOL    HW228491   3.472   0.698   6.016  0.4285 -0.6600 -0.8178
 5620SOL     OW28492   2.717   1.714   2.389 -0.0978 -0.0782  0.6018
 5620SOL    HW128493   2.800   1.707   2.342  0.8618  1.9142  2.0292
 5620SOL    HW228494   2.667   1.679   2.315 -0.0125  1.3264 -0.1269
 5621SOL     OW28495   2.204   0.606   7.036 -0.7687  0.1556 -0.3834
 5621SOL    HW128496   2.195   0.511   7.031  2.8032 -0.1082 -2.1995
 5621SOL    HW228497   2.188   0.621   7.129  2.6263 -0.2699  0.2595
 5622SOL     OW28498   0.183   0.584   6.064 -0.0154  0.4278 -0.0002
 5622SOL    HW128499   0.209   0.558   6.153 -0.8258 -0.1996  0.0520
 5622SOL    HW228500   0.200   0.678   6.073 -0.8390  0.5198  0.6448
 5623SOL     OW28501   1.557   1.544   7.139 -0.1992 -0.6000  0.6153
 5623SOL    HW128502   1.533   1.590   7.219  0.6309 -0.1644  0.6091
 5623SOL    HW228503   1.645   1.577   7.120 -1.2560  1.9741  0.2534
 5624SOL     OW28504   0.290   4.135   2.709  0.0483 -0.1946 -0.5756
 5624SOL    HW128505   0.226   4.076   2.748  1.0420 -1.2268 -0.5202
 5624SOL    HW228506   0.257   4.221   2.734  0.4025  0.3527 -1.9706
 5625SOL     OW28507   3.705   0.312  11.524 -0.4157  0.2850  0.0192
 5625SOL    HW128508   3.714   0.268  11.608  0.1826  0.1908 -0.0911
 5625SOL    HW228509   3.798   0.334  11.518 -0.3625  0.0702  0.0588
 5626SOL     OW28510   0.791   4.659  11.240 -0.0186 -0.0451  0.4568
 5626SOL    HW128511   0.813   4.700  11.324 -2.4743  0.3959  0.8758
 5626SOL    HW228512   0.794   0.001  11.182 -0.0064  0.1411  0.7038
 5627SOL     OW28513   0.255   4.168   3.108 -0.4880 -0.5297 -0.3754
 5627SOL    HW128514   0.324   4.210   3.056 -0.7153  2.6070  1.8704
 5627SOL    HW228515   0.311   4.100   3.146  0.2502  1.5836  2.3320
 5628SOL     OW28516   1.398   1.624   3.695  0.3408 -0.1605 -0.2597
 5628SOL    HW128517   1.462   1.558   3.721  0.5740  1.2825  2.8481
 5628SOL    HW228518   1.440   1.698   3.738 -1.3828 -0.0131  1.1719
 5629SOL     OW28519   1.266   1.574   8.229 -0.4978  0.1288  0.0940
 5629SOL    HW128520   1.217   1.656   8.220 -1.2923 -0.3886 -0.3347
 5629SOL    HW228521   1.339   1.585   8.168 -0.8361 -1.3642 -0.5752
 5630SOL     OW28522   3.857   0.962   5.231 -0.1407  0.6165  0.5721
 5630SOL    HW128523   3.853   1.037   5.289  0.6736 -0.0250  1.4532
 5630SOL    HW228524   3.949   0.968   5.205 -0.3137  1.8551  0.2813
 5631SOL     OW28525   1.951   2.564   6.468 -0.7609  0.4011  0.4247
 5631SOL    HW128526   1.988   2.510   6.538 -1.2441 -0.7402 -0.2101
 5631SOL    HW228527   1.892   2.612   6.526  1.1105  1.8152  1.1680
 5632SOL     OW28528   0.810   1.244   4.271  0.3588 -0.2209  0.3380
 5632SOL    HW128529   0.885   1.279   4.225  0.6367 -2.0556 -0.5997
 5632SOL    HW228530   0.746   1.305   4.235  0.6705  0.6245  1.2274
 5633SOL     OW28531   2.151   0.915  13.824  0.0086 -0.1571  0.1450
 5633SOL    HW128532   2.119   0.840  13.774 -0.9194  0.7326 -0.6117
 5633SOL    HW228533   2.200   0.957  13.754 -1.4905  0.2216 -0.6948
 5634SOL     OW28534   2.426   0.569  16.446  0.1053 -0.5833  0.2911
 5634SOL    HW128535   2.392   0.483  16.420  0.6754  0.0426 -2.5210
 5634SOL    HW228536   2.387   0.626  16.381 -0.9972 -0.2102  1.2778
 5635SOL     OW28537   2.598   1.752   7.794  0.1927  0.0110 -0.2644
 5635SOL    HW128538   2.572   1.797   7.713 -0.6217  1.0029  0.5452
 5635SOL    HW228539   2.637   1.672   7.760  3.0252  0.4444  1.9791
 5636SOL     OW28540   0.265   0.577   1.592  0.0428  0.0353 -0.2220
 5636SOL    HW128541   0.258   0.658   1.642  0.0636  0.1188 -0.3567
 5636SOL    HW228542   0.243   0.510   1.658 -0.7060 -0.3867 -0.8984
 5637SOL     OW28543   1.175   4.404   1.937  0.6129  0.1246 -0.0190
 5637SOL    HW128544   1.252   4.439   1.980  0.2137  1.4789 -0.4147
 5637SOL    HW228545   1.124   4.374   2.012 -0.1361 -1.4287 -1.1379
 5638SOL     OW28546   3.041   0.208  13.216 -0.1042  0.0518  0.3854
 5638SOL    HW128547   3.048   0.150  13.140  0.3471  1.4990 -0.6742
 5638SOL    HW228548   2.993   0.280  13.175 -4.8240 -2.8388  0.8194
 5639SOL     OW28549   3.881   4.166   8.983  0.5661 -0.0949 -0.1677
 5639SOL    HW128550   3.847   4.084   8.947 -0.9311 -0.4936  2.2105
 5639SOL    HW228551   3.922   4.203   8.904  1.5070  0.6034  0.6537
 5640SOL     OW28552   0.869   3.759   4.339 -0.3214  0.3324 -0.8594
 5640SOL    HW128553   0.778   3.785   4.326 -0.0797  1.8430  0.4521
 5640SOL    HW228554   0.907   3.836   4.382 -0.0215 -0.5264  0.4125
 5641SOL     OW28555   1.752   3.500   5.473  0.2023  0.4129  0.4357
 5641SOL    HW128556   1.727   3.592   5.472  0.7521  0.5325 -3.3441
 5641SOL    HW228557   1.813   3.504   5.547  0.9205  2.0497 -0.2378
 5642SOL     OW28558   0.016   3.865  14.078 -0.3425  0.0689  0.1021
 5642SOL    HW128559   0.056   3.815  14.149 -2.2642  0.9269  1.7802
 5642SOL    HW228560   4.680   3.806  14.054  0.1650  0.0568 -1.3760
 5643SOL     OW28561   3.788   3.784   8.552  0.5335 -0.3856  0.3567
 5643SOL    HW128562   3.836   3.866   8.561  3.7801 -2.0439 -1.8474
 5643SOL    HW228563   3.725   3.816   8.488  1.7166 -1.3114 -1.2530
 5644SOL     OW28564   1.359   0.813   5.332  0.2616 -0.4558 -0.4110
 5644SOL    HW128565   1.418   0.883   5.358  0.1700  0.4190 -2.5663
 5644SOL    HW228566   1.279   0.850   5.371  0.1984 -0.1333 -0.8361
 5645SOL     OW28567   2.510   4.083  11.465  0.6044 -0.1413 -0.3431
 5645SOL    HW128568   2.427   4.053  11.427  0.0147  0.4373  0.4571
 5645SOL    HW228569   2.518   4.020  11.537  4.3913  1.2202  0.4073
 5646SOL     OW28570   0.519   1.418   3.821 -0.4211 -0.2573  0.1278
 5646SOL    HW128571   0.533   1.325   3.835  1.1586 -0.2907 -1.7118
 5646SOL    HW228572   0.436   1.420   3.773  0.2307  0.4211 -0.9595
 5647SOL     OW28573   0.382   2.389   6.423  0.1857 -0.1473 -0.1570
 5647SOL    HW128574   0.412   2.419   6.509  0.3772 -1.0012  0.0819
 5647SOL    HW228575   0.449   2.436   6.375 -0.0238  0.7662  0.4573
 5648SOL     OW28576   2.056   0.896   2.675 -0.9907 -0.4513  0.2810
 5648SOL    HW128577   2.135   0.935   2.638 -0.5384 -2.2958 -0.7263
 5648SOL    HW228578   2.081   0.803   2.674  0.4893 -0.0121 -1.9341
 5649SOL     OW28579   3.138   1.416   8.691 -0.1589  0.0980  0.3177
 5649SOL    HW128580   3.149   1.367   8.773  1.2608 -0.5942 -0.2895
 5649SOL    HW228581   3.189   1.494   8.715  1.9635 -1.2218  0.0686
 5650SOL     OW28582   0.139   4.154   9.224  0.2495  0.0944 -0.0907
 5650SOL    HW128583   0.137   4.208   9.145  0.5181  0.2781  0.0295
 5650SOL    HW228584   0.187   4.210   9.285 -2.2887  2.2540 -0.0804
 5651SOL     OW28585   4.617   4.591  17.032  0.1380 -0.1609 -0.2333
 5651SOL    HW128586   4.645   4.622  16.946  1.6470  3.1846  1.4659
 5651SOL    HW228587   4.673   4.514  17.039  0.6187  0.2178  0.0720
 5652SOL     OW28588   2.804   3.644  12.894 -0.3221 -0.6602  0.0445
 5652SOL    HW128589   2.811   3.638  12.799 -0.1226 -1.0206  0.0802
 5652SOL    HW228590   2.753   3.724  12.903 -0.8734 -0.8624 -1.2841
 5653SOL     OW28591   0.613   4.096   6.332 -0.2887 -0.1040 -0.0648
 5653SOL    HW128592   0.672   4.167   6.309 -0.7967  0.0131 -0.9802
 5653SOL    HW228593   0.553   4.102   6.258 -0.6892 -1.3885  0.1500
 5654SOL     OW28594   3.869   0.766  12.078  0.6295  0.4384 -0.0906
 5654SOL    HW128595   3.911   0.807  12.003  0.7483  0.2792 -0.1108
 5654SOL    HW228596   3.785   0.811  12.079  0.9519  1.0779 -1.9086
 5655SOL     OW28597   4.700   3.132   5.622 -0.3471  0.1465 -0.2663
 5655SOL    HW128598   4.684   3.133   5.528 -0.6517  1.5897 -0.1921
 5655SOL    HW228599   4.674   3.221   5.645 -2.9021 -0.4217 -1.0125
 5656SOL     OW28600   0.682   4.480  10.504  0.3851  0.7858  0.1539
 5656SOL    HW128601   0.757   4.503  10.558 -0.5573 -1.0652  2.2467
 5656SOL    HW228602   0.617   4.467  10.573 -0.8756 -1.9865 -1.5273
 5657SOL     OW28603   0.530   2.114   8.013 -0.6883  0.6620  0.3902
 5657SOL    HW128604   0.458   2.077   8.065 -0.2125  1.2191  1.4359
 5657SOL    HW228605   0.583   2.135   8.090 -1.9017  0.2400  1.3543
 5658SOL     OW28606   4.719   1.535  17.155  0.0237 -0.4386  0.1781
 5658SOL    HW128607   4.680   1.479  17.088 -2.0368  1.9489 -0.6521
 5658SOL    HW228608   4.725   1.620  17.111  0.9533  0.3418  1.8240
 5659SOL     OW28609   1.455   0.040  15.766  0.3179  0.4552 -0.1899
 5659SOL    HW128610   1.519   0.101  15.731 -0.6610  1.5193 -0.1354
 5659SOL    HW228611   1.432   0.068  15.855 -0.7369  1.9910 -0.9547
 5660SOL     OW28612   1.842   0.151   3.577 -0.0037  0.1474 -0.5797
 5660SOL    HW128613   1.765   0.195   3.615 -0.1662 -1.1582  0.5785
 5660SOL    HW228614   1.814   0.060   3.579  2.9943 -0.7539  0.2900
 5661SOL     OW28615   1.290   0.338  15.841  0.3628  0.0264  0.1721
 5661SOL    HW128616   1.353   0.373  15.904 -1.3057 -1.5212  2.7168
 5661SOL    HW228617   1.212   0.336  15.898 -0.1083 -0.8957 -0.5015
 5662SOL     OW28618   1.778   1.557   1.053  0.6380  0.4333 -0.5434
 5662SOL    HW128619   1.844   1.492   1.078 -0.8194 -0.4971  0.8518
 5662SOL    HW228620   1.809   1.591   0.969 -0.5262  1.0234 -0.7193
 5663SOL     OW28621   2.179   2.193  12.492  0.6047  0.2852 -0.0840
 5663SOL    HW128622   2.101   2.159  12.536  0.9954 -0.2647  0.1830
 5663SOL    HW228623   2.160   2.287  12.491  1.6276  0.4829 -0.8380
 5664SOL     OW28624   3.044   2.428  11.313 -0.4840  0.4162  0.4146
 5664SOL    HW128625   3.073   2.463  11.398  0.7175  0.2599  0.0567
 5664SOL    HW228626   3.124   2.393  11.275  0.3949 -1.0494  3.6067
 5665SOL     OW28627   4.094   2.250  11.125  0.7676 -0.2221  0.3022
 5665SOL    HW128628   4.037   2.199  11.068  1.2684 -0.9374  0.4366
 5665SOL    HW228629   4.036   2.265  11.199  0.9215 -0.9931  0.5745
 5666SOL     OW28630   3.148   0.643   2.877  0.2336  0.6908  0.2025
 5666SOL    HW128631   3.206   0.571   2.852 -0.1187  1.1556 -1.9212
 5666SOL    HW228632   3.088   0.652   2.803 -1.4868  2.7296  1.8337
 5667SOL     OW28633   3.431   1.224   3.811 -0.0884  0.3358 -0.5460
 5667SOL    HW128634   3.366   1.262   3.869  1.4887 -1.0756  2.1752
 5667SOL    HW228635   3.502   1.259   3.864 -0.6600 -4.7223  3.5816
 5668SOL     OW28636   2.172   0.046   7.799  0.3325 -0.0762  0.0705
 5668SOL    HW128637   2.214   0.033   7.714 -0.0531 -1.2558  0.0692
 5668SOL    HW228638   2.139   4.694   7.819 -0.6253  0.5769  1.3751
 5669SOL     OW28639   4.582   4.419   9.655 -0.5892 -0.0781  0.0221
 5669SOL    HW128640   4.627   4.340   9.682  0.3931 -0.5782 -3.1090
 5669SOL    HW228641   4.646   4.464   9.600  0.3160  0.3597  1.4385
 5670SOL     OW28642   4.398   4.058   5.848  0.3255 -0.1871 -0.6083
 5670SOL    HW128643   4.348   4.125   5.894  2.0361  1.2920 -0.8877
 5670SOL    HW228644   4.369   3.979   5.894  0.0344  1.3049  1.7145
 5671SOL     OW28645   2.213   3.929   2.651 -0.6872  0.3446  0.5507
 5671SOL    HW128646   2.153   3.898   2.719 -1.3866  2.4757  0.8879
 5671SOL    HW228647   2.171   3.885   2.577  0.5473 -2.5229  1.5637
 5672SOL     OW28648   1.188   1.823  14.990 -0.0577  0.3436  0.4178
 5672SOL    HW128649   1.242   1.755  14.951  2.3352  1.4403  1.8539
 5672SOL    HW228650   1.250   1.872  15.043 -0.2473  1.2672 -0.2055
 5673SOL     OW28651   0.491   3.017   8.277  0.6679 -0.2646  0.0066
 5673SOL    HW128652   0.482   3.113   8.283 -1.1097 -0.4668  0.5450
 5673SOL    HW228653   0.583   3.000   8.296  0.3222  0.0807  1.9689
 5674SOL     OW28654   0.125   4.552   0.624  0.0604  0.7715  0.5230
 5674SOL    HW128655   0.047   4.546   0.568 -0.3105  0.5223  1.0758
 5674SOL    HW228656   0.090   4.529   0.709 -0.1116  0.6724  0.4258
 5675SOL     OW28657   2.298   4.198   2.643 -0.1933 -0.3679 -0.1343
 5675SOL    HW128658   2.388   4.195   2.674 -0.0925 -1.3715 -0.5228
 5675SOL    HW228659   2.278   4.106   2.629 -1.4782 -0.3634  1.7216
 5676SOL     OW28660   3.844   2.351   5.414 -0.3899  0.0479  0.4080
 5676SOL    HW128661   3.908   2.360   5.344 -1.2875 -0.4848 -0.4884
 5676SOL    HW228662   3.776   2.297   5.373  0.0141  0.0813 -0.2942
 5677SOL     OW28663   0.449   4.158   2.365 -0.4088  0.0785  0.1333
 5677SOL    HW128664   0.499   4.081   2.391  1.4731  1.7385  1.4289
 5677SOL    HW228665   0.450   4.158   2.270  0.6014  0.6644  0.1432
 5678SOL     OW28666   3.588   1.402   2.060 -0.6767  0.1227  0.6034
 5678SOL    HW128667   3.552   1.314   2.071  0.4791 -0.2697  1.1739
 5678SOL    HW228668   3.513   1.456   2.088 -1.9109 -1.9705  1.3386
 5679SOL     OW28669   3.015   1.303   7.001  0.2799 -0.0040  0.3821
 5679SOL    HW128670   3.007   1.211   6.977 -1.2683  0.3730 -0.5406
 5679SOL    HW228671   3.078   1.331   6.935  0.1055  0.7729  0.5398
 5680SOL     OW28672   0.278   1.049   3.600  0.5287 -0.3361 -0.1475
 5680SOL    HW128673   0.371   1.072   3.601  0.5616 -0.5174  0.8451
 5680SOL    HW228674   0.240   1.093   3.676  1.0096  0.2300 -0.2381
 5681SOL     OW28675   0.220   2.675   9.493  0.3721  0.0757  1.0174
 5681SOL    HW128676   0.268   2.740   9.545  4.0289 -1.8867  0.0819
 5681SOL    HW228677   0.138   2.720   9.472  0.8646 -0.3574 -1.7833
 5682SOL     OW28678   2.086   1.708  14.195 -0.1984 -0.1573 -0.2466
 5682SOL    HW128679   2.055   1.757  14.119 -0.4324  0.7117  0.4102
 5682SOL    HW228680   2.171   1.699  14.153 -0.4604  0.3896 -0.8927
 5683SOL     OW28681   0.473   3.545   3.535 -0.6041  0.7476 -0.0878
 5683SOL    HW128682   0.495   3.534   3.628 -1.3785 -0.1341 -0.0007
 5683SOL    HW228683   0.414   3.470   3.521  0.3604  0.6046 -3.2282
 5684SOL     OW28684   0.749   1.130   9.997 -0.1024 -0.4029 -0.0500
 5684SOL    HW128685   0.820   1.173   9.949 -0.3696 -0.2752 -0.3292
 5684SOL    HW228686   0.742   1.197  10.065 -0.5071 -0.2579 -0.2331
 5685SOL     OW28687   3.595   0.193  13.894  0.2710 -0.3465  0.1832
 5685SOL    HW128688   3.604   0.125  13.827  2.3583  0.5535 -0.4606
 5685SOL    HW228689   3.579   0.132  13.966  0.4700 -0.2348  0.3227
 5686SOL     OW28690   1.896   1.316   2.434 -0.2652 -0.1044 -0.2514
 5686SOL    HW128691   1.879   1.256   2.361 -0.2210 -1.3427  0.7463
 5686SOL    HW228692   1.975   1.353   2.396  0.0421  0.1670  0.6648
 5687SOL     OW28693   4.616   2.791   6.537 -0.0870  0.7256 -0.1448
 5687SOL    HW128694   4.548   2.765   6.598 -2.4871  3.7333 -1.5515
 5687SOL    HW228695   4.697   2.806   6.586 -0.5375  0.1793  0.7720
 5688SOL     OW28696   3.334   2.171  17.462  0.5989 -0.1641 -0.2620
 5688SOL    HW128697   3.365   2.241  17.518  2.2560 -0.4899 -0.7596
 5688SOL    HW228698   3.316   2.094  17.516  0.0672  0.2954  0.2041
 5689SOL     OW28699   3.448   0.112   3.597  1.0067  0.2009  0.0651
 5689SOL    HW128700   3.526   0.066   3.567  0.9063  0.4238 -0.5356
 5689SOL    HW228701   3.485   0.182   3.651 -0.8502 -0.2237  1.9104
 5690SOL     OW28702   0.830   0.776   7.491 -0.0796  0.4982  0.3313
 5690SOL    HW128703   0.734   0.783   7.487 -0.0809  1.2500  1.7078
 5690SOL    HW228704   0.854   0.840   7.558 -0.3181 -1.6249  2.4526
 5691SOL     OW28705   0.470   4.423   3.400 -0.1139 -0.2111  0.8970
 5691SOL    HW128706   0.469   4.406   3.494  2.1586  1.1864  1.1721
 5691SOL    HW228707   0.482   4.518   3.404  1.5875 -0.4199  0.7056
 5692SOL     OW28708   3.082   4.290   8.011  0.1653  0.3531  0.0813
 5692SOL    HW128709   3.137   4.221   8.048 -0.4098  0.3953  1.0089
 5692SOL    HW228710   3.084   4.270   7.917  0.3696  1.3380 -0.1284
 5693SOL     OW28711   2.445   1.617  17.347 -0.6835 -0.1302 -0.3457
 5693SOL    HW128712   2.429   1.592  17.256  1.9972  2.3022 -1.4648
 5693SOL    HW228713   2.540   1.602  17.354 -0.5772  1.7175  2.2722
 5694SOL     OW28714   4.123   1.631  11.844 -0.0329 -0.1522 -0.2105
 5694SOL    HW128715   4.051   1.642  11.906 -0.4442 -0.8106 -0.5653
 5694SOL    HW228716   4.188   1.592  11.901  2.5935  0.0447 -3.0863
 5695SOL     OW28717   3.618   0.126   1.605  0.3487  0.3245 -0.9883
 5695SOL    HW128718   3.652   0.215   1.616  0.2768  0.5966 -3.1423
 5695SOL    HW228719   3.697   0.080   1.635  1.6331  3.4089  0.3804
 5696SOL     OW28720   2.977   4.321   0.285  0.0863  0.2267 -0.5347
 5696SOL    HW128721   2.960   4.286   0.197 -2.3138 -0.4468  0.2225
 5696SOL    HW228722   2.989   4.413   0.261  1.5431 -0.0614 -0.9402
 5697SOL     OW28723   2.321   2.585   5.208  0.2858  0.3195  0.0246
 5697SOL    HW128724   2.395   2.603   5.151 -1.3225 -0.5121 -2.2986
 5697SOL    HW228725   2.296   2.677   5.222 -0.8037  0.0054  0.1377
 5698SOL     OW28726   1.651   0.337   2.743  0.4190 -0.7092 -0.2963
 5698SOL    HW128727   1.589   0.381   2.684 -1.0571 -1.7324  0.4762
 5698SOL    HW228728   1.582   0.303   2.801  1.7572 -2.6284  0.1540
 5699SOL     OW28729   2.612   1.668   3.955 -0.2724 -0.4977 -0.1979
 5699SOL    HW128730   2.531   1.642   3.909  1.0900 -1.0967 -2.2794
 5699SOL    HW228731   2.580   1.743   4.005 -3.2889 -1.9525  0.0562
 5700SOL     OW28732   1.729   2.214   8.261 -0.1100  0.4587  0.2614
 5700SOL    HW128733   1.781   2.194   8.183  0.6888  0.3798  0.8238
 5700SOL    HW228734   1.752   2.306   8.267 -0.5732  0.5358  0.9116
 5701SOL     OW28735   3.519   2.893  15.515 -0.4078 -0.2090  0.4930
 5701SOL    HW128736   3.530   2.901  15.420 -2.3569  2.4245  0.4957
 5701SOL    HW228737   3.496   2.982  15.541  1.6555  0.0123  1.5772
 5702SOL     OW28738   2.152   1.605   4.412  0.2235  0.3241 -0.1939
 5702SOL    HW128739   2.092   1.535   4.387  0.9578  0.0223 -1.0841
 5702SOL    HW228740   2.212   1.564   4.473 -0.0106  0.7063  0.2948
 5703SOL     OW28741   4.156   3.609  12.903  0.0091 -0.0711  0.1528
 5703SOL    HW128742   4.192   3.697  12.891  0.2636 -0.2762 -0.5899
 5703SOL    HW228743   4.217   3.549  12.859  0.1001 -0.3819  0.7023
 5704SOL     OW28744   3.359   3.134   7.623  0.1349  0.6810  0.8686
 5704SOL    HW128745   3.428   3.200   7.616  0.6303  0.2095  1.3010
 5704SOL    HW228746   3.409   3.056   7.648 -2.3468 -1.7252 -1.6455
 5705SOL     OW28747   1.286   4.514  16.798  0.1575  0.1245 -0.3159
 5705SOL    HW128748   1.334   4.539  16.718 -1.7384  0.3893 -1.3579
 5705SOL    HW228749   1.214   4.577  16.801 -0.0585 -0.1157 -0.4724
 5706SOL     OW28750   4.082   0.402   4.985  0.2847  0.0970  0.0619
 5706SOL    HW128751   4.032   0.473   5.025  0.4386 -0.0946  0.6006
 5706SOL    HW228752   4.154   0.445   4.938  1.7996 -1.0569  1.3294
 5707SOL     OW28753   2.997   2.070   6.622 -0.1883  0.5848 -0.2693
 5707SOL    HW128754   2.999   2.123   6.702 -1.1814 -1.4510  1.0874
 5707SOL    HW228755   2.939   1.999   6.647 -0.7122  0.9557 -0.4450
 5708SOL     OW28756   4.241   3.365   4.010 -0.7531 -0.5584 -0.3877
 5708SOL    HW128757   4.336   3.353   4.020 -0.7512 -0.4759 -0.3052
 5708SOL    HW228758   4.242   3.387   3.917 -0.9721 -0.4614 -0.3655
 5709SOL     OW28759   1.169   0.419   3.479 -0.0298  0.1658 -0.0892
 5709SOL    HW128760   1.157   0.393   3.570 -3.4159  0.7251 -0.3774
 5709SOL    HW228761   1.090   0.472   3.468  0.2637  1.0119  1.9885
 5710SOL     OW28762   3.128   2.964   4.692 -0.2785 -0.4365  0.1210
 5710SOL    HW128763   3.052   2.915   4.659 -0.9596  2.0786 -2.0000
 5710SOL    HW228764   3.187   2.889   4.680  1.5631  0.7896  1.6594
 5711SOL     OW28765   1.372   0.600   1.251  0.0052 -0.0273 -0.1178
 5711SOL    HW128766   1.345   0.508   1.243 -2.7687  0.7168  0.8738
 5711SOL    HW228767   1.366   0.601   1.347  0.7192  0.9241 -0.0794
 5712SOL     OW28768   3.090   3.264   7.115  0.1090  0.3687 -0.1974
 5712SOL    HW128769   3.143   3.337   7.148 -1.6138  1.2105  0.6661
 5712SOL    HW228770   3.023   3.319   7.074 -0.9936 -1.1834 -0.4565
 5713SOL     OW28771   2.225   2.291   4.073  0.4765 -0.1486 -0.0027
 5713SOL    HW128772   2.141   2.247   4.080  0.2510  0.3307  0.3474
 5713SOL    HW228773   2.201   2.351   4.002  0.5399 -0.0738  0.0387
 5714SOL     OW28774   0.695   1.044   7.115  0.2194 -0.8320 -0.1925
 5714SOL    HW128775   0.643   1.103   7.169 -0.6321  0.0222 -1.9546
 5714SOL    HW228776   0.638   0.971   7.091 -1.6998  0.0395  1.7674
 5715SOL     OW28777   3.675   1.880   4.632 -0.0924  0.0568 -0.1950
 5715SOL    HW128778   3.633   1.961   4.600  1.7701  2.0361  2.4031
 5715SOL    HW228779   3.688   1.836   4.548  0.9324 -1.4906  0.7853
 5716SOL     OW28780   3.207   2.238   2.490 -0.3455 -0.6420  0.1262
 5716SOL    HW128781   3.128   2.260   2.538 -0.8603 -0.3647 -0.8310
 5716SOL    HW228782   3.273   2.265   2.554 -0.5586  1.9447 -0.7544
 5717SOL     OW28783   3.347   0.807  16.358  0.2115 -0.5507  0.0513
 5717SOL    HW128784   3.327   0.768  16.443  0.1028 -1.8093 -0.5545
 5717SOL    HW228785   3.408   0.745  16.319 -0.9315 -1.5987 -0.0610
 5718SOL     OW28786   1.138   4.290   5.026 -0.0245  0.3398 -0.4354
 5718SOL    HW128787   1.178   4.258   4.946 -2.2264 -0.5060 -1.2020
 5718SOL    HW228788   1.081   4.356   4.986 -2.6682 -0.6572  1.6136
 5719SOL     OW28789   0.385   3.775   5.911 -0.3420  0.0988 -0.1474
 5719SOL    HW128790   0.363   3.682   5.914  0.3349 -0.0338  0.8710
 5719SOL    HW228791   0.363   3.801   6.001 -1.3481 -0.3233 -0.2778
 5720SOL     OW28792   4.564   3.204  16.769  0.0439 -0.2779 -0.0214
 5720SOL    HW128793   4.579   3.170  16.681 -2.5133 -0.3044 -0.4318
 5720SOL    HW228794   4.649   3.185  16.808  0.0054  0.6487  0.5226
 5721SOL     OW28795   3.426   1.197   7.017 -0.1500 -0.2504  0.0090
 5721SOL    HW128796   3.452   1.134   6.949 -0.8620  1.1257 -1.5510
 5721SOL    HW228797   3.404   1.269   6.958  1.9972  0.5075  0.1396
 5722SOL     OW28798   3.932   1.424   2.934  0.1408 -0.2557  0.2809
 5722SOL    HW128799   4.015   1.463   2.962  0.4890  1.0248 -2.5633
 5722SOL    HW228800   3.897   1.407   3.021 -0.9248 -0.3774 -0.1685
 5723SOL     OW28801   1.283   3.354   4.679 -0.4986  0.2510  0.4282
 5723SOL    HW128802   1.273   3.448   4.667 -4.7360 -0.3135 -0.6378
 5723SOL    HW228803   1.206   3.338   4.734  0.7887  1.5018  2.5690
 5724SOL     OW28804   1.992   3.119  12.021 -0.2372 -0.1408 -0.0680
 5724SOL    HW128805   2.070   3.076  12.056  0.4279  1.5236  0.5031
 5724SOL    HW228806   1.951   3.154  12.100 -2.3773  1.2306 -1.7984
 5725SOL     OW28807   2.985   1.706  10.654  0.0576  0.9198 -0.0193
 5725SOL    HW128808   2.982   1.767  10.727 -0.3459  1.1667 -0.2433
 5725SOL    HW228809   2.960   1.623  10.694  0.0402  0.6406 -0.6033
 5726SOL     OW28810   2.929   1.078   2.338  0.1765 -0.3611  0.2373
 5726SOL    HW128811   2.925   0.984   2.355  0.3687 -0.6655 -1.4308
 5726SOL    HW228812   3.012   1.100   2.380  0.4444 -1.0294  0.0567
 5727SOL     OW28813   2.993   2.939  13.930  0.5967 -0.0325  0.0677
 5727SOL    HW128814   3.083   2.923  13.958 -0.5351 -1.5739  2.8423
 5727SOL    HW228815   2.962   2.955  14.019 -0.1174  1.7999 -0.5045
 5728SOL     OW28816   1.863   2.099   3.411 -0.2119  0.3853 -0.4266
 5728SOL    HW128817   1.888   2.099   3.503  1.0735  1.9991 -0.7654
 5728SOL    HW228818   1.887   2.009   3.389 -0.6083  1.0270 -3.4353
 5729SOL     OW28819   0.261   3.762   9.240 -0.2978  0.4280 -0.6118
 5729SOL    HW128820   0.319   3.687   9.255  1.2979  1.5970 -0.9057
 5729SOL    HW228821   0.306   3.829   9.292 -0.4630  1.3185 -1.6121
 5730SOL     OW28822   2.571   1.082  16.275 -0.4339  0.4969  0.0800
 5730SOL    HW128823   2.610   1.037  16.200  1.2214  1.1479  0.5560
 5730SOL    HW228824   2.594   1.172  16.252 -2.1118  1.2354  1.2004
 5731SOL     OW28825   1.032   0.443  12.730  0.1866 -0.0419 -0.2070
 5731SOL    HW128826   1.056   0.513  12.790 -0.0845 -1.6443  1.7604
 5731SOL    HW228827   1.081   0.471  12.653 -0.8531 -1.2884 -1.3451
 5732SOL     OW28828   4.261   3.561   7.069 -0.1435  0.0351 -0.3698
 5732SOL    HW128829   4.300   3.567   6.982 -1.0668 -0.8593 -0.8409
 5732SOL    HW228830   4.340   3.577   7.121 -0.1638  0.0624 -0.3473
 5733SOL     OW28831   3.433   4.415   0.017 -0.6684 -0.0466 -0.1128
 5733SOL    HW128832   3.401   4.440   0.103 -1.8740  0.4469 -0.7102
 5733SOL    HW228833   3.352   4.442  17.712  0.8062  1.4636 -1.8818
 5734SOL     OW28834   4.198   0.342   6.175 -0.1118 -0.7025  0.3849
 5734SOL    HW128835   4.158   0.428   6.164  0.3409 -0.6756 -0.9533
 5734SOL    HW228836   4.228   0.358   6.265 -1.4930  0.7820  0.5758
 5735SOL     OW28837   0.541   4.088   2.644  0.0476  0.5292  0.1071
 5735SOL    HW128838   0.559   4.026   2.715  1.9126  1.4613  0.4696
 5735SOL    HW228839   0.452   4.121   2.660 -0.2369  0.5652 -1.5402
 5736SOL     OW28840   1.961   0.586   4.887  0.1025 -0.6488 -0.0090
 5736SOL    HW128841   2.056   0.594   4.895  0.2772 -0.3630 -2.2281
 5736SOL    HW228842   1.951   0.534   4.806 -0.3397  0.1640 -0.4804
 5737SOL     OW28843   0.895   1.252   4.630  0.6397 -0.3798 -0.2235
 5737SOL    HW128844   0.813   1.243   4.678  0.4646  0.4976 -0.3716
 5737SOL    HW228845   0.918   1.159   4.620 -0.0710 -0.4588 -1.0989
 5738SOL     OW28846   4.348   4.514   5.190  0.2472  0.5088 -0.1328
 5738SOL    HW128847   4.257   4.527   5.218  1.2207  2.2502  2.2155
 5738SOL    HW228848   4.324   4.483   5.103 -0.7319  2.7368 -0.6600
 5739SOL     OW28849   4.102   1.788   8.753  0.2161  0.4864  0.4307
 5739SOL    HW128850   4.077   1.775   8.845 -0.4040 -0.3655  0.1537
 5739SOL    HW228851   4.014   1.810   8.722 -0.7196 -0.7888  2.1466
 5740SOL     OW28852   4.161   2.782   7.644 -0.0762  0.0247  0.2976
 5740SOL    HW128853   4.115   2.830   7.713  0.4071  0.6996  0.1514
 5740SOL    HW228854   4.088   2.774   7.582 -2.6226  0.9066  3.1744
 5741SOL     OW28855   2.684   3.354  12.896 -0.2071 -0.2067 -0.7035
 5741SOL    HW128856   2.675   3.447  12.875 -2.8140 -0.4596 -0.7595
 5741SOL    HW228857   2.761   3.342  12.841  0.1833  1.3664 -0.5007
 5742SOL     OW28858   2.457   2.687  14.486 -0.1852  0.2260 -0.1622
 5742SOL    HW128859   2.413   2.630  14.548 -0.2386  0.3694 -0.0666
 5742SOL    HW228860   2.382   2.733  14.447 -1.7511 -0.5766  1.9191
 5743SOL     OW28861   2.883   0.812  13.858 -0.1195  0.2641  0.6900
 5743SOL    HW128862   2.968   0.787  13.895 -0.5006 -0.8107  0.8464
 5743SOL    HW228863   2.852   0.727  13.826 -0.5534  0.6028  0.2157
 5744SOL     OW28864   4.391   1.344   2.257  0.6129  0.0187 -0.3932
 5744SOL    HW128865   4.374   1.308   2.170 -0.0639 -0.5145 -0.0418
 5744SOL    HW228866   4.486   1.334   2.251  0.7718  0.4680  1.3039
 5745SOL     OW28867   1.547   2.999  11.695 -0.1624  0.1734 -0.2821
 5745SOL    HW128868   1.539   3.093  11.710  1.2973  0.0875  0.9470
 5745SOL    HW228869   1.558   2.979  11.788 -1.3536 -0.7616 -0.3393
 5746SOL     OW28870   2.211   2.811   8.150  0.4388 -0.9525 -0.2424
 5746SOL    HW128871   2.165   2.737   8.109 -1.8718  0.8651 -0.8663
 5746SOL    HW228872   2.145   2.857   8.200  1.3344 -0.0211  0.0880
 5747SOL     OW28873   2.274   3.004  10.329  0.6779 -0.1691 -0.4833
 5747SOL    HW128874   2.235   2.937  10.386 -1.2724  1.4897  0.1223
 5747SOL    HW228875   2.277   3.077  10.391  1.5693 -0.6228  0.0080
 5748SOL     OW28876   4.106   2.290   8.206  0.1182 -0.0123  0.3497
 5748SOL    HW128877   4.126   2.384   8.207 -0.7437  0.2184 -2.7337
 5748SOL    HW228878   4.017   2.300   8.171  0.5498 -0.5193 -0.9122
 5749SOL     OW28879   0.903   2.359   8.417  0.1587 -0.1941  0.5560
 5749SOL    HW128880   0.950   2.291   8.368 -0.0847  0.5444 -0.7063
 5749SOL    HW228881   0.978   2.407   8.451  1.5044 -1.2446 -0.9265
 5750SOL     OW28882   4.322   4.350   3.524  0.4518  0.6093  0.0300
 5750SOL    HW128883   4.406   4.333   3.568  0.4553  3.1576  1.0401
 5750SOL    HW228884   4.325   4.273   3.468 -1.1302  0.6181 -0.0555
 5751SOL     OW28885   0.175   1.192   0.658 -0.0399 -0.5247 -0.6134
 5751SOL    HW128886   0.177   1.130   0.586 -3.4245 -0.2433 -0.9473
 5751SOL    HW228887   0.264   1.180   0.690 -0.7144  2.8718  2.5722
 5752SOL     OW28888   0.414   1.463   4.285  0.1946 -0.2714 -0.4147
 5752SOL    HW128889   0.326   1.470   4.247 -0.9366 -0.5797  2.1434
 5752SOL    HW228890   0.420   1.368   4.296 -0.3389  0.1090  3.3808
 5753SOL     OW28891   3.235   2.728   8.158  0.3739 -0.0517 -0.6552
 5753SOL    HW128892   3.234   2.645   8.206 -0.5556 -0.5018 -1.4689
 5753SOL    HW228893   3.149   2.761   8.185  1.8213  1.6578  1.8903
 5754SOL     OW28894   4.432   0.518  14.945  0.1795 -0.0559  0.8304
 5754SOL    HW128895   4.467   0.470  14.869 -2.0263 -1.4304  0.6726
 5754SOL    HW228896   4.359   0.571  14.913  1.6911  0.8318 -1.2140
 5755SOL     OW28897   0.296   2.167   5.781 -0.3681 -0.6459 -0.2559
 5755SOL    HW128898   0.327   2.076   5.780  0.6567 -0.2871 -0.3430
 5755SOL    HW228899   0.377   2.216   5.767  0.9587 -3.1235 -1.2577
 5756SOL     OW28900   0.777   4.287   0.302 -0.5072  0.3196  0.5455
 5756SOL    HW128901   0.818   4.362   0.346  2.9774 -0.8143 -0.7606
 5756SOL    HW228902   0.805   4.221   0.365 -1.6672 -0.9549 -0.2833
 5757SOL     OW28903   0.555   0.020   4.059 -0.1665 -0.1600  0.2210
 5757SOL    HW128904   0.587   0.080   4.125 -0.9080  0.4260  0.0422
 5757SOL    HW228905   0.461   0.035   4.056  0.4673  3.9119  0.8340
 5758SOL     OW28906   1.084   2.125  14.908 -0.6675  0.7026  0.0438
 5758SOL    HW128907   1.114   2.052  14.855 -4.6029 -1.1693  0.4074
 5758SOL    HW228908   0.990   2.109  14.909 -0.7475  1.2334  1.0686
 5759SOL     OW28909   1.694   0.346   6.211  0.0714  0.3744  0.4369
 5759SOL    HW128910   1.780   0.314   6.186 -0.3388  0.2372 -0.8055
 5759SOL    HW228911   1.641   0.315   6.137  2.3755  1.3772 -1.6392
 5760SOL     OW28912   4.612   3.427   5.065  0.3804  0.5155  0.9382
 5760SOL    HW128913   4.570   3.371   5.130 -0.7664  1.7087  1.2157
 5760SOL    HW228914   4.596   3.512   5.107 -2.6785 -1.7882  4.3861
 5761SOL     OW28915   3.825   4.119  17.113 -0.6139 -0.4376  0.2632
 5761SOL    HW128916   3.736   4.099  17.140 -0.1530 -2.1735  0.4495
 5761SOL    HW228917   3.854   4.193  17.167  0.6338 -0.3732 -0.4679
 5762SOL     OW28918   3.204   2.524   4.558  0.1127  0.2704 -0.1780
 5762SOL    HW128919   3.273   2.461   4.579 -1.4200 -0.7236  1.7608
 5762SOL    HW228920   3.148   2.508   4.634 -0.2404 -0.2095 -0.5414
 5763SOL     OW28921   3.869   1.745   6.062 -0.4942  0.2496 -0.4533
 5763SOL    HW128922   3.902   1.796   5.988 -0.2326  0.2207 -0.3563
 5763SOL    HW228923   3.944   1.692   6.089 -1.1275  0.7376  2.3136
 5764SOL     OW28924   3.240   3.837   2.113 -0.0719 -0.1177  0.5580
 5764SOL    HW128925   3.180   3.868   2.181  1.5985  1.4630  1.2935
 5764SOL    HW228926   3.231   3.904   2.045 -0.3516  0.7330  1.4378
 5765SOL     OW28927   0.300   1.116   6.269  0.2987  0.2491  0.2744
 5765SOL    HW128928   0.205   1.105   6.263  0.0122  2.2596  0.9341
 5765SOL    HW228929   0.301   1.198   6.319  1.0624 -0.2330  1.0457
 5766SOL     OW28930   2.153   3.649   6.331 -0.1360  0.0798 -0.2481
 5766SOL    HW128931   2.061   3.625   6.342 -0.0265 -0.2956 -0.1585
 5766SOL    HW228932   2.189   3.568   6.366 -0.8655  0.2152  0.8095
 5767SOL     OW28933   4.588   0.521   7.532 -0.3592 -0.4796  0.4193
 5767SOL    HW128934   4.546   0.435   7.535 -0.2001 -0.6073 -1.0243
 5767SOL    HW228935   4.523   0.580   7.569 -0.3430  1.1109 -2.0493
 5768SOL     OW28936   3.275   3.951   3.726  0.1145 -0.3540  0.0556
 5768SOL    HW128937   3.238   3.959   3.814  0.7509  0.9170  0.2154
 5768SOL    HW228938   3.332   3.876   3.744 -2.3744 -2.3097 -0.4031
 5769SOL     OW28939   1.128   0.857   8.291  0.3103 -0.5208 -0.1714
 5769SOL    HW128940   1.197   0.812   8.340 -0.5018  0.1152  1.5880
 5769SOL    HW228941   1.090   0.775   8.259  0.1829 -1.8212  3.3087
 5770SOL     OW28942   2.316   0.644  11.990 -0.5421 -0.3197 -0.1814
 5770SOL    HW128943   2.287   0.586  11.920 -0.7889  1.7333 -1.7896
 5770SOL    HW228944   2.410   0.654  11.973 -0.2808 -2.1012  0.2751
 5771SOL     OW28945   4.560   2.391   7.156 -0.9515 -0.1964 -0.9875
 5771SOL    HW128946   4.477   2.407   7.201 -0.4388  1.0840 -0.4937
 5771SOL    HW228947   4.612   2.365   7.233 -1.6329 -1.0589 -0.8200
 5772SOL     OW28948   0.848   4.192   6.930  0.4225  0.0999  0.0572
 5772SOL    HW128949   0.797   4.143   6.994  1.8249  0.9989  1.8674
 5772SOL    HW228950   0.794   4.175   6.853  3.6319 -0.3198 -2.1128
 5773SOL     OW28951   1.554   0.357   4.077 -0.1196  0.0281  0.2281
 5773SOL    HW128952   1.618   0.408   4.126 -1.7326  2.4752 -0.2331
 5773SOL    HW228953   1.532   0.419   4.007 -0.2702  0.6482  0.8290
 5774SOL     OW28954   0.328   2.395   3.447  0.6569  0.6009  0.2505
 5774SOL    HW128955   0.331   2.300   3.432  1.4545  0.7444 -0.5320
 5774SOL    HW228956   0.382   2.418   3.371  1.5007  2.3230  1.3708
 5775SOL     OW28957   1.449   1.740   0.769 -0.1735  0.0012 -0.3666
 5775SOL    HW128958   1.495   1.656   0.772  0.0505  0.2164  1.6856
 5775SOL    HW228959   1.413   1.725   0.681 -0.3592  0.8011 -0.4243
 5776SOL     OW28960   0.888   0.873   5.811  0.1413  0.4123  0.1497
 5776SOL    HW128961   0.820   0.933   5.841 -0.3133  1.3017 -2.5975
 5776SOL    HW228962   0.892   0.902   5.720  0.8036 -1.3962 -0.3983
 5777SOL     OW28963   0.675   3.530  11.355 -0.1448 -0.2913  0.3858
 5777SOL    HW128964   0.738   3.536  11.283  0.0825 -2.2022  0.4232
 5777SOL    HW228965   0.706   3.608  11.400 -0.7362  0.9393 -1.3668
 5778SOL     OW28966   4.576   2.966  15.482 -0.2111 -0.1440 -0.2940
 5778SOL    HW128967   4.569   2.877  15.448 -3.2122 -0.2469  0.6139
 5778SOL    HW228968   4.623   2.951  15.564  0.4903 -0.1400 -0.6946
 5779SOL     OW28969   1.195   0.235   4.612  0.3164 -0.6629  0.1504
 5779SOL    HW128970   1.195   0.313   4.667  0.3460  0.0234 -0.8292
 5779SOL    HW228971   1.179   0.276   4.527  0.1920 -0.0190  0.4884
 5780SOL     OW28972   2.891   0.692  17.070  0.3792  0.3861 -0.4678
 5780SOL    HW128973   2.802   0.657  17.081  0.6513 -0.0967  0.2057
 5780SOL    HW228974   2.867   0.783  17.089  1.0927  0.6723 -0.9449
 5781SOL     OW28975   1.674   0.636  16.650 -0.0389 -0.0791 -0.0004
 5781SOL    HW128976   1.672   0.666  16.741  0.6615  0.9739 -0.3252
 5781SOL    HW228977   1.754   0.584  16.643 -1.2630 -2.1157  1.1990
 5782SOL     OW28978   1.531   3.217   7.981 -0.8187  0.2526 -1.0277
 5782SOL    HW128979   1.510   3.253   7.895 -0.9748 -1.2701 -1.6194
 5782SOL    HW228980   1.548   3.124   7.966 -1.5021  0.0780 -0.6864
 5783SOL     OW28981   4.409   1.776   7.325  0.0371  0.1715 -0.0942
 5783SOL    HW128982   4.452   1.754   7.242 -1.4514 -1.7629 -0.3258
 5783SOL    HW228983   4.485   1.797   7.380  0.2879  0.0708 -0.4032
 5784SOL     OW28984   1.001   3.222   9.327 -0.6005 -0.4853 -0.3027
 5784SOL    HW128985   0.991   3.300   9.273  1.4133 -0.5287 -0.7353
 5784SOL    HW228986   0.910   3.205   9.352 -1.0827  0.5641 -1.3698
 5785SOL     OW28987   2.956   4.384   9.136  0.8826 -1.2471 -0.3761
 5785SOL    HW128988   2.910   4.336   9.205  0.8727 -2.0047 -0.9080
 5785SOL    HW228989   2.933   4.330   9.060  1.1771 -0.0081 -1.3365
 5786SOL     OW28990   4.526   0.575  12.212 -0.1742 -0.1302 -0.2747
 5786SOL    HW128991   4.494   0.635  12.145 -2.3666 -1.3676 -0.3241
 5786SOL    HW228992   4.571   0.510  12.157  1.0488  1.0599 -0.6761
 5787SOL     OW28993   2.731   0.197   2.328 -0.0669  0.0558  0.3983
 5787SOL    HW128994   2.700   0.287   2.323 -1.4748 -0.3902  0.9017
 5787SOL    HW228995   2.653   0.144   2.313  0.5367 -0.4635 -0.8633
 5788SOL     OW28996   2.294   3.222   4.146  0.4289  0.2140 -0.2749
 5788SOL    HW128997   2.206   3.205   4.181  0.5832 -0.6654 -0.3356
 5788SOL    HW228998   2.336   3.138   4.132 -0.7721 -0.7778  2.0733
 5789SOL     OW28999   3.815   2.518  11.427  0.0394  0.0701  0.2793
 5789SOL    HW129000   3.723   2.531  11.450  0.6952 -0.7232  3.3901
 5789SOL    HW229001   3.849   2.607  11.436 -0.1030 -0.1296  2.9819
 5790SOL     OW29002   3.523   4.553   1.041  0.6188 -0.0474  0.1095
 5790SOL    HW129003   3.439   4.564   1.084  0.4740  0.3238 -0.2677
 5790SOL    HW229004   3.523   4.460   1.020  0.7736 -0.5316  2.2357
 5791SOL     OW29005   0.912   1.841   3.528 -0.0448 -0.0543  0.6452
 5791SOL    HW129006   0.884   1.800   3.609  0.3353 -0.0382  0.7855
 5791SOL    HW229007   1.004   1.815   3.527  0.1565  0.6895 -2.2120
 5792SOL     OW29008   1.979   4.627  13.227 -0.6276  0.3506  0.6869
 5792SOL    HW129009   2.001   4.540  13.260 -2.7875 -0.1592  0.8077
 5792SOL    HW229010   1.995   4.684  13.302  0.4173 -0.8827  1.3839
 5793SOL     OW29011   3.236   3.222   0.183  0.2117  0.1526 -0.2972
 5793SOL    HW129012   3.297   3.274   0.131  1.3423 -0.4083  0.4628
 5793SOL    HW229013   3.292   3.148   0.206  0.3063  0.3869  0.2241
 5794SOL     OW29014   0.692   2.171   7.779  0.3005  0.5168  0.3135
 5794SOL    HW129015   0.641   2.173   7.860  0.8953 -2.0850  0.7691
 5794SOL    HW229016   0.618   2.180   7.718 -1.2471  4.1975  2.7215
 5795SOL     OW29017   3.054   2.694   7.384 -0.0158  0.1242  0.1335
 5795SOL    HW129018   3.063   2.644   7.465  3.8150  0.1915 -0.2652
 5795SOL    HW229019   3.107   2.772   7.401 -0.9479  0.8681 -0.3410
 5796SOL     OW29020   0.426   2.219   9.668  0.2231  0.5589 -0.0968
 5796SOL    HW129021   0.383   2.300   9.696 -1.6320 -1.4071  2.8430
 5796SOL    HW229022   0.361   2.159   9.706 -0.4185  0.7610 -0.8697
 5797SOL     OW29023   1.353   0.301  14.697 -0.5058 -0.1796  0.1086
 5797SOL    HW129024   1.414   0.317  14.769  2.1770 -1.7335 -1.8083
 5797SOL    HW229025   1.407   0.244  14.643  2.4416  0.2230  2.6418
 5798SOL     OW29026   3.305   3.616   7.073 -0.2012  0.2780 -0.4060
 5798SOL    HW129027   3.344   3.679   7.013 -0.2488  0.9860  0.3055
 5798SOL    HW229028   3.216   3.621   7.036  0.0394  0.3759 -0.9714
 5799SOL     OW29029   1.077   4.392   8.973 -0.7434  0.2088  0.5457
 5799SOL    HW129030   1.095   4.311   9.020  1.1337  0.5071  0.3434
 5799SOL    HW229031   1.142   4.447   9.018 -0.3766 -0.9288  1.3870
 5800SOL     OW29032   0.921   0.420   8.184 -0.4237  0.0506  0.2230
 5800SOL    HW129033   0.862   0.406   8.258 -0.6581 -0.0918  0.0080
 5800SOL    HW229034   0.895   0.358   8.117  1.7648 -0.7932  0.1656
 5801SOL     OW29035   3.290   1.663   9.716 -0.2144  0.2233  0.0655
 5801SOL    HW129036   3.238   1.713   9.779 -1.4290  0.2672 -0.9689
 5801SOL    HW229037   3.365   1.641   9.771 -1.0644  0.6871  1.3940
 5802SOL     OW29038   0.373   0.592  10.159  0.1212  0.5777 -0.4616
 5802SOL    HW129039   0.308   0.595  10.089  0.5737 -0.0437 -0.9091
 5802SOL    HW229040   0.449   0.547  10.121 -1.1328  0.0588 -2.3999
 5803SOL     OW29041   4.595   0.264   0.465 -0.2467 -0.2909  0.1266
 5803SOL    HW129042   4.568   0.348   0.428 -1.4318 -1.5085 -1.7916
 5803SOL    HW229043   4.572   0.268   0.558 -1.0364 -1.1090 -0.0288
 5804SOL     OW29044   3.153   0.396   8.709  0.3277 -0.6272 -0.5628
 5804SOL    HW129045   3.183   0.375   8.798  3.7532  2.5361 -1.0159
 5804SOL    HW229046   3.190   0.315   8.673 -0.5291 -0.9973 -0.6196
 5805SOL     OW29047   2.498   0.878   0.093  0.0075 -0.4790 -0.6125
 5805SOL    HW129048   2.541   0.920   0.167 -2.0382 -1.3308  1.0573
 5805SOL    HW229049   2.556   0.802   0.081  0.1495 -0.4793  0.0612
 5806SOL     OW29050   0.825   3.144  16.003 -0.5613  0.6060 -0.4715
 5806SOL    HW129051   0.775   3.062  15.991 -1.4404  1.3006 -1.6492
 5806SOL    HW229052   0.873   3.123  16.083  0.8226  1.7975 -0.9960
 5807SOL     OW29053   1.577   0.229   5.989  0.0830 -0.6294  0.1005
 5807SOL    HW129054   1.485   0.231   5.962 -0.0733  0.1420  0.6922
 5807SOL    HW229055   1.619   0.266   5.911 -0.3705  2.5794  1.3694
 5808SOL     OW29056   3.444   3.829   6.524 -0.4253  0.5120 -0.4539
 5808SOL    HW129057   3.440   3.914   6.481 -2.5714 -0.2457 -1.7421
 5808SOL    HW229058   3.491   3.776   6.461  0.5336  1.2421 -0.3501
 5809SOL     OW29059   3.559   0.568   6.105  0.0639  0.2685 -0.5845
 5809SOL    HW129060   3.472   0.539   6.132  0.4258  0.3171  0.6388
 5809SOL    HW229061   3.605   0.484   6.103 -2.5360 -1.1378 -1.0919
 5810SOL     OW29062   2.998   0.572   4.491  0.6712  0.0929 -0.1014
 5810SOL    HW129063   3.078   0.583   4.542 -0.1624  0.5563  1.0955
 5810SOL    HW229064   3.013   0.614   4.406 -2.3839 -1.4222 -1.4135
 5811SOL     OW29065   1.409   0.683   0.364 -0.2463  0.2708  0.0348
 5811SOL    HW129066   1.417   0.660   0.456 -0.8423  0.0545  0.0294
 5811SOL    HW229067   1.363   0.603   0.339 -1.3258  1.0485 -0.4500
 5812SOL     OW29068   4.175   4.063   7.724 -0.0983  0.2086 -0.0419
 5812SOL    HW129069   4.135   4.110   7.651 -1.4632  1.5347  1.5790
 5812SOL    HW229070   4.183   4.134   7.787  0.1356 -0.5702  0.8005
 5813SOL     OW29071   0.722   0.431   8.461 -0.4919  0.0890 -0.0962
 5813SOL    HW129072   0.638   0.393   8.489  1.1108 -4.0913 -0.8455
 5813SOL    HW229073   0.734   0.500   8.526  0.0210 -0.2576  0.1767
 5814SOL     OW29074   4.703   1.090   0.219  0.1736 -0.3654 -0.0036
 5814SOL    HW129075   4.646   1.135   0.158  1.8935 -0.4994 -1.7233
 5814SOL    HW229076   0.037   1.155   0.235  1.8220 -2.0807 -0.1204
 5815SOL     OW29077   1.154   1.183  15.123 -0.3257  0.2843 -0.3706
 5815SOL    HW129078   1.109   1.248  15.068 -0.3494 -0.8886 -1.7482
 5815SOL    HW229079   1.113   1.192  15.209 -1.6852 -1.9530 -0.7708
 5816SOL     OW29080   4.094   3.739   6.143 -0.0403 -0.2226 -0.2976
 5816SOL    HW129081   4.052   3.820   6.173 -0.1508 -0.5099  0.3232
 5816SOL    HW229082   4.048   3.715   6.063 -1.5451 -3.2058  1.4414
 5817SOL     OW29083   1.499   3.544  14.707  0.4370  0.0027  1.2677
 5817SOL    HW129084   1.527   3.463  14.663 -2.1003 -0.0786 -0.2277
 5817SOL    HW229085   1.478   3.508  14.793  2.2256 -0.7560  1.3945
 5818SOL     OW29086   2.008   0.163   2.474  0.3450  0.2133 -1.0179
 5818SOL    HW129087   2.071   0.228   2.443  0.5501  0.2754 -0.4678
 5818SOL    HW229088   1.966   0.206   2.548  0.7225 -1.7092  0.3023
 5819SOL     OW29089   0.228   4.362   1.738 -0.0728 -0.6655  0.0120
 5819SOL    HW129090   0.285   4.421   1.786  1.0595 -1.7016 -0.0738
 5819SOL    HW229091   0.290   4.315   1.683  1.1136 -0.3849  1.1135
 5820SOL     OW29092   4.384   3.933  15.270  0.1156  0.1347  0.3731
 5820SOL    HW129093   4.440   3.938  15.348  1.1544  2.9026 -0.5567
 5820SOL    HW229094   4.431   3.869  15.217 -0.6930  1.2698 -1.6901
 5821SOL     OW29095   2.398   4.308   8.290  0.4075 -0.6379 -0.7131
 5821SOL    HW129096   2.311   4.318   8.251  0.5361 -0.0653 -0.8466
 5821SOL    HW229097   2.375   4.249   8.362  1.0772 -1.0727 -0.8613
 5822SOL     OW29098   3.316   2.624   0.284 -0.4382 -0.7091 -0.0482
 5822SOL    HW129099   3.371   2.648   0.209  1.2168 -0.1290  1.3477
 5822SOL    HW229100   3.385   2.602   0.346 -1.4118 -0.7179  1.0288
 5823SOL     OW29101   1.686   4.212   8.367 -0.3288  0.0286  0.3432
 5823SOL    HW129102   1.666   4.299   8.332 -0.8975 -0.9258 -1.6963
 5823SOL    HW229103   1.706   4.237   8.457  1.9513 -0.0733 -0.1367
 5824SOL     OW29104   0.282   1.573   5.880 -0.3649 -0.5547  0.1637
 5824SOL    HW129105   0.237   1.651   5.912 -1.4402 -0.9541 -0.3626
 5824SOL    HW229106   0.213   1.514   5.911  1.6995 -1.9739  2.0652
 5825SOL     OW29107   0.507   3.678   2.633  0.4622  0.3413 -0.2627
 5825SOL    HW129108   0.548   3.649   2.714 -0.3716  2.3097  0.8369
 5825SOL    HW229109   0.422   3.710   2.661  0.5860 -0.9961  1.5873
 5826SOL     OW29110   3.703   3.534   5.023 -0.1880  0.2919  0.2766
 5826SOL    HW129111   3.639   3.555   5.092 -1.3616  0.1430 -0.7772
 5826SOL    HW229112   3.784   3.559   5.067 -1.0435  1.4649  1.2220
 5827SOL     OW29113   2.196   4.469  16.684 -0.0737  0.1582  0.5965
 5827SOL    HW129114   2.232   4.533  16.623  0.8030  1.7662  2.8306
 5827SOL    HW229115   2.224   4.501  16.770 -0.2936 -2.3137  1.5904
 5828SOL     OW29116   1.498   0.127  15.082 -0.2851  0.3184 -0.1418
 5828SOL    HW129117   1.516   0.106  15.174  1.7953  0.0357 -0.6141
 5828SOL    HW229118   1.406   0.101  15.074  0.0833 -0.8412 -0.6067
 5829SOL     OW29119   0.643   1.522   1.600 -0.4446 -0.0329  0.0603
 5829SOL    HW129120   0.605   1.475   1.526  2.5720  0.3710 -1.7482
 5829SOL    HW229121   0.727   1.478   1.615 -1.2378 -1.5244  0.1678
 5830SOL     OW29122   1.267   1.041   6.430 -0.1672 -0.3086 -0.3141
 5830SOL    HW129123   1.257   1.002   6.517 -0.6954  0.9422  0.1947
 5830SOL    HW229124   1.204   1.112   6.424 -0.1640 -0.3817 -1.1658
 5831SOL     OW29125   3.707   0.426   8.630 -0.3366 -0.2577 -0.2173
 5831SOL    HW129126   3.784   0.414   8.685  1.3433  0.1099 -2.4895
 5831SOL    HW229127   3.635   0.397   8.685 -1.2629  0.3172 -1.1292
 5832SOL     OW29128   1.015   1.080   8.364 -0.4339 -0.0805 -0.1530
 5832SOL    HW129129   0.957   1.024   8.311  0.2875 -0.9252 -0.0434
 5832SOL    HW229130   1.092   1.024   8.355 -0.5984 -0.2215 -0.7244
 5833SOL     OW29131   2.596   2.125  14.617  0.3422 -0.5092 -0.8480
 5833SOL    HW129132   2.679   2.078  14.608  0.9380  0.2562  0.7577
 5833SOL    HW229133   2.630   2.214  14.605 -0.2143  0.0883  2.0014
 5834SOL     OW29134   4.564   2.006   8.505  0.5450  0.3201 -0.1172
 5834SOL    HW129135   4.500   1.972   8.442 -0.5694  3.2285 -0.5703
 5834SOL    HW229136   4.513   2.075   8.549 -0.7774  0.0481 -1.2362
 5835SOL     OW29137   4.074   3.311   7.894  0.0677  0.5226  0.1336
 5835SOL    HW129138   4.115   3.334   7.810 -0.3342  0.5982 -0.0412
 5835SOL    HW229139   4.135   3.241   7.919 -2.0649 -0.9518  1.1967
 5836SOL     OW29140   3.837   0.775   5.691  0.1773  0.1078  0.5598
 5836SOL    HW129141   3.815   0.829   5.767  0.9019 -0.5841  1.2500
 5836SOL    HW229142   3.755   0.732   5.667 -0.8392  0.6336  3.0841
 5837SOL     OW29143   1.190   3.779   2.796 -0.2329 -0.3961 -0.8406
 5837SOL    HW129144   1.238   3.696   2.797 -0.7636 -0.7086 -1.2338
 5837SOL    HW229145   1.207   3.806   2.705  1.1148 -1.3478 -0.8628
 5838SOL     OW29146   0.490   2.965  16.863  0.0915 -0.5067 -0.1418
 5838SOL    HW129147   0.512   3.033  16.799 -0.5881 -0.2572 -0.1052
 5838SOL    HW229148   0.518   2.889  16.811  0.3444 -1.2810  1.1072
 5839SOL     OW29149   0.913   0.585  12.032 -0.0102 -0.0483 -0.7625
 5839SOL    HW129150   0.965   0.505  12.044  1.7970  0.9869 -1.6179
 5839SOL    HW229151   0.910   0.624  12.120 -2.1771 -3.2335  0.5315
 5840SOL     OW29152   0.231   1.145   1.927  0.0401  0.3549  0.0374
 5840SOL    HW129153   0.261   1.198   2.001  0.3345  0.3222 -0.0592
 5840SOL    HW229154   0.139   1.168   1.932 -0.1093  0.3938 -3.3459
 5841SOL     OW29155   0.061   3.814   8.012  0.2171  0.5326  0.0714
 5841SOL    HW129156   0.059   3.789   8.104 -0.2633 -3.1176 -0.9289
 5841SOL    HW229157   0.008   3.743   7.976  0.1592  0.9707 -0.7137
 5842SOL     OW29158   2.968   2.365   2.622 -0.5207 -0.1332 -0.4457
 5842SOL    HW129159   3.026   2.438   2.642 -0.4482 -0.9766  2.4514
 5842SOL    HW229160   2.919   2.398   2.547 -0.5027 -1.7748 -1.1849
 5843SOL     OW29161   2.023   0.899   2.938 -0.0241 -0.6369 -0.0127
 5843SOL    HW129162   2.036   0.928   2.848  2.6424  0.4513  0.7051
 5843SOL    HW229163   1.983   0.814   2.922  1.5416 -1.0575 -1.6768
 5844SOL     OW29164   3.348   1.878   8.218  0.1703  0.0631 -0.0048
 5844SOL    HW129165   3.287   1.806   8.203 -0.0618  0.3781 -0.5605
 5844SOL    HW229166   3.431   1.831   8.206  0.7378  1.3122 -0.9255
 5845SOL     OW29167   1.717   3.688   6.417  0.1061  0.2931 -0.1172
 5845SOL    HW129168   1.746   3.742   6.491  1.0640  0.8307 -0.8820
 5845SOL    HW229169   1.792   3.629   6.409  0.7020  1.1700 -1.0420
 5846SOL     OW29170   2.225   1.182   2.080  0.2010  0.2666 -0.2804
 5846SOL    HW129171   2.249   1.241   2.152 -1.7562 -2.3119  2.5053
 5846SOL    HW229172   2.252   1.093   2.102  1.2511  0.5261 -0.5193
 5847SOL     OW29173   2.333   2.892   8.417  0.1225  0.1452 -0.0543
 5847SOL    HW129174   2.237   2.888   8.406 -0.1451 -0.4724  2.4226
 5847SOL    HW229175   2.363   2.919   8.330 -0.7800 -1.9450 -1.0273
 5848SOL     OW29176   0.512   3.398   3.231  0.1011 -0.1032  0.1827
 5848SOL    HW129177   0.505   3.422   3.323 -1.3690  2.2195 -0.5175
 5848SOL    HW229178   0.422   3.373   3.212 -0.0158 -1.6896  2.9230
 5849SOL     OW29179   1.150   0.320   7.307 -0.6538 -0.5422  0.0683
 5849SOL    HW129180   1.181   0.234   7.337  0.8140  1.0009  2.8836
 5849SOL    HW229181   1.228   0.362   7.271  0.6591 -3.4655 -0.5166
 5850SOL     OW29182   2.357   0.386  10.509  0.4930  0.0024  0.5222
 5850SOL    HW129183   2.297   0.456  10.536 -0.2220  0.6728 -2.7951
 5850SOL    HW229184   2.308   0.349  10.435 -0.0357  2.1878 -0.2276
 5851SOL     OW29185   1.334   4.622   7.152  0.2376  0.1001  0.1121
 5851SOL    HW129186   1.412   4.628   7.208  0.3169 -1.3085  0.1437
 5851SOL    HW229187   1.275   4.578   7.213  0.1124 -0.9384 -0.7664
 5852SOL     OW29188   0.611   4.552   6.829 -0.4384  0.3438  0.1039
 5852SOL    HW129189   0.533   4.501   6.853 -0.5390 -0.0520 -1.0819
 5852SOL    HW229190   0.673   4.513   6.890  0.2498 -1.2353 -1.6175
 5853SOL     OW29191   4.331   0.802   0.573  1.0224 -0.2698 -0.3358
 5853SOL    HW129192   4.319   0.889   0.536  0.7231 -0.0243  0.3283
 5853SOL    HW229193   4.243   0.772   0.595  0.6910  1.9594  1.3955
 5854SOL     OW29194   1.504   3.399  11.248 -0.2161  0.2972  0.4117
 5854SOL    HW129195   1.498   3.420  11.341  0.8991  1.0227  0.3104
 5854SOL    HW229196   1.558   3.472  11.219  2.1628 -0.8437  1.9952
 5855SOL     OW29197   4.378   3.001   7.688 -0.0028  0.3511  0.1810
 5855SOL    HW129198   4.351   3.005   7.596  1.6156  1.8170 -0.2243
 5855SOL    HW229199   4.409   2.911   7.694 -2.0694 -0.1704  3.3665
 5856SOL     OW29200   0.168   3.685   4.392  0.0250 -0.2330  0.1512
 5856SOL    HW129201   0.239   3.682   4.456  0.0454  0.2578  0.1491
 5856SOL    HW229202   0.207   3.700   4.306  2.4303  0.2994  1.3283
 5857SOL     OW29203   3.822   2.386  10.711 -0.5173 -0.4206 -0.1098
 5857SOL    HW129204   3.766   2.377  10.788  0.1597 -1.3438  0.2809
 5857SOL    HW229205   3.840   2.475  10.742 -3.5867 -0.9900  3.3138
 5858SOL     OW29206   1.073   2.586   4.340 -0.1652  0.3190 -0.4738
 5858SOL    HW129207   1.114   2.606   4.424  0.7096 -2.9870 -0.1417
 5858SOL    HW229208   1.151   2.568   4.287 -0.1708 -1.7581  0.2243
 5859SOL     OW29209   0.927   3.447   2.375  0.1243  0.4070  0.0527
 5859SOL    HW129210   0.955   3.522   2.427  2.3573 -0.0954 -0.4315
 5859SOL    HW229211   0.887   3.488   2.298 -0.0267  0.7272  0.3012
 5860SOL     OW29212   3.604   2.026   2.659  0.4303 -0.1081  0.3180
 5860SOL    HW129213   3.520   1.995   2.625  0.4885 -0.3816  0.4241
 5860SOL    HW229214   3.646   1.944   2.686 -0.9818 -1.3452 -1.2045
 5861SOL     OW29215   2.247   1.795  15.355  0.9066  0.1221 -0.0136
 5861SOL    HW129216   2.315   1.798  15.422  0.5012  0.4468  0.3839
 5861SOL    HW229217   2.249   1.880  15.312  2.5094 -1.3588 -2.8202
 5862SOL     OW29218   2.724   3.848  17.188  0.4285 -0.2587  0.1486
 5862SOL    HW129219   2.689   3.881  17.106 -1.8211  0.2276  1.3270
 5862SOL    HW229220   2.649   3.811  17.234  1.0446 -1.1129  0.4852
 5863SOL     OW29221   1.927   2.854   2.829 -0.2496  0.2399  0.0619
 5863SOL    HW129222   1.912   2.858   2.924  2.1032  3.7362  0.2842
 5863SOL    HW229223   1.841   2.885   2.802  0.1347 -0.1211 -1.5895
 5864SOL     OW29224   0.643   2.929   9.761 -0.0575  0.2936  0.0067
 5864SOL    HW129225   0.733   2.919   9.789 -0.1255  0.0192  0.1274
 5864SOL    HW229226   0.602   2.848   9.791 -2.6757  1.0237 -1.5325
 5865SOL     OW29227   2.626   4.069   9.112 -0.1702  0.4634 -0.2389
 5865SOL    HW129228   2.547   4.078   9.059  0.9882  2.4563 -1.6343
 5865SOL    HW229229   2.669   3.991   9.077 -1.0809 -0.9490  1.7755
 5866SOL     OW29230   1.292   2.062   6.660 -0.1594 -1.1138 -0.3559
 5866SOL    HW129231   1.209   2.108   6.645 -0.0948 -1.0392 -0.4923
 5866SOL    HW229232   1.282   1.991   6.596  0.7085 -1.2355 -0.3504
 5867SOL     OW29233   3.803   2.214   2.084  0.2583 -0.0520  0.1062
 5867SOL    HW129234   3.832   2.272   2.153 -0.7027 -0.3724  0.7813
 5867SOL    HW229235   3.765   2.147   2.141  0.7687 -0.7706 -0.4010
 5868SOL     OW29236   1.786   2.009   6.746 -0.4153 -0.2136  0.2570
 5868SOL    HW129237   1.812   1.961   6.825  0.1756 -0.8521 -0.3238
 5868SOL    HW229238   1.694   1.979   6.746 -0.5857  0.3062  2.3097
 5869SOL     OW29239   1.237   3.442   2.280 -0.3682  0.1540 -0.0069
 5869SOL    HW129240   1.240   3.354   2.242 -0.0086 -0.5157  1.5469
 5869SOL    HW229241   1.145   3.463   2.267  0.1592  2.7459  0.4514
 5870SOL     OW29242   3.914   3.899   5.291 -0.6279  0.9013  0.3273
 5870SOL    HW129243   3.922   3.960   5.218  2.9640  0.7349  0.5765
 5870SOL    HW229244   3.862   3.830   5.250  1.8774 -0.8449  0.0814
 5871SOL     OW29245   2.148   3.909   6.444  0.0180  0.2736  0.6287
 5871SOL    HW129246   2.169   3.832   6.392  0.2417  0.9570 -0.2987
 5871SOL    HW229247   2.207   3.977   6.410 -0.3072 -0.8282 -2.1380
 5872SOL     OW29248   1.582   4.491   5.759 -0.5030  0.6159  0.8492
 5872SOL    HW129249   1.522   4.548   5.711  1.5207  3.3188  1.5623
 5872SOL    HW229250   1.590   4.532   5.845 -0.5445 -2.9379  2.5754
 5873SOL     OW29251   3.853   1.447   9.361  0.2614 -0.0899 -0.4399
 5873SOL    HW129252   3.796   1.454   9.437 -0.4134  2.3036 -1.1738
 5873SOL    HW229253   3.823   1.367   9.317  2.5556 -1.5094  0.5129
 5874SOL     OW29254   1.494   1.840   7.010  0.3006  0.5403  0.4912
 5874SOL    HW129255   1.505   1.745   7.012  1.1035  0.6295  0.2159
 5874SOL    HW229256   1.560   1.865   7.075 -0.1227 -0.0568  1.1574
 5875SOL     OW29257   2.709   1.421   2.864  0.1186  0.3331 -0.2471
 5875SOL    HW129258   2.708   1.488   2.795 -0.6130 -0.9547 -1.5002
 5875SOL    HW229259   2.762   1.351   2.825 -1.4324 -0.5196 -0.8177
 5876SOL     OW29260   2.335   2.105  13.253  0.6471  0.3230  0.3670
 5876SOL    HW129261   2.417   2.112  13.302 -0.0356  1.4722  1.3566
 5876SOL    HW229262   2.281   2.155  13.314 -2.7271 -1.1188 -1.4349
 5877SOL     OW29263   3.222   2.878   7.505  0.8092 -0.1095  0.5615
 5877SOL    HW129264   3.226   2.932   7.425 -0.1864 -1.7477 -0.5757
 5877SOL    HW229265   3.314   2.868   7.531  0.7563 -0.3454  0.6561
 5878SOL     OW29266   1.818   2.348   3.567  0.4425  0.2222 -0.3307
 5878SOL    HW129267   1.902   2.394   3.559  1.0327 -0.7436  0.4005
 5878SOL    HW229268   1.806   2.301   3.485 -1.4585  0.3417 -0.1295
 5879SOL     OW29269   0.405   2.348   8.343  0.0161  0.3409  0.0339
 5879SOL    HW129270   0.413   2.276   8.406 -0.3746 -1.3623 -1.8683
 5879SOL    HW229271   0.490   2.390   8.337  1.4224 -2.8956 -2.2326
 5880SOL     OW29272   1.894   2.218  10.748  0.2936 -0.0112  0.6665
 5880SOL    HW129273   1.920   2.272  10.822  0.2537 -0.7729  1.2393
 5880SOL    HW229274   1.922   2.267  10.671  0.9724  1.2558  1.7304
 5881SOL     OW29275   0.988   2.772   0.495  0.2531  0.4500  0.0991
 5881SOL    HW129276   1.014   2.828   0.422  0.1993  1.1210  0.5908
 5881SOL    HW229277   1.001   2.834   0.567 -1.8472 -0.2935  1.1130
 5882SOL     OW29278   4.569   2.343   4.985  0.1825 -0.6154  0.3877
 5882SOL    HW129279   4.631   2.408   5.018 -3.7836  1.5017  3.6479
 5882SOL    HW229280   4.489   2.369   5.031  0.6057  1.9713 -0.3334
 5883SOL     OW29281   3.153   2.551   7.789  0.1157  0.2340  0.2569
 5883SOL    HW129282   3.196   2.636   7.782 -0.1665  0.4946  1.6876
 5883SOL    HW229283   3.220   2.488   7.763 -0.0481  0.9460 -1.8614
 5884SOL     OW29284   1.010   1.562   1.044  0.4692 -0.5812  0.0651
 5884SOL    HW129285   1.052   1.614   0.975  1.2221 -0.8508  0.3205
 5884SOL    HW229286   1.015   1.620   1.120  2.5378 -0.1633 -0.3761
 5885SOL     OW29287   4.601   0.293   6.530  0.3502  0.2163  0.2311
 5885SOL    HW129288   4.578   0.208   6.490  1.4090  0.4537 -0.8990
 5885SOL    HW229289   4.632   0.345   6.456  1.1987 -0.7142 -0.0697
 5886SOL     OW29290   3.252   2.880  13.988 -0.3227  0.4376  0.0177
 5886SOL    HW129291   3.310   2.897  14.063 -0.6227  0.7481  0.1819
 5886SOL    HW229292   3.282   2.942  13.922  1.5514 -0.9093 -0.3755
 5887SOL     OW29293   1.921   4.443   8.417 -0.3776 -0.2549  0.1254
 5887SOL    HW129294   1.833   4.472   8.393 -0.6346  0.3951  1.8091
 5887SOL    HW229295   1.977   4.477   8.347  2.2498  0.4056  2.5425
 5888SOL     OW29296   1.850   3.047   8.138  0.4065 -0.1459 -0.9094
 5888SOL    HW129297   1.882   3.000   8.215 -0.3465 -0.8108 -1.0032
 5888SOL    HW229298   1.774   3.089   8.178  1.3085  1.6174 -1.0373
 5889SOL     OW29299   2.176   4.303  15.224  0.2611  0.1986  0.0692
 5889SOL    HW129300   2.247   4.253  15.183 -0.9677 -0.1481 -1.6504
 5889SOL    HW229301   2.106   4.239  15.238  0.7000 -0.1209  0.7746
 5890SOL     OW29302   4.682   3.118  15.250  0.2261 -0.0048  0.1019
 5890SOL    HW129303   4.630   3.050  15.291  0.8011  0.7190  2.0141
 5890SOL    HW229304   4.688   3.185  15.318  2.2912  0.8265 -0.9057
 5891SOL     OW29305   3.669   4.427   1.313 -0.5017 -0.3629  0.0208
 5891SOL    HW129306   3.653   4.457   1.224  0.8885 -1.0358 -0.4567
 5891SOL    HW229307   3.598   4.453   1.371 -0.2984 -1.3325  0.7210
 5892SOL     OW29308   2.063   2.362   2.655  0.6510 -0.5014  0.7936
 5892SOL    HW129309   2.004   2.418   2.705 -0.1682 -0.4149 -0.2761
 5892SOL    HW229310   2.077   2.414   2.575  0.7439 -1.3051  0.2830
 5893SOL     OW29311   3.962   3.971   9.701  0.1901  0.1143  0.5336
 5893SOL    HW129312   3.903   3.953   9.774 -0.3611  1.1174  0.3397
 5893SOL    HW229313   3.911   4.033   9.648  1.8645 -1.3820 -2.8277
 5894SOL     OW29314   3.844   3.665  17.706  0.0426  0.3288  0.5266
 5894SOL    HW129315   3.794   3.711  17.638 -0.6929  0.6357  1.2767
 5894SOL    HW229316   3.927   3.713  17.702  0.7280 -1.0149 -1.0721
 5895SOL     OW29317   2.778   2.658   4.034  0.3668 -0.4319  0.4019
 5895SOL    HW129318   2.749   2.575   3.997 -1.6754 -1.0321  3.2970
 5895SOL    HW229319   2.744   2.652   4.124  0.1746  1.9333  0.4908
 5896SOL     OW29320   0.447   1.824   9.221  0.3900 -0.4447 -0.0634
 5896SOL    HW129321   0.506   1.881   9.270  0.6004 -0.4774 -0.2818
 5896SOL    HW229322   0.494   1.798   9.141  0.0661 -2.3462  0.3795
 5897SOL     OW29323   0.379   0.189   2.165 -0.8703 -0.0964 -0.0022
 5897SOL    HW129324   0.357   0.282   2.156 -1.9890 -0.3560  0.0557
 5897SOL    HW229325   0.325   0.163   2.240  1.6750 -0.5781  1.6593
 5898SOL     OW29326   3.419   0.166   7.807  0.1075 -0.1906  0.1554
 5898SOL    HW129327   3.370   0.182   7.727  0.0990 -0.1148  0.1760
 5898SOL    HW229328   3.382   0.078   7.817  0.4351 -0.4045 -0.5176
 5899SOL     OW29329   1.587   3.084   5.876  0.5859  0.1077 -0.2060
 5899SOL    HW129330   1.496   3.107   5.857  1.2892  1.6315 -1.7592
 5899SOL    HW229331   1.587   3.082   5.971  0.0501  1.4257 -0.1783
 5900SOL     OW29332   4.504   0.929   7.172  0.3026  0.0848  0.3523
 5900SOL    HW129333   4.424   0.909   7.125  0.3280  0.0862  0.3085
 5900SOL    HW229334   4.524   1.016   7.139 -2.0251 -0.1905 -1.6940
 5901SOL     OW29335   1.476   3.915   9.785 -0.1661 -0.2916 -0.0538
 5901SOL    HW129336   1.387   3.882   9.799 -0.2277  0.5463  1.4926
 5901SOL    HW229337   1.527   3.857   9.841  0.1053 -0.0938 -0.0970
 5902SOL     OW29338   3.612   1.062  13.026 -0.5714 -0.1219 -0.2269
 5902SOL    HW129339   3.679   1.051  12.958  0.0765  1.5656  0.1483
 5902SOL    HW229340   3.572   0.975  13.030  0.1226 -0.4965 -1.5417
 5903SOL     OW29341   4.066   3.133   2.959 -0.0679  0.4100  0.2395
 5903SOL    HW129342   4.027   3.105   2.876  0.3759  2.1012 -0.5335
 5903SOL    HW229343   4.155   3.104   2.939 -0.0828 -0.4813  1.4904
 5904SOL     OW29344   4.473   3.005  16.562  0.6051 -0.2869 -0.0756
 5904SOL    HW129345   4.497   3.086  16.518  1.4063 -0.2336  0.4592
 5904SOL    HW229346   4.559   2.982  16.596  1.0178 -1.9810 -2.2406
 5905SOL     OW29347   0.854   4.450   4.342  0.3150 -0.2101  0.2367
 5905SOL    HW129348   0.891   4.510   4.278  0.4242 -0.0616  0.4372
 5905SOL    HW229349   0.764   4.451   4.308 -0.3995 -3.2735  1.9518
 5906SOL     OW29350   2.576   1.875   3.360 -0.1943  0.2057 -0.1512
 5906SOL    HW129351   2.586   1.965   3.330 -1.6924  0.1870 -0.7068
 5906SOL    HW229352   2.656   1.844   3.316 -0.4746  0.0447 -0.5468
 5907SOL     OW29353   3.892   2.414   2.283 -0.6964 -0.4894 -0.5704
 5907SOL    HW129354   3.869   2.507   2.285  0.9162 -0.1264  0.9607
 5907SOL    HW229355   3.972   2.417   2.335 -1.2462  0.0924  0.2386
 5908SOL     OW29356   3.927   0.862   1.005 -0.0603 -0.3032 -0.3114
 5908SOL    HW129357   3.841   0.891   1.036  1.4661  1.3133  2.4685
 5908SOL    HW229358   3.915   0.878   0.911  3.1919  0.5395 -0.5875
 5909SOL     OW29359   1.073   4.004   4.819 -0.0246  0.1726  0.1887
 5909SOL    HW129360   1.148   3.992   4.878 -0.7575  1.7094  1.4550
 5909SOL    HW229361   1.102   4.084   4.776  0.9906  0.0921  0.7134
 5910SOL     OW29362   1.280   2.421   5.787  0.3035 -0.1534  0.2916
 5910SOL    HW129363   1.191   2.422   5.752  0.7843  1.6828 -0.8749
 5910SOL    HW229364   1.323   2.387   5.708 -0.9458  0.6373 -0.7158
 5911SOL     OW29365   2.282   4.661   6.848 -0.0445 -0.4039  0.2962
 5911SOL    HW129366   2.253   4.713   6.773 -1.4985  1.3779  2.0975
 5911SOL    HW229367   2.244   4.698   6.928 -1.7442  0.4601 -0.9271
 5912SOL     OW29368   0.723   3.068   9.178  0.4445 -0.0493 -0.0576
 5912SOL    HW129369   0.744   3.025   9.261 -0.7163 -0.6675 -0.0893
 5912SOL    HW229370   0.634   3.033   9.173  0.2037  0.3846  1.2491
 5913SOL     OW29371   1.171   0.268  17.664  0.4437  0.5052 -0.4812
 5913SOL    HW129372   1.139   0.194  17.716  0.4620  0.1382 -0.9979
 5913SOL    HW229373   1.259   0.235  17.646  0.6899  2.0525 -2.1462
 5914SOL     OW29374   2.004   0.817  14.699 -0.3047  0.3541 -0.2420
 5914SOL    HW129375   2.002   0.887  14.763 -1.8162 -1.1662  1.3708
 5914SOL    HW229376   1.910   0.816  14.680  0.3581 -0.4406 -3.5306
 5915SOL     OW29377   2.099   4.335   5.384  0.5356 -0.4402 -0.2548
 5915SOL    HW129378   2.099   4.384   5.466 -1.0773 -0.4906 -0.2255
 5915SOL    HW229379   2.121   4.407   5.325  0.4371  0.1861  0.4750
 5916SOL     OW29380   4.351   0.514   4.877 -0.4440  0.0155 -0.5767
 5916SOL    HW129381   4.291   0.588   4.873  0.5328  0.9223  1.5001
 5916SOL    HW229382   4.394   0.523   4.792  0.7164  1.3691  0.1481
 5917SOL     OW29383   2.612   3.238  14.374  0.1254  0.1070 -0.7021
 5917SOL    HW129384   2.653   3.160  14.412 -1.1036 -0.2804 -0.1701
 5917SOL    HW229385   2.646   3.241  14.285 -1.7985  1.1980 -1.3873
 5918SOL     OW29386   1.423   0.930  12.058  0.1696 -0.3783 -0.2897
 5918SOL    HW129387   1.439   0.844  12.096 -2.2957  0.2801  2.1917
 5918SOL    HW229388   1.336   0.935  12.097 -0.4074 -4.5586 -1.0312
 5919SOL     OW29389   2.004   2.816   6.176 -0.5577 -0.1467 -0.8811
 5919SOL    HW129390   1.931   2.831   6.236 -0.7125  0.0128 -1.1123
 5919SOL    HW229391   2.024   2.723   6.190 -0.9281 -0.2206 -0.8374
 5920SOL     OW29392   1.624   3.895   0.349 -0.1750 -0.3365 -0.1410
 5920SOL    HW129393   1.557   3.963   0.342  0.0930 -0.1159 -0.5291
 5920SOL    HW229394   1.634   3.888   0.444 -1.7693  0.3952  0.0906
 5921SOL     OW29395   3.494   2.774   0.093  0.1042 -0.0078 -0.3999
 5921SOL    HW129396   3.450   2.836   0.035 -1.1905 -1.1853 -0.6758
 5921SOL    HW229397   3.532   2.827   0.164 -1.0876 -1.2820  1.1824
 5922SOL     OW29398   4.250   3.252   8.164 -0.2543  0.0384 -0.2700
 5922SOL    HW129399   4.276   3.177   8.110  0.0024  0.0931 -0.2234
 5922SOL    HW229400   4.184   3.217   8.224 -1.5080  2.5650 -0.1539
 5923SOL     OW29401   3.987   4.258   3.369  0.1061 -0.2437 -0.2246
 5923SOL    HW129402   3.997   4.330   3.306  0.8886 -1.0603 -1.0341
 5923SOL    HW229403   3.932   4.297   3.437  2.5197  2.6428  0.0696
 5924SOL     OW29404   4.016   3.077   7.622 -0.0710  0.2324  0.4870
 5924SOL    HW129405   4.045   3.036   7.704 -0.3832  0.2697  0.6198
 5924SOL    HW229406   3.953   3.138   7.661  1.2521  0.9529  1.4869
 5925SOL     OW29407   0.675   2.241   7.371  0.4817  0.4743 -0.6686
 5925SOL    HW129408   0.634   2.171   7.422 -1.5673  3.1193  1.3793
 5925SOL    HW229409   0.722   2.190   7.306 -0.1018 -1.8152  0.6986
 5926SOL     OW29410   3.599   1.269   9.018 -0.5818  0.0606  0.1411
 5926SOL    HW129411   3.693   1.264   9.001 -0.8240  3.5076 -2.1413
 5926SOL    HW229412   3.557   1.273   8.932 -1.5304  0.6519  0.6328
 5927SOL     OW29413   4.662   1.165   1.923  0.0711  0.1087  0.0776
 5927SOL    HW129414   4.571   1.137   1.935  0.3243 -0.7166  0.0561
 5927SOL    HW229415   4.675   1.146   1.830  5.2964  3.2224  0.2240
 5928SOL     OW29416   0.161   2.730   1.176  0.2824 -0.5319 -0.1057
 5928SOL    HW129417   0.224   2.706   1.108 -1.1778 -0.5510 -1.4528
 5928SOL    HW229418   0.126   2.642   1.189  0.3233 -0.6157 -0.5582
 5929SOL     OW29419   1.623   2.762  13.433 -0.4157  0.4312 -0.4152
 5929SOL    HW129420   1.564   2.706  13.484 -1.7005  2.9360  0.8877
 5929SOL    HW229421   1.647   2.710  13.357 -1.8035  1.3402 -1.4766
 5930SOL     OW29422   3.741   0.558  12.760 -0.5923  0.1256  0.6394
 5930SOL    HW129423   3.819   0.607  12.735 -0.2119 -1.1101 -0.6407
 5930SOL    HW229424   3.771   0.484  12.814 -0.4084 -0.3859 -0.1659
 5931SOL     OW29425   0.610   2.004   7.473 -0.2501 -0.0752 -0.5417
 5931SOL    HW129426   0.693   1.961   7.451 -0.7084 -1.2232 -0.0152
 5931SOL    HW229427   0.581   1.962   7.554  0.9859 -0.5526 -0.3387
 5932SOL     OW29428   2.745   0.898   6.788  0.5077  0.1841 -0.6593
 5932SOL    HW129429   2.700   0.883   6.871  0.2152  1.7291 -0.5311
 5932SOL    HW229430   2.709   0.824   6.740 -0.8941 -1.7049  3.3133
 5933SOL     OW29431   3.023   1.578   7.924  0.0254 -0.6051 -0.4912
 5933SOL    HW129432   3.076   1.509   7.885  2.0580  0.0493  1.1264
 5933SOL    HW229433   2.946   1.529   7.953 -0.7845  0.8826 -0.1417
 5934SOL     OW29434   4.262   0.653  11.859  0.0494  0.2555  0.0353
 5934SOL    HW129435   4.180   0.623  11.820 -0.1245  0.3580  0.3209
 5934SOL    HW229436   4.318   0.603  11.800  0.0079 -2.3898  2.2359
 5935SOL     OW29437   3.968   3.540  13.727 -0.3328 -0.0061 -0.1379
 5935SOL    HW129438   3.931   3.496  13.651 -1.8593 -3.2436  2.4800
 5935SOL    HW229439   3.976   3.459  13.778  1.5178  0.6417  0.5899
 5936SOL     OW29440   2.111   0.342  14.587  0.5103 -0.3370  0.1338
 5936SOL    HW129441   2.145   0.292  14.662 -2.2284  0.1534  1.7142
 5936SOL    HW229442   2.194   0.378  14.557  0.8886 -0.8325  0.5818
 5937SOL     OW29443   3.558   2.962   6.883  0.3113  0.0736  0.7467
 5937SOL    HW129444   3.644   3.004   6.879  0.5634 -0.3235  1.9962
 5937SOL    HW229445   3.492   3.031   6.878  0.8414  0.3389 -2.7129
 5938SOL     OW29446   1.687   2.399   6.398  0.6197  0.0442  0.5664
 5938SOL    HW129447   1.767   2.451   6.391  0.0618  0.8808  0.4126
 5938SOL    HW229448   1.645   2.418   6.482 -1.0054  2.4344 -0.7784
 5939SOL     OW29449   3.238   2.955   6.715 -0.0305 -0.2440 -0.3087
 5939SOL    HW129450   3.198   2.903   6.784 -1.5738  0.4722 -0.6528
 5939SOL    HW229451   3.265   3.037   6.757 -0.9645  0.0013 -0.1728
 5940SOL     OW29452   1.397   1.074   7.727  0.0281 -0.6746  0.3838
 5940SOL    HW129453   1.303   1.084   7.716 -0.2745  1.2635  4.5860
 5940SOL    HW229454   1.411   0.980   7.720 -0.7734 -0.7609  0.0011
 5941SOL     OW29455   1.827   2.962   4.272  0.2858 -0.0976 -0.0318
 5941SOL    HW129456   1.866   3.019   4.339 -0.7160  1.5668 -0.8473
 5941SOL    HW229457   1.810   3.031   4.206  1.0766  1.1917  1.1080
 5942SOL     OW29458   4.683   1.467   3.799  0.4257 -0.7717 -0.2180
 5942SOL    HW129459   4.658   1.552   3.764 -1.3521 -0.5245  1.6901
 5942SOL    HW229460   4.653   1.473   3.889  1.1818  1.4071 -0.1295
 5943SOL     OW29461   4.599   4.000   4.985  0.5206 -0.4278 -0.4469
 5943SOL    HW129462   4.531   4.053   5.026  1.4561  2.6366 -2.9337
 5943SOL    HW229463   4.669   4.065   4.983 -0.0004  0.1359 -0.2008
 5944SOL     OW29464   3.317   2.036   6.079 -0.4837 -0.4615 -0.1020
 5944SOL    HW129465   3.334   2.011   5.988 -2.0875 -1.0368 -0.2545
 5944SOL    HW229466   3.383   1.978   6.116 -0.4540 -1.0687 -1.1280
 5945SOL     OW29467   3.893   0.820   7.247  0.0160 -0.2170 -0.9693
 5945SOL    HW129468   3.802   0.838   7.273 -0.2277 -0.2881 -1.7653
 5945SOL    HW229469   3.938   0.884   7.301 -1.0851 -0.4320  0.2171
 5946SOL     OW29470   2.668   0.083   8.925 -0.1838 -0.1744 -0.2608
 5946SOL    HW129471   2.670   4.726   8.899 -0.9972 -0.0131 -0.8905
 5946SOL    HW229472   2.730   0.083   8.998 -1.3992 -0.2831  0.7673
 5947SOL     OW29473   2.355   4.660   4.960 -0.0949  0.1194 -0.1610
 5947SOL    HW129474   2.342   0.006   4.910 -2.8567 -0.9918 -1.2592
 5947SOL    HW229475   2.373   4.694   5.048  0.1353  0.9375 -0.5223
 5948SOL     OW29476   0.094   2.647   7.922 -0.3302 -0.2226  0.6047
 5948SOL    HW129477   0.172   2.647   7.977 -0.7217  0.6484  1.1533
 5948SOL    HW229478   0.022   2.687   7.971  0.6495 -0.0787  1.9178
 5949SOL     OW29479   0.772   4.069   5.002  0.0840  0.4807  0.7145
 5949SOL    HW129480   0.808   4.006   4.940 -0.5792 -0.0350  0.8484
 5949SOL    HW229481   0.837   4.077   5.072  0.9687  0.2462 -0.0970
 5950SOL     OW29482   1.591   2.998   5.137  0.6519  0.0624  0.1565
 5950SOL    HW129483   1.672   3.047   5.123  1.7096 -1.0708  2.3080
 5950SOL    HW229484   1.591   3.000   5.233  0.9155 -0.4919  0.1666
 5951SOL     OW29485   4.234   2.006   9.410  0.1983 -0.1876 -0.2242
 5951SOL    HW129486   4.227   2.101   9.397 -2.0909 -0.3131  0.2032
 5951SOL    HW229487   4.206   1.987   9.500 -3.2718  1.6452 -0.9065
 5952SOL     OW29488   2.576   2.669   8.824 -0.5096  0.0763  0.5333
 5952SOL    HW129489   2.497   2.719   8.844  0.0640  0.7833  1.0434
 5952SOL    HW229490   2.601   2.681   8.733  0.1482  1.0370  0.8350
 5953SOL     OW29491   3.286   1.273   5.904  0.5243 -0.3517  0.5953
 5953SOL    HW129492   3.197   1.237   5.902 -1.1713  3.8720  0.3391
 5953SOL    HW229493   3.333   1.197   5.937 -2.1183 -2.4905 -0.4983
 5954SOL     OW29494   2.671   0.008   5.584 -0.2082  0.2495  0.2694
 5954SOL    HW129495   2.739   0.053   5.534 -0.8301  0.8778 -0.0027
 5954SOL    HW229496   2.599   0.069   5.599  0.2199  0.2316  2.3736
 5955SOL     OW29497   2.279   0.613   4.925 -0.3997 -0.1540 -0.0349
 5955SOL    HW129498   2.310   0.698   4.894 -0.1514 -0.2916 -0.1573
 5955SOL    HW229499   2.281   0.552   4.852  3.1477  0.3701 -0.3364
 5956SOL     OW29500   1.267   1.872  17.556 -0.2991  0.7508  0.0400
 5956SOL    HW129501   1.245   1.779  17.548  1.8638  0.1423  1.0774
 5956SOL    HW229502   1.332   1.877  17.486 -0.8034 -2.8060 -0.6750
 5957SOL     OW29503   1.580   0.728   8.302  0.2772  0.4685  0.3728
 5957SOL    HW129504   1.486   0.733   8.318  0.3665 -1.4894  1.5111
 5957SOL    HW229505   1.607   0.727   8.394 -1.0885 -1.3374  0.7574
 5958SOL     OW29506   4.227   4.078   1.068  0.1536 -0.7420  0.0808
 5958SOL    HW129507   4.197   4.093   1.158 -0.3670 -0.3863 -0.1535
 5958SOL    HW229508   4.169   4.004   1.049 -2.6516  1.7937 -1.1402
 5959SOL     OW29509   0.893   3.455   7.476  0.0688  0.4309 -0.5411
 5959SOL    HW129510   0.941   3.443   7.557 -0.5879 -3.6821 -0.7955
 5959SOL    HW229511   0.827   3.524   7.488  0.9934  1.5489 -1.7660
 5960SOL     OW29512   1.654   3.926   6.602 -0.1137 -0.3776 -0.1976
 5960SOL    HW129513   1.581   3.920   6.664  0.9091  0.0509  1.0359
 5960SOL    HW229514   1.683   4.016   6.618 -0.3018 -0.4134  0.3510
 5961SOL     OW29515   0.610   4.216   8.372  0.2550 -0.1131 -0.0707
 5961SOL    HW129516   0.564   4.297   8.395 -0.5200 -0.3137 -0.9617
 5961SOL    HW229517   0.656   4.250   8.296  0.6941  0.2562  0.3549
 5962SOL     OW29518   2.031   4.241   2.704 -0.1413 -0.1733  0.5843
 5962SOL    HW129519   2.106   4.213   2.652  0.9920 -0.1069  2.1670
 5962SOL    HW229520   1.978   4.162   2.714 -1.6086  1.2349  4.0141
 5963SOL     OW29521   2.306   1.150   1.232 -0.5097 -0.1314 -0.1455
 5963SOL    HW129522   2.377   1.095   1.198 -0.0733  0.0564  0.4479
 5963SOL    HW229523   2.235   1.134   1.170  1.2955 -1.4019 -1.9167
 5964SOL     OW29524   3.608   2.483   9.264  0.2622  0.0429 -0.5584
 5964SOL    HW129525   3.680   2.454   9.208  1.5975  1.3050  0.4994
 5964SOL    HW229526   3.656   2.515   9.340  0.9549  2.7391 -2.1408
 5965SOL     OW29527   3.527   1.371   6.832  0.0581  0.1642 -0.2251
 5965SOL    HW129528   3.547   1.457   6.796  0.1075  0.2340 -0.0296
 5965SOL    HW229529   3.589   1.319   6.779  0.1910 -0.1542  0.2438
 5966SOL     OW29530   3.077   4.082  13.619 -0.1527  0.9350  0.7842
 5966SOL    HW129531   3.161   4.065  13.661 -0.8438 -0.2908  1.6537
 5966SOL    HW229532   3.036   3.996  13.619  0.8711  0.4503  0.0685
 5967SOL     OW29533   2.436   2.877  16.582  0.1570  0.4720 -0.4318
 5967SOL    HW129534   2.456   2.869  16.675 -2.3492  0.8162  0.1438
 5967SOL    HW229535   2.509   2.829  16.542  0.5639 -0.0945  0.9928
 5968SOL     OW29536   3.164   1.684   3.659 -0.8974  0.4222 -0.2433
 5968SOL    HW129537   3.076   1.692   3.696 -0.8212  1.5641 -0.3080
 5968SOL    HW229538   3.221   1.676   3.735  0.4322 -0.1154 -1.3090
 5969SOL     OW29539   3.388   1.337   4.089  0.3844  0.4236  0.4529
 5969SOL    HW129540   3.435   1.375   4.163  0.9776  0.8200 -0.1233
 5969SOL    HW229541   3.348   1.257   4.122  2.0359 -0.3850  0.4892
 5970SOL     OW29542   4.194   0.934  12.491  0.3385  0.8055 -0.3422
 5970SOL    HW129543   4.234   0.875  12.554  2.5611  0.6088 -1.8975
 5970SOL    HW229544   4.110   0.954  12.531 -0.4480 -0.9457 -1.1545
 5971SOL     OW29545   0.031   3.598  12.977  0.2245  0.2196 -0.3547
 5971SOL    HW129546   0.048   3.671  13.037 -0.2856 -0.7572  0.9920
 5971SOL    HW229547   0.062   3.522  13.026 -2.7538 -0.2305  0.8499
 5972SOL     OW29548   1.246   4.310  10.100  0.3419 -0.0567  0.1512
 5972SOL    HW129549   1.272   4.221  10.125 -1.0090 -0.9883 -1.7380
 5972SOL    HW229550   1.335   4.340  10.083  0.2690  2.2564  3.9000
 5973SOL     OW29551   2.493   0.208   7.434 -0.2201  0.0634  0.2824
 5973SOL    HW129552   2.478   0.244   7.347  0.6023 -1.4876 -0.5050
 5973SOL    HW229553   2.527   0.281   7.486 -1.2921  0.2014  0.7908
 5974SOL     OW29554   1.592   0.038   1.572 -0.2034 -0.0679 -0.0263
 5974SOL    HW129555   1.510   0.083   1.556 -0.3643  0.1686  1.4972
 5974SOL    HW229556   1.548   4.697   1.610  1.8357 -1.8599 -1.2013
 5975SOL     OW29557   1.768   2.438  15.317  0.2729 -0.5461  0.7446
 5975SOL    HW129558   1.820   2.360  15.297  0.3756 -0.1075 -0.6762
 5975SOL    HW229559   1.718   2.454  15.237 -1.9788 -2.6075  1.7149
 5976SOL     OW29560   3.450   2.216   1.299 -0.1452  0.2514 -0.1672
 5976SOL    HW129561   3.411   2.267   1.370 -3.8042 -2.9645  0.1189
 5976SOL    HW229562   3.377   2.194   1.242  1.9805  1.7147 -3.4698
 5977SOL     OW29563   0.490   2.651  13.487  0.1388 -0.3335 -0.2948
 5977SOL    HW129564   0.466   2.743  13.476 -0.1762 -0.5355 -1.2429
 5977SOL    HW229565   0.534   2.649  13.573 -3.5438  0.8081  1.6088
 5978SOL     OW29566   4.431   0.717   3.515 -0.3950  0.1064  0.4682
 5978SOL    HW129567   4.354   0.685   3.468 -1.1406  0.6604  1.3057
 5978SOL    HW229568   4.375   0.748   3.586 -0.4090  0.0068  0.5001
 5979SOL     OW29569   0.322   0.960   5.632 -0.0556 -0.0229  0.7568
 5979SOL    HW129570   0.274   1.013   5.696  0.8161 -0.0663  1.4504
 5979SOL    HW229571   0.364   0.906   5.698 -0.5037 -1.2393  0.0451
 5980SOL     OW29572   2.686   2.151   2.141  0.4112  0.2830  0.0349
 5980SOL    HW129573   2.597   2.130   2.114  0.4333  0.3446 -0.0870
 5980SOL    HW229574   2.700   2.100   2.221 -2.6287  0.2695  0.5469
 5981SOL     OW29575   0.947   3.170   8.466 -0.2882 -0.5275  0.2617
 5981SOL    HW129576   0.864   3.193   8.508  0.0959 -1.8939  1.7844
 5981SOL    HW229577   0.951   3.209   8.379 -1.9413 -0.9527 -0.0050
 5982SOL     OW29578   4.248   2.249   2.015 -0.2941  0.4014 -0.4928
 5982SOL    HW129579   4.315   2.309   2.047  0.1041 -1.4554  2.0970
 5982SOL    HW229580   4.207   2.304   1.949  0.2319 -1.3566 -2.2764
 5983SOL     OW29581   3.828   4.429   7.226 -0.1526 -0.5619 -0.0909
 5983SOL    HW129582   3.816   4.421   7.321 -3.5855  1.7487 -0.3143
 5983SOL    HW229583   3.792   4.516   7.211  1.4334  0.5516  2.4282
 5984SOL     OW29584   4.298   0.417   4.475  0.0502  0.5016 -0.6872
 5984SOL    HW129585   4.283   0.512   4.483  2.5072  0.9361 -1.0066
 5984SOL    HW229586   4.215   0.388   4.511  0.2319  0.3595 -0.3798
 5985SOL     OW29587   1.510   4.272  15.665 -0.6228  0.3591 -0.3561
 5985SOL    HW129588   1.478   4.362  15.671 -0.0349  0.5779 -0.5333
 5985SOL    HW229589   1.423   4.231  15.658 -1.0505  1.6060 -2.2913
 5986SOL     OW29590   2.808   0.190   5.421 -0.2540 -0.0756  0.2462
 5986SOL    HW129591   2.789   0.185   5.327 -2.6924  0.7393  0.6976
 5986SOL    HW229592   2.802   0.283   5.443 -1.3929  0.2157 -1.2663
 5987SOL     OW29593   2.034   0.986   6.462  0.6609 -0.2769 -0.5471
 5987SOL    HW129594   1.960   0.954   6.514  0.8084  0.5292  0.1472
 5987SOL    HW229595   2.005   0.996   6.372 -0.7023 -0.2128 -0.1040
 5988SOL     OW29596   1.910   1.175   7.913 -0.0640  0.2836 -0.3292
 5988SOL    HW129597   1.966   1.159   7.837 -0.0303  2.2915 -0.7456
 5988SOL    HW229598   1.956   1.130   7.984  0.4235  1.1908 -0.0626
 5989SOL     OW29599   0.163   2.501   6.684 -0.8581 -0.5120  0.7014
 5989SOL    HW129600   0.162   2.496   6.779  0.0575  0.4670  0.7678
 5989SOL    HW229601   0.162   2.593   6.661  0.0020 -0.9453 -1.0908
 5990SOL     OW29602   0.012   1.414   2.892 -0.0090 -0.1918 -0.2255
 5990SOL    HW129603   0.050   1.381   2.973 -0.6005 -0.8711 -0.2297
 5990SOL    HW229604   4.723   1.503   2.917 -1.0510 -0.4356 -0.3611
 5991SOL     OW29605   4.160   2.597   5.797 -0.4191  0.0780 -0.4309
 5991SOL    HW129606   4.155   2.525   5.734 -0.4391 -0.1393 -0.1796
 5991SOL    HW229607   4.233   2.570   5.853 -1.6855  0.5270  1.4297
 5992SOL     OW29608   4.502   0.676   1.329 -0.4314  0.3432 -0.4166
 5992SOL    HW129609   4.542   0.753   1.369 -0.3629 -1.0811  2.2660
 5992SOL    HW229610   4.499   0.702   1.237  1.6857 -0.4339 -0.7216
 5993SOL     OW29611   0.681   3.275   3.497  0.3370  0.4369  0.1748
 5993SOL    HW129612   0.762   3.280   3.547  2.1482 -1.3764 -2.5515
 5993SOL    HW229613   0.646   3.216   3.564  4.6088 -0.3158  1.6768
 5994SOL     OW29614   2.543   1.210   6.618  0.6634 -0.2351 -0.4274
 5994SOL    HW129615   2.635   1.226   6.639  1.6225 -2.6099 -2.8045
 5994SOL    HW229616   2.547   1.150   6.544 -0.7157 -1.4818  0.4965
 5995SOL     OW29617   4.658   0.944   1.092  0.4693  0.7114  0.0283
 5995SOL    HW129618   4.727   0.891   1.133  0.7227 -0.0311 -1.3563
 5995SOL    HW229619   4.647   1.013   1.157  0.8208 -1.7391  2.7042
 5996SOL     OW29620   1.933   3.805   5.130  0.1427 -0.3225 -0.2171
 5996SOL    HW129621   2.023   3.837   5.134 -0.7404  2.1868 -0.5442
 5996SOL    HW229622   1.940   3.729   5.188 -1.7930 -0.2618  0.0720
 5997SOL     OW29623   0.192   2.780   3.489 -0.2127 -0.5359  0.0778
 5997SOL    HW129624   0.286   2.793   3.476 -0.5911  1.3747 -0.6611
 5997SOL    HW229625   0.200   2.719   3.562 -0.2004  1.1675  1.5111
 5998SOL     OW29626   1.505   4.080   8.749 -0.3650 -0.4398  0.3554
 5998SOL    HW129627   1.549   4.147   8.801 -1.3330 -1.3645  2.3423
 5998SOL    HW229628   1.469   4.132   8.678  3.6309  3.6120  1.3344
 5999SOL     OW29629   4.421   0.853   1.986 -0.1867  0.1886 -0.2684
 5999SOL    HW129630   4.392   0.810   2.066  1.3048  2.4733  1.4939
 5999SOL    HW229631   4.373   0.936   1.994 -0.8877 -0.1840 -0.6193
 6000SOL     OW29632   4.528   3.870   1.919  0.0673 -0.0302  0.2106
 6000SOL    HW129633   4.452   3.861   1.976  1.3211  2.6625  2.3006
 6000SOL    HW229634   4.586   3.913   1.981  3.0115 -2.8667 -0.5748
 6001SOL     OW29635   2.048   0.185   4.930 -0.3711  0.0628 -0.2642
 6001SOL    HW129636   1.960   0.158   4.905  0.6633 -2.0134 -1.6338
 6001SOL    HW229637   2.047   0.161   5.023  2.0661 -2.3243 -0.8333
 6002SOL     OW29638   1.261   4.505   8.390  0.0442 -0.2351  0.0305
 6002SOL    HW129639   1.313   4.583   8.369  0.8792 -0.9444 -0.5318
 6002SOL    HW229640   1.205   4.534   8.462  1.8667  3.7017 -0.1223
 6003SOL     OW29641   2.523   4.548   4.738 -0.2024  0.2517  1.0502
 6003SOL    HW129642   2.458   4.588   4.797 -0.7008  2.2165 -0.8097
 6003SOL    HW229643   2.484   4.461   4.738 -1.5190  0.8227  1.7585
 6004SOL     OW29644   3.535   0.090   8.573  0.5649 -0.4688  0.5341
 6004SOL    HW129645   3.562   0.065   8.484  0.9961 -0.4670  0.6630
 6004SOL    HW229646   3.606   0.152   8.587  0.7822  0.1279 -3.3554
 6005SOL     OW29647   4.645   3.101   2.161 -0.1551 -0.5517  0.0170
 6005SOL    HW129648   4.581   3.042   2.201 -0.8437 -0.8423 -1.5150
 6005SOL    HW229649   4.627   3.180   2.212  1.1354  1.2075 -2.2418
 6006SOL     OW29650   0.080   2.433  17.715 -0.0967  0.0191  0.1354
 6006SOL    HW129651   0.124   2.509   0.015 -0.5723  0.7134 -0.6839
 6006SOL    HW229652   0.002   2.429   0.031  0.5473  1.9118  1.2049
 6007SOL     OW29653   2.229   4.682   5.521  0.0268 -0.0765  0.3454
 6007SOL    HW129654   2.311   4.683   5.471  1.2983  2.8737  2.4636
 6007SOL    HW229655   2.169   4.711   5.452 -0.8969 -0.0832  1.1519
 6008SOL     OW29656   2.688   3.598   7.405 -0.0147 -0.1614 -0.8062
 6008SOL    HW129657   2.628   3.526   7.385 -0.2442  0.1831 -1.3622
 6008SOL    HW229658   2.773   3.556   7.411 -1.3222 -2.8265 -1.0438
 6009SOL     OW29659   3.294   2.286   9.134 -0.5581 -0.0980 -0.2355
 6009SOL    HW129660   3.251   2.261   9.216  1.3397 -0.7972  0.5360
 6009SOL    HW229661   3.221   2.322   9.084 -0.1742 -0.4784 -1.0690
 6010SOL     OW29662   1.656   4.182   6.731 -0.6743 -0.3117 -0.4785
 6010SOL    HW129663   1.568   4.167   6.766  0.5822 -2.7958  1.6788
 6010SOL    HW229664   1.667   4.274   6.756  0.8440 -1.3442  2.7324
 6011SOL     OW29665   0.404   0.782   4.698 -0.0582  0.1455  0.3795
 6011SOL    HW129666   0.459   0.708   4.726 -2.3450 -1.4773  0.5720
 6011SOL    HW229667   0.323   0.757   4.743  0.5027 -0.9150  0.7941
 6012SOL     OW29668   2.791   0.983   9.301 -0.8835 -0.1517  0.4530
 6012SOL    HW129669   2.792   1.070   9.342 -1.1307 -0.3694  0.9266
 6012SOL    HW229670   2.703   0.957   9.328 -1.1206 -3.1442 -3.2442
 6013SOL     OW29671   1.303   1.821   1.685  0.2950 -0.6409 -0.1516
 6013SOL    HW129672   1.267   1.910   1.689  0.7113 -0.4144 -1.6249
 6013SOL    HW229673   1.303   1.798   1.778 -0.8629 -1.3028 -0.3182
 6014SOL     OW29674   2.609   3.459   3.164 -0.1240 -0.1992 -0.0266
 6014SOL    HW129675   2.583   3.421   3.248  1.9745 -1.1467  0.1934
 6014SOL    HW229676   2.531   3.447   3.111 -0.5705 -1.3305  0.8901
 6015SOL     OW29677   1.807   1.495  17.599  0.4866  0.2168  0.5513
 6015SOL    HW129678   1.895   1.499  17.562  0.8670 -2.8712  1.0927
 6015SOL    HW229679   1.775   1.579  17.566  1.6357  0.4084 -0.0798
 6016SOL     OW29680   0.569   3.852  15.359  0.0590 -0.1475 -0.2300
 6016SOL    HW129681   0.645   3.899  15.324 -1.2384  0.7843 -1.7590
 6016SOL    HW229682   0.605   3.768  15.390 -0.3630 -1.2701 -2.7721
 6017SOL     OW29683   3.549   4.607   9.058  0.0329 -0.1915  0.7204
 6017SOL    HW129684   3.472   4.579   9.009  1.5311  0.8250 -2.1684
 6017SOL    HW229685   3.616   4.573   8.999  0.3328 -1.6785  1.9031
 6018SOL     OW29686   3.123   1.754   9.289  0.2264 -0.0786  0.3652
 6018SOL    HW129687   3.093   1.721   9.373 -0.5046 -0.7308 -0.1487
 6018SOL    HW229688   3.137   1.682   9.227  0.1329  0.3912 -0.2062
 6019SOL     OW29689   0.816   0.683   0.031 -0.0104  0.0553 -0.2515
 6019SOL    HW129690   0.766   0.602   0.041  0.0014  0.3341  2.0752
 6019SOL    HW229691   0.826   0.693  17.676  0.6997  0.5578 -0.1193
 6020SOL     OW29692   3.088   4.693  16.346  0.2392 -0.0296 -0.0435
 6020SOL    HW129693   3.013   0.017  16.358 -0.5387 -0.7766 -1.1430
 6020SOL    HW229694   3.048   4.605  16.342 -2.3125  1.1400 -0.4246
 6021SOL     OW29695   1.506   0.507   0.012 -0.0737  0.7903 -0.3658
 6021SOL    HW129696   1.472   0.444   0.075  0.4747  0.9811  0.1214
 6021SOL    HW229697   1.576   0.555   0.056 -0.5446 -0.5874  1.8677
 6022SOL     OW29698   0.693   4.130  16.584 -0.6408  0.7150  0.0910
 6022SOL    HW129699   0.647   4.176  16.514 -1.1826 -1.4074 -0.9601
 6022SOL    HW229700   0.702   4.198  16.650  0.2307  1.4995 -0.8394
 6023SOL     OW29701   4.694   3.520  10.103  0.2902 -0.2887 -0.1067
 6023SOL    HW129702   4.697   3.615  10.097 -1.7673 -0.0424  3.0692
 6023SOL    HW229703   4.642   3.502  10.181 -0.3062  2.0925  0.0498
 6024SOL     OW29704   4.591   0.450   6.319 -0.3168  0.2406  0.1953
 6024SOL    HW129705   4.628   0.536   6.334 -1.1899  0.7576 -0.5615
 6024SOL    HW229706   4.628   0.428   6.233 -2.2840 -1.7279 -0.1702
 6025SOL     OW29707   4.721   1.504   8.185 -0.1072 -0.1320  0.4595
 6025SOL    HW129708   4.638   1.479   8.224 -1.2475  1.0599 -1.2069
 6025SOL    HW229709   4.704   1.597   8.166  4.0748  0.3931 -0.8146
 6026SOL     OW29710   1.240   1.299  13.050  0.5772 -0.5349 -0.1042
 6026SOL    HW129711   1.246   1.395  13.045  2.7502 -0.6797 -0.4218
 6026SOL    HW229712   1.300   1.278  13.121  1.7701  1.0855 -0.6313
 6027SOL     OW29713   2.283   4.561   7.404  0.0708 -0.2007 -0.1836
 6027SOL    HW129714   2.294   4.468   7.422  1.1288  0.0019  0.2103
 6027SOL    HW229715   2.267   4.608   7.486  0.6395 -0.8304  0.2871
 6028SOL     OW29716   1.984   4.276   3.842 -0.5366 -0.7229 -0.1067
 6028SOL    HW129717   1.910   4.222   3.870 -0.8795  0.2823  0.9088
 6028SOL    HW229718   2.029   4.295   3.925  1.7649  1.2776 -1.8160
 6029SOL     OW29719   0.444   1.591  10.985  0.0666  0.3518  0.3827
 6029SOL    HW129720   0.354   1.568  11.010  0.8157 -2.1652  0.7986
 6029SOL    HW229721   0.425   1.677  10.947 -2.6527 -1.1485 -1.6497
 6030SOL     OW29722   2.960   1.612   0.928  0.0551  0.0800  0.6964
 6030SOL    HW129723   2.931   1.641   0.842  0.3988 -1.0107  0.2083
 6030SOL    HW229724   2.941   1.689   0.981 -0.7995  2.2422 -2.7879
 6031SOL     OW29725   3.054   2.155   6.865 -0.2583  0.3738 -0.2830
 6031SOL    HW129726   3.127   2.182   6.921 -0.6876 -1.1674  1.0047
 6031SOL    HW229727   2.988   2.218   6.895  1.1734  1.5345  0.4403
 6032SOL     OW29728   2.797   2.982   5.390 -0.6065 -0.3340 -0.0027
 6032SOL    HW129729   2.792   3.037   5.312  0.9960 -0.5260 -0.2426
 6032SOL    HW229730   2.706   2.968   5.415 -0.6641 -1.3843 -0.8183
 6033SOL     OW29731   0.639   1.650  11.158  0.1921 -0.4123 -0.1184
 6033SOL    HW129732   0.704   1.580  11.154 -0.3741 -0.9246 -0.5058
 6033SOL    HW229733   0.569   1.615  11.102 -1.9048  1.8106  1.1229
 6034SOL     OW29734   2.523   0.450   7.047 -0.3534  0.1254  0.0585
 6034SOL    HW129735   2.465   0.420   6.977  1.8619  0.8298 -2.0946
 6034SOL    HW229736   2.472   0.439   7.128  0.1400  1.7352  0.5849
 6035SOL     OW29737   0.047   1.947   8.040 -0.6738 -0.2603  0.0871
 6035SOL    HW129738   0.104   2.015   8.075  1.1287 -1.6882 -0.0622
 6035SOL    HW229739   4.694   1.965   8.072 -0.5629 -1.0390  0.8664
 6036SOL     OW29740   0.598   4.392  12.287  0.8235 -0.5227 -0.1437
 6036SOL    HW129741   0.508   4.380  12.317  0.0026 -0.2165 -2.4447
 6036SOL    HW229742   0.602   4.466  12.347  0.3213 -0.4546 -0.1946
 6037SOL     OW29743   1.987   2.834   3.310  0.2502 -0.2451  0.5719
 6037SOL    HW129744   1.937   2.762   3.347 -0.3358 -0.7316 -1.1581
 6037SOL    HW229745   2.025   2.872   3.389  2.1315  0.5158 -0.7010
 6038SOL     OW29746   4.279   0.773   7.127 -0.5863  0.2680  0.3247
 6038SOL    HW129747   4.291   0.680   7.148  1.4651  0.6553  0.8236
 6038SOL    HW229748   4.189   0.771   7.095 -0.8090 -0.0149  0.9515
 6039SOL     OW29749   3.380   4.529  16.637 -0.1060 -0.3768  0.7403
 6039SOL    HW129750   3.395   4.437  16.660  0.5267 -0.8135 -1.3454
 6039SOL    HW229751   3.465   4.570  16.655 -0.5148  0.8562 -0.1384
 6040SOL     OW29752   0.097   1.628   8.466 -0.2779  0.3044 -0.0059
 6040SOL    HW129753   0.038   1.555   8.445 -1.3386  1.4281 -0.9154
 6040SOL    HW229754   0.178   1.577   8.475 -0.4876 -0.1446 -0.6761
 6041SOL     OW29755   1.523   0.082   8.074 -0.2960  0.0426  0.6320
 6041SOL    HW129756   1.459   0.115   8.011 -0.8953 -0.9412  0.7336
 6041SOL    HW229757   1.585   0.156   8.077 -0.6775  0.3713  0.4284
 6042SOL     OW29758   4.693   1.229   3.927 -0.3060  0.9477 -0.2366
 6042SOL    HW129759   4.679   1.299   3.864 -1.6235 -0.6998 -1.7884
 6042SOL    HW229760   4.676   1.270   4.011  2.4523  1.7334 -0.0629
 6043SOL     OW29761   0.744   1.762   7.252 -0.6034  0.4010 -0.2416
 6043SOL    HW129762   0.826   1.790   7.293  0.2146  0.0672 -1.6416
 6043SOL    HW229763   0.716   1.841   7.206  0.0711 -0.3395 -1.9168
 6044SOL     OW29764   3.387   0.626  14.234  0.3767 -0.0903  0.3693
 6044SOL    HW129765   3.393   0.570  14.311  0.0366 -0.6153  0.0130
 6044SOL    HW229766   3.409   0.559  14.169 -1.5913  0.9838 -1.4350
 6045SOL     OW29767   1.042   2.855  17.372 -0.3598 -0.5856  0.1480
 6045SOL    HW129768   0.995   2.921  17.423  1.5818 -1.6016  3.2567
 6045SOL    HW229769   1.118   2.901  17.336 -0.5297  1.1972  2.0163
 6046SOL     OW29770   0.300   2.897   2.503  0.1887  0.5512 -0.2137
 6046SOL    HW129771   0.345   2.927   2.424  1.8738  1.5300  1.1281
 6046SOL    HW229772   0.365   2.917   2.570  0.2471  0.6184 -0.2905
 6047SOL     OW29773   0.980   2.593   5.056  0.3614 -0.9103  0.3761
 6047SOL    HW129774   0.999   2.513   5.007 -0.4748 -0.2413 -1.0571
 6047SOL    HW229775   1.061   2.640   5.036  0.9044 -0.9433  2.5288
 6048SOL     OW29776   0.525   2.456   8.022 -0.3697 -0.1877  0.0433
 6048SOL    HW129777   0.615   2.478   8.049 -0.4533 -0.6196  0.6643
 6048SOL    HW229778   0.533   2.454   7.926  1.9701  0.3955  0.2064
 6049SOL     OW29779   2.168   3.847   7.148  0.0831  0.1575  0.1918
 6049SOL    HW129780   2.141   3.795   7.073 -1.1294  0.9017  0.1038
 6049SOL    HW229781   2.085   3.871   7.190  0.0292 -1.0950  0.7932
 6050SOL     OW29782   1.415   3.192  14.602 -0.0144  0.1431 -0.3564
 6050SOL    HW129783   1.380   3.267  14.554  0.1359  0.6641  0.3583
 6050SOL    HW229784   1.416   3.132  14.527 -2.6317 -0.0395 -0.2393
 6051SOL     OW29785   0.981   1.217   0.170 -0.5718 -0.0522 -0.0708
 6051SOL    HW129786   1.060   1.163   0.173 -1.1015 -0.8364 -0.1927
 6051SOL    HW229787   0.961   1.218   0.076 -1.9712 -0.9116  0.2177
 6052SOL     OW29788   3.428   2.043   9.173 -0.0161 -0.0609 -0.2542
 6052SOL    HW129789   3.498   2.096   9.210 -0.1292  0.1785 -0.3878
 6052SOL    HW229790   3.379   2.108   9.123 -1.3424  0.9368  2.3986
 6053SOL     OW29791   0.482   3.252   2.600 -0.1251  0.0086  0.4250
 6053SOL    HW129792   0.402   3.264   2.651  0.6641  2.4331  1.0812
 6053SOL    HW229793   0.500   3.160   2.617 -1.1504  0.5951  4.7006
 6054SOL     OW29794   3.907   4.261  12.363  0.4051  0.4736 -0.4235
 6054SOL    HW129795   3.972   4.308  12.311  0.3032 -0.3598 -1.3151
 6054SOL    HW229796   3.949   4.176  12.378  0.3310  0.9451  2.4395
 6055SOL     OW29797   0.991   0.207  11.633 -0.2286 -0.5273  0.1761
 6055SOL    HW129798   0.998   0.302  11.625  0.0854 -0.5797 -0.1625
 6055SOL    HW229799   1.030   0.198  11.719 -2.0020 -0.8378  0.9571
 6056SOL     OW29800   0.820   1.679   1.998 -0.9260  0.0731  0.2454
 6056SOL    HW129801   0.742   1.625   1.984 -1.0648  0.7391 -1.5652
 6056SOL    HW229802   0.871   1.613   2.045 -0.8548  0.0274  0.1045
 6057SOL     OW29803   3.737   4.068   4.364 -0.1433  0.2404  0.3084
 6057SOL    HW129804   3.783   4.006   4.308 -1.2192 -0.2173 -0.0599
 6057SOL    HW229805   3.688   4.001   4.412  1.3062  0.3836  1.9706
 6058SOL     OW29806   4.060   3.130   0.363  0.6998 -0.0297 -0.0005
 6058SOL    HW129807   3.966   3.145   0.358  0.8182  0.5235 -0.6929
 6058SOL    HW229808   4.104   3.214   0.380 -0.3700  0.3744  0.7416
 6059SOL     OW29809   3.552   4.633   2.350 -0.0617 -0.2417 -0.2867
 6059SOL    HW129810   3.518   4.696   2.414  0.2415  2.5754 -2.9158
 6059SOL    HW229811   3.486   4.564   2.361  0.6953 -1.2193 -1.9569
 6060SOL     OW29812   2.938   2.386   7.790  0.2623  0.2904 -0.3015
 6060SOL    HW129813   3.007   2.453   7.785  0.2256  0.2035 -1.8911
 6060SOL    HW229814   2.867   2.414   7.732  0.0446  0.3642 -0.0018
 6061SOL     OW29815   0.883   1.520   7.162  0.0267 -0.4831 -0.5503
 6061SOL    HW129816   0.818   1.590   7.162 -0.6633 -1.1329 -0.0844
 6061SOL    HW229817   0.963   1.572   7.172  0.7318 -1.3279 -1.8023
 6062SOL     OW29818   1.205   4.021  17.389 -0.1142 -0.0493  0.6303
 6062SOL    HW129819   1.113   3.997  17.402  0.0773 -0.2138  1.7424
 6062SOL    HW229820   1.235   3.953  17.329  2.5117  2.5776 -0.9749
 6063SOL     OW29821   2.462   2.903   8.069  0.2139 -0.4187 -0.4317
 6063SOL    HW129822   2.388   2.844   8.082 -1.7581  1.8490 -1.2707
 6063SOL    HW229823   2.529   2.865   8.125  0.0364 -0.7039 -0.4151
 6064SOL     OW29824   0.460   3.280   2.044  0.1465 -0.4086 -0.6182
 6064SOL    HW129825   0.430   3.362   2.005 -1.1775  0.6212  2.5796
 6064SOL    HW229826   0.480   3.313   2.131  1.1011  1.5722 -1.5694
 6065SOL     OW29827   0.997   3.647   2.533  0.8056  0.2357 -0.3380
 6065SOL    HW129828   0.954   3.727   2.505  1.9565  0.2541 -2.0463
 6065SOL    HW229829   1.086   3.682   2.536  0.8619  0.1542 -1.2637
 6066SOL     OW29830   2.902   0.126   4.955 -0.2264 -0.0590  0.0257
 6066SOL    HW129831   2.934   0.042   4.923  2.7572  0.3004  2.0556
 6066SOL    HW229832   2.958   0.184   4.902 -0.0505  0.8704  1.2200
 6067SOL     OW29833   1.091   1.572   1.488  0.1724 -0.2401  0.4168
 6067SOL    HW129834   1.065   1.585   1.579 -0.6389  1.4157 -0.0668
 6067SOL    HW229835   1.088   1.658   1.447 -0.2888 -0.8925 -0.8955
 6068SOL     OW29836   4.310   4.450   3.939 -0.0278 -0.1827  0.0031
 6068SOL    HW129837   4.382   4.420   3.883  0.6288 -0.4088  0.9709
 6068SOL    HW229838   4.267   4.366   3.955 -1.6397  0.4833 -0.7481
 6069SOL     OW29839   4.317   0.520   7.236 -0.0928 -0.2787  0.1478
 6069SOL    HW129840   4.260   0.444   7.236 -0.2371 -0.1707 -0.0293
 6069SOL    HW229841   4.396   0.503   7.287  0.0963  0.5273  0.1273
 6070SOL     OW29842   2.024   2.560   7.114 -0.2227 -0.1671 -0.3194
 6070SOL    HW129843   1.957   2.575   7.180  0.8121  2.6150  0.1110
 6070SOL    HW229844   2.004   2.470   7.088  0.8549 -0.4037 -0.3212
 6071SOL     OW29845   2.819   2.009  14.607  0.0717  0.4268 -0.4394
 6071SOL    HW129846   2.886   2.038  14.545  0.8174 -0.8181 -0.2225
 6071SOL    HW229847   2.870   1.946  14.658  1.5880  1.3708 -0.8072
 6072SOL     OW29848   0.846   3.060   0.024 -0.1992 -0.1370  0.0399
 6072SOL    HW129849   0.771   3.060  17.704  0.2629  1.0169 -0.5711
 6072SOL    HW229850   0.838   2.980   0.075  0.7475 -0.2238  0.0576
 6073SOL     OW29851   3.199   1.312   8.931  0.4034  0.0143 -0.1907
 6073SOL    HW129852   3.289   1.289   8.909  0.0724  0.5149 -2.1033
 6073SOL    HW229853   3.167   1.230   8.969 -0.3253 -0.1522 -1.1636
 6074SOL     OW29854   3.100   4.120   4.815 -0.1016  0.1005  0.4827
 6074SOL    HW129855   3.042   4.185   4.855 -0.2562  0.2229  0.0627
 6074SOL    HW229856   3.068   4.116   4.725 -1.1414 -0.2603  0.8657
 6075SOL     OW29857   3.248   2.746   4.408  0.0488  0.2287 -0.1859
 6075SOL    HW129858   3.218   2.663   4.445  2.7417 -0.8923 -0.5276
 6075SOL    HW229859   3.326   2.754   4.463  2.0525 -1.7129 -2.8029
 6076SOL     OW29860   2.279   0.272   0.688 -0.2229 -0.4001  0.0484
 6076SOL    HW129861   2.309   0.357   0.721 -0.6904  0.7933 -2.6316
 6076SOL    HW229862   2.197   0.300   0.646  0.1400  1.0665  0.3242
 6077SOL     OW29863   3.123   2.657   3.963  0.0701 -0.3456 -0.3614
 6077SOL    HW129864   3.180   2.709   4.020 -1.5980 -0.9100  1.8384
 6077SOL    HW229865   3.072   2.728   3.925 -0.7705 -0.6188  0.2580
 6078SOL     OW29866   0.943   4.011  13.513 -0.0052  0.6369 -0.1630
 6078SOL    HW129867   0.930   4.075  13.583  0.4834  1.1864 -0.5834
 6078SOL    HW229868   0.953   3.931  13.565 -3.8682  0.1221 -0.1960
 6079SOL     OW29869   1.681   3.242  12.070 -0.7471  0.2203  0.4684
 6079SOL    HW129870   1.702   3.297  11.994 -0.2961  1.1643  1.2821
 6079SOL    HW229871   1.587   3.259  12.081 -0.8561 -0.5727  0.7397
 6080SOL     OW29872   3.508   0.791  14.057  0.2278 -0.0541 -0.0851
 6080SOL    HW129873   3.562   0.724  14.014  1.9795  0.7223  0.9154
 6080SOL    HW229874   3.471   0.739  14.128 -1.2543  1.6934  0.4305
 6081SOL     OW29875   2.242   0.466   2.852 -0.6651 -0.4386 -0.4510
 6081SOL    HW129876   2.276   0.524   2.920 -1.6375  0.2388 -0.5337
 6081SOL    HW229877   2.312   0.409   2.819  1.7680  1.3371  1.6613
 6082SOL     OW29878   3.261   1.542   3.377 -0.4728  0.2030 -0.1429
 6082SOL    HW129879   3.251   1.475   3.445 -1.8808  0.8039  0.2467
 6082SOL    HW229880   3.331   1.592   3.417 -0.4620 -0.7903  1.0913
 6083SOL     OW29881   3.530   2.025  12.824  0.0844 -0.2834  0.4296
 6083SOL    HW129882   3.557   2.110  12.857  0.0330  0.2496 -0.8909
 6083SOL    HW229883   3.477   1.987  12.894  0.0616 -2.5967 -0.8328
 6084SOL     OW29884   3.075   3.773   9.973 -0.6273 -0.2957 -0.5666
 6084SOL    HW129885   3.040   3.733  10.052  1.1609  0.0477  0.4133
 6084SOL    HW229886   2.999   3.828   9.956  0.3994  1.2158 -0.3488
 6085SOL     OW29887   2.396   3.404   2.167 -0.2253  0.3383  0.3656
 6085SOL    HW129888   2.381   3.343   2.095 -0.9169  1.0107 -0.0639
 6085SOL    HW229889   2.445   3.471   2.120  2.2094 -0.6273  1.5399
 6086SOL     OW29890   3.627   2.666  15.433 -0.1121 -0.5517  0.3169
 6086SOL    HW129891   3.599   2.735  15.493 -1.1043 -2.4590  2.0262
 6086SOL    HW229892   3.554   2.661  15.372 -1.1861  2.3217  1.3738
 6087SOL     OW29893   2.840   1.297   7.935  0.6960 -0.5005 -0.1869
 6087SOL    HW129894   2.846   1.257   8.022 -0.8943  0.2644  0.2728
 6087SOL    HW229895   2.862   1.229   7.872  0.5401 -1.6522  0.9908
 6088SOL     OW29896   3.629   0.376  16.323 -0.3930 -0.3701 -0.1811
 6088SOL    HW129897   3.667   0.322  16.393 -0.9000 -0.5060 -0.0105
 6088SOL    HW229898   3.573   0.314  16.275 -0.2633 -0.3824 -0.3170
 6089SOL     OW29899   0.960   4.133   2.484  0.6022 -0.4301  0.1374
 6089SOL    HW129900   0.925   4.174   2.563  2.1667  1.5182 -0.1907
 6089SOL    HW229901   1.052   4.151   2.501  0.6394 -1.5245  1.1234
 6090SOL     OW29902   4.148   0.525   7.740  0.2843 -0.0995 -0.2471
 6090SOL    HW129903   4.077   0.526   7.803 -0.3704 -1.0017 -0.9580
 6090SOL    HW229904   4.188   0.444   7.771  0.1905 -0.3843 -0.8647
 6091SOL     OW29905   1.359   0.329   0.960  0.2827 -0.2071  0.1618
 6091SOL    HW129906   1.343   0.341   1.054 -0.7411 -1.3167  0.1239
 6091SOL    HW229907   1.434   0.389   0.949  0.5695 -0.2048  2.0556
 6092SOL     OW29908   1.530   1.881  10.440  0.3262 -0.1824 -0.0631
 6092SOL    HW129909   1.495   1.840  10.360  1.9488 -0.5407 -0.5913
 6092SOL    HW229910   1.452   1.873  10.496  0.1852  1.5461 -0.0214
 6093SOL     OW29911   2.955   0.512   7.958  0.3209  0.6154  0.2118
 6093SOL    HW129912   2.948   0.462   8.039 -0.2660  1.4649  0.6792
 6093SOL    HW229913   2.951   0.439   7.896 -0.1346  0.7702  0.0580
 6094SOL     OW29914   0.766   3.713  10.616  0.2652 -0.4000  0.1176
 6094SOL    HW129915   0.678   3.707  10.652 -0.2771 -0.2506 -1.1475
 6094SOL    HW229916   0.754   3.798  10.572  0.1501 -1.4451 -1.8590
 6095SOL     OW29917   0.185   2.590   7.355 -0.1404 -0.1649  0.9807
 6095SOL    HW129918   0.096   2.580   7.390 -1.2437  3.3381 -0.9484
 6095SOL    HW229919   0.197   2.684   7.361 -1.8577  0.0889  0.3303
 6096SOL     OW29920   1.024   0.941   3.115 -0.2431  0.2389  0.2515
 6096SOL    HW129921   1.030   0.954   3.209  0.6266 -0.1444  0.2482
 6096SOL    HW229922   0.933   0.920   3.093 -0.3132  1.8818 -1.0180
 6097SOL     OW29923   0.857   4.103  11.625 -0.0324  0.0199 -0.5137
 6097SOL    HW129924   0.767   4.106  11.592  0.3947  1.8859 -1.5392
 6097SOL    HW229925   0.854   4.058  11.709 -1.1894  0.8551 -0.1110
 6098SOL     OW29926   1.631   1.905  14.186 -0.7229  0.2787  0.2931
 6098SOL    HW129927   1.546   1.923  14.147 -1.1486  0.7611  1.4378
 6098SOL    HW229928   1.604   1.823  14.227  0.5973 -0.0716  0.4641
 6099SOL     OW29929   0.633   0.803  16.271 -0.6287  0.2950 -0.5219
 6099SOL    HW129930   0.598   0.719  16.301 -0.4637  0.0379 -1.0456
 6099SOL    HW229931   0.726   0.801  16.297  0.1009 -0.5600 -3.1936
 6100SOL     OW29932   4.244   2.577   4.630 -0.1248 -0.4210 -0.2913
 6100SOL    HW129933   4.322   2.613   4.588  0.8514 -1.9118  0.2602
 6100SOL    HW229934   4.183   2.573   4.556 -1.4240  0.4472  0.7311
 6101SOL     OW29935   1.993   1.896  13.214 -0.0565 -0.2287  0.1711
 6101SOL    HW129936   2.075   1.856  13.184  0.7590  2.7132 -1.5551
 6101SOL    HW229937   2.009   1.975  13.162  0.5544 -0.7538 -0.4373
 6102SOL     OW29938   3.892   2.327  14.794 -0.3255 -0.5359 -0.4799
 6102SOL    HW129939   3.965   2.366  14.843 -1.1885 -3.8589  3.4452
 6102SOL    HW229940   3.847   2.412  14.787  0.0539 -0.1263  2.0135
 6103SOL     OW29941   3.181   4.267  12.011 -0.4503 -0.2892 -0.2716
 6103SOL    HW129942   3.095   4.301  12.033 -0.6156 -0.3025 -0.8951
 6103SOL    HW229943   3.215   4.282  12.099 -0.3208  0.5894 -0.4658
 6104SOL     OW29944   4.081   3.323   6.843  0.8840 -0.4631  0.3228
 6104SOL    HW129945   4.077   3.286   6.931  0.2653 -0.4420  0.3051
 6104SOL    HW229946   4.074   3.242   6.791 -0.5841 -0.4535  0.5083
 6105SOL     OW29947   1.010   1.767   1.300  0.0698  0.6594  0.4516
 6105SOL    HW129948   0.923   1.791   1.330 -0.9666 -2.7358  0.0958
 6105SOL    HW229949   1.045   1.855   1.282 -0.2215  0.6935  0.0558
 6106SOL     OW29950   0.053   4.481   1.560 -0.8913  0.3245 -0.3211
 6106SOL    HW129951   0.002   4.549   1.603  0.4407  0.0198  1.7053
 6106SOL    HW229952   0.105   4.455   1.636 -2.1102 -0.9291  0.0863
 6107SOL     OW29953   3.371   2.478   3.490 -0.2856 -0.4675  0.5541
 6107SOL    HW129954   3.315   2.512   3.559  0.0452 -2.4994  1.8038
 6107SOL    HW229955   3.454   2.512   3.522 -0.6307 -0.6787  1.6529
 6108SOL     OW29956   0.229   4.435   2.515  0.3928 -0.3098 -0.1346
 6108SOL    HW129957   0.181   4.383   2.579  0.7434 -0.5140 -0.0393
 6108SOL    HW229958   0.166   4.507   2.510 -0.8471 -1.4411 -0.5879
 6109SOL     OW29959   2.919   1.197   1.578  0.1447 -0.1843  0.1576
 6109SOL    HW129960   2.970   1.242   1.510 -0.6512 -0.3251 -0.5303
 6109SOL    HW229961   2.833   1.233   1.557  1.4022  2.0517 -1.0585
 6110SOL     OW29962   0.501   3.549  15.201  0.7720 -0.1508 -0.0475
 6110SOL    HW129963   0.413   3.512  15.202  0.6147  0.2407  0.4567
 6110SOL    HW229964   0.526   3.558  15.293 -0.3519 -0.0949  0.2547
 6111SOL     OW29965   0.153   1.519   1.545  0.2769 -0.1488 -0.2124
 6111SOL    HW129966   0.106   1.499   1.626  0.0367 -0.9316 -0.5451
 6111SOL    HW229967   0.164   1.612   1.563 -2.6234 -0.0819  1.3167
 6112SOL     OW29968   1.826   1.665  14.214  0.5173  0.0937  0.4150
 6112SOL    HW129969   1.811   1.710  14.131 -0.1592  0.4422  0.7261
 6112SOL    HW229970   1.921   1.656  14.214  0.5630  0.6153  0.9361
 6113SOL     OW29971   0.727   4.253   0.836 -0.3987 -0.8955  0.5172
 6113SOL    HW129972   0.647   4.248   0.889 -0.1216  1.2688  1.1274
 6113SOL    HW229973   0.766   4.167   0.855  2.6815  1.2967  4.0853
 6114SOL     OW29974   4.530   2.708   2.655 -0.1621  0.0373 -0.3687
 6114SOL    HW129975   4.528   2.778   2.590  0.8784  2.8352  2.6050
 6114SOL    HW229976   4.511   2.756   2.735  1.4373  0.8775 -0.4712
 6115SOL     OW29977   1.404   3.064   9.493 -0.0010 -0.0089 -0.6410
 6115SOL    HW129978   1.419   3.099   9.581 -1.0516  2.4305 -1.4232
 6115SOL    HW229979   1.464   3.126   9.452 -0.1292 -0.9298 -2.2176
 6116SOL     OW29980   3.713   2.579  11.784  0.0816 -0.1928  0.3242
 6116SOL    HW129981   3.702   2.502  11.840 -0.2435 -0.4435 -0.0852
 6116SOL    HW229982   3.624   2.615  11.780  0.3470  0.6695  1.9816
 6117SOL     OW29983   0.282   3.182   7.808  0.0941  0.4558 -0.5126
 6117SOL    HW129984   0.363   3.152   7.766  0.1339  0.7741 -0.6658
 6117SOL    HW229985   0.323   3.192   7.894 -1.5407 -0.4974  0.3693
 6118SOL     OW29986   4.162   1.390  14.390 -0.2131 -0.1909 -0.0741
 6118SOL    HW129987   4.222   1.360  14.322 -1.0864 -2.1592  0.0105
 6118SOL    HW229988   4.228   1.431  14.447 -0.3645  1.9289 -1.4322
 6119SOL     OW29989   3.897   2.829   3.835 -0.2342 -0.2419 -0.0237
 6119SOL    HW129990   3.866   2.809   3.923 -0.3384  0.7532  0.1691
 6119SOL    HW229991   3.966   2.890   3.858  0.3152 -0.1813 -1.8357
 6120SOL     OW29992   4.242   1.439   3.031  0.2040  0.2509 -0.0067
 6120SOL    HW129993   4.196   1.507   3.079 -0.6358 -0.0614 -0.3710
 6120SOL    HW229994   4.252   1.363   3.089 -1.3030  0.3782  0.4119
 6121SOL     OW29995   3.461   2.867   8.170  0.0249 -0.1462 -0.2440
 6121SOL    HW129996   3.380   2.821   8.147  1.5501 -2.7278 -0.5481
 6121SOL    HW229997   3.438   2.915   8.249 -0.2769 -1.8221  0.7067
 6122SOL     OW29998   0.012   3.208   6.413 -0.3440  0.2420  0.3255
 6122SOL    HW129999   0.006   3.121   6.373 -0.3288 -0.6203  2.2059
 6122SOL    HW230000   4.710   3.188   6.499 -1.7404  0.7079 -0.1525
 6123SOL     OW30001   3.732   4.361   9.089 -0.4751 -0.0581  0.5189
 6123SOL    HW130002   3.799   4.304   9.052  1.6075  1.7970  1.5001
 6123SOL    HW230003   3.727   4.429   9.021  1.0183 -1.3643 -0.8856
 6124SOL     OW30004   3.681   3.563  13.010  0.3745  0.0761 -0.6469
 6124SOL    HW130005   3.763   3.546  12.963  1.9912  2.3973  1.3463
 6124SOL    HW230006   3.652   3.637  12.957  1.1970  0.2491 -0.8539
 6125SOL     OW30007   3.328   1.163  12.095  0.9214 -0.0712 -0.4690
 6125SOL    HW130008   3.358   1.183  12.184  0.8068 -1.0440 -0.2103
 6125SOL    HW230009   3.318   1.255  12.069  0.2544  0.9332  3.2871
 6126SOL     OW30010   2.329   0.147   9.184 -0.4520 -0.3108 -0.0357
 6126SOL    HW130011   2.270   0.209   9.142 -0.4622  0.4967  1.1716
 6126SOL    HW230012   2.279   0.067   9.165  1.4811 -1.9079  1.5957
 6127SOL     OW30013   2.563   2.480   4.664 -0.5363  0.4536  0.3037
 6127SOL    HW130014   2.649   2.502   4.698 -0.8486  1.3724  0.4974
 6127SOL    HW230015   2.504   2.520   4.728 -1.7521  1.3041 -1.3247
 6128SOL     OW30016   2.161   0.090  17.429 -0.4054 -0.3061  0.1009
 6128SOL    HW130017   2.081   0.038  17.435  0.5423 -1.7165  0.4713
 6128SOL    HW230018   2.225   0.029  17.394  0.5607 -0.4814  2.1719
 6129SOL     OW30019   3.963   3.837  12.776 -0.3169  0.1519  0.4677
 6129SOL    HW130020   4.054   3.848  12.748 -0.3974 -2.4499 -0.8125
 6129SOL    HW230021   3.968   3.916  12.829 -0.7801  1.3495 -1.2445
 6130SOL     OW30022   2.384   1.240   4.954  0.5385  0.3023  0.2208
 6130SOL    HW130023   2.345   1.230   4.867 -0.7191  0.0275  0.8092
 6130SOL    HW230024   2.468   1.279   4.928  1.4876 -0.6924  1.7695
 6131SOL     OW30025   0.211   1.743  13.867 -0.4503  0.0568  0.1121
 6131SOL    HW130026   0.198   1.759  13.960 -0.2073 -1.4322  0.4135
 6131SOL    HW230027   0.251   1.824  13.838  0.0440  0.7061  2.6273
 6132SOL     OW30028   4.618   1.671   3.630  0.0148 -0.5085  0.6284
 6132SOL    HW130029   4.559   1.613   3.582  1.7168 -0.3886 -1.5868
 6132SOL    HW230030   4.587   1.754   3.596  0.4453 -1.1865 -1.3918
 6133SOL     OW30031   0.487   2.327  14.545  0.3387 -0.1249 -0.2519
 6133SOL    HW130032   0.511   2.403  14.598  0.0012 -0.4831  0.4136
 6133SOL    HW230033   0.394   2.314  14.564  0.0897 -2.2204 -2.7849
 6134SOL     OW30034   3.443   1.505   1.158 -0.7326 -0.1945 -0.0683
 6134SOL    HW130035   3.483   1.438   1.103  1.5139  0.2034  1.1034
 6134SOL    HW230036   3.351   1.491   1.133 -0.4403 -2.0867 -0.0640
 6135SOL     OW30037   4.351   4.360   5.694  0.4553  0.3585  0.4666
 6135SOL    HW130038   4.350   4.366   5.789  1.0780  1.5577  0.4050
 6135SOL    HW230039   4.372   4.268   5.680  2.5048  0.6755  1.4781
 6136SOL     OW30040   1.968   4.455   0.597  0.4718 -0.2795 -0.0676
 6136SOL    HW130041   1.989   4.442   0.689  0.9737 -0.1764 -0.1685
 6136SOL    HW230042   1.884   4.413   0.578  0.5969 -1.1201  1.2698
 6137SOL     OW30043   0.521   2.666   9.815  0.3195  0.1624 -0.5144
 6137SOL    HW130044   0.459   2.600   9.784 -1.4804  1.5945 -0.0320
 6137SOL    HW230045   0.563   2.619   9.887  0.8993  0.8665 -0.3930
 6138SOL     OW30046   3.021   3.851   4.357 -0.3397  0.0662 -0.7075
 6138SOL    HW130047   2.948   3.901   4.395  1.1843  1.7859 -0.0482
 6138SOL    HW230048   2.986   3.843   4.268  1.8704 -0.3204 -1.5465
 6139SOL     OW30049   2.862   0.663   6.287 -0.7728 -0.1905 -0.3391
 6139SOL    HW130050   2.952   0.632   6.283 -0.2341  1.5660 -1.7788
 6139SOL    HW230051   2.841   0.695   6.200 -2.2495  1.0394  0.4704
 6140SOL     OW30052   2.894   3.785   7.352  0.3277  0.3389 -0.1111
 6140SOL    HW130053   2.974   3.819   7.390  0.1845 -0.4225  0.8670
 6140SOL    HW230054   2.930   3.708   7.308 -0.5944 -0.0393 -0.2055
 6141SOL     OW30055   2.014   2.946   8.995 -0.4238  0.3084  0.7922
 6141SOL    HW130056   2.050   2.996   8.921 -0.1492 -1.9372 -0.5855
 6141SOL    HW230057   2.090   2.956   9.052 -0.7483 -1.6706  1.5595
 6142SOL     OW30058   0.553   3.754   1.338 -0.3604 -0.2913 -0.2622
 6142SOL    HW130059   0.579   3.767   1.429 -0.5249  0.1670 -0.2825
 6142SOL    HW230060   0.467   3.796   1.334 -0.2089  0.2019  2.0178
 6143SOL     OW30061   2.023   4.700   2.204  0.2311  0.0886 -0.2107
 6143SOL    HW130062   1.944   4.732   2.160  1.3212  2.1846 -0.6500
 6143SOL    HW230063   2.005   4.734   2.292 -3.4042 -0.1890 -0.8204
 6144SOL     OW30064   1.962   0.597   6.365  0.2747 -0.2373  0.9250
 6144SOL    HW130065   1.977   0.507   6.335 -1.9134 -0.5003  0.6166
 6144SOL    HW230066   1.874   0.585   6.400  1.1348 -1.7856  2.5060
 6145SOL     OW30067   0.117   2.744  10.260  0.0954 -0.3289  0.5452
 6145SOL    HW130068   0.189   2.734  10.197 -1.1731 -1.2391 -0.7783
 6145SOL    HW230069   0.086   2.654  10.274 -2.7481  0.2819 -1.8047
 6146SOL     OW30070   2.943   3.178   0.283 -0.7850  0.0587 -0.2357
 6146SOL    HW130071   3.037   3.172   0.265 -0.6756  1.2924 -0.0486
 6146SOL    HW230072   2.945   3.225   0.366  1.0446 -0.0620 -0.2160
 6147SOL     OW30073   1.500   4.431  15.310  0.0693  0.0843  0.4211
 6147SOL    HW130074   1.472   4.350  15.267 -1.4374  1.2907 -0.9014
 6147SOL    HW230075   1.583   4.438  15.262  0.2903  0.2772  0.8364
 6148SOL     OW30076   0.527   1.395   1.383 -0.3165 -0.2583  0.4614
 6148SOL    HW130077   0.578   1.314   1.381  1.6103  1.0324 -1.5929
 6148SOL    HW230078   0.451   1.361   1.431 -0.4968 -1.7076 -0.8669
 6149SOL     OW30079   4.279   3.724  10.671 -0.0050 -0.6119 -0.3708
 6149SOL    HW130080   4.269   3.748  10.763  1.2987 -1.5849  0.0212
 6149SOL    HW230081   4.230   3.800  10.641  0.3607  0.4631  1.7510
 6150SOL     OW30082   1.741   0.079   2.544 -0.0524 -0.1268  0.0780
 6150SOL    HW130083   1.724   0.150   2.606 -0.4662  0.6010 -0.8811
 6150SOL    HW230084   1.829   0.103   2.516 -0.6329  1.3712 -0.4605
 6151SOL     OW30085   0.558   0.563   8.280 -0.4030 -0.3836 -0.0801
 6151SOL    HW130086   0.593   0.486   8.324  0.9182  0.3335  0.1258
 6151SOL    HW230087   0.465   0.555   8.304 -0.7502  1.3768 -0.8346
 6152SOL     OW30088   3.195   3.522   9.396  0.0870  0.2910 -0.2952
 6152SOL    HW130089   3.239   3.590   9.448  1.4633  0.0950 -1.2122
 6152SOL    HW230090   3.242   3.444   9.427 -1.0758  0.8537  2.9337
 6153SOL     OW30091   1.597   2.110   3.774 -0.5445 -0.1883 -0.3541
 6153SOL    HW130092   1.568   2.198   3.748  0.8530  1.0401  2.3097
 6153SOL    HW230093   1.535   2.053   3.729 -1.9703  0.9716  0.1355
 6154SOL     OW30094   0.897   1.984   1.499 -0.6555 -0.5083  0.1225
 6154SOL    HW130095   0.888   2.057   1.561  0.4072  0.0330 -0.3717
 6154SOL    HW230096   0.856   1.909   1.542  2.3970 -2.5202 -0.5342
 6155SOL     OW30097   1.152   1.240   1.759  0.5977  0.3692 -0.4777
 6155SOL    HW130098   1.065   1.239   1.719 -1.1580 -0.0156  3.2952
 6155SOL    HW230099   1.145   1.322   1.808 -0.3737 -0.9326  1.5821
 6156SOL     OW30100   2.297   3.198   7.151  0.6603  0.6818  0.0620
 6156SOL    HW130101   2.364   3.239   7.097  1.2677  0.6333  0.7775
 6156SOL    HW230102   2.296   3.111   7.112 -1.3597  0.1230  1.3155
 6157SOL     OW30103   0.258   0.761   2.116 -0.2317 -0.2727 -0.2286
 6157SOL    HW130104   0.333   0.820   2.111  0.5519 -1.1903  1.0264
 6157SOL    HW230105   0.187   0.824   2.132 -0.6965 -0.6503 -0.7699
 6158SOL     OW30106   2.366   2.388   0.604 -0.1673  0.0895  0.5721
 6158SOL    HW130107   2.308   2.339   0.662  0.0710  0.0428  0.7673
 6158SOL    HW230108   2.330   2.474   0.626  2.6657  0.6362  2.9805
 6159SOL     OW30109   4.549   3.072   2.704  0.3182 -0.1300 -0.4083
 6159SOL    HW130110   4.578   3.023   2.628  0.2375 -0.6130 -0.1277
 6159SOL    HW230111   4.633   3.089   2.747  0.8623 -0.7959 -1.2200
 6160SOL     OW30112   0.522   3.820   3.482 -0.4814 -0.1971 -0.3702
 6160SOL    HW130113   0.530   3.725   3.487  0.6375 -0.0806  0.1000
 6160SOL    HW230114   0.455   3.848   3.545 -0.9989 -0.3913 -0.8407
 6161SOL     OW30115   4.088   3.123   6.640  0.0094 -0.2584 -0.5802
 6161SOL    HW130116   4.109   3.032   6.618 -1.0650 -0.4535 -0.8101
 6161SOL    HW230117   4.001   3.123   6.600 -1.1989 -1.0050  2.0242
 6162SOL     OW30118   4.569   2.787   3.336  0.3819  0.2127 -0.3069
 6162SOL    HW130119   4.620   2.724   3.284 -1.2736 -1.9123  0.6371
 6162SOL    HW230120   4.571   2.759   3.427 -0.8832 -0.6539 -0.5402
 6163SOL     OW30121   4.269   2.711   8.781 -0.0203  0.0285 -0.3469
 6163SOL    HW130122   4.350   2.664   8.761  0.6399  0.7003  0.7686
 6163SOL    HW230123   4.286   2.742   8.870  1.8105 -1.1872 -0.2782
 6164SOL     OW30124   0.795   3.773   6.199  0.2193 -0.0770  0.6554
 6164SOL    HW130125   0.746   3.711   6.145  0.0835 -1.0529  1.9040
 6164SOL    HW230126   0.717   3.822   6.228 -0.7010  0.1105 -2.1009
 6165SOL     OW30127   0.883   0.280   3.636 -0.3672  0.8832 -0.3599
 6165SOL    HW130128   0.950   0.212   3.651 -1.5377  0.1958  1.7046
 6165SOL    HW230129   0.814   0.245   3.692  0.0309 -0.0125 -0.4247
 6166SOL     OW30130   3.736   4.307  12.877  0.7463 -0.0617  0.4308
 6166SOL    HW130131   3.720   4.253  12.799  3.9347  0.8337 -0.8654
 6166SOL    HW230132   3.657   4.295  12.929  0.6835 -0.0011  0.3482
 6167SOL     OW30133   2.504   3.734   5.118 -0.0266  0.0873  0.0424
 6167SOL    HW130134   2.594   3.754   5.092  0.1694  0.3356  0.9151
 6167SOL    HW230135   2.499   3.792   5.194  0.6423  1.8765 -1.2603
 6168SOL     OW30136   0.244   1.468  10.750 -0.1968 -0.5336 -0.0225
 6168SOL    HW130137   0.190   1.402  10.706 -1.6122  0.2768  0.4947
 6168SOL    HW230138   0.218   1.461  10.842  0.0882  1.3850  0.1982
 6169SOL     OW30139   3.901   4.685  17.712  0.2947 -0.3045 -0.3164
 6169SOL    HW130140   3.967   4.734   0.021  1.8365 -0.6640 -2.0543
 6169SOL    HW230141   3.918   4.594  17.737 -0.4691  0.1725  1.9120
 6170SOL     OW30142   0.108   2.372  12.881 -0.0800 -0.3699  0.5794
 6170SOL    HW130143   0.130   2.425  12.958 -0.8525  0.9962 -0.1469
 6170SOL    HW230144   0.191   2.341  12.844 -0.9842 -0.7151 -1.1465
 6171SOL     OW30145   1.308   4.524   3.901 -0.1944 -0.2307  0.1157
 6171SOL    HW130146   1.363   4.519   3.979  0.7175 -1.3832 -0.6055
 6171SOL    HW230147   1.316   4.432   3.874 -0.2742 -0.6317  1.4818
 6172SOL     OW30148   2.474   3.582   3.801 -0.1571 -0.8803  0.4830
 6172SOL    HW130149   2.463   3.549   3.890  1.8030 -1.5681  0.4630
 6172SOL    HW230150   2.385   3.618   3.794 -0.7248 -2.4444 -0.3848
 6173SOL     OW30151   1.320   2.000   4.122  0.2303 -0.2701 -0.1472
 6173SOL    HW130152   1.265   1.972   4.048  1.3632 -2.1863 -0.2633
 6173SOL    HW230153   1.328   1.919   4.171 -1.1194  1.2860  2.6144
 6174SOL     OW30154   2.241   4.500   5.149  0.1696 -0.2239 -0.1350
 6174SOL    HW130155   2.268   4.543   5.068 -0.6533  2.0786  0.8019
 6174SOL    HW230156   2.158   4.465   5.116  0.4363 -0.2470 -0.7815
 6175SOL     OW30157   0.486   1.269   7.231 -0.1782  0.2750 -0.2676
 6175SOL    HW130158   0.516   1.359   7.216 -0.3664  0.4559  0.4522
 6175SOL    HW230159   0.394   1.284   7.207 -0.3470  1.4628  1.1345
 6176SOL     OW30160   4.512   3.431   3.016 -0.1305 -0.2609 -0.6506
 6176SOL    HW130161   4.491   3.515   3.057  2.3083 -1.1191  2.3036
 6176SOL    HW230162   4.423   3.395   3.016  0.7140 -2.3543  1.9392
 6177SOL     OW30163   2.044   1.879   9.540  0.1945  0.0848 -0.7104
 6177SOL    HW130164   2.124   1.900   9.588 -0.4681  0.3378  0.2726
 6177SOL    HW230165   2.075   1.885   9.449  0.7236 -0.1822 -0.5471
 6178SOL     OW30166   4.633   2.537   5.693  0.0557  0.0917 -0.3245
 6178SOL    HW130167   4.724   2.507   5.695  0.2989  0.8825  0.7210
 6178SOL    HW230168   4.632   2.629   5.667 -0.2998 -0.0767 -0.8940
 6179SOL     OW30169   3.084   0.174   7.352 -0.2139 -0.0332  0.0292
 6179SOL    HW130170   2.991   0.177   7.372 -0.7258 -0.5527 -2.2737
 6179SOL    HW230171   3.082   0.208   7.262  1.1734 -0.2796 -0.0943
 6180SOL     OW30172   4.035   2.562   4.831  0.1155 -0.0402  0.1786
 6180SOL    HW130173   4.034   2.655   4.856 -0.1739 -0.1717  0.6672
 6180SOL    HW230174   4.097   2.562   4.759  1.0657 -0.7423  0.9961
 6181SOL     OW30175   3.594   2.803   8.612 -0.4111 -0.0086  0.0165
 6181SOL    HW130176   3.578   2.720   8.656 -0.6201 -0.2949 -0.5996
 6181SOL    HW230177   3.690   2.807   8.613 -0.4722  0.1762  3.2955
 6182SOL     OW30178   1.720   2.632  16.152 -0.0478  0.6516  0.2632
 6182SOL    HW130179   1.752   2.652  16.064 -0.2804  1.4146  0.3499
 6182SOL    HW230180   1.629   2.663  16.145 -0.0437  1.1439  2.3160
 6183SOL     OW30181   2.892   3.411  12.743 -0.1769 -0.2616 -0.0599
 6183SOL    HW130182   2.914   3.444  12.656  0.3374 -1.1956 -0.2926
 6183SOL    HW230183   2.920   3.487  12.794 -0.0065 -0.0267 -0.5059
 6184SOL     OW30184   3.018   1.228   5.388 -0.1681  0.4992  0.0642
 6184SOL    HW130185   3.082   1.273   5.442  0.2950  0.1051 -0.1634
 6184SOL    HW230186   3.028   1.136   5.414  0.1958  0.1110 -1.4325
 6185SOL     OW30187   3.048   1.015   3.198 -0.3259 -0.2790  0.2791
 6185SOL    HW130188   3.131   1.012   3.149 -0.4861 -0.4608  0.0196
 6185SOL    HW230189   3.024   0.926   3.224 -0.9689 -1.0177 -2.7386
 6186SOL     OW30190   1.593   4.675   3.475  0.0918  0.1000  0.1534
 6186SOL    HW130191   1.557   4.586   3.482 -2.2423  1.1433  1.5374
 6186SOL    HW230192   1.680   4.659   3.438  0.4221  1.4160  0.3537
 6187SOL     OW30193   2.042   0.964  16.741 -0.2569  0.2156  0.4350
 6187SOL    HW130194   2.077   0.960  16.830  1.9960 -0.2472 -0.4713
 6187SOL    HW230195   2.118   0.937  16.690 -0.3643  1.4396 -0.3710
 6188SOL     OW30196   4.713   2.954   0.843 -0.5043 -0.1471 -0.6438
 6188SOL    HW130197   4.654   2.914   0.778 -0.6786  0.7773 -1.0518
 6188SOL    HW230198   4.675   2.927   0.927  1.9568 -0.2130  0.4606
 6189SOL     OW30199   4.025   0.648   7.061 -0.0442  0.0939  0.0139
 6189SOL    HW130200   4.015   0.553   7.063  1.1157  0.0012  1.2959
 6189SOL    HW230201   3.971   0.671   7.137 -0.8342 -0.7491 -0.2918
 6190SOL     OW30202   1.482   2.280   9.332  0.1078 -0.4997 -0.3757
 6190SOL    HW130203   1.519   2.203   9.376  0.6788 -0.3866 -0.6564
 6190SOL    HW230204   1.402   2.244   9.293  0.0895  0.9520 -1.6558
 6191SOL     OW30205   4.679   0.821   1.454  0.4657  0.1797  0.2264
 6191SOL    HW130206   0.004   0.833   1.527  0.7182  0.5593 -0.0441
 6191SOL    HW230207   0.014   0.805   1.390  0.6213 -0.1380  0.4733
 6192SOL     OW30208   0.450   1.397   0.670 -0.1758  0.1698 -0.2105
 6192SOL    HW130209   0.506   1.328   0.708  0.0918 -0.1959 -1.2771
 6192SOL    HW230210   0.411   1.442   0.745 -2.6462  0.8579 -1.9232
 6193SOL     OW30211   0.797   0.814   1.251  0.1381  0.0047  0.3220
 6193SOL    HW130212   0.875   0.858   1.284  2.2627 -1.0120 -3.4477
 6193SOL    HW230213   0.760   0.776   1.331  0.5635 -0.4873  0.2859
 6194SOL     OW30214   1.273   0.555   7.145 -0.2774  0.3010  0.0280
 6194SOL    HW130215   1.229   0.632   7.109 -2.0447 -0.3381  0.8543
 6194SOL    HW230216   1.364   0.558   7.114 -0.8161  0.0526 -1.5996
 6195SOL     OW30217   1.526   3.496  13.295  0.6337  0.2620 -0.1011
 6195SOL    HW130218   1.517   3.448  13.376 -2.9428  0.4430 -0.3847
 6195SOL    HW230219   1.438   3.525  13.272 -0.2690 -0.9504  1.8762
 6196SOL     OW30220   1.905   1.250   7.104  0.3042 -0.1505  0.2015
 6196SOL    HW130221   1.974   1.201   7.058 -0.2289 -1.6871  1.0629
 6196SOL    HW230222   1.867   1.293   7.027  1.2979  0.0374 -0.1929
 6197SOL     OW30223   4.500   3.458   8.466 -0.5280 -0.1514  0.4888
 6197SOL    HW130224   4.524   3.406   8.389 -1.6792  0.6117 -0.3830
 6197SOL    HW230225   4.413   3.426   8.488 -1.8973  0.8549 -3.4516
 6198SOL     OW30226   2.285   0.713   3.030  0.0343 -0.2828  0.6500
 6198SOL    HW130227   2.208   0.757   2.993  0.9474 -0.5253 -1.5903
 6198SOL    HW230228   2.240   0.685   3.109  0.2782 -0.2562  0.7981
 6199SOL     OW30229   2.235   0.252   5.504  0.1843  0.0061 -0.0227
 6199SOL    HW130230   2.213   0.343   5.521  0.1590 -0.2449  1.3710
 6199SOL    HW230231   2.149   0.221   5.475 -0.0445 -0.0519  0.7159
 6200SOL     OW30232   1.792   1.148   6.013 -0.1039  0.7408  0.1989
 6200SOL    HW130233   1.873   1.171   6.058  0.4348  0.4240 -0.6008
 6200SOL    HW230234   1.728   1.173   6.080 -0.2125  0.3065  0.2622
 6201SOL     OW30235   4.331   0.920   9.417  0.1490  0.4373  0.2913
 6201SOL    HW130236   4.262   0.920   9.350  0.5912  4.0591 -0.1525
 6201SOL    HW230237   4.355   1.013   9.422  2.1998 -0.2355  2.8908
 6202SOL     OW30238   4.071   4.657   7.131  0.1753  0.4044 -0.3299
 6202SOL    HW130239   4.112   4.589   7.078  2.0029  0.3865  1.1059
 6202SOL    HW230240   4.086   4.622   7.218  0.5833 -0.6180 -0.8075
 6203SOL     OW30241   1.677   3.639  14.484 -0.5010 -0.0346 -0.1354
 6203SOL    HW130242   1.620   3.639  14.407 -0.6120 -0.7820 -0.0548
 6203SOL    HW230243   1.629   3.645  14.566 -0.4417 -1.4189 -0.0045
 6204SOL     OW30244   4.601   3.091  16.196 -0.5065 -0.0133 -0.2033
 6204SOL    HW130245   4.566   3.180  16.196 -0.3385  0.0523 -0.2046
 6204SOL    HW230246   4.542   3.040  16.252 -1.0321  0.1432 -0.6134
 6205SOL     OW30247   0.087   4.183   5.007 -0.0640 -0.0423  0.0491
 6205SOL    HW130248   0.151   4.122   4.968  0.4464  0.1123  0.6481
 6205SOL    HW230249   0.035   4.225   4.938 -3.0237 -0.5542  1.9882
 6206SOL     OW30250   3.994   2.544   1.001  0.2279 -0.2190  0.1956
 6206SOL    HW130251   4.075   2.551   0.951  0.9982 -0.1531  1.4410
 6206SOL    HW230252   4.024   2.479   1.064  1.3916 -0.4138 -0.5495
 6207SOL     OW30253   0.135   3.758   5.064  0.1395 -0.3756 -0.6333
 6207SOL    HW130254   0.131   3.687   5.000  1.1230 -0.2678 -0.8163
 6207SOL    HW230255   0.043   3.770   5.086  0.0183 -0.5304 -1.0730
 6208SOL     OW30256   3.021   4.554   3.738 -0.0696 -0.0314  0.5545
 6208SOL    HW130257   2.957   4.614   3.698 -0.0037  0.0877  0.6289
 6208SOL    HW230258   3.094   4.578   3.681 -1.0146  0.9159 -0.2577
 6209SOL     OW30259   2.137   3.363   8.145 -0.0579 -0.4208  0.3402
 6209SOL    HW130260   2.077   3.426   8.185  1.2187  0.1200  1.3651
 6209SOL    HW230261   2.208   3.351   8.208 -0.1780  2.0964  0.9464
 6210SOL     OW30262   4.104   0.883  11.874  0.1046  0.0290 -0.0233
 6210SOL    HW130263   4.147   0.798  11.874 -0.0935 -0.0734  0.2491
 6210SOL    HW230264   4.168   0.947  11.844  0.8632 -0.3490  0.7978
 6211SOL     OW30265   3.420   1.635   5.340 -0.2369 -0.3195 -0.0562
 6211SOL    HW130266   3.346   1.658   5.395  0.6350  3.2165 -0.3708
 6211SOL    HW230267   3.369   1.568   5.295 -1.4585  1.2104 -0.9489
 6212SOL     OW30268   1.603   3.729  10.303  0.4558 -0.0978 -0.0796
 6212SOL    HW130269   1.600   3.657  10.365  1.3971 -0.5021 -0.4971
 6212SOL    HW230270   1.694   3.760  10.309 -0.4224  2.1792  1.5328
 6213SOL     OW30271   1.186   3.181   3.718  0.6268  0.5398  0.4689
 6213SOL    HW130272   1.196   3.242   3.646  0.8797 -0.5670 -0.4290
 6213SOL    HW230273   1.227   3.101   3.686 -1.3590 -0.8246  1.3378
 6214SOL     OW30274   0.529   3.851  17.393  0.3869  0.2807  0.0865
 6214SOL    HW130275   0.480   3.771  17.375  2.1873 -0.5408 -1.1467
 6214SOL    HW230276   0.461   3.918  17.399  0.8737  0.6419  1.4934
 6215SOL     OW30277   1.026   0.273   0.400  0.3426  0.2526  0.4385
 6215SOL    HW130278   0.994   0.253   0.312 -0.2552 -1.3411  1.0110
 6215SOL    HW230279   0.944   0.267   0.450 -1.1392  0.5044 -1.9666
 6216SOL     OW30280   3.888   0.954   7.504 -0.6322 -0.1359  0.3542
 6216SOL    HW130281   3.865   1.033   7.456 -2.4590 -0.3427  0.8936
 6216SOL    HW230282   3.812   0.940   7.561 -1.4062 -0.6073 -0.7977
 6217SOL     OW30283   3.743   3.704  12.350  0.1642  0.0700 -0.2070
 6217SOL    HW130284   3.759   3.736  12.261 -2.3168  2.0711  0.0772
 6217SOL    HW230285   3.760   3.785  12.397 -0.7219 -0.5499  1.1696
 6218SOL     OW30286   3.385   3.984   5.470 -0.1263  0.0094  0.0161
 6218SOL    HW130287   3.431   3.907   5.437  2.3855  1.0258  1.1362
 6218SOL    HW230288   3.325   3.944   5.533  1.2565 -1.5129  0.3620
 6219SOL     OW30289   1.602   2.336   4.347 -0.5239  0.0561 -0.2265
 6219SOL    HW130290   1.590   2.345   4.253  0.7795 -2.2761 -0.6189
 6219SOL    HW230291   1.693   2.364   4.355 -0.5998  0.1606  0.2704
 6220SOL     OW30292   3.308   4.501   2.749  0.1405 -0.0303  0.5748
 6220SOL    HW130293   3.368   4.427   2.741 -1.3771 -1.2895  0.9382
 6220SOL    HW230294   3.326   4.529   2.839  1.8384 -0.8385  0.4988
 6221SOL     OW30295   0.832   0.426   5.056 -0.3705  0.0496 -0.2826
 6221SOL    HW130296   0.757   0.484   5.058 -0.7458 -0.4050 -1.2611
 6221SOL    HW230297   0.846   0.425   4.962 -1.6831  0.5187 -0.4813
 6222SOL     OW30298   1.152   3.745   7.391  1.0152 -0.7126 -0.2755
 6222SOL    HW130299   1.221   3.767   7.329 -1.9403 -0.4241 -3.4837
 6222SOL    HW230300   1.128   3.655   7.367  0.0380 -0.3567 -0.6509
 6223SOL     OW30301   1.574   1.001  10.508  0.4261 -0.4126  0.0255
 6223SOL    HW130302   1.665   1.024  10.490  0.4459  0.8782  1.7578
 6223SOL    HW230303   1.519   1.046  10.444 -0.0168 -1.1171 -0.0846
 6224SOL     OW30304   0.785   2.322   4.955 -0.3139 -0.8457 -0.4341
 6224SOL    HW130305   0.730   2.400   4.948 -0.1418 -0.6076  0.7395
 6224SOL    HW230306   0.858   2.360   5.004 -0.6205 -2.5177  1.3283
 6225SOL     OW30307   0.653   4.306  10.102 -0.4202 -0.1617 -0.1507
 6225SOL    HW130308   0.711   4.319  10.027  1.1109 -0.1859  1.0244
 6225SOL    HW230309   0.635   4.392  10.140  0.0649 -0.2256  0.2331
 6226SOL     OW30310   1.649   1.816   6.242  0.2072  0.5373 -0.5929
 6226SOL    HW130311   1.572   1.872   6.236  0.2121  0.3676 -2.1259
 6226SOL    HW230312   1.710   1.854   6.179 -0.5918  0.1227 -1.6199
 6227SOL     OW30313   3.526   0.061   4.358  0.0213 -0.6343  0.0316
 6227SOL    HW130314   3.444   0.105   4.338 -0.2486 -0.2435  2.0191
 6227SOL    HW230315   3.503   4.704   4.344 -0.2423 -0.8010  1.6458
 6228SOL     OW30316   3.128   3.322   2.724 -0.1372 -0.1118  0.5188
 6228SOL    HW130317   3.046   3.335   2.676  0.2241 -0.6688 -0.2518
 6228SOL    HW230318   3.161   3.411   2.721  0.0032 -0.1813 -0.0416
 6229SOL     OW30319   1.745   2.794   6.322 -0.0371  0.3726  0.5287
 6229SOL    HW130320   1.784   2.788   6.409  2.9778  2.5352 -0.6919
 6229SOL    HW230321   1.676   2.858   6.340  1.7787  2.8265 -1.3048
 6230SOL     OW30322   3.098   1.435   6.335 -0.0446  0.0923 -0.4637
 6230SOL    HW130323   3.134   1.397   6.255 -2.6285 -0.3322 -1.4204
 6230SOL    HW230324   3.016   1.387   6.343  1.1758 -2.1729 -1.4744
 6231SOL     OW30325   2.103   2.537  10.353  0.5089  0.1259  0.2642
 6231SOL    HW130326   2.165   2.543  10.280 -1.0654  1.2957 -0.9735
 6231SOL    HW230327   2.075   2.627  10.373  1.9351  0.5506  0.3690
 6232SOL     OW30328   3.471   2.359   4.209 -0.3597  0.4189  0.2149
 6232SOL    HW130329   3.459   2.451   4.189  0.6056  0.7338  1.1202
 6232SOL    HW230330   3.391   2.318   4.175  0.1909 -0.4973 -0.0007
 6233SOL     OW30331   4.378   1.390   6.933  0.2087  0.2653 -0.0530
 6233SOL    HW130332   4.283   1.391   6.949 -0.1228 -3.2002 -1.8340
 6233SOL    HW230333   4.409   1.449   7.001  0.9344  0.5355 -0.6198
 6234SOL     OW30334   3.776   0.411   4.872 -0.0360  0.0874  0.2685
 6234SOL    HW130335   3.783   0.368   4.957  5.2493  0.2663 -0.1113
 6234SOL    HW230336   3.840   0.480   4.884  2.1139 -1.7992 -0.2922
 6235SOL     OW30337   1.697   3.019   1.723  0.1194 -0.3862  0.3625
 6235SOL    HW130338   1.696   3.020   1.628  0.2798  0.1539  0.3687
 6235SOL    HW230339   1.715   2.928   1.749 -1.3843 -0.7670  0.1098
 6236SOL     OW30340   0.221   4.481  12.515 -0.1428 -0.8560 -0.1662
 6236SOL    HW130341   0.256   4.398  12.548  1.2533  0.1522  0.8662
 6236SOL    HW230342   0.244   4.533  12.592 -0.3938 -0.6488 -0.2335
 6237SOL     OW30343   4.674   1.523  12.682 -0.4489 -0.2505 -0.4516
 6237SOL    HW130344   4.701   1.603  12.637 -0.6288 -0.2483 -0.5576
 6237SOL    HW230345   4.589   1.511  12.640 -0.3761 -1.3466 -0.2936
 6238SOL     OW30346   2.941   2.443   9.389 -0.1758  0.0156  0.6238
 6238SOL    HW130347   3.004   2.414   9.323  0.1666 -1.3239  1.5302
 6238SOL    HW230348   2.873   2.493   9.345 -0.2208 -1.8412 -1.4419
 6239SOL     OW30349   2.157   2.513  11.032 -0.1176  0.4292  0.1449
 6239SOL    HW130350   2.201   2.439  11.074 -1.2083 -0.5383 -0.4129
 6239SOL    HW230351   2.069   2.477  11.039  0.3606 -0.1756  3.0199
 6240SOL     OW30352   3.640   4.703   7.248  0.1740 -0.3422  0.2493
 6240SOL    HW130353   3.567   0.020   7.281  2.1310  1.3612  1.9101
 6240SOL    HW230354   3.685   0.024   7.185 -2.3748  0.0471 -1.2288
 6241SOL     OW30355   0.030   0.134  15.769  0.5275  0.5808 -0.5862
 6241SOL    HW130356   0.070   0.074  15.832  0.4508  0.8048 -0.3241
 6241SOL    HW230357   0.088   0.210  15.777  0.3757  0.5211  1.1396
 6242SOL     OW30358   0.707   1.208   5.120  0.1937 -0.4553 -0.0959
 6242SOL    HW130359   0.624   1.252   5.102  1.7904  2.0112 -1.4483
 6242SOL    HW230360   0.683   1.123   5.156  0.0366  0.1674  1.2469
 6243SOL     OW30361   0.104   1.509   9.493  1.0682  0.3046  0.4624
 6243SOL    HW130362   0.038   1.467   9.437 -0.1302  1.1311  1.2762
 6243SOL    HW230363   0.058   1.500   9.576 -0.3338  0.6465 -0.2632
 6244SOL     OW30364   4.602   2.022   2.038 -0.1662  0.0673  0.5086
 6244SOL    HW130365   4.531   1.967   2.005  1.4928 -2.6071  1.4172
 6244SOL    HW230366   4.575   2.054   2.124  1.4857 -1.4381  1.5871
 6245SOL     OW30367   1.321   3.953   8.454  0.0614  0.0554 -0.2017
 6245SOL    HW130368   1.318   3.858   8.439 -0.4845  0.2175 -1.1100
 6245SOL    HW230369   1.255   3.966   8.521 -0.4796 -0.2901 -0.6691
 6246SOL     OW30370   4.166   4.174   9.718  0.4363  0.1242  0.2952
 6246SOL    HW130371   4.110   4.118   9.664  1.6313  0.0363 -0.8491
 6246SOL    HW230372   4.100   4.214   9.775  1.3060  2.1099 -0.1129
 6247SOL     OW30373   2.917   4.093   3.888 -0.0950  0.0936 -0.0803
 6247SOL    HW130374   2.864   4.051   3.821 -2.9159  4.2866 -0.4720
 6247SOL    HW230375   2.958   4.167   3.843  2.9427 -2.3910 -1.3096
 6248SOL     OW30376   3.377   2.459   4.848  0.4492  0.6216  0.3559
 6248SOL    HW130377   3.349   2.368   4.850  0.5506  0.5699 -0.4092
 6248SOL    HW230378   3.400   2.471   4.940 -0.2879  0.5424  0.5438
 6249SOL     OW30379   4.285   2.018   3.862 -0.5002 -0.0258 -0.3288
 6249SOL    HW130380   4.311   2.085   3.924  3.2769 -2.3272  0.5983
 6249SOL    HW230381   4.207   1.983   3.905  0.7625 -0.9380  1.2303
 6250SOL     OW30382   2.676   4.211   7.807 -1.1902  0.2909  0.0554
 6250SOL    HW130383   2.596   4.187   7.855 -1.7783 -0.9686 -1.5454
 6250SOL    HW230384   2.731   4.134   7.816  0.4201  1.5144  0.7027
 6251SOL     OW30385   4.179   2.809   4.875  0.7020 -0.0476  0.4288
 6251SOL    HW130386   4.250   2.865   4.846  1.1983  0.0885  1.9018
 6251SOL    HW230387   4.231   2.730   4.891 -0.2834 -0.9142 -0.6390
 6252SOL     OW30388   0.215   2.288  13.692 -0.6200 -0.1904 -0.1411
 6252SOL    HW130389   0.279   2.217  13.683  0.8981  1.2886 -1.0301
 6252SOL    HW230390   0.246   2.336  13.769 -0.3522  0.4439 -0.6518
 6253SOL     OW30391   3.141   4.474   5.785  0.4081  0.0218 -0.0405
 6253SOL    HW130392   3.189   4.501   5.707 -0.1388 -1.0664 -0.7494
 6253SOL    HW230393   3.088   4.553   5.794 -0.4085 -0.0697 -4.0939
 6254SOL     OW30394   2.444   2.911   2.404  0.1545  0.5687  0.1266
 6254SOL    HW130395   2.515   2.973   2.423  0.0585  0.4012  1.0303
 6254SOL    HW230396   2.387   2.929   2.479  0.7829  1.4236  0.4075
 6255SOL     OW30397   1.659   2.126   4.996  0.0497  0.1433 -0.6668
 6255SOL    HW130398   1.649   2.220   4.981 -3.2327 -0.1038  0.1106
 6255SOL    HW230399   1.585   2.109   5.053 -0.5561  1.9686 -0.9212
 6256SOL     OW30400   3.908   3.275   3.119  0.2183  0.1756 -0.6343
 6256SOL    HW130401   3.961   3.214   3.067  0.4322  0.5056 -0.8076
 6256SOL    HW230402   3.902   3.348   3.057  0.5717  0.1272 -0.7263
 6257SOL     OW30403   3.276   0.326   2.768 -0.0406  0.0492  0.3367
 6257SOL    HW130404   3.310   0.281   2.846  0.9721  2.3306  1.2105
 6257SOL    HW230405   3.199   0.271   2.776 -0.4465  0.3926 -1.2641
 6258SOL     OW30406   0.288   3.144  15.456 -0.2041 -0.0804  0.1804
 6258SOL    HW130407   0.214   3.085  15.473 -1.5825  1.4485 -0.5498
 6258SOL    HW230408   0.339   3.090  15.396 -2.6865 -3.3196  0.9542
 6259SOL     OW30409   2.405   0.958   9.133 -0.4791 -0.2343  0.0380
 6259SOL    HW130410   2.393   0.920   9.046  1.0187 -1.4798  0.3759
 6259SOL    HW230411   2.338   0.919   9.190 -0.2769  1.9784  1.7841
 6260SOL     OW30412   4.311   2.554   7.515  0.0871 -0.0112  0.2500
 6260SOL    HW130413   4.253   2.544   7.590  1.0248  0.4267  1.0368
 6260SOL    HW230414   4.302   2.647   7.496  0.1660 -0.3038 -1.2459
 6261SOL     OW30415   3.114   0.352   4.750  0.0226  0.1077 -0.1326
 6261SOL    HW130416   3.133   0.442   4.777 -1.0710 -0.2287  1.7603
 6261SOL    HW230417   3.202   0.330   4.721  0.2382  2.0031 -0.9723
 6262SOL     OW30418   4.201   1.041   9.019  0.0376  0.4004  0.2812
 6262SOL    HW130419   4.226   0.968   9.075  1.7064  1.9634  1.5748
 6262SOL    HW230420   4.216   1.005   8.932 -0.9567  1.5495 -0.3746
 6263SOL     OW30421   3.745   0.655  10.958  0.3145  0.1025 -0.0002
 6263SOL    HW130422   3.758   0.642  11.052  1.4972  0.6855 -0.0798
 6263SOL    HW230423   3.834   0.658  10.921  0.4207  1.1114  0.3293
 6264SOL     OW30424   3.654   0.766   8.213  0.2656  0.4835 -0.2653
 6264SOL    HW130425   3.641   0.758   8.308 -0.5870 -1.5084 -0.5678
 6264SOL    HW230426   3.619   0.681   8.188 -0.4039  0.9264 -0.8443
 6265SOL     OW30427   4.588   2.227   8.973  0.0724 -0.1117  0.2189
 6265SOL    HW130428   4.599   2.191   8.885 -0.2283  1.1151 -0.3152
 6265SOL    HW230429   4.676   2.248   9.001 -0.2283  1.1038  0.2446
 6266SOL     OW30430   3.026   3.778  16.066 -0.3650 -0.3533  0.1699
 6266SOL    HW130431   2.970   3.748  15.995 -0.1888  0.6375 -0.3996
 6266SOL    HW230432   3.105   3.805  16.017 -1.6488  0.0826 -1.6678
 6267SOL     OW30433   1.187   3.235  13.751 -0.1920  0.2978 -0.1686
 6267SOL    HW130434   1.207   3.327  13.731  1.4672  0.2712  1.3048
 6267SOL    HW230435   1.157   3.216  13.662  0.8438  0.7835 -0.6285
 6268SOL     OW30436   0.243   0.485   5.689 -0.3775  0.1878 -0.0632
 6268SOL    HW130437   0.199   0.562   5.724  1.1583  1.6969 -1.3954
 6268SOL    HW230438   0.254   0.435   5.769  1.1811  1.3835  0.4805
 6269SOL     OW30439   0.952   2.337   7.066 -0.5116  0.1134 -0.6468
 6269SOL    HW130440   0.878   2.385   7.104 -0.7713 -2.9808  2.7875
 6269SOL    HW230441   1.007   2.413   7.049  1.3764 -1.7237 -2.7698
 6270SOL     OW30442   4.087   1.608   3.161  0.1974  0.4232 -0.0934
 6270SOL    HW130443   4.068   1.700   3.141 -1.4875  0.2194  0.4828
 6270SOL    HW230444   4.086   1.608   3.257  0.4690 -0.8903 -0.0887
 6271SOL     OW30445   2.586   2.520  10.077  0.5154 -0.1064 -0.1426
 6271SOL    HW130446   2.648   2.450  10.099  1.1615  0.6816  0.5263
 6271SOL    HW230447   2.508   2.470  10.102  0.5338  0.4834  1.1425
 6272SOL     OW30448   1.580   1.571   5.281  0.2705 -0.1832 -0.1285
 6272SOL    HW130449   1.603   1.577   5.374  0.2499 -0.9483 -0.0780
 6272SOL    HW230450   1.529   1.490   5.276  1.4539 -1.0553  2.2052
 6273SOL     OW30451   4.067   1.529   3.424 -0.4693  0.2306 -0.4416
 6273SOL    HW130452   4.129   1.486   3.484  0.5465  1.0608 -0.9057
 6273SOL    HW230453   4.011   1.459   3.391 -1.2386  0.8306 -0.4042
 6274SOL     OW30454   1.173   2.794   5.693 -0.3859  0.0725 -0.3600
 6274SOL    HW130455   1.267   2.810   5.680 -0.2737  1.1792  1.7460
 6274SOL    HW230456   1.130   2.874   5.663 -0.8483 -0.4485 -1.0716
 6275SOL     OW30457   2.751   4.064   4.732  0.4808  0.3183  0.3195
 6275SOL    HW130458   2.712   4.092   4.815  0.0641 -0.4498  0.3876
 6275SOL    HW230459   2.795   3.985   4.765  0.4188  0.9010  1.7797
 6276SOL     OW30460   0.220   2.381   1.142  0.1516 -0.1885  0.5134
 6276SOL    HW130461   0.295   2.329   1.169  0.5080 -0.9202 -1.8590
 6276SOL    HW230462   0.218   2.374   1.047  1.6952  1.1927  0.3693
 6277SOL     OW30463   0.268   0.259   5.049  0.2617 -0.1961 -0.4176
 6277SOL    HW130464   0.186   0.268   5.098 -0.6492 -1.6065 -1.6957
 6277SOL    HW230465   0.234   0.297   4.967 -1.6500 -2.6609 -0.7732
 6278SOL     OW30466   1.586   4.337  13.418  0.7224  0.0203  0.2107
 6278SOL    HW130467   1.661   4.286  13.447 -0.9682 -3.3613 -1.3366
 6278SOL    HW230468   1.527   4.323  13.492  0.7150 -0.0712  0.1880
 6279SOL     OW30469   4.547   4.235   3.886 -0.6667  0.1573 -0.2119
 6279SOL    HW130470   4.481   4.227   3.954 -1.3642  1.3052 -0.7570
 6279SOL    HW230471   4.623   4.211   3.940 -0.5486 -0.7063 -0.7587
 6280SOL     OW30472   2.645   3.935   8.788 -0.3665 -0.4802  0.1304
 6280SOL    HW130473   2.573   3.909   8.731 -0.2876  0.5453 -0.4367
 6280SOL    HW230474   2.678   3.856   8.829  1.1762  0.3834  0.5706
 6281SOL     OW30475   2.723   2.947   6.752  0.0327  0.0791 -0.2201
 6281SOL    HW130476   2.675   2.904   6.681  0.4086  1.0900 -1.0882
 6281SOL    HW230477   2.704   2.883   6.820 -0.7875 -0.6883 -1.1702
 6282SOL     OW30478   2.492   4.367   7.667  0.3284  0.2168  0.0177
 6282SOL    HW130479   2.468   4.306   7.597 -2.1088  1.4993 -0.2464
 6282SOL    HW230480   2.543   4.311   7.726  0.3473  0.4848  0.2545
 6283SOL     OW30481   1.423   2.868   8.587 -0.3631 -0.2849  0.2256
 6283SOL    HW130482   1.449   2.927   8.657 -1.5208 -2.1085  2.2180
 6283SOL    HW230483   1.347   2.914   8.552  1.2666  2.5863  0.4800
 6284SOL     OW30484   4.172   4.222   4.755 -0.2290  0.4906  0.0853
 6284SOL    HW130485   4.173   4.130   4.727 -4.5339  0.6494 -0.5356
 6284SOL    HW230486   4.142   4.221   4.845  1.1473  1.4044  0.5580
 6285SOL     OW30487   2.429   0.044   6.286  0.2576  0.0688 -0.2293
 6285SOL    HW130488   2.492   0.049   6.358 -1.0483 -1.4207  1.0188
 6285SOL    HW230489   2.356   0.090   6.328 -0.5029 -1.6819  0.3263
 6286SOL     OW30490   1.481   3.066  14.859 -0.3015 -0.4594 -0.4548
 6286SOL    HW130491   1.547   3.033  14.798  0.4549 -2.6794  1.5808
 6286SOL    HW230492   1.431   3.116  14.794 -1.0389 -2.2860 -1.3083
 6287SOL     OW30493   4.592   3.799  15.162  0.2236 -0.0579 -0.3892
 6287SOL    HW130494   4.606   3.795  15.068  0.3345  0.1781 -0.3830
 6287SOL    HW230495   4.682   3.807  15.195  0.1945 -0.8535 -0.1160
 6288SOL     OW30496   0.349   1.589  13.011  0.0666 -0.0258  0.4903
 6288SOL    HW130497   0.410   1.517  12.993 -0.1442 -0.5269  1.7353
 6288SOL    HW230498   0.271   1.553  12.969  0.8592  0.7823 -1.6850
 6289SOL     OW30499   3.242   0.604   4.870  0.1148  0.4517 -0.0052
 6289SOL    HW130500   3.233   0.697   4.892 -0.6831 -0.0500  1.8536
 6289SOL    HW230501   3.325   0.607   4.822  0.5825  1.9415  0.8540
 6290SOL     OW30502   1.600   0.852   5.632  0.0823 -0.4999 -0.3721
 6290SOL    HW130503   1.506   0.849   5.616  0.4945 -2.9233 -2.5690
 6290SOL    HW230504   1.617   0.870   5.539 -0.4233 -1.5771 -0.6813
 6291SOL     OW30505   3.160   0.826  12.373  0.4838  0.9140 -0.1062
 6291SOL    HW130506   3.091   0.864  12.427 -2.3691 -2.5545 -1.3469
 6291SOL    HW230507   3.224   0.835  12.443 -1.3982 -1.6818  1.9525
 6292SOL     OW30508   0.529   4.294  16.433 -0.4113 -0.4587  0.0951
 6292SOL    HW130509   0.531   4.331  16.345 -0.0037  0.7153  0.6062
 6292SOL    HW230510   0.467   4.344  16.486  0.9371  0.5308  0.7225
 6293SOL     OW30511   4.677   4.377   4.285  0.1022  0.0868  0.5077
 6293SOL    HW130512   0.012   4.438   4.261 -0.8732  2.4157  3.6987
 6293SOL    HW230513   4.683   4.379   4.380  0.8426 -0.7698  0.4758
 6294SOL     OW30514   1.815   1.527   8.489 -0.4022 -0.8764 -0.1192
 6294SOL    HW130515   1.806   1.440   8.451  1.0817 -0.2960 -1.7706
 6294SOL    HW230516   1.909   1.544   8.489 -0.6327  0.3833 -2.4554
 6295SOL     OW30517   1.767   3.441   5.768 -0.3322 -0.2925  0.4596
 6295SOL    HW130518   1.686   3.425   5.816  0.2781 -1.6809  1.0456
 6295SOL    HW230519   1.793   3.351   5.787  1.0084 -0.5192 -2.4859
 6296SOL     OW30520   3.395   4.605  16.099 -0.1998 -0.4140  0.9488
 6296SOL    HW130521   3.459   4.534  16.086 -0.8259 -0.5134 -1.4708
 6296SOL    HW230522   3.378   4.596  16.193  0.7066  1.8213  1.3385
 6297SOL     OW30523   1.433   3.306  12.161 -0.2034  0.6396 -0.1700
 6297SOL    HW130524   1.342   3.280  12.145 -0.0226 -0.3864  0.4667
 6297SOL    HW230525   1.435   3.313  12.257 -0.7509 -0.3764 -0.0868
 6298SOL     OW30526   2.844   0.964  17.113 -0.2893 -0.0285 -0.1189
 6298SOL    HW130527   2.849   0.999  17.202 -1.2959 -0.3658  0.0794
 6298SOL    HW230528   2.780   1.019  17.068 -0.6544  0.8951  1.5145
 6299SOL     OW30529   0.428   4.626  16.447  0.0430 -0.0161 -0.3661
 6299SOL    HW130530   0.395   4.604  16.361 -1.9257  0.6984  0.2133
 6299SOL    HW230531   0.404   4.554  16.505  3.8590 -0.6901  0.3936
 6300SOL     OW30532   3.385   4.502   6.429  0.5897  0.0213  0.3399
 6300SOL    HW130533   3.314   4.509   6.364  1.3968 -0.7116 -0.6350
 6300SOL    HW230534   3.420   4.419   6.396 -3.0748 -1.0581 -0.8506
 6301SOL     OW30535   1.736   4.127   2.756  0.4360 -0.5821 -0.1406
 6301SOL    HW130536   1.654   4.158   2.718  0.1438  0.5915  1.4450
 6301SOL    HW230537   1.753   4.199   2.817  0.3605 -0.8241  0.1649
 6302SOL     OW30538   4.563   4.236   8.393 -0.0276 -0.4980  0.0912
 6302SOL    HW130539   4.567   4.152   8.349 -0.6227  0.3665 -1.6199
 6302SOL    HW230540   4.657   4.254   8.387 -0.4742  1.6510 -0.4637
 6303SOL     OW30541   4.669   4.337  15.521 -0.3383 -0.3046 -0.5579
 6303SOL    HW130542   4.619   4.322  15.601  0.6862  2.1046  0.5461
 6303SOL    HW230543   4.638   4.412  15.471 -2.3744 -0.2366  0.8140
 6304SOL     OW30544   1.183   2.994   8.403 -0.6806 -0.1864 -0.2140
 6304SOL    HW130545   1.157   3.077   8.443  0.3680  0.2967 -0.5367
 6304SOL    HW230546   1.096   2.956   8.390 -1.1250  1.1467 -1.0547
 6305SOL     OW30547   2.299   1.181  13.363  0.5901 -0.1203  0.3174
 6305SOL    HW130548   2.247   1.238  13.420 -0.2648  0.9033 -1.4664
 6305SOL    HW230549   2.353   1.241  13.311 -0.4793  0.6383  0.0810
 6306SOL     OW30550   1.469   2.391   3.046  0.8852  0.1255  0.1187
 6306SOL    HW130551   1.471   2.469   3.102  0.1913  0.2269  0.0022
 6306SOL    HW230552   1.390   2.416   2.997 -0.5335 -1.0831  1.7646
 6307SOL     OW30553   1.221   0.422   0.725 -0.2623 -0.0920  0.4607
 6307SOL    HW130554   1.244   0.367   0.800 -0.3623 -0.4983  0.1934
 6307SOL    HW230555   1.154   0.366   0.686 -1.4924  1.4078  0.4068
 6308SOL     OW30556   4.119   4.614  12.754 -0.2950 -0.0156  0.6595
 6308SOL    HW130557   4.190   4.678  12.756  0.5052 -0.9447  1.9168
 6308SOL    HW230558   4.043   4.669  12.773 -0.2907  0.1007  0.3448
 6309SOL     OW30559   1.678   0.686   4.389  0.1735  0.3559  0.1195
 6309SOL    HW130560   1.676   0.596   4.420 -0.3328  0.1376 -0.5461
 6309SOL    HW230561   1.753   0.727   4.433  0.4941 -0.5360  0.4045
 6310SOL     OW30562   2.799   4.394   5.606  0.5696 -0.1974 -0.1930
 6310SOL    HW130563   2.755   4.357   5.530  1.5467 -0.5708 -0.5669
 6310SOL    HW230564   2.724   4.420   5.660 -2.3781 -2.8399 -3.0062
 6311SOL     OW30565   3.699   0.037   3.598 -0.7284 -0.3232  0.1630
 6311SOL    HW130566   3.786   0.012   3.568 -0.4272  0.3626  0.4717
 6311SOL    HW230567   3.720   0.130   3.608 -1.5247 -0.0778 -0.4078
 6312SOL     OW30568   1.228   0.744   9.381 -0.5639  0.0178 -0.3947
 6312SOL    HW130569   1.273   0.664   9.406  1.0192  1.0468  0.0630
 6312SOL    HW230570   1.163   0.749   9.451  0.8128  0.1566  0.8775
 6313SOL     OW30571   3.858   2.821   2.598 -0.6553 -0.3285  0.2435
 6313SOL    HW130572   3.765   2.803   2.614 -0.5559 -0.4179  0.7239
 6313SOL    HW230573   3.876   2.782   2.513 -0.7825 -0.7005  0.3880
 6314SOL     OW30574   1.514   3.805   8.815 -0.7526  0.0764  0.3264
 6314SOL    HW130575   1.546   3.816   8.904 -0.5112  0.4620  0.1917
 6314SOL    HW230576   1.499   3.897   8.794  0.6898  0.5335  1.2882
 6315SOL     OW30577   1.436   4.592   4.471  0.1917 -0.3374  0.0393
 6315SOL    HW130578   1.504   4.601   4.405 -0.4105  1.4847 -0.3316
 6315SOL    HW230579   1.434   4.684   4.498  0.1462 -0.1520 -0.6025
 6316SOL     OW30580   3.652   4.234   3.217 -0.9477 -0.0845 -0.1694
 6316SOL    HW130581   3.657   4.307   3.157 -2.3410 -1.0221 -1.4306
 6316SOL    HW230582   3.577   4.260   3.272 -0.1337  1.0219  0.4085
 6317SOL     OW30583   3.562   2.581   0.983 -0.4279 -0.1984  0.0343
 6317SOL    HW130584   3.638   2.637   0.998 -0.6752  0.1909 -0.1724
 6317SOL    HW230585   3.556   2.528   1.063  0.6641  0.8438  0.7888
 6318SOL     OW30586   1.423   3.757   1.654 -0.7108  0.0700  0.2390
 6318SOL    HW130587   1.484   3.814   1.700  0.8923 -0.6419 -0.9879
 6318SOL    HW230588   1.477   3.703   1.596 -1.2549  2.0629 -2.0902
 6319SOL     OW30589   0.758   1.597   5.710  0.1659 -0.2243 -0.3323
 6319SOL    HW130590   0.750   1.505   5.687  0.7368 -1.1660  3.1792
 6319SOL    HW230591   0.799   1.587   5.796 -0.3560  3.7472  0.4064
 6320SOL     OW30592   1.054   2.155   4.774  0.4534  0.1683  0.1204
 6320SOL    HW130593   1.070   2.147   4.680 -0.7847  0.9782 -0.1716
 6320SOL    HW230594   1.029   2.067   4.800 -0.8172  0.4601 -0.1128
 6321SOL     OW30595   3.841   2.538   7.774 -0.1927  0.4279  0.5879
 6321SOL    HW130596   3.850   2.557   7.867 -0.7744 -3.0833  1.3597
 6321SOL    HW230597   3.829   2.619   7.724  0.1809 -0.6535 -1.2629
 6322SOL     OW30598   1.616   0.430   2.133  0.7293  0.6755  0.2614
 6322SOL    HW130599   1.679   0.428   2.205  2.4003  2.6859 -1.1584
 6322SOL    HW230600   1.587   0.518   2.153  0.5615  1.2268 -2.3888
 6323SOL     OW30601   2.643   2.228   4.840  0.3193  0.2720  0.2450
 6323SOL    HW130602   2.596   2.231   4.923 -1.4820 -1.4200 -0.7180
 6323SOL    HW230603   2.654   2.322   4.827  0.5767 -0.0652 -2.0061
 6324SOL     OW30604   0.955   1.684  17.503  0.3157 -0.7736  0.0258
 6324SOL    HW130605   0.971   1.752  17.569  3.0011  0.8734 -2.3256
 6324SOL    HW230606   1.012   1.618  17.544 -0.6752 -0.5236  1.8153
 6325SOL     OW30607   4.310   3.607   9.636  0.6476  0.1491 -0.1618
 6325SOL    HW130608   4.384   3.548   9.644  0.2061 -0.7727 -3.0372
 6325SOL    HW230609   4.236   3.549   9.651  1.4804 -0.7524  0.4377
 6326SOL     OW30610   2.027   0.602  12.204 -0.0307  0.0155 -0.2069
 6326SOL    HW130611   2.095   0.568  12.261 -0.8050  3.0135  2.4850
 6326SOL    HW230612   2.051   0.695  12.201  1.3970 -0.3223  1.0956
 6327SOL     OW30613   0.382   0.892   2.350  0.0907 -0.0488  0.6468
 6327SOL    HW130614   0.332   0.812   2.364  0.1030 -0.0195  0.8606
 6327SOL    HW230615   0.357   0.944   2.427 -1.7355 -0.7410  0.5243
 6328SOL     OW30616   1.111   3.649  12.868  0.1401  0.0704 -0.4458
 6328SOL    HW130617   1.129   3.743  12.862 -0.0156  0.1845  0.9112
 6328SOL    HW230618   1.200   3.621  12.845  0.4006 -0.7008  1.5295
 6329SOL     OW30619   0.882   4.123   0.495 -0.1694 -0.9851 -0.5359
 6329SOL    HW130620   0.875   4.045   0.550  0.3234 -1.1380 -0.6819
 6329SOL    HW230621   0.907   4.073   0.416 -0.3306  0.9537 -1.8048
 6330SOL     OW30622   1.435   2.208  13.475 -0.0002 -0.8227  0.3041
 6330SOL    HW130623   1.449   2.174  13.564  0.9160  2.2410  1.3535
 6330SOL    HW230624   1.524   2.194  13.443 -0.9149 -0.2957 -2.4915
 6331SOL     OW30625   2.010   4.074   4.774  0.0567  0.4632 -0.2666
 6331SOL    HW130626   2.080   4.019   4.741 -0.7341 -0.4177 -0.4741
 6331SOL    HW230627   2.038   4.079   4.865  1.3357 -0.5105 -0.6127
 6332SOL     OW30628   2.697   1.239   1.351  0.2851  0.4347 -0.7413
 6332SOL    HW130629   2.632   1.274   1.412 -0.8140 -1.8167 -0.6324
 6332SOL    HW230630   2.701   1.146   1.371 -1.2802  0.6242  0.4471
 6333SOL     OW30631   1.837   1.541   5.143  0.6670  0.1358  0.0793
 6333SOL    HW130632   1.752   1.555   5.186  0.8134  1.3749 -0.0249
 6333SOL    HW230633   1.811   1.519   5.054  0.3876  3.4164 -0.6502
 6334SOL     OW30634   2.462   1.287   2.204 -0.1011 -0.1364 -0.6166
 6334SOL    HW130635   2.456   1.323   2.116  0.7884  0.1502 -0.5657
 6334SOL    HW230636   2.554   1.302   2.225 -0.4534 -1.8911  2.2454
 6335SOL     OW30637   2.755   1.793   8.430  0.3779 -0.1762 -0.0485
 6335SOL    HW130638   2.819   1.772   8.362 -1.1686  0.4489 -1.6680
 6335SOL    HW230639   2.731   1.710   8.472 -1.3594  0.9752  1.2456
 6336SOL     OW30640   0.977   1.915  15.861  0.2807 -0.2371  0.1347
 6336SOL    HW130641   0.952   1.994  15.909 -1.9560 -1.7338  1.4518
 6336SOL    HW230642   1.073   1.921  15.857  0.0478  1.8927 -2.0363
 6337SOL     OW30643   4.639   3.127   6.639 -0.1172 -0.6178 -0.1077
 6337SOL    HW130644   4.547   3.139   6.660 -0.1125  1.1132 -1.0638
 6337SOL    HW230645   4.683   3.094   6.718  0.5582  1.1129  0.2446
 6338SOL     OW30646   0.326   2.344  11.731 -0.6157  0.2213 -0.1488
 6338SOL    HW130647   0.293   2.432  11.716 -0.0691  0.4780  0.1770
 6338SOL    HW230648   0.414   2.360  11.765 -0.2871  2.9115 -2.2735
 6339SOL     OW30649   0.429   1.803   2.751 -0.2758 -0.3675 -0.4912
 6339SOL    HW130650   0.372   1.793   2.675  2.4927  0.4159 -2.6263
 6339SOL    HW230651   0.396   1.725   2.796  1.3158 -0.9734 -0.4054
 6340SOL     OW30652   2.755   1.478   8.293 -0.3723  0.4224 -0.6068
 6340SOL    HW130653   2.680   1.536   8.279 -2.5326 -2.4700 -0.9681
 6340SOL    HW230654   2.790   1.527   8.368 -2.3415  0.9005 -0.0028
 6341SOL     OW30655   2.317   1.144   4.719 -0.7515 -0.4468 -0.3525
 6341SOL    HW130656   2.402   1.102   4.706  0.1876  0.4356  3.1511
 6341SOL    HW230657   2.255   1.075   4.694 -0.1666 -1.6322  1.4293
 6342SOL     OW30658   3.447   0.070  13.415  0.6082 -0.5633  0.1174
 6342SOL    HW130659   3.423   0.090  13.506  1.3214  0.4736  0.0739
 6342SOL    HW230660   3.398   0.137  13.368 -0.6965 -1.1433  0.6504
 6343SOL     OW30661   4.313   0.387   6.971  0.6471  0.6648 -0.2248
 6343SOL    HW130662   4.219   0.395   6.959  0.1368 -4.3168  0.5301
 6343SOL    HW230663   4.325   0.344   7.056 -1.2456 -0.7649 -0.6889
 6344SOL     OW30664   3.616   0.829   5.434 -0.1342 -0.4581 -0.2543
 6344SOL    HW130665   3.599   0.794   5.521  0.2662  0.7362  0.3013
 6344SOL    HW230666   3.677   0.898   5.459 -1.0489  0.2596  0.0118
 6345SOL     OW30667   1.974   2.907   7.233  0.7031  0.3244 -1.0697
 6345SOL    HW130668   1.956   2.910   7.139 -0.9201  0.1846 -0.7491
 6345SOL    HW230669   2.062   2.941   7.249  0.1538  0.4166  1.7859
 6346SOL     OW30670   1.361   4.218   5.163 -0.4438 -0.3402  0.3149
 6346SOL    HW130671   1.379   4.145   5.104 -0.7758 -0.1582 -0.0136
 6346SOL    HW230672   1.285   4.261   5.122  0.8885  1.7573  0.0587
 6347SOL     OW30673   1.438   3.964  12.048  0.4813  0.0914  0.3785
 6347SOL    HW130674   1.347   3.956  12.075  1.0742  0.0556  2.3957
 6347SOL    HW230675   1.443   4.058  12.035  1.2231 -0.4160 -2.8466
 6348SOL     OW30676   1.014   2.249   1.965  0.3273  0.4034  0.0000
 6348SOL    HW130677   0.941   2.221   2.020  2.5807 -1.5385  1.9536
 6348SOL    HW230678   1.085   2.188   1.986 -0.9495 -0.7915  0.8698
 6349SOL     OW30679   0.789   4.715   6.272 -0.2737 -0.6161 -0.2842
 6349SOL    HW130680   0.729   0.017   6.207  0.5032  0.7775 -0.2034
 6349SOL    HW230681   0.779   0.038   6.347 -0.1020  0.3539 -1.0184
 6350SOL     OW30682   4.579   3.069   3.440 -0.2483  0.6912 -0.3559
 6350SOL    HW130683   4.579   2.996   3.379 -0.6202  0.2834  0.1267
 6350SOL    HW230684   4.510   3.124   3.402 -0.4170 -0.6638 -1.9747
 6351SOL     OW30685   2.618   3.169   2.477 -0.0602  0.8439 -0.1927
 6351SOL    HW130686   2.590   3.236   2.539 -0.0817 -0.6025  1.3540
 6351SOL    HW230687   2.631   3.095   2.536 -0.5490  1.6153  0.8803
 6352SOL     OW30688   1.080   0.845   3.886 -0.0659 -0.2235  0.5506
 6352SOL    HW130689   1.057   0.927   3.842 -1.2985 -0.3538  0.9555
 6352SOL    HW230690   1.100   0.889   3.969  2.1704  2.7807 -1.5777
 6353SOL     OW30691   3.275   2.438   7.498  0.0715  0.0826 -0.4576
 6353SOL    HW130692   3.234   2.420   7.413 -0.8249  0.5456 -0.1234
 6353SOL    HW230693   3.292   2.346   7.521  2.7958  0.2882 -1.6136
 6354SOL     OW30694   1.228   0.974   6.684 -0.2068 -0.4458  0.2290
 6354SOL    HW130695   1.206   0.882   6.701  2.3335 -0.7260  1.9538
 6354SOL    HW230696   1.177   1.021   6.751 -0.0268 -0.5021  0.4051
 6355SOL     OW30697   0.597   2.704  15.345  0.0448  0.1418 -0.2622
 6355SOL    HW130698   0.651   2.737  15.273 -0.0192  1.0426  0.0973
 6355SOL    HW230699   0.671   2.706  15.406 -0.5306 -0.7429  0.4523
 6356SOL     OW30700   0.097   1.524   3.315  0.2573 -0.0002 -0.2054
 6356SOL    HW130701   0.113   1.493   3.404 -0.1684  0.6647  0.0998
 6356SOL    HW230702   0.095   1.619   3.324 -1.8464  0.1322 -2.2791
 6357SOL     OW30703   0.611   0.859   9.912 -0.1173 -0.1653  0.6743
 6357SOL    HW130704   0.632   0.927   9.848 -2.2286  0.1984  0.3618
 6357SOL    HW230705   0.691   0.858   9.965 -0.0938 -0.1844  0.6382
 6358SOL     OW30706   1.432   3.964   7.126  0.3446  0.2981 -0.2064
 6358SOL    HW130707   1.501   3.989   7.064 -0.1076  2.8425  0.2940
 6358SOL    HW230708   1.350   3.968   7.076  1.0704 -0.7619 -1.4938
 6359SOL     OW30709   4.117   3.581   1.978 -0.2827 -0.3032  0.3184
 6359SOL    HW130710   4.083   3.663   2.013 -2.2040 -0.5120 -1.1290
 6359SOL    HW230711   4.045   3.520   1.967 -0.2952 -0.0569 -0.9292
 6360SOL     OW30712   0.328   2.407   0.871  0.0862  0.3316  0.3238
 6360SOL    HW130713   0.266   2.373   0.807 -0.0537  1.5457 -0.1842
 6360SOL    HW230714   0.403   2.349   0.857  1.8475  2.6122  0.3214
 6361SOL     OW30715   3.788   0.719   0.756 -0.2606  0.9322  0.0468
 6361SOL    HW130716   3.883   0.721   0.760 -0.2476 -1.6621  1.1667
 6361SOL    HW230717   3.761   0.640   0.803  1.7380 -0.4449 -1.1063
 6362SOL     OW30718   2.667   2.745   2.462  0.2106 -0.1505 -0.0045
 6362SOL    HW130719   2.728   2.818   2.451 -0.1691  0.6022  2.6837
 6362SOL    HW230720   2.582   2.780   2.435 -0.3159 -0.7802  0.8484
 6363SOL     OW30721   1.891   3.117   8.731  0.5193 -0.0588  0.2413
 6363SOL    HW130722   1.867   3.141   8.642 -0.4411 -3.5564 -0.4237
 6363SOL    HW230723   1.856   3.028   8.734 -1.7534  0.7803 -1.8114
 6364SOL     OW30724   2.720   2.578   2.950  0.0444 -0.3056 -0.1632
 6364SOL    HW130725   2.810   2.568   2.920  0.3567  0.2874  0.5941
 6364SOL    HW230726   2.672   2.568   2.867  1.3015  2.2008 -1.1738
 6365SOL     OW30727   0.879   0.314   0.911  0.5899  0.5834 -0.2123
 6365SOL    HW130728   0.955   0.371   0.923 -0.2521  1.1000  2.5950
 6365SOL    HW230729   0.887   0.243   0.974 -1.9507  0.1856 -0.3308
 6366SOL     OW30730   3.813   1.744   2.714 -0.0176 -0.0145  0.0312
 6366SOL    HW130731   3.877   1.724   2.646 -0.7099 -3.4731  0.3658
 6366SOL    HW230732   3.736   1.692   2.690 -0.8847  0.8029  0.9989
 6367SOL     OW30733   3.889   3.923   6.261 -0.1752 -0.0112 -0.0500
 6367SOL    HW130734   3.880   3.988   6.191 -0.9754  1.0221  1.0189
 6367SOL    HW230735   3.810   3.869   6.259 -0.1608 -0.0726  0.9587
 6368SOL     OW30736   2.191   2.307   6.225 -0.3533  0.3394  0.6293
 6368SOL    HW130737   2.231   2.225   6.254 -0.4585  0.5160  1.2745
 6368SOL    HW230738   2.112   2.281   6.177 -1.3020  0.8805  1.9095
 6369SOL     OW30739   0.654   2.689   2.674  0.2630  0.0514  0.3058
 6369SOL    HW130740   0.726   2.712   2.614  1.6025 -0.1622  1.8263
 6369SOL    HW230741   0.688   2.606   2.707 -0.1668 -0.0044  0.6089
 6370SOL     OW30742   1.242   3.855  17.007  0.1615  0.0318  0.3902
 6370SOL    HW130743   1.152   3.869  17.035  0.0846  0.4487 -0.0578
 6370SOL    HW230744   1.274   3.808  17.083  0.8666  1.8323  1.2071
 6371SOL     OW30745   2.432   3.500   5.615 -0.0054 -0.1028  0.2381
 6371SOL    HW130746   2.467   3.420   5.577  0.5662  1.5786 -2.7811
 6371SOL    HW230747   2.391   3.468   5.695  0.3316 -0.6958  0.1711
 6372SOL     OW30748   0.250   3.400   8.094 -0.0685  0.2009 -0.0537
 6372SOL    HW130749   0.339   3.421   8.065 -0.5872 -0.1162 -1.8786
 6372SOL    HW230750   0.266   3.307   8.106 -0.0227  0.1450 -0.5606
 6373SOL     OW30751   1.656   1.545   0.379  0.9454  0.1001 -0.5088
 6373SOL    HW130752   1.708   1.492   0.439  1.2482  1.0618  0.0724
 6373SOL    HW230753   1.677   1.503   0.295  1.5523  0.5597 -0.5888
 6374SOL     OW30754   1.803   2.886   3.085 -0.7162  0.2230 -0.1793
 6374SOL    HW130755   1.866   2.874   3.156  0.0425 -1.8061 -1.1969
 6374SOL    HW230756   1.748   2.961   3.109  3.2542  2.6606  1.3338
 6375SOL     OW30757   1.389   0.602   0.616  0.4187 -0.6622  0.0303
 6375SOL    HW130758   1.310   0.549   0.632 -0.6180  0.8295 -0.1505
 6375SOL    HW230759   1.369   0.680   0.668  2.2814 -0.2854  0.1873
 6376SOL     OW30760   3.189   0.718   8.712 -0.2250 -0.4961 -0.3819
 6376SOL    HW130761   3.210   0.804   8.675  0.5616  0.0263  1.2855
 6376SOL    HW230762   3.142   0.684   8.636  0.2304  0.2366 -0.9893
 6377SOL     OW30763   3.676   3.731   7.709  0.1937  0.1900 -0.1301
 6377SOL    HW130764   3.580   3.735   7.702  0.1149  0.4258  0.9284
 6377SOL    HW230765   3.692   3.772   7.624 -0.4380 -0.1191 -0.3971
 6378SOL     OW30766   2.649   3.881  16.559  0.1161  0.2675  0.1270
 6378SOL    HW130767   2.631   3.974  16.547 -1.4801 -0.1241 -0.5401
 6378SOL    HW230768   2.713   3.868  16.489  0.0842 -1.7653  0.4779
 6379SOL     OW30769   2.078   3.983  15.585  0.4068 -0.3936 -0.1381
 6379SOL    HW130770   2.042   4.051  15.528 -0.1002 -1.1674 -0.7399
 6379SOL    HW230771   2.070   3.911  15.523  0.2020  0.7041 -1.3910
 6380SOL     OW30772   1.005   2.842   2.763 -0.3016 -0.0759 -0.2027
 6380SOL    HW130773   1.089   2.810   2.796  0.2564  1.5731  0.0238
 6380SOL    HW230774   1.032   2.897   2.689  2.4407 -0.1117  0.7513
 6381SOL     OW30775   2.602   3.305   7.747  0.6550  0.3305  0.2886
 6381SOL    HW130776   2.619   3.271   7.835  1.2591  0.9839  0.4237
 6381SOL    HW230777   2.512   3.281   7.727  0.9720  0.3750 -1.1923
 6382SOL     OW30778   1.217   0.098   1.919 -0.1216 -0.4104  0.5665
 6382SOL    HW130779   1.179   0.020   1.960 -0.4001 -0.9081 -0.6241
 6382SOL    HW230780   1.260   0.128   1.999 -1.8558  3.4784  0.0521
 6383SOL     OW30781   1.084   0.721   4.800 -0.7889  0.0857 -0.7565
 6383SOL    HW130782   1.005   0.769   4.822 -1.1433 -0.3067 -1.1570
 6383SOL    HW230783   1.141   0.786   4.759 -0.0535 -0.1142 -0.0643
 6384SOL     OW30784   0.894   3.242   7.676  0.1706 -0.7709 -0.1437
 6384SOL    HW130785   0.958   3.192   7.728 -1.1351 -0.7521  1.5023
 6384SOL    HW230786   0.916   3.203   7.592 -0.0253 -0.7352 -0.2112
 6385SOL     OW30787   0.761   0.300   2.627 -0.2253 -0.5985 -0.0153
 6385SOL    HW130788   0.848   0.287   2.591 -0.3829  0.1133 -0.6449
 6385SOL    HW230789   0.727   0.371   2.573  1.4131  0.5145  0.4181
 6386SOL     OW30790   3.743   3.650   1.908  0.6847  0.5126 -0.2785
 6386SOL    HW130791   3.678   3.691   1.852  0.8748  1.2909  0.0630
 6386SOL    HW230792   3.802   3.724   1.925 -0.8245  1.8106 -0.7333
 6387SOL     OW30793   0.845   2.369   3.463 -0.2464  0.1610 -0.2814
 6387SOL    HW130794   0.828   2.309   3.535 -3.5756  1.7811  0.2913
 6387SOL    HW230795   0.864   2.445   3.518  2.2804 -0.0090 -0.9471
 6388SOL     OW30796   4.390   0.281  10.393 -0.4382  0.2806 -0.2069
 6388SOL    HW130797   4.448   0.356  10.377  1.8915 -0.5103  4.3306
 6388SOL    HW230798   4.316   0.312  10.342  0.3294 -0.4753 -1.7867
 6389SOL     OW30799   2.804   2.330   4.105  0.1758 -0.1200  0.1489
 6389SOL    HW130800   2.889   2.348   4.145 -0.7238  1.2599  1.4225
 6389SOL    HW230801   2.749   2.401   4.139 -0.2687  0.7667 -2.4583
 6390SOL     OW30802   3.777   0.184   5.230  0.5452 -0.2586  0.2610
 6390SOL    HW130803   3.719   0.260   5.238  1.5817  0.3785  1.6298
 6390SOL    HW230804   3.725   0.148   5.158  0.6438 -1.1437  0.6402
 6391SOL     OW30805   1.513   0.170   2.907 -0.8030  0.0452  0.0694
 6391SOL    HW130806   1.525   0.109   2.979  1.0295  0.5608  0.2116
 6391SOL    HW230807   1.470   0.108   2.848 -0.4581  1.2706 -1.5052
 6392SOL     OW30808   1.385   2.861  16.447  0.3037 -0.2035 -0.0270
 6392SOL    HW130809   1.357   2.844  16.536  0.8000 -0.1253  0.1436
 6392SOL    HW230810   1.340   2.803  16.385 -2.5165  1.1089  0.7803
 6393SOL     OW30811   2.648   0.450   1.769  0.0651  0.2739  0.5959
 6393SOL    HW130812   2.583   0.483   1.707 -0.7288 -0.7192  0.9053
 6393SOL    HW230813   2.588   0.428   1.840 -0.1085  2.9348  1.2956
 6394SOL     OW30814   4.043   2.797  17.126  0.0513 -0.8500 -0.2053
 6394SOL    HW130815   4.074   2.867  17.068 -3.3566  1.1767  0.4117
 6394SOL    HW230816   4.040   2.727  17.061 -2.7163  0.1120 -1.0976
 6395SOL     OW30817   4.474   0.185   1.852  0.2867  0.0496  0.2474
 6395SOL    HW130818   4.467   0.280   1.850  1.8843  0.1826  0.9283
 6395SOL    HW230819   4.536   0.176   1.779  0.6455  0.0092  0.5524
 6396SOL     OW30820   0.811   1.907   8.766 -0.5607  0.0964 -0.0260
 6396SOL    HW130821   0.842   1.997   8.767  1.7183 -0.7174  1.3517
 6396SOL    HW230822   0.830   1.885   8.858  0.2926  1.1464  0.0432
 6397SOL     OW30823   1.392   3.556  12.017 -0.3644  0.1092 -0.2331
 6397SOL    HW130824   1.394   3.468  12.055 -0.2026  1.4672  2.8848
 6397SOL    HW230825   1.395   3.618  12.090  1.1371  1.4852 -1.4434
 6398SOL     OW30826   4.384   1.603  13.360 -0.2536 -0.0443  0.5897
 6398SOL    HW130827   4.308   1.555  13.327 -0.4610  0.1805  0.7340
 6398SOL    HW230828   4.444   1.576  13.292 -0.5909  0.1459  0.2171
 6399SOL     OW30829   1.622   4.613   6.011 -0.3171  0.0109  0.1222
 6399SOL    HW130830   1.576   4.675   6.067 -0.6485  0.6319 -0.8539
 6399SOL    HW230831   1.648   4.559   6.086  1.7770 -0.0910 -0.6769
 6400SOL     OW30832   0.015   0.363   0.786  0.7204 -0.2870  0.2922
 6400SOL    HW130833   0.075   0.288   0.781 -1.4713 -2.1605  1.6287
 6400SOL    HW230834   4.671   0.312   0.806  0.3334  0.3760  0.4581
 6401SOL     OW30835   4.283   4.438   2.536 -0.7974  0.2530 -0.5496
 6401SOL    HW130836   4.306   4.431   2.629 -2.0171 -2.9773 -0.5043
 6401SOL    HW230837   4.193   4.470   2.537 -1.5537 -1.8431 -1.5068
 6402SOL     OW30838   0.852   1.693   3.275 -0.4319 -0.0220 -0.0827
 6402SOL    HW130839   0.925   1.736   3.230 -0.3773 -1.1520 -1.0745
 6402SOL    HW230840   0.859   1.730   3.363 -0.5882 -0.5785  0.1643
 6403SOL     OW30841   2.830   0.126  16.325 -0.2744  0.2113 -0.2090
 6403SOL    HW130842   2.784   0.050  16.290  0.5167  1.2491 -3.4719
 6403SOL    HW230843   2.753   0.165  16.366 -0.1395 -0.1582  0.4045
 6404SOL     OW30844   4.351   2.576   4.892  0.3816 -0.1085  0.5355
 6404SOL    HW130845   4.296   2.528   4.831  0.6506 -1.9056  1.6845
 6404SOL    HW230846   4.436   2.590   4.849  0.6940  1.2717  1.5789
 6405SOL     OW30847   1.451   4.597   1.744  0.9581 -0.0340 -1.1558
 6405SOL    HW130848   1.456   4.587   1.839  1.0480  0.1622 -1.1405
 6405SOL    HW230849   1.356   4.595   1.729  0.5409 -1.5312  1.5864
 6406SOL     OW30850   1.718   1.244   8.845  0.4321 -0.2191  0.2149
 6406SOL    HW130851   1.789   1.258   8.782 -0.6159 -0.3678 -0.9914
 6406SOL    HW230852   1.646   1.292   8.804  1.2529 -0.1364 -1.1160
 6407SOL     OW30853   0.943   0.995   1.427 -0.1385 -0.1367 -0.1127
 6407SOL    HW130854   0.896   1.069   1.389 -0.3525 -0.4089 -0.3857
 6407SOL    HW230855   0.917   1.003   1.519  2.4538  1.8852  0.4371
 6408SOL     OW30856   1.695   0.967  16.930  0.0328 -0.0208 -0.2706
 6408SOL    HW130857   1.762   0.936  16.990  0.2936  0.0253 -0.5417
 6408SOL    HW230858   1.720   0.924  16.848 -1.3053  1.6666 -1.6018
 6409SOL     OW30859   0.678   3.669  12.977  0.4425 -0.8738 -0.0162
 6409SOL    HW130860   0.743   3.739  12.964  1.0092 -1.0510  1.9662
 6409SOL    HW230861   0.728   3.588  12.981  1.1568 -0.3939  0.6964
 6410SOL     OW30862   4.381   0.651   2.708  0.2944  0.4532 -0.2883
 6410SOL    HW130863   4.449   0.710   2.676 -0.7131  1.6445 -0.2302
 6410SOL    HW230864   4.369   0.587   2.637  2.1987 -1.6683  1.2856
 6411SOL     OW30865   3.869   3.492   7.643  0.8452  0.7269 -1.0989
 6411SOL    HW130866   3.783   3.531   7.626 -0.2185 -1.3659 -0.5354
 6411SOL    HW230867   3.927   3.567   7.655 -0.2864  1.1379  1.8848
 6412SOL     OW30868   2.173   2.130  10.658  0.1632  0.5885 -0.2507
 6412SOL    HW130869   2.152   2.067  10.588 -0.6069  0.3294  0.2154
 6412SOL    HW230870   2.088   2.168  10.679 -1.0300 -2.3385  0.2780
 6413SOL     OW30871   3.776   2.319   3.136  0.6106  0.2252  0.2175
 6413SOL    HW130872   3.720   2.297   3.061  1.5899  1.6465 -0.9267
 6413SOL    HW230873   3.850   2.262   3.116  1.2455  1.5029 -1.0629
 6414SOL     OW30874   0.803   4.373   9.882  0.2938 -0.1115  0.2533
 6414SOL    HW130875   0.897   4.387   9.894  0.5847 -3.3789  1.6743
 6414SOL    HW230876   0.804   4.364   9.787 -1.8943 -2.2166  0.4477
 6415SOL     OW30877   3.034   3.726   7.709  0.1003  0.3234 -0.2320
 6415SOL    HW130878   2.991   3.683   7.635 -1.7111  2.6051 -0.4841
 6415SOL    HW230879   3.066   3.649   7.757  2.3405  0.9826 -0.6826
 6416SOL     OW30880   1.862   1.352  11.637  0.2029 -0.4981 -0.0188
 6416SOL    HW130881   1.788   1.291  11.645 -1.5573  1.5590 -0.5563
 6416SOL    HW230882   1.828   1.442  11.632  1.6789  0.0967  0.6890
 6417SOL     OW30883   0.958   3.132   6.597 -0.0987  0.0599 -0.3427
 6417SOL    HW130884   0.914   3.067   6.543 -1.0186  0.6866 -0.3382
 6417SOL    HW230885   1.038   3.153   6.547  0.7183 -5.9199 -1.5650
 6418SOL     OW30886   0.820   0.521   5.516 -0.3805  0.1789  0.0519
 6418SOL    HW130887   0.812   0.488   5.606 -0.9225 -0.9355 -0.4057
 6418SOL    HW230888   0.887   0.465   5.476  0.2915  0.7695  0.3503
 6419SOL     OW30889   1.141   1.756  12.282  0.5243 -0.1082  0.0748
 6419SOL    HW130890   1.207   1.689  12.267  0.6494  0.1516 -0.5452
 6419SOL    HW230891   1.134   1.774  12.376 -3.8820  2.8231 -0.7867
 6420SOL     OW30892   3.996   3.525   5.681  0.2253 -0.1675 -0.3687
 6420SOL    HW130893   3.984   3.479   5.598  0.3405 -1.8938  0.5595
 6420SOL    HW230894   4.022   3.445   5.726  0.7325  1.2037  1.7637
 6421SOL     OW30895   2.056   1.078   7.702 -0.2833 -0.1700  0.5708
 6421SOL    HW130896   1.982   1.085   7.641  1.1309  0.9720 -1.0023
 6421SOL    HW230897   2.111   1.008   7.666  0.6740 -0.3993  2.5152
 6422SOL     OW30898   2.241   2.525   8.438  0.0864  0.3448 -0.4258
 6422SOL    HW130899   2.234   2.557   8.348 -0.2324 -0.6863 -0.7742
 6422SOL    HW230900   2.194   2.442   8.431  0.3373  0.2491 -0.9128
 6423SOL     OW30901   3.792   1.368   2.607  0.2054 -0.1186  0.3471
 6423SOL    HW130902   3.759   1.457   2.612 -0.1872 -0.1955 -0.7925
 6423SOL    HW230903   3.786   1.350   2.513 -1.3557  1.2930  0.1747
 6424SOL     OW30904   1.989   2.861  10.729  0.1467  0.1694 -0.0027
 6424SOL    HW130905   1.961   2.835  10.641  0.2245  2.0759 -0.5876
 6424SOL    HW230906   1.983   2.784  10.786 -0.5089 -0.9201 -1.5567
 6425SOL     OW30907   0.521   0.022   1.542 -0.3304  0.0438  0.2251
 6425SOL    HW130908   0.497   0.114   1.527 -1.2209 -0.3836 -0.9341
 6425SOL    HW230909   0.530   0.004   1.448 -0.9381 -1.0919  0.3897
 6426SOL     OW30910   3.775   1.384  16.690  0.5595 -0.5730  0.4835
 6426SOL    HW130911   3.826   1.305  16.674 -0.2868 -1.0537  0.1288
 6426SOL    HW230912   3.734   1.370  16.775 -0.2151  0.8195  0.3552
 6427SOL     OW30913   3.628   4.038   6.566 -0.8149  0.4345  0.0505
 6427SOL    HW130914   3.626   3.943   6.567  0.8089  0.4374  3.3613
 6427SOL    HW230915   3.718   4.051   6.535 -0.9162 -1.1498 -0.9057
 6428SOL     OW30916   1.076   4.508   5.805  0.6029  0.1206  0.8209
 6428SOL    HW130917   1.109   4.506   5.716  0.5766 -0.1425  0.8192
 6428SOL    HW230918   1.123   4.589   5.825  2.2441 -0.7574  0.5039
 6429SOL     OW30919   3.884   0.526   8.831  0.1358  0.2196 -0.2009
 6429SOL    HW130920   3.834   0.604   8.855 -0.3505 -0.4904  1.0815
 6429SOL    HW230921   3.974   0.546   8.858  0.1071 -0.7638  0.6317
 6430SOL     OW30922   2.641   4.049  15.959 -0.0738  0.8861  0.2537
 6430SOL    HW130923   2.554   4.085  15.974 -0.5268  0.1147 -0.4802
 6430SOL    HW230924   2.619   4.017  15.871  1.7124  1.4004 -0.3834
 6431SOL     OW30925   3.288   2.522   9.531 -0.1220  0.2226 -0.0373
 6431SOL    HW130926   3.284   2.541   9.437 -0.3601  2.7154  0.4861
 6431SOL    HW230927   3.296   2.614   9.555  0.4356 -0.4447  2.3106
 6432SOL     OW30928   2.268   4.575  12.855 -0.0165  0.1173  0.3334
 6432SOL    HW130929   2.198   4.625  12.898  0.7229  1.4677 -0.0420
 6432SOL    HW230930   2.329   4.647  12.836  0.3712  0.1710  1.7794
 6433SOL     OW30931   4.466   0.956   5.918  0.6083 -0.1420 -0.1296
 6433SOL    HW130932   4.549   0.953   5.871  1.2971  2.2520  0.9562
 6433SOL    HW230933   4.479   1.037   5.967  3.1838 -1.6748  1.7281
 6434SOL     OW30934   2.513   0.103  11.694  0.7556 -0.3715 -0.3157
 6434SOL    HW130935   2.421   0.128  11.699  1.3426  1.9127 -1.1774
 6434SOL    HW230936   2.509   0.059  11.779 -0.4657 -0.8438 -0.6108
 6435SOL     OW30937   2.066   3.105  15.928  0.0625  0.6342  0.3171
 6435SOL    HW130938   1.998   3.173  15.932  0.1072  0.6207  1.3073
 6435SOL    HW230939   2.066   3.091  16.022  0.3840 -1.2393  0.0324
 6436SOL     OW30940   4.272   4.412  12.552  0.1985 -0.0218 -0.0525
 6436SOL    HW130941   4.302   4.376  12.635 -0.6131 -2.4978 -0.8471
 6436SOL    HW230942   4.183   4.434  12.583  0.5342  1.9617 -0.4924
 6437SOL     OW30943   3.320   0.511   6.230  0.1312 -0.7422  0.5801
 6437SOL    HW130944   3.354   0.423   6.246 -1.0553 -1.0559  1.3567
 6437SOL    HW230945   3.331   0.560   6.311  0.1897 -0.7444  0.5730
 6438SOL     OW30946   2.760   0.752   7.668  0.6292 -0.4648  0.2669
 6438SOL    HW130947   2.838   0.735   7.720  0.3919  0.8592  1.0611
 6438SOL    HW230948   2.693   0.757   7.736  0.9712 -0.9945  0.6377
 6439SOL     OW30949   1.652   3.411   2.371  0.0014  0.2946  0.3497
 6439SOL    HW130950   1.737   3.403   2.414  0.1997  0.9319  0.0807
 6439SOL    HW230951   1.674   3.383   2.282  2.4422  2.8529  0.1398
 6440SOL     OW30952   3.243   0.964   6.175 -0.6151 -0.1278  0.2716
 6440SOL    HW130953   3.149   0.945   6.172 -0.6440 -0.1246  1.0624
 6440SOL    HW230954   3.239   1.051   6.217 -2.9029  0.0780 -0.3584
 6441SOL     OW30955   4.199   0.908  16.379 -0.6635 -0.5383 -0.1126
 6441SOL    HW130956   4.191   0.932  16.287  0.4395  1.6315  0.3471
 6441SOL    HW230957   4.281   0.859  16.387 -0.2281  0.3151  0.6787
 6442SOL     OW30958   2.914   0.497   1.196  0.3470  1.0959 -0.2733
 6442SOL    HW130959   2.839   0.553   1.219 -1.3852 -1.8955  1.2976
 6442SOL    HW230960   2.923   0.439   1.272  1.1363  1.0893 -0.3811
 6443SOL     OW30961   4.391   3.598   2.797 -0.4528  0.0859 -0.2468
 6443SOL    HW130962   4.419   3.658   2.866  1.2872 -0.1468 -0.7453
 6443SOL    HW230963   4.434   3.513   2.812  0.9588  0.7317 -0.6691
 6444SOL     OW30964   1.821   0.087   9.767  0.2483 -0.3616  0.5663
 6444SOL    HW130965   1.817   0.151   9.696  0.2953 -1.7459 -0.6769
 6444SOL    HW230966   1.850   0.006   9.725 -1.6776  0.9429 -3.2985
 6445SOL     OW30967   2.667   0.125   4.803  0.1434 -0.5338 -0.3373
 6445SOL    HW130968   2.705   0.088   4.882  0.8084  0.9397  0.0339
 6445SOL    HW230969   2.747   0.171   4.775  2.2254 -2.6914  2.0726
 6446SOL     OW30970   4.062   3.903   8.002 -0.4660 -0.4946  0.4528
 6446SOL    HW130971   4.096   3.866   7.921 -0.3786  1.8632 -0.6050
 6446SOL    HW230972   3.971   3.872   7.998 -0.2085 -1.0165 -1.4756
 6447SOL     OW30973   0.913   1.513   5.940 -0.1949 -0.3651 -0.4887
 6447SOL    HW130974   0.906   1.586   6.001 -1.4544 -0.7823 -0.1230
 6447SOL    HW230975   0.912   1.436   5.997  2.8864  0.4974  0.6797
 6448SOL     OW30976   2.855   3.404   5.467  1.0414 -0.4283 -0.1459
 6448SOL    HW130977   2.780   3.354   5.500  0.8833 -0.2162 -0.1825
 6448SOL    HW230978   2.926   3.355   5.509  1.1176  0.6481  0.9544
 6449SOL     OW30979   0.282   0.182   3.093  0.2209  0.0839 -0.1956
 6449SOL    HW130980   0.373   0.176   3.122 -0.1911 -1.2187  0.8390
 6449SOL    HW230981   0.287   0.175   2.997  0.4014  1.4932 -0.2778
 6450SOL     OW30982   0.998   3.453   9.187  0.4761 -0.1178 -0.6229
 6450SOL    HW130983   0.945   3.531   9.173  0.2510  0.3818  2.9836
 6450SOL    HW230984   1.033   3.441   9.098  0.6098  0.3882 -0.6393
 6451SOL     OW30985   3.482   1.838   6.628 -0.0548  0.4951 -0.2545
 6451SOL    HW130986   3.405   1.823   6.682 -0.3283  0.1745 -0.7326
 6451SOL    HW230987   3.442   1.849   6.541  1.5362  2.1414 -0.7987
 6452SOL     OW30988   3.874   2.919  15.498 -0.0703 -0.4016 -0.5334
 6452SOL    HW130989   3.850   2.861  15.570  0.9641  0.6004  0.6182
 6452SOL    HW230990   3.868   2.852  15.430  0.5603 -0.3868 -0.6057
 6453SOL     OW30991   0.624   1.493   8.056 -0.1129  0.0466  0.3680
 6453SOL    HW130992   0.534   1.469   8.078 -0.4264  0.9782  0.1058
 6453SOL    HW230993   0.630   1.584   8.083  3.4634 -0.2267  0.4977
 6454SOL     OW30994   3.182   4.384  10.965 -0.3435 -0.6914  0.1863
 6454SOL    HW130995   3.105   4.421  10.922 -0.6625 -2.1333 -0.5006
 6454SOL    HW230996   3.167   4.423  11.051  0.1323 -0.6613  0.2511
 6455SOL     OW30997   3.934   2.766  11.477  0.2646  0.1917 -0.5967
 6455SOL    HW130998   4.014   2.780  11.426  0.4372 -0.4336 -0.4974
 6455SOL    HW230999   3.956   2.748  11.568 -0.8264 -0.2865 -0.4192
 6456SOL     OW31000   4.196   2.643   7.946 -0.2390  0.1157  0.4306
 6456SOL    HW131001   4.127   2.707   7.961 -1.4743 -1.7546  2.7098
 6456SOL    HW231002   4.268   2.695   7.910  1.0171 -2.2764 -0.5180
 6457SOL     OW31003   3.776   0.324   9.437 -0.7599  0.2335 -0.2425
 6457SOL    HW131004   3.831   0.291   9.366  0.1598  0.6607  0.2677
 6457SOL    HW231005   3.727   0.394   9.394 -1.5376 -0.0724  0.1524
 6458SOL     OW31006   4.506   1.368   2.603  0.6455  0.0681  0.1007
 6458SOL    HW131007   4.497   1.447   2.549  0.7196 -0.5805 -0.8432
 6458SOL    HW231008   4.428   1.381   2.657 -0.2242 -2.1007 -0.6520
 6459SOL     OW31009   4.541   3.408   3.767  0.3848  0.2183  0.0465
 6459SOL    HW131010   4.457   3.451   3.752 -0.0386 -0.3406  0.7995
 6459SOL    HW231011   4.519   3.315   3.777  3.3589 -0.4308  0.6178
 6460SOL     OW31012   4.092   2.704   2.659  0.6937 -0.0097  0.1374
 6460SOL    HW131013   4.143   2.751   2.727 -2.1096  1.3260  1.3126
 6460SOL    HW231014   4.019   2.762   2.638  1.3167  1.3274  1.5701
 6461SOL     OW31015   4.300   0.724   4.267 -0.2939  0.3249  0.0310
 6461SOL    HW131016   4.255   0.706   4.350  0.5653  0.9365  0.6285
 6461SOL    HW231017   4.388   0.746   4.297 -0.8723  1.5145  0.8572
 6462SOL     OW31018   0.249   1.407   0.912 -0.1011 -0.3597  0.0034
 6462SOL    HW131019   0.316   1.402   0.981  0.3073  3.2884 -0.1150
 6462SOL    HW231020   0.187   1.336   0.929 -0.8368  0.6568  1.6576
 6463SOL     OW31021   0.981   3.722  15.971  0.2732 -0.2755 -0.3310
 6463SOL    HW131022   1.045   3.696  15.906 -1.6427  0.4896 -2.5377
 6463SOL    HW231023   0.944   3.635  15.987 -1.3961  0.1407 -1.9105
 6464SOL     OW31024   1.263   3.681  14.711  0.7778 -0.2925  0.7999
 6464SOL    HW131025   1.242   3.667  14.619  1.3380  1.2809  0.4444
 6464SOL    HW231026   1.353   3.650  14.723 -0.0165 -2.7234  0.5160
 6465SOL     OW31027   3.598   0.307  12.561 -0.5958  0.1337  0.5600
 6465SOL    HW131028   3.649   0.385  12.584 -0.1569 -0.3061  1.0731
 6465SOL    HW231029   3.515   0.352  12.549  0.2323  1.7304  0.7997
 6466SOL     OW31030   4.322   0.573   5.510 -0.1781  0.1261 -0.0211
 6466SOL    HW131031   4.340   0.511   5.439  1.5631  1.8680 -1.1149
 6466SOL    HW231032   4.228   0.580   5.493 -0.3047 -0.0099  0.6101
 6467SOL     OW31033   3.291   0.051   5.432 -0.5134  0.0841  0.0380
 6467SOL    HW131034   3.323   4.718   5.373 -0.6646 -0.5199  0.6536
 6467SOL    HW231035   3.234   0.100   5.373 -0.7107 -2.5062 -1.9635
 6468SOL     OW31036   4.161   4.411   9.457 -0.3808  0.3025 -0.1974
 6468SOL    HW131037   4.154   4.424   9.552  0.9770 -2.5419  0.2810
 6468SOL    HW231038   4.190   4.495   9.422  2.2288 -0.9006 -0.9465
 6469SOL     OW31039   3.499   3.621   5.879 -0.1121  0.2665 -0.6234
 6469SOL    HW131040   3.419   3.642   5.928 -0.2861 -0.5706 -0.5354
 6469SOL    HW231041   3.549   3.587   5.954 -3.2344 -3.5212 -0.2105
 6470SOL     OW31042   4.318   0.924   1.664 -0.7201  0.5220 -0.8703
 6470SOL    HW131043   4.249   0.874   1.707  1.6064 -2.0701 -0.1146
 6470SOL    HW231044   4.272   0.956   1.587 -1.2942  1.5530 -0.0929
 6471SOL     OW31045   2.731   3.540  15.214 -0.1332  0.1046  0.3136
 6471SOL    HW131046   2.652   3.556  15.266 -0.6117  2.1874 -1.0656
 6471SOL    HW231047   2.701   3.561  15.126 -1.6212 -0.4488  0.6858
 6472SOL     OW31048   1.086   4.063   7.411  0.0111  0.0522  0.1601
 6472SOL    HW131049   1.081   4.034   7.320 -1.1862  2.0548 -0.4220
 6472SOL    HW231050   1.173   4.103   7.419 -0.3547  0.3895  2.6300
 6473SOL     OW31051   4.489   2.208   7.690 -0.2371  0.0553 -0.0137
 6473SOL    HW131052   4.569   2.168   7.726  0.4027  1.7822  0.5133
 6473SOL    HW231053   4.489   2.172   7.601  0.4536 -0.4626  0.1957
 6474SOL     OW31054   1.833   1.627   7.079  0.1873 -0.0950 -0.5175
 6474SOL    HW131055   1.849   1.578   7.159  0.4083  1.6376  0.4905
 6474SOL    HW231056   1.890   1.579   7.019  0.2742  0.5849 -0.9769
 6475SOL     OW31057   0.028   3.324  16.017  0.6046  0.2096  0.2250
 6475SOL    HW131058   4.692   3.334  16.081  1.4508 -0.6802  1.3165
 6475SOL    HW231059   0.095   3.294  16.079 -0.2615  0.6461  1.3838
 6476SOL     OW31060   1.601   1.218  17.052 -0.4597  0.1312  0.2382
 6476SOL    HW131061   1.547   1.174  17.119 -0.3805  3.0802  2.2157
 6476SOL    HW231062   1.663   1.157  17.013 -1.8518  0.7218 -2.8865
 6477SOL     OW31063   4.573   1.033   3.781 -0.6979  0.7761 -0.0083
 6477SOL    HW131064   4.643   0.989   3.732 -0.2322 -0.4159  1.7192
 6477SOL    HW231065   4.627   1.077   3.846 -0.3834  1.2903 -0.6200
 6478SOL     OW31066   1.162   1.008   8.071 -0.3311 -0.8085 -0.0076
 6478SOL    HW131067   1.185   0.933   8.016 -0.8131 -0.5159 -0.6140
 6478SOL    HW231068   1.157   0.961   8.155  1.4634  1.5739  1.4286
 6479SOL     OW31069   2.839   1.509  14.608 -0.2293  0.3019 -0.5280
 6479SOL    HW131070   2.859   1.576  14.674 -2.7468 -0.5377  1.1079
 6479SOL    HW231071   2.844   1.440  14.674 -0.2960 -0.0647 -0.9085
 6480SOL     OW31072   1.967   1.373   1.105  0.2079 -0.1798  0.0348
 6480SOL    HW131073   1.999   1.382   1.195 -0.2469  2.4380 -0.0835
 6480SOL    HW231074   1.990   1.280   1.096 -0.1047 -0.4341  1.8701
 6481SOL     OW31075   1.741   0.623   6.523 -0.0971 -0.8179 -0.4145
 6481SOL    HW131076   1.699   0.660   6.445 -2.8104 -3.8604 -0.3959
 6481SOL    HW231077   1.663   0.614   6.578 -0.8758  1.9679 -1.0814
 6482SOL     OW31078   1.081   0.464  11.323 -0.0731  0.1657 -0.3293
 6482SOL    HW131079   0.985   0.466  11.323 -0.0531  1.0986  0.3105
 6482SOL    HW231080   1.110   0.553  11.344 -0.4120  0.5582 -1.5259
 6483SOL     OW31081   0.960   3.480   5.193 -0.3856 -0.0532  0.4067
 6483SOL    HW131082   0.880   3.533   5.197 -0.8369 -0.8702  2.3478
 6483SOL    HW231083   0.913   3.399   5.209  0.7171 -0.4890  1.4562
 6484SOL     OW31084   4.253   3.281  13.723 -0.3673  0.4252  0.1656
 6484SOL    HW131085   4.271   3.372  13.748  1.0806 -0.0185  0.7451
 6484SOL    HW231086   4.159   3.285  13.707 -0.0484  1.0364 -1.4814
 6485SOL     OW31087   2.060   1.518  15.804 -0.6940 -0.4277  0.0421
 6485SOL    HW131088   2.004   1.596  15.804  1.3841  1.0681 -0.7567
 6485SOL    HW231089   2.099   1.525  15.717 -0.9431 -1.3303 -0.1411
 6486SOL     OW31090   0.054   0.859   8.431  0.3133  0.1046  0.0723
 6486SOL    HW131091   0.073   0.860   8.524 -0.4406  0.7478  0.2158
 6486SOL    HW231092   0.139   0.851   8.387  0.2317 -1.8494  0.2977
 6487SOL     OW31093   3.131   4.178   6.878  0.2713 -0.0675 -0.5040
 6487SOL    HW131094   3.080   4.191   6.958  1.0762 -1.3464  0.2070
 6487SOL    HW231095   3.095   4.246   6.820  1.3588 -1.1780 -2.4907
 6488SOL     OW31096   0.633   1.432   8.743  0.1756 -0.6043  0.1075
 6488SOL    HW131097   0.593   1.519   8.745  0.6865 -0.3828  0.8004
 6488SOL    HW231098   0.587   1.401   8.665 -0.7639  1.4202 -0.1420
 6489SOL     OW31099   3.852   4.006   2.806 -0.1390  0.2243 -0.3308
 6489SOL    HW131100   3.840   3.915   2.779  1.2325 -0.3825  1.1386
 6489SOL    HW231101   3.886   4.047   2.727 -0.9944  0.1564 -0.7428
 6490SOL     OW31102   0.489   0.313   6.064  0.8060  0.0241 -0.3651
 6490SOL    HW131103   0.468   0.353   6.149 -1.3379  2.6665 -2.1382
 6490SOL    HW231104   0.574   0.353   6.048  1.4483 -0.6481  1.3584
 6491SOL     OW31105   2.023   3.149   4.873  0.1759 -0.1214  0.3304
 6491SOL    HW131106   2.007   3.082   4.806 -0.8719 -0.4923  0.9438
 6491SOL    HW231107   2.117   3.162   4.859 -0.0332  2.7215  1.6038
 6492SOL     OW31108   1.304   2.937   5.919 -0.2498 -0.2245 -0.3292
 6492SOL    HW131109   1.217   2.912   5.886 -0.8173  1.2071  0.0991
 6492SOL    HW231110   1.351   2.856   5.897  3.7761  2.4788 -1.6239
 6493SOL     OW31111   2.451   1.391  10.179  0.0302  0.5879  0.3457
 6493SOL    HW131112   2.383   1.418  10.240 -0.3045  0.6037 -0.0393
 6493SOL    HW231113   2.493   1.474  10.154 -1.5373  0.7910 -1.5534
 6494SOL     OW31114   1.739   0.544   4.151  0.0079  0.4022 -0.2162
 6494SOL    HW131115   1.712   0.588   4.232  0.9427 -1.1995  0.9553
 6494SOL    HW231116   1.826   0.522   4.185  0.1410  1.7090  0.3050
 6495SOL     OW31117   0.664   1.258   4.803  0.3298 -0.4049 -0.8825
 6495SOL    HW131118   0.612   1.329   4.842  1.0941  0.7946 -2.0375
 6495SOL    HW231119   0.649   1.180   4.855 -0.5527  0.0853 -0.4043
 6496SOL     OW31120   3.574   1.554   2.890  0.0588  0.4897 -0.3341
 6496SOL    HW131121   3.607   1.465   2.877  0.2553  0.6397 -0.8513
 6496SOL    HW231122   3.571   1.549   2.986 -0.2857 -0.3552 -0.3877
 6497SOL     OW31123   2.442   0.365   4.942 -0.2474 -0.5406  0.3053
 6497SOL    HW131124   2.421   0.273   4.925  1.1379 -0.6876 -0.5772
 6497SOL    HW231125   2.444   0.377   5.037  2.1358 -0.7156  0.2870
 6498SOL     OW31126   2.986   0.707   6.004 -0.7410 -0.1907  0.0256
 6498SOL    HW131127   3.013   0.796   6.026 -0.7412 -0.3240  0.5736
 6498SOL    HW231128   2.892   0.721   5.994 -0.4826  1.8526  0.3583
 6499SOL     OW31129   0.857   2.560   6.241  0.4037  0.1649  0.1245
 6499SOL    HW131130   0.858   2.631   6.305  0.3745  2.1944 -2.1094
 6499SOL    HW231131   0.772   2.573   6.197 -0.0147  0.4163  1.0160
 6500SOL     OW31132   0.076   3.535  14.079  0.2529 -0.5827 -0.4638
 6500SOL    HW131133   0.003   3.588  14.049 -0.4587 -1.2946 -0.0041
 6500SOL    HW231134   0.127   3.520  13.999  1.9460 -0.3256  0.5764
 6501SOL     OW31135   3.331   1.274  17.631  0.5245 -0.7128 -0.2797
 6501SOL    HW131136   3.278   1.350  17.654  2.1277  0.8205 -1.6603
 6501SOL    HW231137   3.371   1.241  17.711 -3.6395 -1.4207  1.4947
 6502SOL     OW31138   3.330   0.238  14.891  0.4267 -0.2178 -0.0075
 6502SOL    HW131139   3.297   0.327  14.902  1.4679 -0.2799  3.7388
 6502SOL    HW231140   3.424   0.256  14.899  0.0924  0.3723  2.5373
 6503SOL     OW31141   3.265   1.960   9.398  0.2853 -0.5049  0.0217
 6503SOL    HW131142   3.203   1.896   9.362  0.3661 -1.6586  1.8980
 6503SOL    HW231143   3.333   1.971   9.332  2.0235 -0.8020  1.7595
 6504SOL     OW31144   4.382   1.895   4.128 -0.0423  0.3372 -0.2527
 6504SOL    HW131145   4.390   1.988   4.106 -0.9972  0.3223 -0.6755
 6504SOL    HW231146   4.470   1.861   4.144  0.0643 -0.4969 -2.5902
 6505SOL     OW31147   3.981   4.253   8.742  0.0643  0.2277 -0.7603
 6505SOL    HW131148   3.947   4.294   8.662  0.4150 -0.2488 -1.1519
 6505SOL    HW231149   4.071   4.283   8.733  0.9463 -2.0995  0.2533
 6506SOL     OW31150   1.596   3.800   4.296 -0.6047  0.3285 -0.4725
 6506SOL    HW131151   1.665   3.863   4.313  0.4295 -1.1336  0.7534
 6506SOL    HW231152   1.581   3.771   4.386  3.1992 -1.6635 -0.4903
 6507SOL     OW31153   2.854   3.317  15.185  0.2599 -0.1415  0.5619
 6507SOL    HW131154   2.811   3.402  15.195  1.8698  0.8988 -1.3428
 6507SOL    HW231155   2.857   3.295  15.278 -1.0939 -0.4807  0.5201
 6508SOL     OW31156   3.273   2.293   8.847  0.3415 -0.1987  0.1443
 6508SOL    HW131157   3.328   2.246   8.783 -0.6743 -0.8322 -0.2527
 6508SOL    HW231158   3.207   2.226   8.863 -0.4927  0.3967 -0.8583
 6509SOL     OW31159   0.833   3.135   8.149  0.0799  0.2493 -0.2141
 6509SOL    HW131160   0.807   3.058   8.200  0.1841 -1.2580 -2.4168
 6509SOL    HW231161   0.787   3.200   8.202  0.7631 -2.4248  3.7036
 6510SOL     OW31162   2.902   4.463   7.541 -0.3337 -0.6499  0.2581
 6510SOL    HW131163   2.831   4.494   7.484 -2.1038 -0.0723  2.7776
 6510SOL    HW231164   2.860   4.468   7.627 -0.2221  0.9141  0.2296
 6511SOL     OW31165   0.907   1.366   4.945  0.0035  0.2310  0.0821
 6511SOL    HW131166   0.944   1.284   4.977  0.9975  0.4839 -0.4005
 6511SOL    HW231167   0.829   1.323   4.911  0.0112  0.8856 -0.7546
 6512SOL     OW31168   3.676   3.667   8.986 -0.3906  0.2452 -0.0902
 6512SOL    HW131169   3.664   3.744   8.931 -0.8368  0.3202  0.1129
 6512SOL    HW231170   3.758   3.691   9.029 -0.5235 -1.2518  1.0114
 6513SOL     OW31171   4.169   3.363  10.366  0.5422 -0.3171 -0.1747
 6513SOL    HW131172   4.160   3.432  10.432 -0.1715 -2.2399  1.7230
 6513SOL    HW231173   4.078   3.355  10.335  0.6702  1.0222 -0.9126
 6514SOL     OW31174   1.941   1.931   1.473  0.4078  0.3017 -0.4348
 6514SOL    HW131175   2.021   1.954   1.427  0.5997  1.1776  0.3391
 6514SOL    HW231176   1.898   1.870   1.413  1.0341  0.7864 -1.3681
 6515SOL     OW31177   0.704   0.288   8.032  0.0727 -0.0086 -0.3921
 6515SOL    HW131178   0.720   0.282   7.938  2.4939  0.9054 -0.0273
 6515SOL    HW231179   0.655   0.370   8.043  0.3425  0.2804 -1.3771
 6516SOL     OW31180   2.524   0.277  12.668  0.3004  0.1300 -0.1752
 6516SOL    HW131181   2.604   0.260  12.618 -0.4251 -2.3917 -0.4494
 6516SOL    HW231182   2.551   0.359  12.711  0.2773 -0.1574  0.3867
 6517SOL     OW31183   3.332   4.201   3.671  0.1821 -0.1903 -0.0867
 6517SOL    HW131184   3.312   4.109   3.683  1.1232 -0.7613 -2.8741
 6517SOL    HW231185   3.254   4.242   3.709  0.0682 -1.3512  0.9118
 6518SOL     OW31186   3.147   0.960   7.682 -0.1127  0.0451  0.0197
 6518SOL    HW131187   3.193   0.898   7.738 -2.6499 -1.0669  0.8972
 6518SOL    HW231188   3.205   1.033   7.661 -0.5209  0.8830  1.7228
 6519SOL     OW31189   3.320   1.635   3.888  0.0878 -0.4729 -0.0795
 6519SOL    HW131190   3.302   1.641   3.982  0.6648 -3.0746  0.2043
 6519SOL    HW231191   3.405   1.591   3.896 -0.7540 -2.2961 -1.2497
 6520SOL     OW31192   2.875   3.579   7.952 -0.0428  0.3352  0.3155
 6520SOL    HW131193   2.960   3.558   7.913  0.4143  0.6020  1.1873
 6520SOL    HW231194   2.858   3.502   8.006 -3.1445  0.9358  0.2164
 6521SOL     OW31195   1.319   1.127  11.811  0.1230  0.6915  0.4571
 6521SOL    HW131196   1.256   1.163  11.747 -0.9267  0.7280  1.5118
 6521SOL    HW231197   1.387   1.082  11.761 -1.1029 -1.2961  0.5667
 6522SOL     OW31198   1.578   0.801   1.092 -0.1983 -0.3743 -0.1615
 6522SOL    HW131199   1.581   0.820   1.185 -1.0515 -0.8273 -0.0375
 6522SOL    HW231200   1.661   0.755   1.083 -0.3429 -0.7667  0.5416
 6523SOL     OW31201   2.782   3.687   5.533 -0.7145  0.1927 -0.0724
 6523SOL    HW131202   2.807   3.725   5.617  0.1274  0.7467 -0.5676
 6523SOL    HW231203   2.823   3.603   5.551  0.2078  0.9977  1.5499
 6524SOL     OW31204   4.478   0.814   3.959  0.4677 -0.1489  0.3906
 6524SOL    HW131205   4.491   0.890   3.901  0.3741  1.9458  3.1274
 6524SOL    HW231206   4.383   0.820   3.968  0.6767  0.6969  2.0495
 6525SOL     OW31207   4.478   4.700   5.526  0.0791  0.2835  0.0400
 6525SOL    HW131208   4.509   4.610   5.514 -1.5505 -0.0497 -1.5735
 6525SOL    HW231209   4.387   4.697   5.496 -0.9814  1.6716  3.2040
 6526SOL     OW31210   1.013   2.782   8.349 -0.5282 -0.6196  0.1417
 6526SOL    HW131211   1.056   2.755   8.268 -0.9387 -0.9876  0.0476
 6526SOL    HW231212   1.003   2.705   8.406 -1.3574 -0.8040 -0.2509
 6527SOL     OW31213   0.848   3.230  12.632  0.2681 -0.5497 -0.4181
 6527SOL    HW131214   0.889   3.311  12.663 -1.3780 -0.8625  2.5688
 6527SOL    HW231215   0.884   3.228  12.543  0.3964  0.5950 -0.3892
 6528SOL     OW31216   2.575   3.605  16.598 -0.0102 -0.0825 -1.1819
 6528SOL    HW131217   2.573   3.656  16.679 -0.7304 -2.0634  0.0455
 6528SOL    HW231218   2.617   3.669  16.541  0.4466  0.2192 -0.5055
 6529SOL     OW31219   0.805   3.650   3.191 -0.1474 -0.3835  0.2474
 6529SOL    HW131220   0.816   3.670   3.284  3.1342 -0.5360 -0.1139
 6529SOL    HW231221   0.772   3.560   3.194 -0.5224 -0.2970 -1.1826
 6530SOL     OW31222   1.161   1.883   5.931  0.0291 -0.2908  0.3518
 6530SOL    HW131223   1.121   1.945   5.992  0.7059 -1.3361  1.8841
 6530SOL    HW231224   1.083   1.874   5.877 -1.0813  1.4478  1.6432
 6531SOL     OW31225   1.226   4.197  13.893 -0.4903 -0.0044 -0.1352
 6531SOL    HW131226   1.286   4.269  13.874 -0.6361 -0.0753 -0.8548
 6531SOL    HW231227   1.243   4.144  13.815 -1.9324  0.2309 -0.6061
 6532SOL     OW31228   0.173   4.355   2.802  0.1425  0.0348  0.1456
 6532SOL    HW131229   0.116   4.429   2.823  0.4925  0.4757 -0.4726
 6532SOL    HW231230   0.149   4.304   2.879 -0.8632 -0.9020 -0.7793
 6533SOL     OW31231   2.735   1.389   1.643 -0.0166  0.0826 -0.4960
 6533SOL    HW131232   2.754   1.386   1.737  1.8573 -0.0179 -0.8748
 6533SOL    HW231233   2.642   1.409   1.642 -0.1660 -0.5568  0.4552
 6534SOL     OW31234   1.965   1.822  17.166  0.2877  0.3408  0.1684
 6534SOL    HW131235   2.008   1.907  17.181  0.3024  0.5365 -0.9946
 6534SOL    HW231236   2.031   1.782  17.109 -1.7907 -2.6568 -0.1249
 6535SOL     OW31237   2.211   4.200  11.473  0.4374  0.4083  0.4621
 6535SOL    HW131238   2.206   4.109  11.444  1.2455  0.8470 -1.0622
 6535SOL    HW231239   2.252   4.238  11.395  1.5955  1.4818  1.5994
 6536SOL     OW31240   3.812   2.632  10.788  0.1693  0.3231 -0.0430
 6536SOL    HW131241   3.779   2.679  10.712 -1.9602 -0.7449  0.2297
 6536SOL    HW231242   3.771   2.674  10.864  0.5251  1.0126 -0.2282
 6537SOL     OW31243   0.522   4.701   0.757  0.3510 -0.0432 -0.0849
 6537SOL    HW131244   0.596   0.007   0.711  0.5851  0.9310  1.1503
 6537SOL    HW231245   0.490   4.635   0.696 -0.8193 -0.2999  0.8127
 6538SOL     OW31246   1.537   4.113   4.127  0.3105 -0.1588 -0.2658
 6538SOL    HW131247   1.491   4.036   4.159  1.6542 -1.2433 -0.9457
 6538SOL    HW231248   1.572   4.160   4.203  1.8837 -2.1293  0.2410
 6539SOL     OW31249   3.133   4.620  15.156 -0.2010  0.3658  0.2715
 6539SOL    HW131250   3.058   4.581  15.111 -0.3954 -1.2200  1.9954
 6539SOL    HW231251   3.125   4.711  15.128 -1.3901  0.1050 -0.2098
 6540SOL     OW31252   1.755   4.423   9.071  0.2868 -0.0076  0.1279
 6540SOL    HW131253   1.793   4.371   9.142 -0.9819  1.0111  1.5511
 6540SOL    HW231254   1.837   4.453   9.031  0.9254 -0.2930  1.2256
 6541SOL     OW31255   2.032   1.843   6.450 -0.0107  1.0870  0.3150
 6541SOL    HW131256   1.964   1.775   6.454 -0.5948  1.5280 -1.9097
 6541SOL    HW231257   1.976   1.914   6.481 -2.1569 -0.7005  0.6153
 6542SOL     OW31258   3.965   1.281   3.229  0.6864 -0.3900 -0.0734
 6542SOL    HW131259   4.041   1.259   3.283  0.3144  2.7068  1.6943
 6542SOL    HW231260   3.983   1.217   3.160  0.6542  0.2066 -0.6298
 6543SOL     OW31261   0.507   3.325   2.310  0.0255  0.2638  0.0331
 6543SOL    HW131262   0.525   3.419   2.315 -0.5347  0.4392 -1.2562
 6543SOL    HW231263   0.524   3.308   2.403 -2.8708 -0.4418  0.4370
 6544SOL     OW31264   1.717   2.955  12.443  0.4304 -0.6575 -0.0068
 6544SOL    HW131265   1.640   2.902  12.466  0.1638 -1.3113 -2.3826
 6544SOL    HW231266   1.730   2.997  12.528  0.0906  1.2276 -0.9075
 6545SOL     OW31267   3.959   1.197   7.778  0.2038 -0.3369 -0.3383
 6545SOL    HW131268   3.877   1.184   7.825 -1.5040  0.1755 -3.1562
 6545SOL    HW231269   3.934   1.230   7.692  1.7570  0.5843 -0.4386
 6546SOL     OW31270   4.638   0.621   3.812  0.4811 -0.2757 -0.5243
 6546SOL    HW131271   4.647   0.678   3.736 -0.3418 -2.1873 -2.0450
 6546SOL    HW231272   4.593   0.679   3.874  1.5318 -0.3404  0.2959
 6547SOL     OW31273   2.309   2.217   8.195 -0.4696  0.1646  0.2701
 6547SOL    HW131274   2.387   2.174   8.231 -0.3112 -0.8567 -1.2701
 6547SOL    HW231275   2.269   2.148   8.142  2.1801 -0.5451 -0.7899
 6548SOL     OW31276   4.090   0.333   5.284  0.0424 -0.3855  0.8882
 6548SOL    HW131277   4.119   0.356   5.195 -0.1537  0.0811  0.9407
 6548SOL    HW231278   4.059   0.243   5.285 -0.0354 -0.3521  1.9826
 6549SOL     OW31279   3.693   0.726   8.868 -0.0255  0.5052  0.2654
 6549SOL    HW131280   3.698   0.763   8.780  0.7165 -1.9721 -0.7428
 6549SOL    HW231281   3.617   0.669   8.860  1.4132 -1.3015 -0.4933
 6550SOL     OW31282   4.469   3.021   6.220  0.0605  0.1737 -0.0298
 6550SOL    HW131283   4.439   3.070   6.297  0.3331  1.0848 -0.4971
 6550SOL    HW231284   4.557   3.055   6.203  0.6407 -1.6579 -0.6804
 6551SOL     OW31285   1.901   1.942   2.518  0.5063 -0.2310  0.2726
 6551SOL    HW131286   1.826   1.902   2.562  1.3649 -2.7986 -0.6197
 6551SOL    HW231287   1.947   1.859   2.505  2.6062  1.1476 -0.9945
 6552SOL     OW31288   4.248   0.476  14.307  0.1756  0.2184 -0.6206
 6552SOL    HW131289   4.266   0.567  14.284 -0.6473  0.7846  0.9735
 6552SOL    HW231290   4.193   0.445  14.235  1.1185 -0.6558 -0.9525
 6553SOL     OW31291   2.836   4.449   7.821  0.7934 -0.2755 -0.3341
 6553SOL    HW131292   2.777   4.374   7.828 -0.5134  0.5729 -2.0954
 6553SOL    HW231293   2.919   4.407   7.842  0.5279 -0.7029 -0.1488
 6554SOL     OW31294   1.455   0.428   3.622 -0.3569  0.5304  0.2258
 6554SOL    HW131295   1.489   0.471   3.544 -0.7164 -0.6596 -0.5846
 6554SOL    HW231296   1.365   0.421   3.591  0.5066 -1.6987 -1.7768
 6555SOL     OW31297   2.272   0.603  11.682  0.5369 -0.3614  0.3328
 6555SOL    HW131298   2.339   0.542  11.652 -0.0628 -0.0794 -1.5918
 6555SOL    HW231299   2.188   0.571  11.651  1.0606  0.7398 -2.2189
 6556SOL     OW31300   3.713   2.787   7.216 -0.1775 -0.6863 -0.2663
 6556SOL    HW131301   3.627   2.748   7.199  0.6792 -1.3926 -2.9263
 6556SOL    HW231302   3.767   2.733   7.158 -0.1875 -0.2569 -0.6756
 6557SOL     OW31303   1.603   2.489   1.993  0.7137 -0.1142  0.5587
 6557SOL    HW131304   1.579   2.507   1.902  0.4120 -1.8228  0.3047
 6557SOL    HW231305   1.512   2.494   2.024  1.0353  1.8793  1.2011
 6558SOL     OW31306   4.252   2.310  13.460 -0.2281  0.1744  0.0410
 6558SOL    HW131307   4.302   2.268  13.530 -1.0080  1.0163  1.1171
 6558SOL    HW231308   4.318   2.370  13.424 -2.4247  0.6107 -3.1943
 6559SOL     OW31309   3.626   1.505   3.151  0.0821 -0.3189  0.6536
 6559SOL    HW131310   3.577   1.556   3.216  0.5996  1.9332 -0.7410
 6559SOL    HW231311   3.658   1.434   3.207  0.1396 -1.2335 -0.5523
 6560SOL     OW31312   4.616   3.802   6.385  0.0829 -0.0265 -0.1889
 6560SOL    HW131313   4.555   3.797   6.459  0.7149 -0.2435  0.3133
 6560SOL    HW231314   4.601   3.719   6.341 -1.4180 -0.5387  1.2675
 6561SOL     OW31315   4.102   0.694   2.673  0.8160 -0.0648 -0.0928
 6561SOL    HW131316   4.186   0.675   2.715  1.3445 -1.4789 -1.8010
 6561SOL    HW231317   4.097   0.788   2.692 -1.2708 -0.1485 -0.1764
 6562SOL     OW31318   2.943   3.946  16.688  0.0890  0.5268  0.6007
 6562SOL    HW131319   2.925   3.866  16.639  0.8090 -0.7814  2.4796
 6562SOL    HW231320   2.975   3.916  16.773  2.8374 -0.1065 -0.6716
 6563SOL     OW31321   3.594   3.185   4.155  0.6699 -0.4787  0.0860
 6563SOL    HW131322   3.629   3.182   4.066  0.8994  1.2340  0.1275
 6563SOL    HW231323   3.648   3.259   4.183 -1.3052  1.1860 -0.5630
 6564SOL     OW31324   0.538   0.445   1.898  0.0585 -0.4575  0.3214
 6564SOL    HW131325   0.449   0.468   1.870 -0.5478 -0.9939  1.8097
 6564SOL    HW231326   0.538   0.435   1.993  2.4193 -1.1105  0.2446
 6565SOL     OW31327   0.851   4.065  14.038 -0.4371 -0.5883  0.0008
 6565SOL    HW131328   0.869   4.158  14.050  1.2207 -0.9500  0.3654
 6565SOL    HW231329   0.758   4.054  14.059 -0.5935 -1.2442 -1.0525
 6566SOL     OW31330   4.604   0.793  10.339  0.4049 -0.3108 -0.3603
 6566SOL    HW131331   4.645   0.764  10.420  1.0066  1.1240 -0.1441
 6566SOL    HW231332   4.644   0.878  10.320  1.8144 -0.7066  0.7702
 6567SOL     OW31333   3.954   4.513  16.734  0.4574 -0.2334  0.5613
 6567SOL    HW131334   3.922   4.425  16.718  0.7363 -0.0830 -0.8596
 6567SOL    HW231335   3.960   4.514  16.829 -0.1936  0.8244  0.5897
 6568SOL     OW31336   4.471   0.852   0.826 -0.1549  0.0088  0.1199
 6568SOL    HW131337   4.475   0.816   0.737 -1.1326 -0.9650  0.4692
 6568SOL    HW231338   4.379   0.873   0.842 -0.0344  0.8320 -0.2929
 6569SOL     OW31339   0.466   4.407   1.292  0.2455  0.2677  0.0242
 6569SOL    HW131340   0.429   4.485   1.251 -2.7315 -0.6232  1.0281
 6569SOL    HW231341   0.460   4.336   1.229  0.4664  0.3049 -0.0387
 6570SOL     OW31342   3.676   3.515   0.177  0.2992  0.2007  0.1743
 6570SOL    HW131343   3.687   3.551   0.088 -0.1683 -1.8681 -0.7219
 6570SOL    HW231344   3.755   3.530   0.228  0.3701 -2.2771  0.7892
 6571SOL     OW31345   0.317   2.656   0.928  0.1452  0.3514  0.5370
 6571SOL    HW131346   0.331   2.562   0.923  1.1080  0.5930 -1.2701
 6571SOL    HW231347   0.408   2.681   0.945 -0.2086  0.4956  2.2940
 6572SOL     OW31348   4.400   2.467  15.270  0.5321  0.0140  0.4730
 6572SOL    HW131349   4.341   2.536  15.240 -0.2941 -0.8127  0.2136
 6572SOL    HW231350   4.480   2.471  15.217  1.2921 -0.3886  1.5688
 6573SOL     OW31351   1.045   4.101   8.933 -0.3305  0.1822 -0.2474
 6573SOL    HW131352   1.115   4.052   8.890 -1.2276 -0.2016 -1.3080
 6573SOL    HW231353   0.976   4.097   8.865 -0.1952  0.5144 -0.4031
 6574SOL     OW31354   1.236   2.446   2.923  0.1106 -0.1780  0.3618
 6574SOL    HW131355   1.222   2.539   2.905  2.2181 -0.0211 -0.5140
 6574SOL    HW231356   1.260   2.408   2.839 -1.1714  0.8305 -0.4577
 6575SOL     OW31357   3.636   0.966  11.827 -0.2543 -0.6013  1.2903
 6575SOL    HW131358   3.584   1.047  11.829  0.5952 -0.0318 -0.0723
 6575SOL    HW231359   3.585   0.924  11.897 -3.0579  1.0681  0.2572
 6576SOL     OW31360   0.438   2.223   6.068 -0.0010  0.8767 -0.2866
 6576SOL    HW131361   0.441   2.217   5.972  0.7845 -2.6177 -0.0258
 6576SOL    HW231362   0.364   2.165   6.085  0.8308  0.0811  0.6066
 6577SOL     OW31363   1.948   4.161  15.418  0.1740 -0.0928 -0.3813
 6577SOL    HW131364   1.890   4.231  15.446  1.5855  0.3773  1.3102
 6577SOL    HW231365   1.923   4.155  15.325 -1.5407 -1.4686  0.1687
 6578SOL     OW31366   2.621   2.192   8.655  0.3499  0.6499 -0.6721
 6578SOL    HW131367   2.621   2.240   8.738 -0.7824  1.1446 -0.9679
 6578SOL    HW231368   2.530   2.164   8.653  0.1152  1.3176  0.3851
 6579SOL     OW31369   0.009   1.928   7.098 -0.5828  0.4122 -0.3984
 6579SOL    HW131370   4.692   1.875   7.158 -0.3803  0.7559  0.0837
 6579SOL    HW231371   4.674   1.958   7.039 -1.4236  0.4399  0.6084
 6580SOL     OW31372   3.412   3.680   3.574  0.7763 -0.2940  0.5961
 6580SOL    HW131373   3.449   3.594   3.553  1.6063  0.0140  0.8005
 6580SOL    HW231374   3.450   3.738   3.508 -1.8037  2.2555  1.3560
 6581SOL     OW31375   4.568   1.507   0.477  0.3949  0.1752 -0.3895
 6581SOL    HW131376   4.566   1.599   0.504  1.3861 -0.2362  1.0918
 6581SOL    HW231377   4.610   1.524   0.393 -0.8080  1.9073 -0.6508
 6582SOL     OW31378   2.759   2.395  16.520 -0.1388  0.4317 -0.2366
 6582SOL    HW131379   2.733   2.303  16.523 -0.1844  0.3881 -1.7783
 6582SOL    HW231380   2.739   2.414  16.428  0.7045  0.6448 -0.3729
 6583SOL     OW31381   1.622   2.065  12.551  0.3190 -0.3348 -0.1458
 6583SOL    HW131382   1.545   2.010  12.534  0.6044 -0.2644 -1.6135
 6583SOL    HW231383   1.683   1.992  12.550  1.3548  0.5260  0.6824
 6584SOL     OW31384   3.810   1.897   2.059  0.1361  0.1245 -0.0263
 6584SOL    HW131385   3.753   1.932   1.990 -0.6336 -0.8817  0.0962
 6584SOL    HW231386   3.885   1.954   2.043 -0.7682  1.0368 -1.0032
 6585SOL     OW31387   4.176   1.768   4.740 -0.2592 -0.6827  0.1298
 6585SOL    HW131388   4.200   1.808   4.656  1.1143  0.6875  1.1649
 6585SOL    HW231389   4.253   1.803   4.786 -0.4678 -1.2485  0.8977
 6586SOL     OW31390   1.022   2.628   5.467  0.5202 -0.3061 -0.0082
 6586SOL    HW131391   1.096   2.665   5.419  0.8691 -1.9373 -0.7381
 6586SOL    HW231392   0.993   2.707   5.512  0.4046  1.1346 -2.5833
 6587SOL     OW31393   2.438   0.947   8.234  0.3700 -0.1404  0.5056
 6587SOL    HW131394   2.451   0.915   8.323 -1.9933 -1.5980  0.3173
 6587SOL    HW231395   2.394   0.872   8.195  1.0205 -0.6515  0.7608
 6588SOL     OW31396   3.824   3.536   0.401 -0.1538 -0.3285 -0.6550
 6588SOL    HW131397   3.857   3.508   0.486 -0.2432  0.1760 -0.4497
 6588SOL    HW231398   3.745   3.581   0.433  0.1321  0.6004 -1.2550
 6589SOL     OW31399   4.288   2.999   6.890  0.0322 -0.0503 -0.2370
 6589SOL    HW131400   4.275   2.957   6.805  0.9286 -0.9652  0.0885
 6589SOL    HW231401   4.280   2.921   6.944  1.4465  0.5456  0.8391
 6590SOL     OW31402   4.683   1.235   8.776 -0.5917 -0.6047 -0.2779
 6590SOL    HW131403   4.654   1.309   8.830  1.3708  1.0475 -1.4777
 6590SOL    HW231404   4.606   1.226   8.721 -1.3837 -0.5811  0.8343
 6591SOL     OW31405   4.084   0.829  11.286 -0.0317  0.0135 -0.0282
 6591SOL    HW131406   4.089   0.881  11.367  0.3908 -0.8372  0.4948
 6591SOL    HW231407   3.992   0.824  11.261 -0.3346  0.7666  0.9136
 6592SOL     OW31408   4.179   3.058   2.538 -0.2502  0.2926  0.4979
 6592SOL    HW131409   4.125   3.043   2.616  1.0480  0.8240  1.4916
 6592SOL    HW231410   4.111   3.038   2.474  1.2601  1.0620 -1.3238
 6593SOL     OW31411   3.775   0.009   4.520 -0.0912  0.3858  0.6678
 6593SOL    HW131412   3.742   4.668   4.568  1.6239 -0.1489  0.9954
 6593SOL    HW231413   3.699   0.036   4.468  0.8337 -0.1459 -0.9388
 6594SOL     OW31414   1.182   4.046  12.690 -0.0649  0.3533  0.4776
 6594SOL    HW131415   1.151   4.044  12.600 -0.2801 -1.8668  0.5785
 6594SOL    HW231416   1.264   3.996  12.688 -0.2999 -0.0620  1.1716
 6595SOL     OW31417   4.726   4.608   1.242  0.1896  0.0829 -0.8469
 6595SOL    HW131418   0.050   4.601   1.317 -1.1924 -1.3144  0.1243
 6595SOL    HW231419   4.677   4.683   1.275 -0.1957 -1.1939  1.5131
 6596SOL     OW31420   1.334   0.279   3.129  0.9863  0.4186  0.0016
 6596SOL    HW131421   1.331   0.212   3.197  2.3927 -0.2557 -0.5927
 6596SOL    HW231422   1.271   0.248   3.064 -2.6235  1.4773  3.0500
 6597SOL     OW31423   3.668   3.748  17.497  0.2185 -0.0774  0.6941
 6597SOL    HW131424   3.585   3.792  17.479  0.9169  1.3286  0.8632
 6597SOL    HW231425   3.727   3.806  17.448 -1.3111  0.1802 -0.8609
 6598SOL     OW31426   3.989   0.823   3.668  0.1814  0.1959  0.2563
 6598SOL    HW131427   3.956   0.737   3.695  1.0277  0.5720  2.4561
 6598SOL    HW231428   3.914   0.857   3.620  0.0001 -1.4385 -0.6018
 6599SOL     OW31429   1.110   3.653   4.402 -0.3165 -0.0970  0.1538
 6599SOL    HW131430   1.030   3.686   4.361  1.1205  2.3404 -0.7154
 6599SOL    HW231431   1.087   3.629   4.492 -0.8264  0.5761  0.2021
 6600SOL     OW31432   2.753   1.257  17.329 -0.1460  0.3962  0.2503
 6600SOL    HW131433   2.703   1.317  17.275 -0.8282  0.1099  0.5722
 6600SOL    HW231434   2.697   1.248  17.406  0.8207 -0.9342  0.8087
 6601SOL     OW31435   1.743   4.455  14.623 -0.3507  0.1789 -0.2714
 6601SOL    HW131436   1.772   4.396  14.554 -0.4613 -0.4440  0.2129
 6601SOL    HW231437   1.771   4.418  14.707 -3.0600 -0.6680  0.2571
 6602SOL     OW31438   2.651   3.198   3.569  0.1900 -0.3904 -0.1093
 6602SOL    HW131439   2.690   3.128   3.621  1.3711 -0.0803 -0.5765
 6602SOL    HW231440   2.593   3.240   3.633  0.7702 -0.0865  0.2226
 6603SOL     OW31441   4.052   3.540  10.546  0.2244 -0.2682 -0.0139
 6603SOL    HW131442   4.127   3.564  10.600  0.4337  0.3861 -0.6005
 6603SOL    HW231443   3.982   3.557  10.610  1.1767 -3.0569  1.7723
 6604SOL     OW31444   3.985   1.040   3.858  0.1699 -0.1216  0.5261
 6604SOL    HW131445   3.940   0.958   3.878 -2.8305  0.6938 -2.8841
 6604SOL    HW231446   4.025   1.011   3.775  3.5021 -0.1109  2.1364
 6605SOL     OW31447   2.665   3.101   7.066  0.4717 -0.1191 -0.2628
 6605SOL    HW131448   2.606   3.032   7.036  0.4797  0.1745 -0.9487
 6605SOL    HW231449   2.612   3.176   7.091  0.2197 -0.4641  0.2349
 6606SOL     OW31450   3.951   1.786   5.230  0.1718 -0.0965  0.2007
 6606SOL    HW131451   3.971   1.867   5.276  0.4043  0.2472 -0.5052
 6606SOL    HW231452   3.967   1.807   5.138 -2.5339 -1.4934 -0.6042
 6607SOL     OW31453   0.966   3.775  13.649  0.0103 -0.2297  0.3003
 6607SOL    HW131454   0.931   3.687  13.633  0.5628 -0.3175 -0.4236
 6607SOL    HW231455   1.058   3.768  13.624  0.2380  1.8973  0.5973
 6608SOL     OW31456   4.662   4.630   8.398  0.0637 -0.1934 -0.2369
 6608SOL    HW131457   4.658   4.549   8.449 -2.0155 -0.3258 -0.5943
 6608SOL    HW231458   4.642   4.601   8.309 -2.0476 -0.6167  0.3630
 6609SOL     OW31459   3.617   1.586   6.726 -0.3320  0.9253  0.1446
 6609SOL    HW131460   3.565   1.646   6.672 -0.8974  1.4894  1.3165
 6609SOL    HW231461   3.703   1.586   6.683  0.1549  0.8149  1.1130
 6610SOL     OW31462   2.499   0.325   5.220 -0.0466 -0.1398 -0.1367
 6610SOL    HW131463   2.594   0.332   5.209  0.0198  1.8090  1.6033
 6610SOL    HW231464   2.479   0.382   5.294  1.3684 -0.5273  0.5483
 6611SOL     OW31465   2.519   0.409   2.686  0.6101 -0.4409 -0.3252
 6611SOL    HW131466   2.549   0.436   2.773 -0.6305 -0.2457  0.0481
 6611SOL    HW231467   2.505   0.315   2.697  2.2888 -0.5836  0.5576
 6612SOL     OW31468   0.746   1.469   0.500  0.5165 -0.4406 -0.2252
 6612SOL    HW131469   0.744   1.498   0.591  3.1316  0.5145 -0.4683
 6612SOL    HW231470   0.758   1.377   0.524 -0.5512 -1.2877 -2.8751
 6613SOL     OW31471   1.864   2.924   7.540  1.3380  0.1660 -0.3222
 6613SOL    HW131472   1.950   2.925   7.497  0.9672  2.1820 -1.0482
 6613SOL    HW231473   1.872   3.010   7.582 -1.0271  0.5474 -0.6338
 6614SOL     OW31474   3.176   0.706  17.621 -0.2255 -0.3195  0.6305
 6614SOL    HW131475   3.221   0.625  17.596 -1.0776 -1.0443  1.4730
 6614SOL    HW231476   3.179   0.765  17.546 -0.3424  1.6467  2.1915
 6615SOL     OW31477   1.668   1.401   7.491  0.0307 -0.2995 -0.2668
 6615SOL    HW131478   1.764   1.402   7.496  0.0013 -1.5610  0.5576
 6615SOL    HW231479   1.656   1.312   7.525 -0.8296 -0.2488 -0.4413
 6616SOL     OW31480   3.950   3.447   1.361  0.0189 -0.1378  0.1061
 6616SOL    HW131481   3.934   3.476   1.450 -2.5592  1.7000 -0.9568
 6616SOL    HW231482   4.039   3.413   1.363  0.8230  1.9396 -0.3046
 6617SOL     OW31483   1.138   4.357   3.597 -0.4829 -0.0012 -0.4552
 6617SOL    HW131484   1.216   4.322   3.640 -1.3836  0.9727  1.9943
 6617SOL    HW231485   1.103   4.283   3.547 -2.6688 -0.5584  1.8745
 6618SOL     OW31486   3.895   2.108   7.233 -0.1101 -0.6746  0.5459
 6618SOL    HW131487   3.949   2.038   7.197 -2.0513 -0.1859 -3.3473
 6618SOL    HW231488   3.955   2.180   7.250  0.7203 -1.1580 -0.3924
 6619SOL     OW31489   3.034   2.877   3.836  0.1835 -0.0983 -0.4472
 6619SOL    HW131490   3.056   2.933   3.762  0.0452 -0.7836 -1.0137
 6619SOL    HW231491   2.941   2.898   3.844  0.4039  0.9461 -0.6874
 6620SOL     OW31492   2.441   2.315   5.461 -0.6498 -0.3259  0.3689
 6620SOL    HW131493   2.404   2.324   5.373  0.4634  0.1190 -0.0507
 6620SOL    HW231494   2.497   2.240   5.441  2.0357  1.9402 -0.6443
 6621SOL     OW31495   3.552   4.061  15.180  0.1165  0.0524  0.2881
 6621SOL    HW131496   3.555   4.156  15.193 -0.1517  0.2919 -1.4022
 6621SOL    HW231497   3.612   4.057  15.105 -1.1170  1.5845 -0.7879
 6622SOL     OW31498   3.407   1.075   2.245  0.0264  0.3579 -0.2621
 6622SOL    HW131499   3.319   1.039   2.240  0.5541 -1.0125  0.1729
 6622SOL    HW231500   3.428   1.072   2.338 -0.6435  2.1760 -0.0644
 6623SOL     OW31501   1.236   2.277  11.135 -0.1249  0.7102 -0.4710
 6623SOL    HW131502   1.217   2.270  11.228 -0.0279  0.5540 -0.4632
 6623SOL    HW231503   1.331   2.266  11.140 -0.0178  0.7362 -2.2556
 6624SOL     OW31504   3.667   3.010   4.729  0.5743  0.3034 -0.0512
 6624SOL    HW131505   3.603   3.055   4.785  0.3094  1.1825 -1.0644
 6624SOL    HW231506   3.733   3.079   4.733  0.6778  0.1468  0.8839
 6625SOL     OW31507   2.879   1.896   1.070 -0.2004 -0.8771  0.6350
 6625SOL    HW131508   2.846   1.849   1.146  1.0133 -2.4445  0.1992
 6625SOL    HW231509   2.793   1.912   1.032 -0.5379 -0.9480  1.3749
 6626SOL     OW31510   0.755   1.648   4.271  0.2386  0.2174  0.3743
 6626SOL    HW131511   0.850   1.638   4.274  0.4129  1.3180 -1.4715
 6626SOL    HW231512   0.732   1.647   4.364  0.0664  1.0246  0.3351
 6627SOL     OW31513   1.779   2.135   6.301  0.0488 -0.0321 -0.6983
 6627SOL    HW131514   1.699   2.177   6.331 -0.1816 -2.6423  2.4814
 6627SOL    HW231515   1.819   2.111   6.385  1.7101  2.4023 -0.8019
 6628SOL     OW31516   1.452   2.020   0.530 -0.7557 -0.8630 -0.1795
 6628SOL    HW131517   1.547   2.013   0.520 -0.8637 -1.7394 -0.6951
 6628SOL    HW231518   1.437   1.929   0.502 -0.9107 -1.2695  1.2488
 6629SOL     OW31519   0.259   1.377  16.970 -0.1230  0.3641 -0.4688
 6629SOL    HW131520   0.303   1.295  16.995  2.5605  2.2303  0.8517
 6629SOL    HW231521   0.192   1.342  16.911  1.7696 -1.0263 -1.7820
 6630SOL     OW31522   3.931   4.233   3.048 -0.0256  0.0764  0.6783
 6630SOL    HW131523   3.982   4.213   2.970  1.3580  0.9934  1.3440
 6630SOL    HW231524   3.970   4.318   3.071 -1.8309  1.0125  0.2897
 6631SOL     OW31525   1.637   4.513  16.962 -0.1875 -0.1618  0.3029
 6631SOL    HW131526   1.584   4.495  17.040 -1.3691  0.1162 -0.4293
 6631SOL    HW231527   1.635   4.607  16.946 -0.8170 -0.3557 -0.7965
 6632SOL     OW31528   2.196   0.918   7.295 -0.0633 -0.5384  0.6909
 6632SOL    HW131529   2.222   1.008   7.273  2.3938 -1.5801 -0.7712
 6632SOL    HW231530   2.234   0.909   7.383  1.3830 -0.9009  0.0296
 6633SOL     OW31531   2.043   1.209   8.437 -0.3523 -0.0301 -0.0881
 6633SOL    HW131532   2.072   1.297   8.460 -0.6679 -0.4039  1.7229
 6633SOL    HW231533   2.114   1.155   8.474 -1.9644 -1.0605  1.4769
 6634SOL     OW31534   1.922   0.431  15.491  0.6677  0.3063  0.1889
 6634SOL    HW131535   1.972   0.366  15.541 -0.5969  0.2546  1.3850
 6634SOL    HW231536   1.931   0.398  15.401 -2.1032 -0.0127  0.0133
 6635SOL     OW31537   3.463   2.763   4.951  0.3416  0.2220 -0.1240
 6635SOL    HW131538   3.433   2.686   5.000 -0.4003 -0.1138 -1.0942
 6635SOL    HW231539   3.383   2.787   4.904  0.0194 -1.4578 -0.4616
 6636SOL     OW31540   3.767   3.346  17.449 -0.0116  0.2994  0.1784
 6636SOL    HW131541   3.733   3.272  17.398 -0.5404  0.8929 -0.3202
 6636SOL    HW231542   3.741   3.320  17.537  1.0601 -0.1848  0.3613
 6637SOL     OW31543   1.855   0.882   9.043  0.5950  0.1453  0.4869
 6637SOL    HW131544   1.828   0.973   9.056  1.2172  0.4087 -0.0976
 6637SOL    HW231545   1.795   0.841   9.106  1.1757 -0.9539  0.3227
 6638SOL     OW31546   4.605   1.331  13.271 -0.1289 -0.2877 -0.7867
 6638SOL    HW131547   4.653   1.360  13.193  0.3770  0.9729  0.0057
 6638SOL    HW231548   4.651   1.382  13.337 -1.0102 -0.9534  0.3282
 6639SOL     OW31549   2.600   2.480   4.190  0.1551 -0.4998 -0.4421
 6639SOL    HW131550   2.530   2.419   4.210 -1.1672  1.2781  0.3441
 6639SOL    HW231551   2.544   2.556   4.202  0.0523 -0.6470 -0.0000
 6640SOL     OW31552   1.456   3.824  12.316  0.1372 -0.4312  0.1485
 6640SOL    HW131553   1.477   3.862  12.231  0.9589  1.2584  1.1000
 6640SOL    HW231554   1.439   3.905  12.365  1.5799 -0.3467  0.5114
 6641SOL     OW31555   4.696   0.771   4.131 -0.8399 -0.2595  0.2286
 6641SOL    HW131556   4.611   0.800   4.100 -2.1593 -1.5600  2.6360
 6641SOL    HW231557   4.735   0.849   4.170  0.1431 -0.7876  0.3190
 6642SOL     OW31558   4.134   4.518   3.660 -0.2421 -0.2279  0.6640
 6642SOL    HW131559   4.073   4.448   3.683 -3.2370  1.9647 -0.4973
 6642SOL    HW231560   4.210   4.462   3.645 -2.0085 -2.9425  1.7826
 6643SOL     OW31561   2.808   0.231   6.533  0.4688  0.2394 -0.4214
 6643SOL    HW131562   2.775   0.296   6.595 -0.0978 -0.3983 -0.0474
 6643SOL    HW231563   2.892   0.272   6.515  0.5401  0.9182  1.5261
 6644SOL     OW31564   2.709   2.272   8.414 -0.1776  0.4941 -0.3730
 6644SOL    HW131565   2.784   2.218   8.389 -0.5572  0.8440 -2.3127
 6644SOL    HW231566   2.673   2.223   8.488  2.5513  0.9808  1.2786
 6645SOL     OW31567   1.712   3.580   9.429  0.5799 -0.4105 -0.4153
 6645SOL    HW131568   1.631   3.621   9.460  0.8045  0.0302 -0.4044
 6645SOL    HW231569   1.685   3.549   9.342  1.2147 -0.5244 -0.5685
 6646SOL     OW31570   2.533   3.739   0.681  0.8529 -0.0730  0.4638
 6646SOL    HW131571   2.442   3.757   0.705  0.9151  1.0038 -0.0886
 6646SOL    HW231572   2.515   3.729   0.587 -0.0538 -1.4695  0.7883
 6647SOL     OW31573   4.025   3.531   7.210 -0.0258  0.1978 -0.2470
 6647SOL    HW131574   4.043   3.447   7.253  1.8397  0.2095 -0.9899
 6647SOL    HW231575   4.102   3.535   7.154 -0.9273 -2.1558 -1.6633
 6648SOL     OW31576   3.412   2.279   9.713  1.0110 -0.3461  0.6758
 6648SOL    HW131577   3.320   2.279   9.686  1.0471  2.2153  0.6130
 6648SOL    HW231578   3.435   2.369   9.734  0.3521  0.3415 -1.6392
 6649SOL     OW31579   0.913   3.471   6.319  0.1537  0.2169 -0.4948
 6649SOL    HW131580   0.900   3.507   6.407  0.9366 -0.4188 -0.1287
 6649SOL    HW231581   0.954   3.540   6.267 -1.7266  2.2127  0.6684
 6650SOL     OW31582   4.677   1.481  14.903 -0.2520 -0.2996 -0.2111
 6650SOL    HW131583   4.684   1.574  14.882 -1.3402 -0.2167 -0.1821
 6650SOL    HW231584   0.013   1.462  14.964  0.4878  0.5761 -0.7874
 6651SOL     OW31585   3.663   3.839   4.494  0.0580 -0.1011  0.0815
 6651SOL    HW131586   3.593   3.780   4.522 -1.7762  2.3190  0.5161
 6651SOL    HW231587   3.731   3.780   4.460  2.5794  3.0909 -0.4704
 6652SOL     OW31588   0.724   4.482   7.721  0.0384  0.0557  0.2220
 6652SOL    HW131589   0.701   4.390   7.703 -1.5052 -0.0440  2.6185
 6652SOL    HW231590   0.661   4.515   7.785  0.9712  1.0505  0.6084
 6653SOL     OW31591   1.340   4.435   2.554 -0.2636 -0.2994  0.5275
 6653SOL    HW131592   1.275   4.488   2.600 -1.2938  0.0922 -1.3591
 6653SOL    HW231593   1.423   4.457   2.597  0.1721  2.1666 -1.4995
 6654SOL     OW31594   2.393   3.131   5.266 -0.2987  0.3259  0.0304
 6654SOL    HW131595   2.444   3.206   5.234  0.4617 -0.0372  0.4010
 6654SOL    HW231596   2.308   3.160   5.232  0.2423  0.5120 -1.1881
 6655SOL     OW31597   1.796   0.903   6.577  0.8360 -0.1247 -0.4088
 6655SOL    HW131598   1.710   0.925   6.613  0.1648 -1.1398 -1.3967
 6655SOL    HW231599   1.797   0.808   6.586 -1.9978  0.0375  1.6881
 6656SOL     OW31600   3.403   1.931   5.828 -0.2979  0.3114 -0.2042
 6656SOL    HW131601   3.384   1.848   5.784  0.9193 -1.3695  2.4399
 6656SOL    HW231602   3.391   1.990   5.753  2.0119  1.0186 -0.0180
 6657SOL     OW31603   3.909   2.063  10.258  0.5337  0.6039 -0.1684
 6657SOL    HW131604   3.864   2.001  10.200 -2.0793  1.0174  1.3857
 6657SOL    HW231605   3.964   2.108  10.194 -0.4152  1.1010 -0.6435
 6658SOL     OW31606   2.751   4.129   1.571 -0.1101 -0.3623  0.0924
 6658SOL    HW131607   2.709   4.068   1.511 -2.4396  0.7752  0.5515
 6658SOL    HW231608   2.708   4.100   1.652 -2.5473  2.9848  0.0282
 6659SOL     OW31609   0.418   2.477   7.762  0.3355  1.0654 -0.5724
 6659SOL    HW131610   0.451   2.444   7.678  1.4239 -2.6279  1.2878
 6659SOL    HW231611   0.323   2.473   7.754  0.2209  0.5458  1.1139
 6660SOL     OW31612   0.902   2.497  13.285 -0.1570 -0.2251  0.1796
 6660SOL    HW131613   0.923   2.565  13.349  2.4025 -2.5090  1.7296
 6660SOL    HW231614   0.984   2.493  13.236 -1.4438  2.5080 -2.2252
 6661SOL     OW31615   3.319   3.656   1.794  0.3016 -0.0609 -0.0417
 6661SOL    HW131616   3.271   3.584   1.754  1.0266  0.2879 -1.5435
 6661SOL    HW231617   3.262   3.733   1.798 -0.5996 -0.6599 -1.4373
 6662SOL     OW31618   0.705   2.512   7.305 -0.9334  0.0261  0.3116
 6662SOL    HW131619   0.720   2.421   7.329 -1.8108  0.0507  0.9255
 6662SOL    HW231620   0.770   2.553   7.362 -2.2962  0.6335  1.4082
 6663SOL     OW31621   1.922   2.416   4.620 -0.0054  0.0712  0.6899
 6663SOL    HW131622   1.921   2.329   4.658  1.4354 -0.8524 -1.4050
 6663SOL    HW231623   2.014   2.440   4.620  0.0746 -0.2276  0.0863
 6664SOL     OW31624   1.194   3.219  12.079  0.4717 -0.3228  0.2140
 6664SOL    HW131625   1.144   3.155  12.130  0.2784 -1.3344 -1.2566
 6664SOL    HW231626   1.135   3.295  12.078  0.4866 -0.3040  0.5323
 6665SOL     OW31627   1.729   2.883   8.894 -0.2285  0.3315  0.2557
 6665SOL    HW131628   1.760   2.892   8.984  0.4180  1.3379 -0.0727
 6665SOL    HW231629   1.694   2.970   8.877  2.4063  1.0830 -1.2372
 6666SOL     OW31630   2.808   0.016   2.008 -0.5616  0.0040  0.0874
 6666SOL    HW131631   2.740   4.711   2.062  0.9734 -1.5284  0.8654
 6666SOL    HW231632   2.792   0.110   2.003 -2.1115 -0.2805 -0.4021
 6667SOL     OW31633   1.197   2.193  11.690 -0.0687  0.3296 -0.1895
 6667SOL    HW131634   1.202   2.104  11.723  3.4607  0.3354 -0.6840
 6667SOL    HW231635   1.281   2.202  11.645  1.0209  1.6942  2.1267
 6668SOL     OW31636   1.782   2.995  13.462  0.1401 -0.5395  0.3391
 6668SOL    HW131637   1.871   2.981  13.428  1.1509  1.1973  2.2879
 6668SOL    HW231638   1.736   2.913  13.442 -0.3589  0.0176 -0.8149
 6669SOL     OW31639   3.324   1.111  13.979  0.1351 -0.3841 -0.3764
 6669SOL    HW131640   3.295   1.199  13.957  0.8501 -0.0640 -0.0213
 6669SOL    HW231641   3.410   1.131  14.015 -0.7669  2.8964 -0.1009
 6670SOL     OW31642   2.880   2.692   7.091  0.0143  0.2922  0.3050
 6670SOL    HW131643   2.889   2.787   7.100  1.5285  0.2340 -0.7108
 6670SOL    HW231644   2.944   2.675   7.022  1.3977 -1.0502  1.9282
 6671SOL     OW31645   1.287   3.627   6.939 -0.0527 -0.0029  0.1271
 6671SOL    HW131646   1.292   3.533   6.926  0.4068  0.1824 -1.0538
 6671SOL    HW231647   1.199   3.629   6.976 -1.4860  1.3403 -3.2592
 6672SOL     OW31648   0.454   0.207   0.867 -0.2134 -0.0846  1.0744
 6672SOL    HW131649   0.475   0.207   0.961 -2.0311  2.8832  1.4815
 6672SOL    HW231650   0.446   0.117   0.836  0.2506 -0.0550  0.8609
 6673SOL     OW31651   2.518   3.228   4.946  0.3625  0.3664 -0.4033
 6673SOL    HW131652   2.436   3.186   4.922 -0.1325  0.0577  1.8143
 6673SOL    HW231653   2.499   3.319   4.921 -1.8060 -0.6683 -2.4943
 6674SOL     OW31654   0.611   0.087   4.882  0.1003 -0.5062 -0.2546
 6674SOL    HW131655   0.697   0.106   4.920 -0.8899  5.3731 -1.0547
 6674SOL    HW231656   0.564   0.069   4.964  1.2627 -2.2807  0.0340
 6675SOL     OW31657   3.451   0.186   7.188 -0.0803  0.5979  0.0517
 6675SOL    HW131658   3.434   0.207   7.096 -1.1180  3.1005  0.8299
 6675SOL    HW231659   3.431   0.268   7.233  2.1904  1.2825 -0.2102
 6676SOL     OW31660   4.406   0.367   5.980 -0.4163  0.0664  0.6196
 6676SOL    HW131661   4.347   0.361   6.055 -0.7724  0.8439  0.4043
 6676SOL    HW231662   4.348   0.327   5.915 -0.7837 -1.0857  1.6747
 6677SOL     OW31663   4.020   1.498   0.813 -0.4028 -0.3025  0.1058
 6677SOL    HW131664   4.056   1.556   0.746  1.9764 -1.3511  0.4472
 6677SOL    HW231665   3.966   1.445   0.755  1.0383 -1.2721 -0.3536
 6678SOL     OW31666   2.583   2.290   6.847 -0.5815 -0.8879 -0.0501
 6678SOL    HW131667   2.530   2.237   6.787  0.7282 -0.5839 -1.4881
 6678SOL    HW231668   2.537   2.287   6.930 -0.6453 -0.0452 -0.0592
 6679SOL     OW31669   4.046   2.924   3.134 -0.4211 -0.7934  0.5514
 6679SOL    HW131670   3.996   2.988   3.082  0.6972  0.9621  1.6553
 6679SOL    HW231671   4.087   2.883   3.057  2.2700  0.7539  1.1694
 6680SOL     OW31672   4.263   3.869   8.352  0.7363  0.2664 -0.2356
 6680SOL    HW131673   4.235   3.824   8.432  2.1694 -0.8831 -0.3639
 6680SOL    HW231674   4.246   3.959   8.378  0.7664  0.5926 -1.3538
 6681SOL     OW31675   0.755   0.819   0.357  0.2977  0.9184  0.6159
 6681SOL    HW131676   0.767   0.781   0.270  1.1400 -1.4035  1.7377
 6681SOL    HW231677   0.787   0.741   0.402  2.0591  1.6283  0.5954
 6682SOL     OW31678   2.056   1.338   1.640  0.0066  1.2152 -0.1015
 6682SOL    HW131679   2.110   1.275   1.689 -0.1977  0.1335 -1.2678
 6682SOL    HW231680   1.999   1.374   1.707  0.9255 -0.3963  1.5467
 6683SOL     OW31681   1.334   2.541  15.342 -0.1925  0.1744  0.1909
 6683SOL    HW131682   1.276   2.601  15.296  2.4966  1.3814 -1.6186
 6683SOL    HW231683   1.416   2.589  15.352  0.5780 -1.0870  0.0161
 6684SOL     OW31684   3.624   2.542   3.581 -0.2331 -0.7433 -0.0201
 6684SOL    HW131685   3.634   2.463   3.530  1.1998 -1.3455  1.1977
 6684SOL    HW231686   3.708   2.587   3.577 -0.6588  0.1971  1.6173
 6685SOL     OW31687   2.422   0.940  11.436  0.1607 -0.1184 -0.0780
 6685SOL    HW131688   2.371   1.017  11.462  1.3240 -0.1444  2.3013
 6685SOL    HW231689   2.511   0.970  11.455 -0.7575  2.3774  0.2053
 6686SOL     OW31690   0.316   3.277   4.152 -0.0697 -0.0077 -0.2587
 6686SOL    HW131691   0.233   3.249   4.113  0.7033 -1.8531 -0.5857
 6686SOL    HW231692   0.375   3.202   4.146 -3.1846 -2.5777  1.2692
 6687SOL     OW31693   2.391   2.751   3.030 -1.0328  0.5541  0.2683
 6687SOL    HW131694   2.323   2.753   2.963 -1.4129 -1.6064  0.5925
 6687SOL    HW231695   2.466   2.754   2.970 -0.8014  0.8917  0.5691
 6688SOL     OW31696   2.433   4.486   7.983  0.0453  0.2666 -0.0922
 6688SOL    HW131697   2.488   4.408   7.992 -0.4574 -0.5498 -3.9886
 6688SOL    HW231698   2.348   4.442   7.986 -0.4874  1.2376 -0.7231
 6689SOL     OW31699   2.346   0.992  15.991  0.0748  0.0547  0.0601
 6689SOL    HW131700   2.420   1.049  15.967  0.8404 -1.4669 -1.2344
 6689SOL    HW231701   2.381   0.947  16.068 -0.6129  0.8527  0.8342
 6690SOL     OW31702   0.482   4.043  17.668  0.2962  0.3075 -0.1380
 6690SOL    HW131703   0.510   4.109  17.731 -1.4339 -0.4435  1.4116
 6690SOL    HW231704   0.557   3.984  17.670 -1.0822 -1.5145 -1.5016
 6691SOL     OW31705   2.593   1.858   2.052  0.1578 -0.3032 -0.1771
 6691SOL    HW131706   2.546   1.922   2.105  1.2952  0.7437 -0.4370
 6691SOL    HW231707   2.607   1.915   1.976  0.8237 -0.8560 -0.4775
 6692SOL     OW31708   4.433   4.155  16.908 -0.2330  0.1230  0.3434
 6692SOL    HW131709   4.473   4.114  16.832  0.9791  0.6576  0.6979
 6692SOL    HW231710   4.507   4.140  16.966 -0.9879  0.0876  1.3031
 6693SOL     OW31711   3.584   4.128   1.233 -0.1957 -0.4273 -0.4064
 6693SOL    HW131712   3.545   4.067   1.296  1.1947  0.9065  1.7554
 6693SOL    HW231713   3.505   4.177   1.210 -0.8083 -1.3600 -0.3307
 6694SOL     OW31714   3.901   4.294   1.730  0.2936  0.1247  0.5608
 6694SOL    HW131715   3.911   4.331   1.643  0.8860 -0.9489  0.1655
 6694SOL    HW231716   3.810   4.320   1.745 -0.5312 -1.9567 -0.7838
 6695SOL     OW31717   1.424   0.227  17.628  0.5559 -0.3000 -0.1815
 6695SOL    HW131718   1.495   0.286  17.652 -0.6469  0.8479  0.5360
 6695SOL    HW231719   1.463   0.197  17.546  0.1045  2.7050 -1.4805
 6696SOL     OW31720   4.103   0.384   3.672  0.3374 -0.0276 -0.2995
 6696SOL    HW131721   4.133   0.421   3.755 -0.7758 -0.2865  0.2245
 6696SOL    HW231722   4.025   0.335   3.699  0.8783 -0.9124 -0.3241
 6697SOL     OW31723   3.568   2.144   4.596  0.1517  0.4508  0.5179
 6697SOL    HW131724   3.486   2.097   4.580  0.3253  0.5132 -0.5106
 6697SOL    HW231725   3.547   2.230   4.560 -0.2253 -0.9323 -2.5123
 6698SOL     OW31726   3.782   3.243   7.720  0.2703 -0.1797 -0.3799
 6698SOL    HW131727   3.738   3.234   7.635 -0.0317 -1.7077 -0.0574
 6698SOL    HW231728   3.841   3.318   7.707  0.1531 -0.3143 -1.7483
 6699SOL     OW31729   0.625   2.257   3.951 -0.0813 -0.3705  0.0573
 6699SOL    HW131730   0.690   2.312   3.995 -1.0480 -0.1292  1.1862
 6699SOL    HW231731   0.666   2.171   3.965 -0.1052 -0.4292 -0.2410
 6700SOL     OW31732   0.834   0.002   5.714  0.0565 -0.5388  0.2800
 6700SOL    HW131733   0.745   0.014   5.749  0.9992 -0.3930  2.6698
 6700SOL    HW231734   0.847   4.646   5.690  0.2343  0.2752 -2.7481
 6701SOL     OW31735   2.163   3.861  13.743  0.0102  0.0505  0.3277
 6701SOL    HW131736   2.200   3.774  13.728  0.7928  0.0497  2.3099
 6701SOL    HW231737   2.244   3.894  13.781  0.1601 -0.6330  0.6014
 6702SOL     OW31738   4.277   1.264   8.299 -0.3396  0.1298  0.0943
 6702SOL    HW131739   4.234   1.332   8.351 -0.6548 -0.3535  0.4722
 6702SOL    HW231740   4.330   1.320   8.243  0.7552 -0.3942  0.6098
 6703SOL     OW31741   1.184   1.694  16.389  0.6085  0.3320 -0.0222
 6703SOL    HW131742   1.131   1.759  16.344  1.1988  1.2187  0.5651
 6703SOL    HW231743   1.177   1.616  16.335 -1.1304  0.9659 -0.7066
 6704SOL     OW31744   4.052   1.075   3.053  0.2258 -0.1646  0.1425
 6704SOL    HW131745   4.145   1.084   3.074 -0.3686  0.9382  2.3238
 6704SOL    HW231746   4.058   1.024   2.972 -1.8557  1.6385 -1.1403
 6705SOL     OW31747   2.898   0.774   1.978  0.2315  0.0278 -0.4907
 6705SOL    HW131748   2.919   0.738   2.064 -2.4843 -2.0681 -0.7137
 6705SOL    HW231749   2.936   0.704   1.924 -0.2534  0.5827 -1.5541
 6706SOL     OW31750   0.590   3.868  15.918  0.1381  0.0898 -0.7456
 6706SOL    HW131751   0.586   3.785  15.870 -1.3896  0.5457 -1.3836
 6706SOL    HW231752   0.637   3.834  15.995 -1.8626 -0.6256  0.1442
 6707SOL     OW31753   2.306   1.795   2.087 -0.7246 -0.2933  0.1297
 6707SOL    HW131754   2.256   1.876   2.097  1.1553  0.7848  0.5752
 6707SOL    HW231755   2.391   1.829   2.061 -1.1054 -0.6769 -1.6647
 6708SOL     OW31756   3.287   1.568   2.881  0.2487  0.3049  1.3471
 6708SOL    HW131757   3.379   1.545   2.872  0.3628  0.9012  0.9909
 6708SOL    HW231758   3.256   1.484   2.916 -0.0783 -0.9607 -2.0224
 6709SOL     OW31759   3.563   0.602   9.619 -0.3024 -0.4237  0.5084
 6709SOL    HW131760   3.592   0.621   9.530 -2.2989  0.7782  0.0986
 6709SOL    HW231761   3.645   0.627   9.660  0.8539  1.1897 -2.7395
 6710SOL     OW31762   3.760   2.285   7.592  0.2382  0.4155  0.3401
 6710SOL    HW131763   3.800   2.294   7.678 -0.0519 -0.0572  0.5217
 6710SOL    HW231764   3.807   2.206   7.567 -0.8621 -0.8998  2.4139
 6711SOL     OW31765   2.741   2.972   4.361 -0.3670  0.0267 -0.0380
 6711SOL    HW131766   2.675   3.036   4.389 -2.5517 -2.1164 -0.3224
 6711SOL    HW231767   2.753   3.003   4.271  0.2917  0.2052  0.1185
 6712SOL     OW31768   4.293   1.415   0.306 -0.5905 -0.1207  0.1437
 6712SOL    HW131769   4.341   1.493   0.276  1.6700 -0.5298  2.7341
 6712SOL    HW231770   4.289   1.431   0.400 -1.9509  0.4739 -0.0207
 6713SOL     OW31771   0.988   3.013   6.046  0.3231  0.5541  0.2227
 6713SOL    HW131772   0.980   3.102   6.081  0.8169  0.6971 -0.0247
 6713SOL    HW231773   1.008   2.965   6.126  1.1847 -3.4570 -2.4123
 6714SOL     OW31774   4.006   3.706   2.190 -0.3233 -0.2070 -0.1801
 6714SOL    HW131775   3.981   3.626   2.236  2.3054 -1.1395 -0.3724
 6714SOL    HW231776   3.952   3.768   2.239 -1.6328 -1.4156 -0.1050
 6715SOL     OW31777   2.573   2.456  13.278 -0.4438 -0.3284  0.7451
 6715SOL    HW131778   2.613   2.423  13.357  0.2654  1.0841  0.9702
 6715SOL    HW231779   2.621   2.395  13.222 -0.8762  0.1683 -0.1822
 6716SOL     OW31780   4.203   1.551   5.594  0.6793  0.2412 -0.3146
 6716SOL    HW131781   4.267   1.524   5.528  0.4201 -0.2918 -0.3525
 6716SOL    HW231782   4.135   1.565   5.527  1.7035  0.9180 -1.2153
 6717SOL     OW31783   2.745   4.643   8.377 -0.2801  0.0117 -0.0399
 6717SOL    HW131784   2.696   4.671   8.454  0.3704  0.6378  0.1416
 6717SOL    HW231785   2.678   4.603   8.321 -0.2626 -0.0493 -0.0175
 6718SOL     OW31786   1.897   2.860  13.695 -0.3491  0.4823 -0.5385
 6718SOL    HW131787   1.828   2.887  13.635 -1.4312  1.3255  1.1007
 6718SOL    HW231788   1.884   2.918  13.769  1.8389  0.2638  0.0219
 6719SOL     OW31789   1.760   3.189   5.563 -0.3415  0.1223  0.1259
 6719SOL    HW131790   1.829   3.220   5.504 -1.3708  0.4750 -0.8931
 6719SOL    HW231791   1.816   3.157   5.634  1.6155  0.9860 -1.0011
 6720SOL     OW31792   1.035   1.640   4.316  0.1978 -0.7715 -0.4225
 6720SOL    HW131793   1.048   1.714   4.376 -1.5455  0.6026 -1.7518
 6720SOL    HW231794   1.025   1.562   4.371 -1.9472 -0.8865 -0.9828
 6721SOL     OW31795   1.303   1.232   7.453 -0.3732 -0.3364  0.4613
 6721SOL    HW131796   1.276   1.247   7.544 -0.0682 -0.1356  0.5200
 6721SOL    HW231797   1.286   1.138   7.443 -1.2484  0.0204 -1.4264
 6722SOL     OW31798   3.605   2.151   8.134  0.1098 -0.4312  0.0044
 6722SOL    HW131799   3.617   2.145   8.229  1.6599 -0.9343 -0.2309
 6722SOL    HW231800   3.511   2.134   8.126  0.3773 -1.7551 -0.2233
 6723SOL     OW31801   3.158   4.151   5.376 -0.0928  0.1244 -0.6596
 6723SOL    HW131802   3.220   4.080   5.395  3.1337  3.0797 -0.2072
 6723SOL    HW231803   3.152   4.186   5.465  1.3786 -0.9658 -0.1394
 6724SOL     OW31804   2.619   0.823   7.014  0.2350 -0.0191 -0.3475
 6724SOL    HW131805   2.608   0.877   7.092 -1.0901  1.1703 -1.3452
 6724SOL    HW231806   2.529   0.800   6.989  0.4675  0.3538 -1.5372
 6725SOL     OW31807   2.432   1.466   8.701  0.3529  0.2332 -0.0438
 6725SOL    HW131808   2.494   1.431   8.765  1.0182  1.9863  0.2652
 6725SOL    HW231809   2.362   1.402   8.714 -0.2244  0.5313 -1.7009
 6726SOL     OW31810   2.320   1.060   3.749 -0.0215 -0.1852 -0.3737
 6726SOL    HW131811   2.281   0.973   3.739  1.3304 -0.8135 -0.0620
 6726SOL    HW231812   2.261   1.093   3.817  1.8189  0.3535  0.9425
 6727SOL     OW31813   3.300   1.443   7.502  0.3316  0.0232  0.1613
 6727SOL    HW131814   3.286   1.491   7.583 -0.3643 -0.0682  0.0927
 6727SOL    HW231815   3.233   1.487   7.449 -0.4985 -1.3656  0.0431
 6728SOL     OW31816   2.659   4.067   0.591  0.5711  0.0857  0.1799
 6728SOL    HW131817   2.727   4.117   0.546  1.1013  0.7971  1.8158
 6728SOL    HW231818   2.594   4.043   0.524  2.2795  1.9360 -2.1336
 6729SOL     OW31819   0.206   2.513   8.351  0.6468 -0.1823 -0.2524
 6729SOL    HW131820   0.284   2.459   8.351  1.9179  1.6642 -2.2569
 6729SOL    HW231821   0.184   2.511   8.445  2.3470 -1.4817  0.1056
 6730SOL     OW31822   1.297   3.000  10.508 -0.5140  0.3510 -0.1353
 6730SOL    HW131823   1.305   2.947  10.587  0.4534 -0.0767 -0.5077
 6730SOL    HW231824   1.237   3.068  10.537  0.1866  1.1239 -0.4723
 6731SOL     OW31825   4.225   4.595   4.767  0.0436  0.2771 -0.2716
 6731SOL    HW131826   4.272   4.645   4.833 -1.4072 -1.1360  1.8434
 6731SOL    HW231827   4.139   4.634   4.782 -0.1336 -0.3213  0.2687
 6732SOL     OW31828   4.666   3.260  12.975  0.3489 -0.0622 -0.1633
 6732SOL    HW131829   4.611   3.260  12.897 -0.7901 -1.0635  0.6204
 6732SOL    HW231830   4.734   3.193  12.966  0.3139 -0.3338  1.5385
 6733SOL     OW31831   2.601   1.234  17.577  0.1201 -0.2975  0.1344
 6733SOL    HW131832   2.530   1.243  17.640  0.8357  6.4947 -0.1109
 6733SOL    HW231833   2.661   1.298  17.613  0.7675  0.5396 -2.4171
 6734SOL     OW31834   4.726   2.747   9.348 -0.3018  0.2641  0.2394
 6734SOL    HW131835   4.683   2.745   9.262 -2.0802 -1.3569  1.1506
 6734SOL    HW231836   0.014   2.838   9.368  1.1409  0.2127 -1.1869
 6735SOL     OW31837   0.251   1.678   1.211  0.0367 -0.5802  0.0064
 6735SOL    HW131838   0.181   1.632   1.255  0.0182 -0.6599 -0.1057
 6735SOL    HW231839   0.278   1.617   1.142 -1.5725 -1.5646  0.2605
 6736SOL     OW31840   0.017   1.306   3.153  0.0522 -0.3343 -0.4445
 6736SOL    HW131841   0.031   1.392   3.193 -1.8291 -0.5148  0.6011
 6736SOL    HW231842   0.077   1.247   3.199 -1.6586 -0.0667  2.1488
 6737SOL     OW31843   3.161   0.773  17.035 -0.4130 -0.1126  0.3191
 6737SOL    HW131844   3.092   0.711  17.060 -0.1727 -0.2235  0.7030
 6737SOL    HW231845   3.239   0.719  17.040 -0.1897  0.2092  0.2689
 6738SOL     OW31846   3.402   0.808   5.226 -0.3691 -0.2968  0.4997
 6738SOL    HW131847   3.313   0.822   5.256 -0.5214 -1.0572  0.3943
 6738SOL    HW231848   3.455   0.794   5.305  3.2079  0.8875 -1.6792
 6739SOL     OW31849   3.469   3.466  12.020 -0.3964 -0.1470 -0.1437
 6739SOL    HW131850   3.527   3.533  11.983 -0.5734 -0.0577 -0.2592
 6739SOL    HW231851   3.515   3.458  12.104 -2.8924 -1.2596  1.1106
 6740SOL     OW31852   1.025   1.730   6.297 -0.2632 -0.1322 -0.1961
 6740SOL    HW131853   1.068   1.676   6.230 -1.2266  1.2604 -1.9314
 6740SOL    HW231854   1.023   1.818   6.259 -1.5981 -0.7352 -1.5319
 6741SOL     OW31855   0.748   0.155  11.108  0.3586  0.1161 -0.7593
 6741SOL    HW131856   0.775   0.243  11.134 -0.4489 -0.0118  0.4965
 6741SOL    HW231857   0.660   0.163  11.073  0.3189  0.7085 -0.5082
 6742SOL     OW31858   1.340   1.492   0.346 -0.1176 -0.3011  0.1725
 6742SOL    HW131859   1.407   1.428   0.373 -0.3366 -0.5893  0.0333
 6742SOL    HW231860   1.355   1.492   0.251 -2.6652 -2.2609 -0.2313
 6743SOL     OW31861   1.341   0.839   5.038  0.7671 -0.4920  0.1129
 6743SOL    HW131862   1.348   0.816   5.131 -0.8653  2.2188  0.9069
 6743SOL    HW231863   1.305   0.927   5.044  0.9550 -0.4040 -0.0769
 6744SOL     OW31864   0.155   2.798   7.694  0.3393 -0.4387 -0.1219
 6744SOL    HW131865   0.251   2.797   7.697  0.3470  2.4651  0.6950
 6744SOL    HW231866   0.126   2.741   7.766  2.8286 -1.3908  0.1500
 6745SOL     OW31867   3.892   4.458  12.553 -0.4703  0.1533  0.2880
 6745SOL    HW131868   3.947   4.523  12.509 -0.8320  0.5334  0.3995
 6745SOL    HW231869   3.875   4.391  12.487  2.9452  0.1059 -0.5589
 6746SOL     OW31870   0.685   0.143   3.755 -0.4802 -0.1825  0.3257
 6746SOL    HW131871   0.620   0.073   3.741  0.1294 -0.8948  1.0619
 6746SOL    HW231872   0.680   0.158   3.849  1.1837  1.0483  0.2147
 6747SOL     OW31873   3.445   0.514   2.344  0.2691 -0.7503 -0.4879
 6747SOL    HW131874   3.453   0.598   2.299  1.9264 -0.5129  0.2512
 6747SOL    HW231875   3.374   0.540   2.402  0.7092 -1.6128  0.4217
 6748SOL     OW31876   0.875   0.747   1.722 -0.3546 -0.2421  0.7342
 6748SOL    HW131877   0.919   0.808   1.781  0.6576  0.0735 -0.3481
 6748SOL    HW231878   0.857   0.668   1.773 -1.2941 -2.2291 -2.6265
 6749SOL     OW31879   4.542   1.106   2.750 -0.5935  0.6586  0.0209
 6749SOL    HW131880   4.534   1.160   2.829 -2.0582  2.1318 -1.1308
 6749SOL    HW231881   4.501   1.178   2.702  2.5587  1.0438 -2.0448
 6750SOL     OW31882   3.722   0.371   1.647 -0.1964  0.0990  0.1196
 6750SOL    HW131883   3.687   0.419   1.722 -1.2297 -0.1733 -0.1893
 6750SOL    HW231884   3.782   0.438   1.614 -0.0224 -0.1273 -0.0258
 6751SOL     OW31885   1.659   3.713   7.338  0.0846  0.2053 -0.1031
 6751SOL    HW131886   1.630   3.803   7.350  0.0050  0.4945 -2.5420
 6751SOL    HW231887   1.717   3.716   7.263  1.3893  0.4137  0.9270
 6752SOL     OW31888   4.592   2.699   9.123 -0.4065 -0.5136  0.4106
 6752SOL    HW131889   4.556   2.627   9.071  0.6432 -1.6309  1.2409
 6752SOL    HW231890   4.548   2.775   9.086  0.2829 -1.9041 -3.2821
 6753SOL     OW31891   4.432   0.326  12.750  0.3393  0.0329  0.6368
 6753SOL    HW131892   4.501   0.362  12.693 -0.6362  1.8748  0.6152
 6753SOL    HW231893   4.442   0.380  12.828  1.3885 -3.4653  2.8895
 6754SOL     OW31894   3.792   3.758  14.059 -0.1514  0.3523  0.4226
 6754SOL    HW131895   3.741   3.678  14.049 -2.2858  1.6791  0.8158
 6754SOL    HW231896   3.842   3.760  13.978  3.1476  0.3557  2.4541
 6755SOL     OW31897   4.667   3.759   9.575  0.0456 -0.4029 -0.3611
 6755SOL    HW131898   4.645   3.814   9.499  2.0817  1.2342  0.2311
 6755SOL    HW231899   0.024   3.739   9.559  0.3103 -0.3871  1.1796
 6756SOL     OW31900   1.010   1.375   4.423 -0.8537 -0.7785 -0.5091
 6756SOL    HW131901   1.079   1.310   4.437  0.2576  0.2122 -1.3920
 6756SOL    HW231902   0.938   1.342   4.477  0.8578 -0.8753  1.7197
 6757SOL     OW31903   1.219   2.177   9.294  0.2888 -0.7555  0.4944
 6757SOL    HW131904   1.169   2.198   9.372  0.2372  1.6350 -0.1949
 6757SOL    HW231905   1.219   2.260   9.247  0.9227 -0.9560  0.1408
 6758SOL     OW31906   0.506   3.829  15.092 -0.3160 -0.4137 -0.4446
 6758SOL    HW131907   0.414   3.823  15.065  0.1843 -1.2507 -1.9809
 6758SOL    HW231908   0.507   3.773  15.169  0.4466 -2.3142 -1.8463
 6759SOL     OW31909   3.157   2.885   3.195  0.2398 -0.1101  0.0063
 6759SOL    HW131910   3.247   2.863   3.223  0.4865 -1.0511 -1.5561
 6759SOL    HW231911   3.156   2.840   3.111 -0.6162 -2.6729  1.3872
 6760SOL     OW31912   2.186   2.138   5.513 -0.0842 -0.3248 -0.5341
 6760SOL    HW131913   2.216   2.119   5.424  0.8849 -0.0160 -0.2745
 6760SOL    HW231914   2.239   2.217   5.522 -0.2384 -0.1691 -0.9602
 6761SOL     OW31915   0.280   2.519   9.728  0.7628 -0.1361 -0.2118
 6761SOL    HW131916   0.202   2.533   9.781  1.3145 -0.4163  0.6755
 6761SOL    HW231917   0.265   2.579   9.654  1.9156  0.2471 -0.1358
 6762SOL     OW31918   4.203   1.251   7.901  0.0167 -0.2565 -0.1754
 6762SOL    HW131919   4.181   1.315   7.968 -0.7085 -1.4162  0.7125
 6762SOL    HW231920   4.120   1.241   7.853 -0.5138 -2.0269  1.1124
 6763SOL     OW31921   4.138   1.071   8.581 -0.4929  0.7405 -0.4432
 6763SOL    HW131922   4.112   0.981   8.599  1.1536  0.4536  0.4211
 6763SOL    HW231923   4.224   1.061   8.539  0.3285  3.0110  0.7083
 6764SOL     OW31924   3.451   1.322   2.390  0.0444 -0.5699  0.3953
 6764SOL    HW131925   3.389   1.272   2.338 -3.4481  2.3984  1.6717
 6764SOL    HW231926   3.429   1.415   2.381 -1.9971 -1.2618 -1.5376
 6765SOL     OW31927   3.602   4.590  12.396 -0.5002 -0.0071 -0.0525
 6765SOL    HW131928   3.588   4.647  12.471  1.9127  2.7432 -1.7192
 6765SOL    HW231929   3.675   4.632  12.351 -1.0456  1.3912  0.3638
 6766SOL     OW31930   4.356   2.864   9.992  0.3969  0.4576 -0.0706
 6766SOL    HW131931   4.315   2.782   9.966  0.8724  0.1326  0.1952
 6766SOL    HW231932   4.296   2.917   9.940 -1.6725 -2.0076 -0.1867
 6767SOL     OW31933   3.320   2.953   1.251  0.3139  1.0654  0.1975
 6767SOL    HW131934   3.357   2.971   1.164  1.1044 -2.1121 -0.1108
 6767SOL    HW231935   3.233   2.993   1.249 -1.3138 -2.5691 -2.2190
 6768SOL     OW31936   0.204   2.682  10.759 -0.2100 -0.8960  0.7235
 6768SOL    HW131937   0.233   2.753  10.817  1.0448 -0.0711 -0.9094
 6768SOL    HW231938   0.121   2.658  10.800  0.3555  0.0784  2.4753
 6769SOL     OW31939   3.913   2.995   4.276  0.6276  0.7376 -0.6911
 6769SOL    HW131940   3.952   2.915   4.311  0.2136  1.1624  0.7499
 6769SOL    HW231941   3.986   3.050   4.248  0.6462  1.1641  0.1608
 6770SOL     OW31942   3.299   3.561   8.305 -0.1556 -0.6341  0.0620
 6770SOL    HW131943   3.228   3.512   8.345  2.5953 -3.4629  1.5109
 6770SOL    HW231944   3.295   3.641   8.358 -0.0105 -1.5931  1.5298
 6771SOL     OW31945   4.333   2.837   3.984 -0.8899 -0.3740 -0.1671
 6771SOL    HW131946   4.411   2.790   4.016 -0.6214 -0.4770 -0.9561
 6771SOL    HW231947   4.383   2.900   3.933 -0.5185 -2.2667 -2.1461
 6772SOL     OW31948   0.733   0.893   6.234 -0.3451 -0.0408  0.2588
 6772SOL    HW131949   0.732   0.983   6.266  2.0691 -0.4978  1.6625
 6772SOL    HW231950   0.769   0.853   6.313  2.0214  1.1262 -0.2401
 6773SOL     OW31951   3.470   0.032  15.912  0.7169  0.3926 -0.4479
 6773SOL    HW131952   3.445   4.693  15.966  0.4063 -0.1422 -1.3196
 6773SOL    HW231953   3.476   4.716  15.831  0.8468 -1.4153  0.6992
 6774SOL     OW31954   2.131   4.721   9.461  0.2332 -0.0413 -0.5247
 6774SOL    HW131955   2.106   4.661   9.390 -1.6824  0.4141 -0.2524
 6774SOL    HW231956   2.219   4.701   9.493 -0.0803  2.6172  1.9991
 6775SOL     OW31957   3.722   2.596  17.047 -0.1831 -1.0713  0.0584
 6775SOL    HW131958   3.723   2.514  16.997 -1.7280 -1.1101  0.0996
 6775SOL    HW231959   3.726   2.654  16.971  0.7754 -1.5420 -0.2487
 6776SOL     OW31960   3.264   0.757   0.372 -0.2186 -0.8716 -0.0743
 6776SOL    HW131961   3.256   0.701   0.295 -2.2868 -0.1688 -0.3834
 6776SOL    HW231962   3.265   0.692   0.443  1.7827 -0.5434  0.1921
 6777SOL     OW31963   4.228   0.921   2.401 -0.4025  0.6217  0.7520
 6777SOL    HW131964   4.315   0.952   2.374 -0.1191 -0.0744  0.8695
 6777SOL    HW231965   4.223   0.943   2.494 -0.8250  1.0994  0.6142
 6778SOL     OW31966   3.158   1.578   9.520 -0.3925  0.3966 -0.3640
 6778SOL    HW131967   3.069   1.595   9.553 -0.5717  0.2786 -0.7871
 6778SOL    HW231968   3.214   1.608   9.592 -2.3585  2.4260  0.3203
 6779SOL     OW31969   0.879   3.880   8.533 -0.3014 -0.1490  0.7758
 6779SOL    HW131970   0.930   3.868   8.454 -1.1653 -1.5704  0.4288
 6779SOL    HW231971   0.789   3.872   8.502  0.3030 -0.7546 -0.7846
 6780SOL     OW31972   1.450   0.776   4.281 -0.1674  0.0697 -0.1693
 6780SOL    HW131973   1.485   0.808   4.198  0.7175 -3.8669 -1.2867
 6780SOL    HW231974   1.531   0.738   4.314  0.1492 -2.1733 -3.5917
 6781SOL     OW31975   2.641   1.326   6.151 -0.5784  0.1388  0.4673
 6781SOL    HW131976   2.581   1.258   6.180 -1.7801  0.7940 -0.4524
 6781SOL    HW231977   2.625   1.395   6.216  1.2060  0.1917  0.8306
 6782SOL     OW31978   2.076   0.901   0.167 -0.1214  0.2497  0.6692
 6782SOL    HW131979   2.060   0.817   0.124  1.0272  0.0010  0.7235
 6782SOL    HW231980   2.046   0.880   0.255 -0.0822  1.6749  1.0217
 6783SOL     OW31981   0.480   4.384   1.583 -0.1609  0.0758  0.1646
 6783SOL    HW131982   0.450   4.396   1.492 -0.4131 -1.9124 -0.0190
 6783SOL    HW231983   0.497   4.476   1.603  1.0503 -0.2012  0.3977
 6784SOL     OW31984   2.911   0.628   3.999  0.5057 -0.0663 -0.4801
 6784SOL    HW131985   2.842   0.562   3.998 -1.4469  2.0033 -1.0691
 6784SOL    HW231986   2.867   0.713   4.004 -1.1547 -0.7817 -2.6754
 6785SOL     OW31987   2.291   1.005   5.917  0.0940 -0.1848 -0.3051
 6785SOL    HW131988   2.197   0.991   5.911 -0.1096  1.5151 -1.1352
 6785SOL    HW231989   2.290   1.055   5.998 -0.4577  0.2072 -0.5551
 6786SOL     OW31990   3.646   1.577   7.765 -0.3292  0.0856  0.0382
 6786SOL    HW131991   3.670   1.538   7.681 -1.1980  2.5621 -1.3699
 6786SOL    HW231992   3.550   1.578   7.760 -0.1636 -1.1355 -3.2379
 6787SOL     OW31993   3.579   3.784   3.849 -0.3758 -0.5608 -0.1720
 6787SOL    HW131994   3.602   3.693   3.869 -0.8885 -0.4838  0.8017
 6787SOL    HW231995   3.559   3.773   3.756 -0.3932  0.3677 -0.2768
 6788SOL     OW31996   0.580   1.360  11.852  0.1011  0.3910  0.0488
 6788SOL    HW131997   0.570   1.270  11.883  2.1926 -0.2142 -1.0094
 6788SOL    HW231998   0.510   1.408  11.895 -0.9228  0.2477 -1.4435
 6789SOL     OW31999   1.702   2.519   8.671 -0.2303  0.2622  0.0871
 6789SOL    HW132000   1.616   2.552   8.647 -0.7760 -1.1476  0.0834
 6789SOL    HW232001   1.705   2.453   8.601  0.6693 -0.5787  0.9215
 6790SOL     OW32002   0.496   2.901   9.304 -0.2138  0.3055  0.4866
 6790SOL    HW132003   0.512   2.842   9.378  1.4319  0.0592 -0.0545
 6790SOL    HW232004   0.454   2.837   9.247 -1.9918  3.3405 -1.5340
 6791SOL     OW32005   0.037   1.529  13.385  0.5496 -0.2951 -0.4298
 6791SOL    HW132006   0.132   1.521  13.375  0.8590  0.0261  2.3563
 6791SOL    HW232007   0.028   1.506  13.477 -2.1340  2.7324  0.1027
 6792SOL     OW32008   1.429   2.867   5.560  0.6346 -0.5694 -0.2223
 6792SOL    HW132009   1.348   2.882   5.511  0.9003 -0.2117 -0.5529
 6792SOL    HW232010   1.438   2.944   5.617 -0.6584 -1.0772  0.6649
 6793SOL     OW32011   0.938   4.648   0.606  0.1488 -0.4939  0.2467
 6793SOL    HW132012   0.976   4.575   0.559  0.9733  0.0947  0.0032
 6793SOL    HW232013   0.958   4.633   0.699 -2.4179  1.7195  1.1547
 6794SOL     OW32014   3.668   2.211  14.087  0.2451  0.1526  0.1774
 6794SOL    HW132015   3.759   2.185  14.076 -0.0761 -0.8273 -0.1494
 6794SOL    HW232016   3.653   2.181  14.177 -2.5688 -1.6247 -0.8733
 6795SOL     OW32017   0.869   1.952   4.648 -0.2714  0.2144  0.0310
 6795SOL    HW132018   0.841   2.026   4.593 -1.5835  0.4273  0.9947
 6795SOL    HW232019   0.784   1.936   4.690 -0.5929 -2.1181 -1.4928
 6796SOL     OW32020   1.477   2.297   3.546 -0.2189  0.1188 -0.8638
 6796SOL    HW132021   1.407   2.297   3.481 -1.2279  1.8481  0.2147
 6796SOL    HW232022   1.558   2.301   3.496  0.1517 -0.3928 -0.3158
 6797SOL     OW32023   1.224   4.091   3.138 -0.0472 -0.1762  0.1081
 6797SOL    HW132024   1.153   4.052   3.087  1.0747 -0.8307 -0.9655
 6797SOL    HW232025   1.287   4.021   3.121  0.3081  0.0018  0.7034
 6798SOL     OW32026   3.210   2.687   4.851 -0.1676 -0.7305  0.5819
 6798SOL    HW132027   3.196   2.677   4.945 -0.8859 -2.0018  0.3330
 6798SOL    HW232028   3.256   2.605   4.833  0.1705 -0.1530 -1.2196
 6799SOL     OW32029   0.068   1.965   6.328 -0.6528  0.1698 -0.0366
 6799SOL    HW132030   0.066   1.890   6.388  1.3775  0.4464  0.3651
 6799SOL    HW232031   4.720   2.005   6.355 -0.6832  0.9691 -1.3171
 6800SOL     OW32032   2.182   2.240   3.237 -0.0847 -0.3515 -0.1850
 6800SOL    HW132033   2.253   2.185   3.203 -0.0940  0.0244 -0.8036
 6800SOL    HW232034   2.105   2.193   3.204  0.5979 -1.2408 -0.5262
 6801SOL     OW32035   2.658   3.372   9.220  0.4028  0.2453 -0.5771
 6801SOL    HW132036   2.691   3.288   9.186 -3.2530 -0.7608 -1.7086
 6801SOL    HW232037   2.714   3.378   9.296  0.7337  0.1107 -0.8118
 6802SOL     OW32038   0.618   2.501  14.681 -0.3381 -0.2508  0.3769
 6802SOL    HW132039   0.706   2.535  14.665  0.0687 -1.3901  0.1671
 6802SOL    HW232040   0.636   2.490  14.774  1.8576  0.1975  0.0215
 6803SOL     OW32041   4.642   0.349   9.234 -0.4578 -0.2277 -0.0560
 6803SOL    HW132042   4.606   0.436   9.215 -1.1524 -0.9612 -2.1366
 6803SOL    HW232043   4.632   0.310   9.147 -1.6950 -0.3993  0.1629
 6804SOL     OW32044   0.529   2.795   2.211  0.1870  0.1233  0.1462
 6804SOL    HW132045   0.445   2.788   2.164  0.1140 -0.6856  0.3913
 6804SOL    HW232046   0.522   2.885   2.243  0.2245  0.0210  0.4429
 6805SOL     OW32047   3.490   2.712   5.829 -0.7786 -0.1238  0.7237
 6805SOL    HW132048   3.583   2.693   5.844 -0.5828  0.8920  0.8247
 6805SOL    HW232049   3.444   2.629   5.834 -1.4948  0.2839  0.8681
 6806SOL     OW32050   0.609   0.561   2.540 -0.0984 -0.1870 -0.2021
 6806SOL    HW132051   0.701   0.566   2.514  0.2561 -1.8165  0.8029
 6806SOL    HW232052   0.578   0.648   2.515 -1.7767 -0.2001  1.9301
 6807SOL     OW32053   1.320   1.437   5.410 -0.0859  0.5139 -0.4019
 6807SOL    HW132054   1.350   1.373   5.475  1.0936  1.2100 -0.2626
 6807SOL    HW232055   1.359   1.397   5.333  0.3622 -2.3552  1.3022
 6808SOL     OW32056   2.452   3.707   6.513  0.6799  0.1630  0.0533
 6808SOL    HW132057   2.402   3.736   6.437 -1.4707 -0.2957  1.2884
 6808SOL    HW232058   2.535   3.747   6.490 -0.8706  1.4347 -3.2340
 6809SOL     OW32059   0.108   1.035   9.111  0.2574 -0.0019 -0.2890
 6809SOL    HW132060   0.050   1.095   9.158  1.3484  0.1041  0.9110
 6809SOL    HW232061   0.163   1.100   9.067 -0.3203 -1.6102 -3.4318
 6810SOL     OW32062   3.623   2.306   3.383 -0.7039 -0.3265 -0.2417
 6810SOL    HW132063   3.558   2.259   3.330 -0.4171  0.4129 -1.2413
 6810SOL    HW232064   3.667   2.354   3.314  2.5368 -0.1248  1.9813
 6811SOL     OW32065   1.228   4.215   2.420  0.4203 -0.1397 -0.1733
 6811SOL    HW132066   1.289   4.201   2.347  0.8766 -0.0935  0.1953
 6811SOL    HW232067   1.278   4.294   2.443 -0.4456  0.3463  0.0238
 6812SOL     OW32068   3.475   0.944   1.572  0.0498  0.1818 -0.3472
 6812SOL    HW132069   3.529   0.886   1.519  0.4237  0.2664 -0.0671
 6812SOL    HW232070   3.538   1.015   1.584 -0.2355  0.1753  1.1926
 6813SOL     OW32071   3.127   4.570  16.009 -0.5397  0.1842 -0.2203
 6813SOL    HW132072   3.215   4.603  16.025 -1.8332  3.0399  0.9858
 6813SOL    HW232073   3.145   4.527  15.925  1.7246 -0.0806  0.4111
 6814SOL     OW32074   0.573   4.634   5.090 -0.1986 -0.0243 -0.0465
 6814SOL    HW132075   0.560   4.619   5.183 -3.3198  0.9409 -0.3342
 6814SOL    HW232076   0.555   4.547   5.055  0.9131 -0.5392  0.6475
 6815SOL     OW32077   0.702   0.844   4.211 -0.2714 -0.4923  0.6453
 6815SOL    HW132078   0.728   0.851   4.303 -1.1928 -1.5528  0.9822
 6815SOL    HW232079   0.616   0.885   4.206  0.6126  1.0098 -2.4564
 6816SOL     OW32080   0.825   3.169   4.909 -0.2903  0.3939  0.2522
 6816SOL    HW132081   0.863   3.093   4.865  1.2268  0.7471  0.9430
 6816SOL    HW232082   0.764   3.201   4.843  0.8921 -0.6536 -1.3305
 6817SOL     OW32083   0.185   4.235  15.981  0.0084 -0.3632 -0.3935
 6817SOL    HW132084   0.103   4.220  16.026 -2.0630  2.0884 -3.3046
 6817SOL    HW232085   0.246   4.238  16.054  1.7495  0.1536 -1.8605
 6818SOL     OW32086   4.190   2.926   1.219 -0.1288 -0.2851 -0.1738
 6818SOL    HW132087   4.210   3.015   1.250  0.3700 -0.0613 -1.1445
 6818SOL    HW232088   4.277   2.888   1.205  0.5731  1.1626  0.2371
 6819SOL     OW32089   0.844   3.763  12.019  0.1826  0.0597  0.2312
 6819SOL    HW132090   0.876   3.735  12.105  1.7186 -0.7250 -0.6034
 6819SOL    HW232091   0.762   3.715  12.004 -0.1036  0.3900  0.7387
 6820SOL     OW32092   4.269   0.781   6.377 -0.5247 -0.0698  0.5512
 6820SOL    HW132093   4.352   0.767   6.332  0.7677 -1.7916  3.4910
 6820SOL    HW232094   4.296   0.798   6.467 -1.0535 -1.2444  0.9357
 6821SOL     OW32095   0.158   2.808   5.094  0.4936 -0.3326 -0.1112
 6821SOL    HW132096   0.137   2.844   5.008  1.4377  0.1255 -0.1444
 6821SOL    HW232097   0.247   2.838   5.108  0.4749 -0.2936 -0.0758
 6822SOL     OW32098   4.396   0.348   6.688 -0.2527  0.1121  0.6766
 6822SOL    HW132099   4.482   0.346   6.646 -0.6124 -1.8220  0.0371
 6822SOL    HW232100   4.408   0.399   6.768 -1.6457 -0.3178  1.1663
 6823SOL     OW32101   2.319   3.497   7.603 -0.7077 -0.5671 -0.6741
 6823SOL    HW132102   2.305   3.420   7.657  3.6843  0.9947  2.7506
 6823SOL    HW232103   2.309   3.571   7.663  0.1787  0.1431 -1.3965
 6824SOL     OW32104   1.914   0.258   2.708  0.0110  0.1684  0.2218
 6824SOL    HW132105   1.932   0.268   2.802 -0.4054  0.0785  0.3117
 6824SOL    HW232106   1.827   0.296   2.719  0.0448  0.3260 -0.0656
 6825SOL     OW32107   2.340   1.302   4.363 -0.0622  0.5604  0.1996
 6825SOL    HW132108   2.263   1.248   4.346  2.0898 -1.5503 -2.7908
 6825SOL    HW232109   2.373   1.314   4.274  0.6352 -0.2006  0.3585
 6826SOL     OW32110   4.713   2.939   4.457 -0.4135 -0.3292 -0.2352
 6826SOL    HW132111   4.645   2.981   4.510  0.6405  1.3228 -0.1939
 6826SOL    HW232112   4.716   2.998   4.381 -0.0771  0.0932  0.1045
 6827SOL     OW32113   1.374   1.114  12.898  0.5519 -0.0876 -0.6304
 6827SOL    HW132114   1.434   1.186  12.916 -1.2505  1.9161 -2.5824
 6827SOL    HW232115   1.295   1.150  12.939  0.3537  1.7091 -2.6117
 6828SOL     OW32116   0.177   0.692   3.965 -0.1631  0.4631 -0.9600
 6828SOL    HW132117   0.092   0.714   4.002  0.5976 -0.0340  1.0853
 6828SOL    HW232118   0.179   0.597   3.955  1.9026  0.3153  0.8799
 6829SOL     OW32119   3.523   0.503  15.992  0.1728  0.6629 -0.0974
 6829SOL    HW132120   3.450   0.552  15.956 -0.1992  0.2870  0.1503
 6829SOL    HW232121   3.599   0.561  15.982 -1.5381  3.4841  3.4256
 6830SOL     OW32122   1.721   2.408  16.687 -0.1884  0.0542 -0.7807
 6830SOL    HW132123   1.709   2.383  16.779  1.5955  0.7320 -0.3689
 6830SOL    HW232124   1.710   2.325  16.640  1.0852 -1.3485  1.4088
 6831SOL     OW32125   0.245   1.818   3.217  0.1839 -0.3269 -0.1248
 6831SOL    HW132126   0.311   1.878   3.252  0.7555 -0.6248 -0.6728
 6831SOL    HW232127   0.306   1.796   3.146  2.7802 -1.4252  2.4125
 6832SOL     OW32128   4.457   2.193   4.628  0.1252  0.0615 -0.0376
 6832SOL    HW132129   4.388   2.158   4.685  0.7909 -0.1763  0.6272
 6832SOL    HW232130   4.402   2.208   4.551 -1.6665  1.8190  1.5560
 6833SOL     OW32131   3.450   2.521   5.088  0.3887  0.2717 -0.4277
 6833SOL    HW132132   3.434   2.469   5.167  2.7604 -0.1238 -0.2267
 6833SOL    HW232133   3.545   2.515   5.087  0.4424  1.1898 -0.1589
 6834SOL     OW32134   0.608   1.218  12.659 -0.0551  0.4004  0.0471
 6834SOL    HW132135   0.584   1.288  12.598  1.2296  0.1460 -0.7554
 6834SOL    HW232136   0.545   1.233  12.729  3.0242  0.0725  2.8938
 6835SOL     OW32137   1.076   4.097   3.492  0.4683  0.2131  0.2811
 6835SOL    HW132138   1.006   4.060   3.546  0.2321  1.3474  0.7493
 6835SOL    HW232139   1.043   4.073   3.406 -0.1906  2.0479  0.0140
 6836SOL     OW32140   0.165   0.809  17.705  0.0803  0.8268 -0.6350
 6836SOL    HW132141   0.165   0.904  17.711 -2.0578  0.6718  1.7257
 6836SOL    HW232142   0.152   0.786   0.058  1.9931 -0.5665 -0.7200
 6837SOL     OW32143   0.674   2.118   4.508 -0.5667  0.4666  0.8999
 6837SOL    HW132144   0.585   2.107   4.540 -0.6083  0.2394  0.7054
 6837SOL    HW232145   0.659   2.095   4.416 -0.8872  2.2250  0.5076
 6838SOL     OW32146   4.341   1.279   9.125 -0.2508 -0.3432  0.3625
 6838SOL    HW132147   4.299   1.219   9.064 -0.6675  0.3546 -0.0420
 6838SOL    HW232148   4.305   1.240   9.205  0.6519 -1.6056  0.1567
 6839SOL     OW32149   2.723   4.239   7.385 -0.1741  0.5983  0.2076
 6839SOL    HW132150   2.635   4.201   7.384 -0.3933  1.0954  0.7312
 6839SOL    HW232151   2.706   4.326   7.349 -3.3225  0.0876  0.4807
 6840SOL     OW32152   0.592   0.015   1.247 -0.0373 -0.3367 -0.3832
 6840SOL    HW132153   0.611   4.731   1.155  1.0070  0.8654 -0.4109
 6840SOL    HW232154   0.625   0.104   1.255 -1.1077  0.1571 -1.5872
 6841SOL     OW32155   2.330   1.307  11.717  0.0176  0.4482  0.4939
 6841SOL    HW132156   2.257   1.364  11.743 -0.0206  0.0351  1.2751
 6841SOL    HW232157   2.388   1.375  11.683  2.4616 -0.4177  2.9184
 6842SOL     OW32158   0.963   0.934   1.902 -0.2595 -0.0836 -0.3213
 6842SOL    HW132159   0.903   0.987   1.955  1.6814  0.7944  1.0224
 6842SOL    HW232160   1.038   0.958   1.958 -2.6910  0.9249  2.5272
 6843SOL     OW32161   2.710   4.543   0.623 -0.4461  0.1993  0.1323
 6843SOL    HW132162   2.683   4.635   0.634 -2.3012 -0.4404  0.8628
 6843SOL    HW232163   2.664   4.491   0.688 -0.9035  0.0791 -0.2865
 6844SOL     OW32164   0.030   3.086   4.772 -0.5615  0.0704  0.1202
 6844SOL    HW132165   0.006   3.003   4.813 -1.5443 -0.1313 -0.8543
 6844SOL    HW232166   4.693   3.086   4.708 -2.3487 -1.7980  2.1341
 6845SOL     OW32167   2.009   0.126   7.233  0.1822  0.2192  0.4157
 6845SOL    HW132168   1.985   0.186   7.163  0.1509  0.3237  0.5169
 6845SOL    HW232169   2.025   0.194   7.297  2.6545  0.4407 -0.4271
 6846SOL     OW32170   0.313   2.979  16.258 -0.2639  0.1590 -0.3253
 6846SOL    HW132171   0.375   3.040  16.218  0.7083 -0.9306 -0.4754
 6846SOL    HW232172   0.252   2.959  16.187 -0.8659  1.3864 -0.1441
 6847SOL     OW32173   2.631   1.062   3.876 -0.0766 -0.3331  0.0725
 6847SOL    HW132174   2.547   1.054   3.830  0.0645 -1.3864 -0.0091
 6847SOL    HW232175   2.621   1.148   3.917  1.3640  0.2056 -0.7257
 6848SOL     OW32176   2.125   2.241  13.411 -0.0592 -0.3261 -0.1914
 6848SOL    HW132177   2.036   2.231  13.376  0.6252 -0.4255 -1.9077
 6848SOL    HW232178   2.161   2.313  13.359  0.3086 -0.1961  0.2479
 6849SOL     OW32179   3.887   3.606  17.149 -0.1411 -0.3119 -0.5135
 6849SOL    HW132180   3.897   3.699  17.172 -2.5320  0.0441 -0.8849
 6849SOL    HW232181   3.911   3.606  17.056  2.6607 -0.3782  0.2303
 6850SOL     OW32182   4.719   4.648  10.446  0.4412  0.4729  0.2619
 6850SOL    HW132183   4.642   4.701  10.426  0.3237  0.0581 -0.3842
 6850SOL    HW232184   0.006   4.639  10.354 -0.5376 -1.6764  0.2508
 6851SOL     OW32185   2.404   0.522   2.154 -0.6818  0.0497  0.0324
 6851SOL    HW132186   2.338   0.577   2.195 -0.6304  1.0198 -1.2027
 6851SOL    HW232187   2.444   0.580   2.090 -1.2056  1.3319  0.8794
 6852SOL     OW32188   1.773   4.297   8.627  0.1264  0.2285  0.2040
 6852SOL    HW132189   1.728   4.299   8.711 -0.5080 -3.5034 -0.0616
 6852SOL    HW232190   1.771   4.391   8.605 -1.9114  0.1199 -0.0893
 6853SOL     OW32191   3.099   4.141   7.242  0.2206  0.2920  0.9179
 6853SOL    HW132192   3.008   4.114   7.227  0.1664  0.5805  0.7105
 6853SOL    HW232193   3.121   4.104   7.327  2.6132  0.0285  0.1834
 6854SOL     OW32194   0.373   0.426  15.192 -0.3416 -0.4589  0.3946
 6854SOL    HW132195   0.299   0.483  15.173 -0.0203  0.3713  1.5765
 6854SOL    HW232196   0.447   0.467  15.147 -1.1014  0.0952 -0.3547
 6855SOL     OW32197   2.729   3.047   2.997  0.5992 -0.3719  0.5260
 6855SOL    HW132198   2.712   2.953   3.005 -0.8687  0.0627  2.6395
 6855SOL    HW232199   2.676   3.078   3.071 -2.5326 -0.3168 -1.7041
 6856SOL     OW32200   0.281   3.235   7.540 -0.1493 -0.4921 -0.1951
 6856SOL    HW132201   0.316   3.297   7.604  0.1596  0.1492 -0.9945
 6856SOL    HW232202   0.233   3.174   7.596 -1.0077  0.1850 -0.1887
 6857SOL     OW32203   0.662   3.104   5.885  0.3436  0.5359  0.1943
 6857SOL    HW132204   0.670   3.199   5.878 -0.9759  0.7345  1.5006
 6857SOL    HW232205   0.746   3.082   5.844  0.4391  0.0739  0.6316
 6858SOL     OW32206   0.904   4.536   2.493  0.1898 -0.6252 -0.2793
 6858SOL    HW132207   0.811   4.555   2.505  0.3918 -0.9465  1.8314
 6858SOL    HW232208   0.901   4.483   2.413 -2.2223 -1.6313  0.4765
 6859SOL     OW32209   0.023   4.092  15.446 -0.4147  0.0948 -0.4561
 6859SOL    HW132210   4.716   4.176  15.466  2.2598  0.4416  3.5721
 6859SOL    HW232211   0.097   4.094  15.506 -2.9275 -1.0449  2.6919
 6860SOL     OW32212   4.156   1.981   3.555 -0.2490  0.4113  0.2600
 6860SOL    HW132213   4.208   1.993   3.634 -0.4850 -0.3094  0.5271
 6860SOL    HW232214   4.077   2.024   3.588 -1.3385 -1.8217  0.5700
 6861SOL     OW32215   1.347   2.599   4.762  0.2837  0.2074  0.1978
 6861SOL    HW132216   1.422   2.620   4.705  0.9459  1.6339  1.6030
 6861SOL    HW232217   1.278   2.578   4.699 -0.8178 -0.8753  1.7815
 6862SOL     OW32218   2.937   1.390   9.607 -0.0160  0.5213  1.2129
 6862SOL    HW132219   3.030   1.379   9.625  0.3978  1.1850 -0.5193
 6862SOL    HW232220   2.911   1.375   9.698 -0.1233  2.1400  1.4435
 6863SOL     OW32221   4.036   2.860   0.947  0.1161 -0.0739  0.0844
 6863SOL    HW132222   4.054   2.938   0.999 -0.8719  0.6172 -0.6192
 6863SOL    HW232223   4.109   2.802   0.967 -0.3238 -0.7959 -0.3770
 6864SOL     OW32224   0.218   2.364   0.259  0.5060 -0.7874  0.6960
 6864SOL    HW132225   0.193   2.455   0.243 -0.0167 -0.4855  3.2512
 6864SOL    HW232226   0.133   2.327   0.283  1.3653 -1.7932  2.1789
 6865SOL     OW32227   2.183   0.085   8.159 -0.1938  0.5852  0.0431
 6865SOL    HW132228   2.183   0.089   8.063  0.5621  0.9420  0.0646
 6865SOL    HW232229   2.153   0.173   8.182 -0.5910  0.4528  0.0485
 6866SOL     OW32230   1.660   1.155   2.972 -0.2582  0.0071 -0.2479
 6866SOL    HW132231   1.569   1.168   2.997  0.0830  0.1180  0.9123
 6866SOL    HW232232   1.657   1.098   2.895  0.2533  1.6533 -1.5022
 6867SOL     OW32233   0.414   0.654   7.334  0.1064 -0.4293 -0.1681
 6867SOL    HW132234   0.334   0.631   7.381  1.2635 -1.3742  1.3429
 6867SOL    HW232235   0.407   0.589   7.264 -0.6591 -2.0898  1.4187
 6868SOL     OW32236   0.575   0.815   3.663  0.9300  0.1397  0.8131
 6868SOL    HW132237   0.639   0.790   3.730  0.4031  0.8411  1.5858
 6868SOL    HW232238   0.492   0.786   3.700  0.4324  0.2622 -0.1955
 6869SOL     OW32239   1.316   1.863   3.246 -0.1825 -0.0060  0.4935
 6869SOL    HW132240   1.360   1.839   3.328 -0.5121 -1.5025  0.2250
 6869SOL    HW232241   1.398   1.891   3.205 -0.2387  1.3561  1.3031
 6870SOL     OW32242   3.805   4.344  15.089 -0.2145  0.5245 -0.3745
 6870SOL    HW132243   3.900   4.332  15.093 -0.7031 -2.7347  1.8224
 6870SOL    HW232244   3.798   4.372  14.998  0.3718  0.1966 -0.5232
 6871SOL     OW32245   3.463   4.075   8.585 -0.0730  0.0008 -0.0274
 6871SOL    HW132246   3.542   4.079   8.639  0.6435 -0.2532 -1.0691
 6871SOL    HW232247   3.395   4.105   8.646  0.4625 -0.0214  0.5764
 6872SOL     OW32248   1.473   2.088   4.425  0.1669  0.1662  0.6527
 6872SOL    HW132249   1.554   2.047   4.395 -0.5337  1.3879 -2.8349
 6872SOL    HW232250   1.498   2.180   4.415  1.3432 -0.4713 -2.1596
 6873SOL     OW32251   0.356   0.024   4.748 -0.0995  0.1694 -0.1319
 6873SOL    HW132252   0.311   4.700   4.808  0.7555 -0.2279  0.1198
 6873SOL    HW232253   0.448   0.006   4.768  0.0207  1.3185  0.3619
 6874SOL     OW32254   3.042   0.995   5.768  0.1459  0.3736  0.0650
 6874SOL    HW132255   2.947   0.985   5.776  0.1742  1.5319  1.7907
 6874SOL    HW232256   3.062   1.063   5.832  0.6606  0.9125 -0.6772
 6875SOL     OW32257   1.888   3.685   5.805  0.1765  0.3080  0.7874
 6875SOL    HW132258   1.865   3.592   5.796 -0.1405  0.5053 -0.4775
 6875SOL    HW232259   1.834   3.714   5.878 -1.1277  0.1119 -0.1009
 6876SOL     OW32260   3.171   2.684   5.947 -0.3042 -0.6218 -0.1391
 6876SOL    HW132261   3.077   2.700   5.936 -0.5374 -2.6733 -1.0614
 6876SOL    HW232262   3.203   2.639   5.870  0.8067  0.9359 -0.5681
 6877SOL     OW32263   0.401   1.590   1.830 -0.2803  0.2895  0.4655
 6877SOL    HW132264   0.480   1.568   1.781  0.0014  2.5606 -0.1453
 6877SOL    HW232265   0.430   1.626   1.914  1.7875 -0.2328 -0.0251
 6878SOL     OW32266   3.549   2.921   4.232 -0.2689 -0.6210  0.4145
 6878SOL    HW132267   3.560   2.998   4.177 -1.6958 -1.1668 -0.6457
 6878SOL    HW232268   3.552   2.966   4.317  0.2056  0.8165 -0.3595
 6879SOL     OW32269   3.670   4.584   9.946  0.1691 -0.3163  0.0462
 6879SOL    HW132270   3.660   4.654   9.882  1.2929 -0.1206  0.0789
 6879SOL    HW232271   3.702   4.518   9.885  2.5911  0.8459  0.0448
 6880SOL     OW32272   1.593   0.242   7.690  0.1517  0.3831 -0.0201
 6880SOL    HW132273   1.564   0.165   7.739 -0.3612  1.3630  1.2198
 6880SOL    HW232274   1.518   0.301   7.702 -0.3305 -0.1570 -0.4219
 6881SOL     OW32275   1.209   2.691  12.927  0.4720  0.3968  0.2649
 6881SOL    HW132276   1.119   2.715  12.907  0.5757 -0.8092 -1.6455
 6881SOL    HW232277   1.200   2.632  13.002 -1.5555 -0.7195 -0.8672
 6882SOL     OW32278   0.214   1.640  16.814  0.1770  1.1794  0.2260
 6882SOL    HW132279   0.209   1.557  16.862 -0.5876  1.3932  0.5165
 6882SOL    HW232280   0.122   1.639  16.790 -0.1548  0.0286  1.5183
 6883SOL     OW32281   4.514   1.110   4.873  0.1793 -0.4267  0.1489
 6883SOL    HW132282   4.450   1.052   4.913 -0.5013  1.7428  2.1744
 6883SOL    HW232283   4.528   1.173   4.944  1.8951  1.0185 -1.4519
 6884SOL     OW32284   1.670   3.779   5.935  0.0314  0.6068 -0.0642
 6884SOL    HW132285   1.586   3.738   5.916  0.9304 -0.8628 -0.9059
 6884SOL    HW232286   1.655   3.788   6.029 -0.8976 -2.4810  0.0731
 6885SOL     OW32287   2.030   4.557   3.184 -0.2807  0.7831 -0.8413
 6885SOL    HW132288   2.073   4.476   3.210  0.8924  1.3500 -0.9937
 6885SOL    HW232289   2.052   4.553   3.091 -0.9897 -0.6703 -0.9439
 6886SOL     OW32290   2.303   0.564   5.205  0.1906 -0.1941 -0.6719
 6886SOL    HW132291   2.391   0.596   5.188 -0.0344 -0.3267 -2.0693
 6886SOL    HW232292   2.264   0.582   5.120 -0.8428 -0.8811 -0.3435
 6887SOL     OW32293   1.162   3.041   5.537 -0.2085 -0.0058  0.1335
 6887SOL    HW132294   1.252   3.072   5.524  0.0210 -0.6017  0.3094
 6887SOL    HW232295   1.113   3.119   5.511 -0.6290 -0.9498 -1.9115
 6888SOL     OW32296   2.967   1.213   4.289 -0.5359  0.3443  0.1018
 6888SOL    HW132297   3.014   1.183   4.366  1.4682 -2.3431 -2.1949
 6888SOL    HW232298   3.018   1.163   4.225  0.6251  1.5234  0.1046
 6889SOL     OW32299   3.574   0.069   8.294 -0.1151  0.1461  0.0105
 6889SOL    HW132300   3.601   4.726   8.245  1.1448  0.0210  0.9228
 6889SOL    HW232301   3.482   0.085   8.270 -0.0889 -0.4632 -0.5007
 6890SOL     OW32302   3.368   1.819   9.006  0.3297  0.1712  0.0128
 6890SOL    HW132303   3.282   1.860   9.013  1.2810  1.7277  2.8860
 6890SOL    HW232304   3.420   1.880   9.059  0.4953  0.9587 -1.0736
 6891SOL     OW32305   1.313   0.759   5.627 -0.0377  0.0892  0.0405
 6891SOL    HW132306   1.246   0.739   5.562 -3.0885  2.6085  2.3953
 6891SOL    HW232307   1.258   0.746   5.705  0.5252 -0.6862  0.3019
 6892SOL     OW32308   4.184   2.872   6.632 -0.3469 -0.5902  0.0793
 6892SOL    HW132309   4.113   2.819   6.598  0.6512 -0.8031 -1.6461
 6892SOL    HW232310   4.231   2.886   6.550 -1.5317 -1.4166 -0.7394
 6893SOL     OW32311   3.917   3.956  17.452 -0.2884  0.9852  0.6070
 6893SOL    HW132312   3.929   4.045  17.484 -1.1093  1.3975 -0.2203
 6893SOL    HW232313   3.972   3.913  17.517 -1.3465  0.1886  0.9714
 6894SOL     OW32314   4.180   2.540   5.446 -0.3012  0.2890 -0.1746
 6894SOL    HW132315   4.164   2.572   5.357 -1.4821  1.7281  0.5641
 6894SOL    HW232316   4.262   2.583   5.469 -0.6536 -0.5341  2.5997
 6895SOL     OW32317   0.629   2.751   5.302  0.0183  0.9450 -0.0330
 6895SOL    HW132318   0.714   2.767   5.262  0.6713 -0.2804  0.8684
 6895SOL    HW232319   0.596   2.690   5.236  2.8021 -1.0406  0.3993
 6896SOL     OW32320   1.083   0.089   8.219  0.3460 -0.0719 -0.5339
 6896SOL    HW132321   1.083   0.096   8.124  1.9215 -0.2547 -0.5578
 6896SOL    HW232322   1.113   0.177   8.243  0.0675 -0.4270  1.1411
 6897SOL     OW32323   1.773   0.228   1.753 -0.1304  0.0851  0.1070
 6897SOL    HW132324   1.711   0.215   1.681 -2.3691 -1.3387  2.2767
 6897SOL    HW232325   1.782   0.323   1.759 -1.3311  0.2336 -0.4230
 6898SOL     OW32326   1.708   3.210   4.093 -0.7679 -0.3021 -0.4357
 6898SOL    HW132327   1.634   3.267   4.117  0.8671  2.2008 -1.3834
 6898SOL    HW232328   1.783   3.269   4.097 -2.3280  1.7565 -1.5567
 6899SOL     OW32329   1.693   3.200  11.330 -0.4630 -0.1436 -0.2876
 6899SOL    HW132330   1.715   3.128  11.271 -0.3999 -1.7844  1.7154
 6899SOL    HW232331   1.653   3.269  11.277  0.1367 -0.6056 -1.3267
 6900SOL     OW32332   0.999   3.030   0.600  0.0415 -0.0937 -0.5386
 6900SOL    HW132333   0.967   3.117   0.574 -2.4424 -1.2407 -1.3357
 6900SOL    HW232334   1.091   3.050   0.617  0.5658 -3.5598  0.6990
 6901SOL     OW32335   3.658   3.115  17.365  0.7390  0.7116  0.1397
 6901SOL    HW132336   3.623   3.096  17.452  0.2332 -2.2246 -0.7242
 6901SOL    HW232337   3.712   3.040  17.343  0.4192  1.1439 -2.1358
 6902SOL     OW32338   1.435   4.006   4.730  0.5658  0.4590 -0.0554
 6902SOL    HW132339   1.383   4.009   4.649  0.7685 -3.8089 -0.3469
 6902SOL    HW232340   1.370   3.976   4.794  0.4932  2.2362  0.7114
 6903SOL     OW32341   1.110   0.546   1.826  0.0439 -0.1972  0.2344
 6903SOL    HW132342   1.059   0.465   1.827  1.4174 -1.0777 -1.4120
 6903SOL    HW232343   1.192   0.515   1.788  0.4892 -1.8173  2.5081
 6904SOL     OW32344   1.822   0.689   7.408 -0.8622 -0.1197 -0.0202
 6904SOL    HW132345   1.750   0.625   7.407  0.1006 -1.2179  1.0795
 6904SOL    HW232346   1.790   0.779   7.400  3.0468  1.1851 -1.1790
 6905SOL     OW32347   2.453   0.894  16.939 -0.1525 -0.5371 -0.3883
 6905SOL    HW132348   2.425   0.931  17.023  0.3548 -0.7205 -0.1396
 6905SOL    HW232349   2.402   0.813  16.934 -1.4897  0.3047 -0.3228
 6906SOL     OW32350   3.523   2.576   6.624  0.2571 -0.4400  0.0558
 6906SOL    HW132351   3.518   2.668   6.648 -0.1677  0.7448 -4.6837
 6906SOL    HW232352   3.457   2.580   6.555  0.8207 -1.0945 -0.5191
 6907SOL     OW32353   0.921   0.659   6.033  0.2083 -0.1439  0.1925
 6907SOL    HW132354   0.966   0.596   5.976  0.7908  0.1936  0.2884
 6907SOL    HW232355   0.911   0.733   5.974  1.1735 -0.1869 -0.0319
 6908SOL     OW32356   3.379   1.272   3.235 -0.1380  0.3020 -0.1768
 6908SOL    HW132357   3.319   1.344   3.254  0.7124  1.6869 -2.7875
 6908SOL    HW232358   3.465   1.307   3.255  0.4190 -1.0688 -0.1329
 6909SOL     OW32359   3.543   2.022   9.850  0.0002  0.2481 -0.5107
 6909SOL    HW132360   3.504   1.979   9.774 -2.0734  2.0413 -0.4772
 6909SOL    HW232361   3.527   2.113   9.824  0.4367  0.1207 -1.2367
 6910SOL     OW32362   2.240   1.576   1.904  0.1027 -0.5475 -0.2422
 6910SOL    HW132363   2.149   1.604   1.901 -0.2956 -1.6447  2.4742
 6910SOL    HW232364   2.288   1.640   1.956 -1.8228  0.5860  0.1160
 6911SOL     OW32365   0.233   4.024  10.893 -0.1904  0.2701 -0.0237
 6911SOL    HW132366   0.298   4.067  10.949  1.5555 -2.6641  0.1545
 6911SOL    HW232367   0.173   4.098  10.905 -0.7536 -0.1626 -0.2300
 6912SOL     OW32368   3.895   4.657   3.901 -0.1994  0.1541 -0.3875
 6912SOL    HW132369   3.930   4.592   3.962  0.4623  1.5429  0.7146
 6912SOL    HW232370   3.810   4.624   3.873 -0.3767 -0.7782  1.2569
 6913SOL     OW32371   0.071   1.972   8.374 -0.3103  0.0165  0.5654
 6913SOL    HW132372   0.007   2.001   8.440 -0.0313 -0.3504  0.9991
 6913SOL    HW232373   0.095   1.888   8.414 -2.4214  0.7278  3.3337
 6914SOL     OW32374   1.778   0.945   5.826  0.2064  1.1219  0.3893
 6914SOL    HW132375   1.701   0.913   5.778 -0.6575  1.3077  1.6702
 6914SOL    HW232376   1.748   1.034   5.843  0.5592  1.4934 -0.9451
 6915SOL     OW32377   4.102   3.523   6.305 -0.5176 -0.2416  0.4144
 6915SOL    HW132378   4.109   3.443   6.254  3.8840 -0.2196  0.9820
 6915SOL    HW232379   4.099   3.594   6.241  0.4002  0.2495  0.9143
 6916SOL     OW32380   0.178   1.674   9.224 -0.0094 -0.1903 -0.5892
 6916SOL    HW132381   0.098   1.655   9.274  0.8363  1.5099  1.4063
 6916SOL    HW232382   0.225   1.727   9.288 -0.5207 -2.8232  1.9794
 6917SOL     OW32383   3.356   2.145  10.263 -0.4217 -0.6304 -0.2368
 6917SOL    HW132384   3.353   2.228  10.311 -0.2272 -0.1283 -1.0850
 6917SOL    HW232385   3.450   2.125  10.265 -0.3773 -0.4264 -0.2920
 6918SOL     OW32386   0.329   2.641   8.083 -0.4836  0.3910  0.4463
 6918SOL    HW132387   0.387   2.574   8.048 -1.0860 -1.3180  2.7591
 6918SOL    HW232388   0.325   2.601   8.170 -1.1635 -0.1335  0.1669
 6919SOL     OW32389   2.060   3.444  11.301 -0.0142  0.8114  0.7649
 6919SOL    HW132390   2.083   3.449  11.208  2.8609  0.1514  1.4237
 6919SOL    HW232391   2.119   3.373  11.328 -1.7440 -1.8115 -2.2644
 6920SOL     OW32392   4.198   2.577   9.538  0.1357  0.0013 -0.5249
 6920SOL    HW132393   4.147   2.576   9.618  1.7244  1.2354  0.5186
 6920SOL    HW232394   4.261   2.506   9.547  0.4219  0.3138 -0.0706
 6921SOL     OW32395   3.205   3.059   5.729  1.0013  0.1176  0.6977
 6921SOL    HW132396   3.159   2.987   5.686  2.2148  0.7326 -1.6628
 6921SOL    HW232397   3.228   3.016   5.811  0.2881 -1.6973 -0.0523
 6922SOL     OW32398   4.486   2.239  15.376  0.1338  0.5702  0.4500
 6922SOL    HW132399   4.463   2.330  15.357 -0.4808  0.2282 -0.4294
 6922SOL    HW232400   4.438   2.199  15.304  2.8911  0.3036 -1.2407
 6923SOL     OW32401   1.916   4.143   1.643 -0.5157  0.2126  0.1004
 6923SOL    HW132402   1.894   4.154   1.736  0.1929 -0.8846  0.4005
 6923SOL    HW232403   1.901   4.233   1.612  3.1345  0.3605 -1.3236
 6924SOL     OW32404   4.143   3.868  15.214 -0.6950 -0.3424  0.2903
 6924SOL    HW132405   4.233   3.896  15.233  0.1184 -2.7355  0.0643
 6924SOL    HW232406   4.086   3.890  15.288 -1.4718  3.7000 -1.5546
 6925SOL     OW32407   3.853   1.823   6.922  0.0147  0.1149  0.3511
 6925SOL    HW132408   3.809   1.739   6.912  0.2845  0.1934 -1.4483
 6925SOL    HW232409   3.793   1.883   6.966  0.7463 -0.6071  2.3677
 6926SOL     OW32410   0.333   3.694   5.285  0.2140 -0.2208 -0.2454
 6926SOL    HW132411   0.282   3.728   5.211  1.8475  2.0610 -0.3450
 6926SOL    HW232412   0.255   3.659   5.327 -1.4952  1.4852 -1.9405
 6927SOL     OW32413   0.521   0.274   1.479 -0.4969 -0.5606 -0.0614
 6927SOL    HW132414   0.443   0.319   1.445 -0.1678  0.3779  0.4336
 6927SOL    HW232415   0.573   0.284   1.400  1.1461 -1.6920  0.8705
 6928SOL     OW32416   3.973   0.954   2.746  0.3626  0.4851 -0.0459
 6928SOL    HW132417   3.896   0.900   2.729  0.1026 -0.2562  3.4110
 6928SOL    HW232418   3.931   1.031   2.784  1.5276  0.3941  1.4500
 6929SOL     OW32419   1.025   0.773   4.178  0.2832  0.1662  0.4608
 6929SOL    HW132420   1.004   0.857   4.220  1.4703  0.1964  1.0120
 6929SOL    HW232421   0.942   0.774   4.130  1.0390  2.5683 -0.8565
 6930SOL     OW32422   1.433   0.808   6.927  0.2667  0.1413 -0.1152
 6930SOL    HW132423   1.345   0.796   6.963  1.7004 -2.4930  2.4619
 6930SOL    HW232424   1.472   0.734   6.973 -0.6166  0.0607  0.5056
 6931SOL     OW32425   2.004   3.111   6.920 -0.4551  0.1723 -0.4412
 6931SOL    HW132426   2.065   3.046   6.953 -1.6961  0.9632  3.3298
 6931SOL    HW232427   2.055   3.177   6.873  1.5262 -2.4885 -2.0453
 6932SOL     OW32428   2.987   0.140   4.356 -0.2438  1.1835 -0.0318
 6932SOL    HW132429   3.026   0.083   4.422  1.8744  0.5606 -1.8275
 6932SOL    HW232430   3.043   0.120   4.281 -0.1371  0.1852  0.3141
 6933SOL     OW32431   3.148   2.413  12.558  0.4461 -0.3523  0.6107
 6933SOL    HW132432   3.059   2.422  12.592  0.6546 -1.2296  1.3827
 6933SOL    HW232433   3.188   2.372  12.635  0.0337 -0.1107  0.9542
 6934SOL     OW32434   3.683   3.828   1.116 -0.1830 -0.3090  0.0097
 6934SOL    HW132435   3.665   3.743   1.076 -2.3039 -0.0379  0.3834
 6934SOL    HW232436   3.711   3.871   1.035 -0.8764 -0.7305 -0.4617
 6935SOL     OW32437   1.909   3.508   6.408 -0.1137  0.5910 -0.3521
 6935SOL    HW132438   1.941   3.423   6.379 -3.9104 -0.1923 -2.3278
 6935SOL    HW232439   1.904   3.488   6.502 -1.5282 -0.5086 -0.6606
 6936SOL     OW32440   3.296   0.158   4.449  0.4535  0.3211 -0.4678
 6936SOL    HW132441   3.300   0.145   4.544 -0.4917  0.1056 -0.4634
 6936SOL    HW232442   3.305   0.252   4.434  0.7687  0.2962 -0.4483
 6937SOL     OW32443   2.945   2.206   6.327  0.8283 -0.3757 -0.2846
 6937SOL    HW132444   2.965   2.299   6.318  1.8702 -0.5827 -0.1596
 6937SOL    HW232445   2.945   2.197   6.423 -0.4032  2.3330 -0.0319
 6938SOL     OW32446   1.365   3.854   4.187  0.1803  0.3112  0.2925
 6938SOL    HW132447   1.326   3.921   4.244 -2.1110 -0.2408 -0.6225
 6938SOL    HW232448   1.444   3.827   4.233 -1.0267  0.0360  2.1935
 6939SOL     OW32449   1.759   2.714   4.343 -0.2379  0.1038 -0.4586
 6939SOL    HW132450   1.773   2.740   4.435  0.6871 -1.5690 -0.1332
 6939SOL    HW232451   1.793   2.791   4.298 -1.6639  1.1514  0.2609
 6940SOL     OW32452   4.486   1.351   5.761 -0.2303  1.0314  0.7680
 6940SOL    HW132453   4.397   1.315   5.761  0.5558 -0.9223  1.6705
 6940SOL    HW232454   4.524   1.300   5.689 -1.2748  0.5127  0.5761
 6941SOL     OW32455   1.186   0.279   5.199 -0.0540  0.2683  0.2366
 6941SOL    HW132456   1.266   0.227   5.201  1.0235  1.8268 -1.8628
 6941SOL    HW232457   1.200   0.332   5.120 -0.0107  1.9354  1.3497
 6942SOL     OW32458   0.803   4.279   5.985 -0.1769 -0.3292  0.4351
 6942SOL    HW132459   0.802   4.348   6.052  1.3144  0.9505 -0.8806
 6942SOL    HW232460   0.790   4.341   5.914 -1.5523 -2.0514 -0.8095
 6943SOL     OW32461   0.548   4.019  16.840 -0.0139 -0.1014  0.5228
 6943SOL    HW132462   0.601   4.056  16.770 -0.9367  0.5615  0.1769
 6943SOL    HW232463   0.618   4.007  16.905 -1.0605  0.0134  1.6756
 6944SOL     OW32464   3.998   2.674  11.723 -0.3350 -1.0216  0.2107
 6944SOL    HW132465   4.015   2.719  11.805  0.1034 -1.7108  0.4943
 6944SOL    HW232466   3.906   2.650  11.730 -0.7371  0.3275 -0.4248
 6945SOL     OW32467   0.100   2.903  14.167 -0.8360  0.2635  0.0041
 6945SOL    HW132468   0.098   2.890  14.261  0.8488 -1.5930 -0.2021
 6945SOL    HW232469   0.010   2.923  14.144 -0.2034  0.3963 -2.4821
 6946SOL     OW32470   0.564   0.320   2.399  0.2931  0.2459 -0.3104
 6946SOL    HW132471   0.547   0.404   2.441  0.2080  0.1884 -0.2306
 6946SOL    HW232472   0.592   0.270   2.475 -1.4844  0.8808  0.7615
 6947SOL     OW32473   4.158   2.161   7.889 -0.0889  0.4298  0.7730
 6947SOL    HW132474   4.231   2.098   7.884 -1.0469 -0.5687 -0.6460
 6947SOL    HW232475   4.191   2.237   7.841  0.6047 -0.7942 -0.7301
 6948SOL     OW32476   3.537   1.247   0.408 -0.4436 -0.1445  0.0064
 6948SOL    HW132477   3.532   1.288   0.495 -2.5337  2.5133 -1.3709
 6948SOL    HW232478   3.632   1.254   0.398 -0.5098  0.5528 -0.1756
 6949SOL     OW32479   0.019   0.725   0.232  0.3261 -0.3767  0.4104
 6949SOL    HW132480   0.041   0.817   0.243 -1.1328  0.1593 -1.2781
 6949SOL    HW232481   4.668   0.724   0.275 -0.4885 -1.0638 -1.2397
 6950SOL     OW32482   0.890   3.771   0.924 -0.3534 -0.0157  0.2575
 6950SOL    HW132483   0.830   3.701   0.897 -2.5354  1.9824 -0.0248
 6950SOL    HW232484   0.838   3.850   0.907  2.2922  1.5415 -0.6338
 6951SOL     OW32485   1.902   0.612   9.247 -0.2346 -0.1959  0.5042
 6951SOL    HW132486   1.921   0.659   9.328 -1.0580 -0.0469  0.6149
 6951SOL    HW232487   1.826   0.661   9.215 -1.0541 -0.4507  2.0704
 6952SOL     OW32488   3.240   1.854   2.773  0.2566  0.5545  0.3188
 6952SOL    HW132489   3.174   1.796   2.736  0.9665  0.3799 -0.6615
 6952SOL    HW232490   3.314   1.803   2.806  0.2081  0.0885 -0.2851
 6953SOL     OW32491   2.486   3.965   7.761  0.2592  0.5498 -0.7524
 6953SOL    HW132492   2.481   3.891   7.821 -0.7862  0.6458 -0.7111
 6953SOL    HW232493   2.564   3.956   7.706 -0.3592 -0.2045 -1.5041
 6954SOL     OW32494   0.225   4.653   4.468  0.4890  0.1096 -0.0782
 6954SOL    HW132495   0.291   4.587   4.490 -0.0363  0.0677  1.3899
 6954SOL    HW232496   0.153   4.620   4.522 -1.6718  0.3305 -2.8385
 6955SOL     OW32497   0.933   0.542  15.805 -0.2218 -0.2272 -0.6958
 6955SOL    HW132498   0.905   0.525  15.715  0.4350 -0.7117 -0.8158
 6955SOL    HW232499   0.970   0.456  15.826  3.4235  0.9730 -2.2150
 6956SOL     OW32500   1.953   3.237   7.972 -0.5786  0.2096  0.5275
 6956SOL    HW132501   1.918   3.166   8.026 -1.3646  0.7576  0.7424
 6956SOL    HW232502   2.015   3.279   8.032 -1.4045  0.6343  1.0830
 6957SOL     OW32503   4.417   4.510   1.902 -0.3031 -0.2582 -0.0481
 6957SOL    HW132504   4.433   4.587   1.956 -2.0500 -0.2407  0.4461
 6957SOL    HW232505   4.437   4.439   1.963  0.3875 -0.1377 -0.1367
 6958SOL     OW32506   2.859   0.534  13.845  0.2213  0.0923 -0.0617
 6958SOL    HW132507   2.805   0.510  13.921 -0.2563 -1.3962 -0.8617
 6958SOL    HW232508   2.936   0.478  13.859  0.3038  0.2030 -0.0801
 6959SOL     OW32509   4.098   2.526   4.382  0.0414  0.3034  0.0388
 6959SOL    HW132510   4.038   2.601   4.388  1.3751  1.2641  1.3465
 6959SOL    HW232511   4.049   2.463   4.434  1.8063 -2.7610 -2.0648
 6960SOL     OW32512   1.508   2.705  11.637 -0.3747 -0.3786  0.5077
 6960SOL    HW132513   1.568   2.773  11.606  0.0068 -0.2718  1.4823
 6960SOL    HW232514   1.496   2.728  11.729  0.0487 -0.0435  0.4846
 6961SOL     OW32515   4.169   2.132   9.028 -0.1809 -0.4169 -0.0291
 6961SOL    HW132516   4.173   2.045   9.068 -1.1032 -0.1806  0.5925
 6961SOL    HW232517   4.165   2.115   8.934  1.9817 -2.8707  0.3261
 6962SOL     OW32518   0.288   2.560   1.409 -0.3408  0.4724  0.4910
 6962SOL    HW132519   0.228   2.606   1.466 -0.1299 -0.3488  1.3782
 6962SOL    HW232520   0.304   2.479   1.457 -0.8440 -0.6075 -1.1506
 6963SOL     OW32521   2.012   2.078   7.653 -0.2523 -0.7033 -0.3028
 6963SOL    HW132522   2.055   2.002   7.693  0.8779 -1.3019 -2.6463
 6963SOL    HW232523   1.924   2.043   7.636 -0.5346  0.3098 -0.9435
 6964SOL     OW32524   3.448   2.938   6.377 -0.0048  0.4833  0.4929
 6964SOL    HW132525   3.468   2.911   6.467 -1.9184 -1.6218  0.2878
 6964SOL    HW232526   3.356   2.960   6.390 -0.7825 -1.5179 -1.6594
 6965SOL     OW32527   2.647   3.835   1.887 -0.0868 -0.2727 -0.3519
 6965SOL    HW132528   2.715   3.800   1.945  1.3607 -0.1964 -1.9773
 6965SOL    HW232529   2.634   3.763   1.824  0.7851 -1.1303  0.4435
 6966SOL     OW32530   0.632   2.073   2.237 -0.7333  0.1083  1.4260
 6966SOL    HW132531   0.707   2.043   2.186 -0.7846  0.7192  0.9926
 6966SOL    HW232532   0.611   2.144   2.177 -0.2188  0.2319  1.3919
 6967SOL     OW32533   1.453   3.392  13.537  0.0618 -0.0037 -0.0939
 6967SOL    HW132534   1.434   3.452  13.609 -1.6563 -2.3538  1.4351
 6967SOL    HW232535   1.526   3.339  13.572  1.3673  0.7369 -1.7169
 6968SOL     OW32536   1.241   3.848   8.159  0.0702  0.2859 -0.0413
 6968SOL    HW132537   1.331   3.879   8.168 -0.6179  2.4893 -0.4625
 6968SOL    HW232538   1.247   3.753   8.153  1.3484  0.4577 -1.4349
 6969SOL     OW32539   2.247   1.999   6.631  0.4090 -0.1365 -0.5747
 6969SOL    HW132540   2.198   2.046   6.563 -1.1647  2.2746  2.2329
 6969SOL    HW232541   2.213   1.909   6.630  0.9771 -0.3529 -0.5676
 6970SOL     OW32542   2.667   0.204   3.166 -0.3624  0.6162  0.3520
 6970SOL    HW132543   2.580   0.173   3.142  0.2862  0.3128 -1.6330
 6970SOL    HW232544   2.721   0.126   3.181  1.4090  1.7012 -0.3613
 6971SOL     OW32545   2.629   3.077  16.454 -0.2407 -0.4621 -0.3562
 6971SOL    HW132546   2.609   3.052  16.364 -2.5330  0.5697 -0.1128
 6971SOL    HW232547   2.584   3.160  16.469  0.4191 -0.1492 -0.1236
 6972SOL     OW32548   1.096   1.613   2.623  0.4694  0.2479 -0.1988
 6972SOL    HW132549   1.022   1.672   2.609  0.1641 -1.0229 -3.7530
 6972SOL    HW232550   1.048   1.532   2.638  0.1439  0.3630 -0.6238
 6973SOL     OW32551   1.216   3.514  13.725 -0.2425 -0.2926 -0.1173
 6973SOL    HW132552   1.125   3.537  13.744  0.3244  1.5454  0.4212
 6973SOL    HW232553   1.239   3.595  13.679 -2.5186  0.9968  1.0173
 6974SOL     OW32554   2.961   2.549   9.619 -0.2998  0.2093 -0.2216
 6974SOL    HW132555   2.944   2.472   9.673  0.2249 -0.6251 -1.2291
 6974SOL    HW232556   2.942   2.511   9.533  0.4037 -1.7903  0.5021
 6975SOL     OW32557   3.682   3.384   7.136  0.3458  0.0489 -0.0287
 6975SOL    HW132558   3.738   3.401   7.061  0.3964  0.2607  0.0560
 6975SOL    HW232559   3.703   3.297   7.169  2.8509  1.1134  1.1503
 6976SOL     OW32560   4.718   2.186   9.533  0.0282 -0.5175  1.2732
 6976SOL    HW132561   0.057   2.204   9.591  1.0582 -0.4862 -0.0605
 6976SOL    HW232562   0.016   2.240   9.462  0.3889 -2.2931  0.0786
 6977SOL     OW32563   0.555   3.619   2.890 -0.3800  0.2258  0.5055
 6977SOL    HW132564   0.477   3.577   2.926 -0.4344  0.3984  0.5895
 6977SOL    HW232565   0.613   3.543   2.891 -1.6185 -0.7385 -0.0916
 6978SOL     OW32566   0.633   1.979   2.778  0.4105  0.5371 -0.0304
 6978SOL    HW132567   0.615   2.012   2.690 -3.0699 -0.0473  0.4986
 6978SOL    HW232568   0.571   1.907   2.773  0.4625  0.4721  0.2618
 6979SOL     OW32569   2.882   4.614   3.980  0.0342 -0.3342  0.0312
 6979SOL    HW132570   2.975   4.602   4.000  0.2405  0.4852 -0.4273
 6979SOL    HW232571   2.887   4.631   3.886  0.0075  1.8105  0.4235
 6980SOL     OW32572   0.140   0.841   8.683 -0.0043  0.2373 -0.2395
 6980SOL    HW132573   0.185   0.913   8.727  1.3191 -1.2842  0.9341
 6980SOL    HW232574   0.195   0.767   8.711  1.8863  1.1540 -1.5577
 6981SOL     OW32575   3.303   1.850  17.607  0.1411 -0.6847  0.0879
 6981SOL    HW132576   3.211   1.844  17.582  0.1505 -0.5997  0.0334
 6981SOL    HW232577   3.296   1.912  17.680 -2.6626 -0.2010 -0.5942
 6982SOL     OW32578   2.640   3.202  13.562  0.1537 -0.2335 -0.2456
 6982SOL    HW132579   2.602   3.120  13.593 -1.7557  0.3360 -1.1037
 6982SOL    HW232580   2.727   3.168  13.541  0.4002 -0.0192  0.4498
 6983SOL     OW32581   3.890   2.636   3.574  0.1630  0.2890  0.9344
 6983SOL    HW132582   3.916   2.665   3.486  4.7700 -2.3386  1.4259
 6983SOL    HW232583   3.931   2.706   3.625  0.1361 -1.8633  3.9367
 6984SOL     OW32584   3.661   2.242  16.260  0.2802 -0.1927  0.1457
 6984SOL    HW132585   3.672   2.180  16.187 -0.8311 -0.2473  0.0299
 6984SOL    HW232586   3.566   2.255  16.253  0.0818 -1.1245  1.1975
 6985SOL     OW32587   0.604   4.649  14.920 -0.4727  0.6032 -0.2214
 6985SOL    HW132588   0.628   4.640  14.828 -2.3284  2.2805 -0.8963
 6985SOL    HW232589   0.513   4.667  14.897 -0.6140 -1.6307 -1.3646
 6986SOL     OW32590   1.767   2.192  12.101 -0.3254 -0.7436  0.3526
 6986SOL    HW132591   1.776   2.159  12.012 -0.6431  1.6416 -0.5669
 6986SOL    HW232592   1.680   2.163  12.130 -0.7316  0.6730  0.5476
 6987SOL     OW32593   2.281   3.614  13.798  0.1487 -0.4313  0.1424
 6987SOL    HW132594   2.306   3.571  13.879 -0.0651  0.3519  0.6175
 6987SOL    HW232595   2.191   3.605  13.828 -0.9900 -0.1161 -3.1723
 6988SOL     OW32596   0.910   0.663  12.292  0.2941  0.2993  0.5247
 6988SOL    HW132597   0.932   0.590  12.350  0.2530  1.1872  1.6447
 6988SOL    HW232598   0.944   0.727  12.355 -0.2076  1.5688 -0.5035
 6989SOL     OW32599   3.728   0.202  16.518  0.0400  0.1522 -0.4625
 6989SOL    HW132600   3.670   0.215  16.593  1.4841  2.4187  0.2692
 6989SOL    HW232601   3.771   0.128  16.562  0.2137  1.7041  2.0109
 6990SOL     OW32602   1.929   3.333   2.432 -0.0067 -0.3721  0.5942
 6990SOL    HW132603   1.983   3.253   2.432 -1.5028 -1.3717 -0.2338
 6990SOL    HW232604   1.989   3.402   2.404  0.4808 -0.1814  2.1125
 6991SOL     OW32605   4.215   0.503  15.929  0.0001  0.3864 -0.9407
 6991SOL    HW132606   4.137   0.554  15.908 -3.0172 -4.0087 -0.4614
 6991SOL    HW232607   4.206   0.429  15.869 -2.5357  0.9283 -1.2051
 6992SOL     OW32608   2.530   4.570   8.240  0.4438 -0.4724  0.7121
 6992SOL    HW132609   2.515   4.493   8.295  0.5403 -0.2889  0.9947
 6992SOL    HW232610   2.467   4.546   8.171  0.7012  1.5395 -0.2137
 6993SOL     OW32611   0.774   0.714   8.327 -0.3093  0.0938  0.3125
 6993SOL    HW132612   0.704   0.652   8.306  1.0337 -1.4579  0.3670
 6993SOL    HW232613   0.768   0.702   8.421  0.8505 -2.0654  0.1034
 6994SOL     OW32614   4.694   3.620   9.029 -0.0448 -0.2474 -0.1247
 6994SOL    HW132615   4.715   3.545   9.084 -1.7665 -0.1029  0.7413
 6994SOL    HW232616   0.021   3.685   9.062  1.0529 -1.0742 -0.5548
 6995SOL     OW32617   3.384   0.080  17.261 -0.2008 -0.2894 -0.0898
 6995SOL    HW132618   3.394   0.032  17.343  0.6435 -0.5693 -0.3562
 6995SOL    HW232619   3.447   0.034  17.205  1.1773 -0.1044  1.2887
 6996SOL     OW32620   3.422   2.360  17.667 -0.3161 -0.4889 -0.4171
 6996SOL    HW132621   3.371   2.440  17.650  0.0752  0.4471  2.9431
 6996SOL    HW232622   3.506   2.401  17.686 -0.6814 -0.8540  1.9783
 6997SOL     OW32623   3.922   1.675   2.211 -0.2678 -1.2598  0.4771
 6997SOL    HW132624   3.905   1.743   2.146  0.5094 -0.8181  0.7301
 6997SOL    HW232625   4.017   1.667   2.214 -0.1514 -0.6005 -1.6631
 6998SOL     OW32626   0.926   0.191  10.910 -0.1685  0.0850 -0.1470
 6998SOL    HW132627   0.843   0.163  10.949  0.0517 -0.6844 -0.2372
 6998SOL    HW232628   0.992   0.145  10.961 -0.2729  0.5028  0.3673
 6999SOL     OW32629   0.220   4.087   0.074 -0.6634 -0.7606 -0.4321
 6999SOL    HW132630   0.289   4.060   0.014  1.5452  0.6776  1.4406
 6999SOL    HW232631   0.274   4.156   0.112 -1.4863  0.3316 -1.2465
 7000SOL     OW32632   1.812   1.558  15.575  0.2179  0.2134 -0.0380
 7000SOL    HW132633   1.902   1.589  15.563 -0.4155  1.6130 -1.1871
 7000SOL    HW232634   1.811   1.466  15.550  0.2467 -0.2321  1.6066
 7001SOL     OW32635   1.599   2.341   4.082  0.3271  0.5262  0.1637
 7001SOL    HW132636   1.540   2.288   4.029  1.2363 -0.1881 -0.1488
 7001SOL    HW232637   1.664   2.337   4.011  0.4019 -1.3096  0.3356
 7002SOL     OW32638   0.264   3.448  15.244 -0.0963  0.6318  1.3209
 7002SOL    HW132639   0.227   3.364  15.217 -1.4670  1.6175  0.1561
 7002SOL    HW232640   0.215   3.474  15.323 -1.7773 -1.6624  1.0262
 7003SOL     OW32641   3.133   0.100   4.107 -0.3869 -0.2526 -0.5619
 7003SOL    HW132642   3.223   0.133   4.106 -0.9541  1.1863 -4.9920
 7003SOL    HW232643   3.143   0.037   4.036 -0.1632 -0.9496  0.0958
 7004SOL     OW32644   0.948   2.153   3.355  0.0551  0.5944  0.2067
 7004SOL    HW132645   0.890   2.152   3.279 -1.9728 -0.0301  1.7859
 7004SOL    HW232646   0.918   2.229   3.405 -0.3163  1.5295 -1.4403
 7005SOL     OW32647   3.973   0.272   5.985  0.0514 -0.5243 -0.1975
 7005SOL    HW132648   3.955   0.338   5.917  0.3496  1.4455  1.6211
 7005SOL    HW232649   4.065   0.292   5.999  0.7808 -3.9347 -0.2246
 7006SOL     OW32650   0.207   2.943  16.859  0.2460  0.3858 -0.2304
 7006SOL    HW132651   0.183   3.034  16.844 -1.2544  0.5677  3.1953
 7006SOL    HW232652   0.302   2.948  16.854  0.2344  0.8967  0.0707
 7007SOL     OW32653   4.527   2.347   9.614 -0.7391 -0.9040 -0.3954
 7007SOL    HW132654   4.607   2.295   9.610  1.0566  2.0237 -2.5234
 7007SOL    HW232655   4.545   2.412   9.546  2.8912 -2.1536 -0.5998
 7008SOL     OW32656   0.602   1.643  16.031  0.6193  0.6893 -0.4976
 7008SOL    HW132657   0.598   1.719  15.973 -0.9666  0.6306 -0.4693
 7008SOL    HW232658   0.529   1.589  16.000  1.1434 -0.2038 -0.1801
 7009SOL     OW32659   2.834   0.363   4.351 -0.0934  0.3678  0.0080
 7009SOL    HW132660   2.885   0.361   4.432  0.7122 -1.4784 -0.5420
 7009SOL    HW232661   2.842   0.274   4.316  1.8582  1.2704 -1.8539
 7010SOL     OW32662   0.992   2.945   1.413  0.0721 -0.4891  0.7302
 7010SOL    HW132663   0.926   2.941   1.482  2.2895 -0.0219  2.8846
 7010SOL    HW232664   0.955   2.881   1.353 -2.2873 -0.0537  1.7287
 7011SOL     OW32665   2.422   1.215  17.373 -0.0822  0.1495  0.0103
 7011SOL    HW132666   2.378   1.287  17.417  1.7869 -0.5022  2.9076
 7011SOL    HW232667   2.485   1.190  17.441  0.7705  1.5687 -0.2450
 7012SOL     OW32668   1.334   3.782  17.266 -0.5622 -0.0187 -0.7030
 7012SOL    HW132669   1.296   3.754  17.349 -1.6929 -0.6264 -1.4314
 7012SOL    HW232670   1.409   3.723  17.258 -0.3529  0.2227 -0.5279
 7013SOL     OW32671   3.599   1.327   1.007  0.5156  0.2069  0.1602
 7013SOL    HW132672   3.606   1.268   0.932 -2.1324  0.6416 -0.4479
 7013SOL    HW232673   3.595   1.415   0.970  0.6305 -0.3308 -1.0977
 7014SOL     OW32674   1.979   2.626   7.540 -0.2110  0.1812  0.2981
 7014SOL    HW132675   2.026   2.576   7.607  0.2531  0.8142  0.4381
 7014SOL    HW232676   1.948   2.699   7.593 -1.9798 -1.1935  1.1604
 7015SOL     OW32677   4.617   3.621   7.963 -0.3341 -0.1248  0.0134
 7015SOL    HW132678   4.548   3.611   7.898  0.1380  1.1831 -0.6949
 7015SOL    HW232679   4.587   3.558   8.029  1.9155  0.4321  1.5687
 7016SOL     OW32680   3.920   1.023  14.660  0.7315  0.0954  0.5675
 7016SOL    HW132681   3.920   1.082  14.735 -0.7669  1.2928 -0.3773
 7016SOL    HW232682   3.941   1.092  14.597  3.7402 -0.5231  0.9159
 7017SOL     OW32683   1.486   2.243  11.153 -0.0121 -0.2344 -0.5655
 7017SOL    HW132684   1.516   2.154  11.131  0.7423 -0.4679  1.4304
 7017SOL    HW232685   1.569   2.291  11.155  0.5216 -1.2094  0.4050
 7018SOL     OW32686   1.887   4.634   3.458 -0.3221 -0.0907 -0.1129
 7018SOL    HW132687   1.870   4.628   3.364  2.4386 -2.9944 -0.4264
 7018SOL    HW232688   1.952   4.565   3.466 -0.7530 -0.2750  1.7579
 7019SOL     OW32689   0.419   1.529   3.132  0.8543 -0.0150 -0.1073
 7019SOL    HW132690   0.507   1.542   3.096  0.4920 -0.3803 -1.1289
 7019SOL    HW232691   0.433   1.481   3.214 -0.8993  0.4200  0.4294
 7020SOL     OW32692   2.486   2.079   3.795  0.3017 -0.7945 -0.4891
 7020SOL    HW132693   2.490   2.128   3.878 -1.0212  0.3475 -1.0772
 7020SOL    HW232694   2.491   2.161   3.745  0.8835 -0.9257 -0.6445
 7021SOL     OW32695   3.412   0.663   8.859  0.0600 -0.2304 -0.0724
 7021SOL    HW132696   3.334   0.674   8.805 -0.1868  1.6291  0.6283
 7021SOL    HW232697   3.422   0.569   8.844 -2.9430 -0.2973 -1.5780
 7022SOL     OW32698   1.212   2.059   2.727 -0.1475  0.5042  0.2261
 7022SOL    HW132699   1.231   2.081   2.818  2.4343 -1.0085  0.0535
 7022SOL    HW232700   1.167   1.975   2.729 -1.2411  1.1214  1.4467
 7023SOL     OW32701   0.836   2.205   5.936  0.5062  0.2362 -0.0128
 7023SOL    HW132702   0.812   2.296   5.951  0.6441  0.2356  0.2049
 7023SOL    HW232703   0.920   2.215   5.890  1.3159 -2.5934  0.8661
 7024SOL     OW32704   0.721   1.919   4.314 -0.3992  1.2164  0.7387
 7024SOL    HW132705   0.663   1.862   4.263  2.0987 -0.0384 -0.7193
 7024SOL    HW232706   0.755   1.863   4.384  2.8523  3.2568  0.8043
 7025SOL     OW32707   1.879   4.136   9.015 -0.2147 -0.2254 -0.4102
 7025SOL    HW132708   1.965   4.097   9.030 -0.5215 -0.1206  1.5982
 7025SOL    HW232709   1.828   4.073   9.066 -0.7194  0.0039 -0.6286
 7026SOL     OW32710   3.812   1.320   6.730  0.1626 -0.1285  0.1861
 7026SOL    HW132711   3.824   1.292   6.639  0.4733 -1.1264  0.5349
 7026SOL    HW232712   3.823   1.415   6.734 -2.2498  0.1185  1.1615
 7027SOL     OW32713   1.739   3.268   3.011 -0.0190  0.2464  0.3013
 7027SOL    HW132714   1.710   3.178   3.000 -1.8986  0.9042 -0.0453
 7027SOL    HW232715   1.732   3.265   3.106  0.0890  1.0529  0.3332
 7028SOL     OW32716   3.815   1.372   7.148  0.1216 -0.1049  0.5752
 7028SOL    HW132717   3.722   1.364   7.169 -0.5192  0.1783 -2.1156
 7028SOL    HW232718   3.831   1.465   7.134  1.2553 -0.4048 -0.0631
 7029SOL     OW32719   3.305   0.529   9.641  0.1332 -0.3069 -0.4304
 7029SOL    HW132720   3.265   0.515   9.555  0.2248  2.1180 -0.8704
 7029SOL    HW232721   3.400   0.526   9.630  0.2146  0.2414  0.1169
 7030SOL     OW32722   0.683   1.927  17.118 -0.4037  0.0140  0.0742
 7030SOL    HW132723   0.740   1.854  17.095  0.3299  0.1871  1.3788
 7030SOL    HW232724   0.621   1.889  17.181 -1.9876  3.1203  0.3993
 7031SOL     OW32725   1.368   1.627   1.212  0.2879  0.0081  0.1816
 7031SOL    HW132726   1.363   1.663   1.301  0.2101  0.6806 -0.0963
 7031SOL    HW232727   1.275   1.606   1.206  0.1061  1.7344 -2.6139
 7032SOL     OW32728   3.142   1.044   9.007  0.3970  0.4269  0.0921
 7032SOL    HW132729   3.059   1.008   9.037 -0.2114  0.4296 -1.6015
 7032SOL    HW232730   3.210   0.978   9.017 -1.4116 -1.3406  0.6079
 7033SOL     OW32731   2.273   3.818   4.518 -0.0066  0.1900  0.5012
 7033SOL    HW132732   2.210   3.778   4.579 -0.4951 -0.0181 -0.1410
 7033SOL    HW232733   2.330   3.876   4.570 -0.2264  0.4953  0.4032
 7034SOL     OW32734   0.881   1.161   0.447  0.4288 -0.0229 -0.3033
 7034SOL    HW132735   0.897   1.171   0.353  0.4830 -0.7454 -0.3722
 7034SOL    HW232736   0.786   1.152   0.459  0.1242 -0.2294 -2.9894
 7035SOL     OW32737   3.900   3.991   7.364  0.0070  0.3295  0.0105
 7035SOL    HW132738   3.924   3.898   7.365 -0.6691  0.1315 -1.3400
 7035SOL    HW232739   3.946   4.037   7.293 -0.5078  1.6258  0.5275
 7036SOL     OW32740   0.210   3.242  16.180 -0.3722 -0.3682 -0.7618
 7036SOL    HW132741   0.197   3.153  16.213 -2.6039  0.3190  0.1533
 7036SOL    HW232742   0.296   3.216  16.145 -0.1245  1.3977 -1.4446
 7037SOL     OW32743   3.846   3.241   3.379  0.3805 -0.0547 -0.0692
 7037SOL    HW132744   3.789   3.166   3.363 -0.0915  0.1035  0.9094
 7037SOL    HW232745   3.876   3.247   3.288 -0.1280  0.7543 -0.1876
 7038SOL     OW32746   1.776   0.042  16.969 -0.0475 -0.0534  0.2187
 7038SOL    HW132747   1.819   0.042  17.055 -0.9878  0.5581  0.6858
 7038SOL    HW232748   1.767   0.137  16.964 -3.8758 -0.3959  0.5257
 7039SOL     OW32749   0.724   2.680   3.346  0.0609 -0.2627 -0.1559
 7039SOL    HW132750   0.764   2.617   3.287  1.1026 -0.7808  1.0891
 7039SOL    HW232751   0.765   2.653   3.428 -2.7614  2.2865  2.1037
 7040SOL     OW32752   1.527   3.337   8.639  0.3642  0.3122 -0.5453
 7040SOL    HW132753   1.600   3.346   8.577  0.7310  2.6725  0.2147
 7040SOL    HW232754   1.452   3.351   8.581 -0.7923 -2.1234  0.3678
 7041SOL     OW32755   2.530   1.377  13.400 -0.2698  0.0914 -0.0097
 7041SOL    HW132756   2.511   1.365  13.307 -1.6992  0.0608  0.2900
 7041SOL    HW232757   2.624   1.395  13.405 -0.0949 -0.8308  0.0292
 7042SOL     OW32758   2.719   4.550   2.616 -0.8852 -0.2204 -0.3452
 7042SOL    HW132759   2.634   4.596   2.618 -1.9131 -2.1491 -0.1366
 7042SOL    HW232760   2.742   4.561   2.708  1.2624 -2.2085 -0.6407
 7043SOL     OW32761   0.757   4.113  11.230 -0.0407 -0.1790  0.0262
 7043SOL    HW132762   0.756   4.195  11.181  0.2120 -0.1857  0.0088
 7043SOL    HW232763   0.773   4.143  11.319 -0.6887  0.8133 -0.2006
 7044SOL     OW32764   0.462   2.171   9.122  0.1407 -0.1412 -0.4516
 7044SOL    HW132765   0.459   2.124   9.205  1.9581 -1.5273 -1.1803
 7044SOL    HW232766   0.408   2.118   9.063 -0.2963  0.1491 -0.3115
 7045SOL     OW32767   2.847   3.069   4.124 -0.4356  0.2898 -0.3066
 7045SOL    HW132768   2.870   3.114   4.043 -1.0552  0.4638 -0.3851
 7045SOL    HW232769   2.917   3.099   4.183 -1.6451  0.3984  1.0492
 7046SOL     OW32770   3.507   1.741   6.928  0.6724 -0.0918 -0.9609
 7046SOL    HW132771   3.413   1.734   6.911  0.0327  1.2256  1.9979
 7046SOL    HW232772   3.542   1.654   6.911 -0.9310 -0.8019 -0.6082
 7047SOL     OW32773   4.393   2.929   8.621  0.0617 -0.0952  0.5556
 7047SOL    HW132774   4.338   2.875   8.678  0.1338 -1.6633 -0.8650
 7047SOL    HW232775   4.475   2.880   8.630 -0.8109 -1.8179 -0.9190
 7048SOL     OW32776   0.008   1.076   6.796  0.0210 -0.6003  0.0239
 7048SOL    HW132777   0.089   1.064   6.746  1.1410  3.0100  0.9758
 7048SOL    HW232778   0.016   1.011   6.866  1.2113  0.8434  1.2087
 7049SOL     OW32779   2.879   1.756   4.694 -0.3205  0.0915  1.4192
 7049SOL    HW132780   2.784   1.765   4.684 -0.5097 -2.7964  0.7923
 7049SOL    HW232781   2.913   1.845   4.689 -0.4574 -0.1964 -4.1403
 7050SOL     OW32782   1.918   2.080   4.923 -0.2332 -0.3743 -1.0068
 7050SOL    HW132783   1.882   2.093   4.835 -0.8421  0.6925 -0.5891
 7050SOL    HW232784   1.839   2.083   4.977  0.7543  0.7507  0.3416
 7051SOL     OW32785   4.141   2.117  15.166  0.0185  0.0174  0.0430
 7051SOL    HW132786   4.235   2.105  15.156  0.3590  1.9671  0.8664
 7051SOL    HW232787   4.143   2.193  15.226 -0.0653 -0.4334  0.6176
 7052SOL     OW32788   2.350   4.537   4.425 -0.1035 -0.3172  0.2150
 7052SOL    HW132789   2.334   4.553   4.332 -1.6637  0.6485  0.6448
 7052SOL    HW232790   2.445   4.547   4.428 -0.2349  1.3546 -1.2723
 7053SOL     OW32791   1.864   4.408   1.589 -0.8340  0.0028 -0.1727
 7053SOL    HW132792   1.798   4.403   1.520  1.0186 -2.2644 -1.7395
 7053SOL    HW232793   1.853   4.502   1.607  1.5468  0.1693  0.4406
 7054SOL     OW32794   1.659   1.742   4.340 -0.6904 -0.1225 -0.6124
 7054SOL    HW132795   1.609   1.751   4.421  0.0655 -0.4996 -0.1013
 7054SOL    HW232796   1.671   1.833   4.314  0.4514 -0.2695 -0.6101
 7055SOL     OW32797   2.508   3.654   3.554  0.0904  0.4139 -0.0775
 7055SOL    HW132798   2.490   3.623   3.642  0.9184  1.3016  0.4063
 7055SOL    HW232799   2.419   3.635   3.522  0.6359 -1.1873 -0.6323
 7056SOL     OW32800   3.015   2.511   2.902  0.1829 -0.3919  0.6770
 7056SOL    HW132801   3.033   2.419   2.917  0.4033 -0.0942  2.2868
 7056SOL    HW232802   3.059   2.539   2.823  0.3085 -0.4247  0.7357
 7057SOL     OW32803   0.322   3.626  12.832  0.0755  0.6760  0.0270
 7057SOL    HW132804   0.276   3.542  12.837  0.0515  0.6744 -0.2172
 7057SOL    HW232805   0.335   3.643  12.925 -0.7662 -0.1249  0.2952
 7058SOL     OW32806   3.839   0.670   5.297  0.6741 -0.1471 -0.2223
 7058SOL    HW132807   3.851   0.765   5.302 -1.8818  0.0782  1.4381
 7058SOL    HW232808   3.748   0.661   5.325  0.7763  1.8174  0.7445
 7059SOL     OW32809   2.732   3.615   7.124  0.3633  0.0849  0.2001
 7059SOL    HW132810   2.641   3.619   7.095  1.4428  0.4475 -3.1032
 7059SOL    HW232811   2.720   3.622   7.219 -0.9935  0.6113 -0.0148
 7060SOL     OW32812   2.795   2.680  12.963  0.3026  0.5234 -0.2950
 7060SOL    HW132813   2.703   2.698  12.986 -0.0662 -0.3477 -1.1262
 7060SOL    HW232814   2.824   2.772  12.962 -1.2685  1.0291  1.1431
 7061SOL     OW32815   1.312   2.734   2.854  0.3491  0.1199  0.1099
 7061SOL    HW132816   1.401   2.769   2.848 -0.0962  1.1962 -0.3261
 7061SOL    HW232817   1.287   2.777   2.936  0.2636  1.2857 -0.5262
 7062SOL     OW32818   0.222   0.173   3.779 -0.7157  0.3059  0.0436
 7062SOL    HW132819   0.182   0.253   3.815  0.8841  0.8545  0.5692
 7062SOL    HW232820   0.256   0.204   3.695 -1.4150  0.5217 -0.1610
 7063SOL     OW32821   1.566   1.660   5.002  0.0029  0.4292 -0.8332
 7063SOL    HW132822   1.571   1.568   4.975  0.1135  0.4687 -0.9469
 7063SOL    HW232823   1.588   1.659   5.095 -1.1957  3.3183 -0.5129
 7064SOL     OW32824   2.938   3.869   4.856 -0.2362 -0.1702  0.3738
 7064SOL    HW132825   3.008   3.932   4.843 -0.1040 -0.7116 -1.5961
 7064SOL    HW232826   2.938   3.848   4.949 -0.5535 -0.0152  0.4099
 7065SOL     OW32827   1.960   2.162   4.063  0.4108 -0.4154  0.5173
 7065SOL    HW132828   1.918   2.231   4.012 -0.0807 -2.0945 -1.3179
 7065SOL    HW232829   1.930   2.086   4.014 -0.4375  0.6723 -0.6662
 7066SOL     OW32830   3.862   0.578   3.678 -0.2810  0.1590  0.2860
 7066SOL    HW132831   3.771   0.557   3.702 -0.3490 -0.4410 -0.4600
 7066SOL    HW232832   3.906   0.501   3.714  1.5668  0.6785 -0.8422
 7067SOL     OW32833   4.085   4.239   2.816 -0.2441 -0.3203 -0.2995
 7067SOL    HW132834   4.064   4.228   2.723  0.2779  2.0424 -0.7044
 7067SOL    HW232835   4.122   4.327   2.807  1.6858 -1.0164  0.8635
 7068SOL     OW32836   1.543   4.242   4.425  0.6522  0.3769 -0.2203
 7068SOL    HW132837   1.544   4.259   4.519 -1.8969 -2.2744  0.3081
 7068SOL    HW232838   1.613   4.298   4.392  0.6640  1.5635  1.8100
 7069SOL     OW32839   1.562   0.526   3.390 -0.0958  0.3939  0.1077
 7069SOL    HW132840   1.551   0.537   3.296  3.5860 -0.5676 -0.4356
 7069SOL    HW232841   1.598   0.438   3.398 -0.7197  0.2162  0.9447
 7070SOL     OW32842   3.250   0.497  14.800 -0.1957 -0.5160  0.1388
 7070SOL    HW132843   3.195   0.569  14.772 -1.9504 -1.7776  0.3657
 7070SOL    HW232844   3.334   0.543  14.801  0.1337 -1.1277  0.8015
 7071SOL     OW32845   3.441   0.020   5.697 -0.2740  0.0545 -0.0546
 7071SOL    HW132846   3.520   0.030   5.644  0.0696  1.0441  0.6543
 7071SOL    HW232847   3.434   4.661   5.681  0.1578 -0.2646  1.5900
 7072SOL     OW32848   0.221   3.953   2.249  0.0295  0.1190 -0.6133
 7072SOL    HW132849   0.252   3.958   2.339  1.5549 -1.9350 -1.0217
 7072SOL    HW232850   0.228   3.858   2.236  0.7915  0.3133 -1.6365
 7073SOL     OW32851   1.924   1.186   2.892 -0.0684  0.4684  0.6879
 7073SOL    HW132852   1.880   1.213   2.812  1.8721 -0.6126 -0.7525
 7073SOL    HW232853   1.846   1.148   2.933 -2.1050  0.6781 -3.0098
 7074SOL     OW32854   1.945   0.497   2.104 -0.3150  0.3269 -0.0036
 7074SOL    HW132855   1.870   0.501   2.044 -1.3265 -0.9211  1.1957
 7074SOL    HW232856   2.011   0.534   2.045 -1.1421  1.5342 -0.1850
 7075SOL     OW32857   1.613   3.132   4.832 -0.5872  0.0331 -0.0576
 7075SOL    HW132858   1.675   3.065   4.806  1.2248  1.7985 -0.3023
 7075SOL    HW232859   1.621   3.194   4.759  1.2357 -0.4718 -0.2759
 7076SOL     OW32860   0.088   4.413   7.291 -0.4994  0.2452 -0.1722
 7076SOL    HW132861   0.115   4.358   7.365 -0.0748  0.3614 -0.2368
 7076SOL    HW232862   0.081   4.346   7.224  0.7741 -1.0533  0.9736
 7077SOL     OW32863   2.667   0.709   8.394  0.0186 -0.0923 -0.3562
 7077SOL    HW132864   2.665   0.631   8.449 -2.8852  0.2996  0.0715
 7077SOL    HW232865   2.578   0.743   8.400  0.6345  1.5256 -0.3420
 7078SOL     OW32866   1.025   3.946   8.288 -0.3641 -0.7900 -0.2311
 7078SOL    HW132867   1.112   3.932   8.250 -0.5794 -0.4591 -0.8319
 7078SOL    HW232868   1.035   4.041   8.291 -1.0623 -0.7091 -0.4470
 7079SOL     OW32869   4.450   0.273  14.390  0.0869 -0.1193  0.5443
 7079SOL    HW132870   4.395   0.308  14.459 -1.3114  3.4113 -2.3644
 7079SOL    HW232871   4.426   0.331  14.317  0.4871 -1.2604 -0.5018
 7080SOL     OW32872   3.609   3.502   2.090 -0.3177 -0.7366  0.2203
 7080SOL    HW132873   3.662   3.557   2.033 -0.3728  0.3925  1.2719
 7080SOL    HW232874   3.519   3.532   2.076 -0.6575 -2.3058 -0.9988
 7081SOL     OW32875   1.588   3.649   7.789 -0.0852 -0.0996  0.1171
 7081SOL    HW132876   1.517   3.606   7.742  0.2976  0.9476 -1.4349
 7081SOL    HW232877   1.636   3.577   7.829 -0.7560 -0.3945  0.3860
 7082SOL     OW32878   2.038   1.748   8.563 -0.2787 -0.2945  0.1294
 7082SOL    HW132879   2.102   1.721   8.628 -0.2033  1.5956  0.8608
 7082SOL    HW232880   2.051   1.679   8.498 -0.7320  2.1484 -2.5523
 7083SOL     OW32881   3.038   2.311  13.214  0.5246 -0.6278  0.4725
 7083SOL    HW132882   3.101   2.382  13.223 -0.4159  0.1249  1.1224
 7083SOL    HW232883   2.968   2.338  13.155 -0.1847  1.5377  2.2935
 7084SOL     OW32884   3.517   4.526   5.940  0.1808 -0.3346  0.5190
 7084SOL    HW132885   3.472   4.602   5.903  1.2905 -0.6635 -1.5233
 7084SOL    HW232886   3.504   4.460   5.872 -2.7828 -0.4114  1.1593
 7085SOL     OW32887   2.806   2.984   0.196  0.1852  0.0064 -0.3176
 7085SOL    HW132888   2.736   3.038   0.158 -0.1265 -0.5897 -0.6014
 7085SOL    HW232889   2.865   3.050   0.233  0.5428 -0.2705 -0.3981
 7086SOL     OW32890   2.165   0.802   3.770  0.3566  0.6385 -0.0456
 7086SOL    HW132891   2.225   0.729   3.752 -1.6939 -1.0772  0.1116
 7086SOL    HW232892   2.099   0.748   3.813  1.0232  0.5221  0.8473
 7087SOL     OW32893   0.483   4.415   5.917  0.6382 -0.3384 -0.3453
 7087SOL    HW132894   0.425   4.492   5.914 -0.8660 -1.5379 -2.1569
 7087SOL    HW232895   0.496   4.404   6.011 -1.1170  1.0062  0.0491
 7088SOL     OW32896   1.241   0.361   4.944 -1.0656  0.0400 -0.1563
 7088SOL    HW132897   1.235   0.399   4.856 -0.6806 -1.6178 -0.9061
 7088SOL    HW232898   1.155   0.318   4.942 -2.1370  2.2614 -1.2147
 7089SOL     OW32899   1.569   3.505  11.490  0.2569 -0.4436  0.3799
 7089SOL    HW132900   1.584   3.597  11.469  0.9486 -1.1971 -2.3469
 7089SOL    HW232901   1.659   3.473  11.489 -0.2720 -1.9691  0.5542
 7090SOL     OW32902   1.347   3.214   3.993 -0.2180  0.2862 -0.4440
 7090SOL    HW132903   1.255   3.197   3.973 -0.3546 -0.8331  1.2049
 7090SOL    HW232904   1.379   3.124   3.991  1.3594  0.8082  1.9707
 7091SOL     OW32905   2.330   2.082   7.825  0.2462  0.1185 -0.2182
 7091SOL    HW132906   2.310   2.028   7.749 -0.5942 -0.7203  0.5995
 7091SOL    HW232907   2.319   2.014   7.892 -0.1441  0.5512  0.1534
 7092SOL     OW32908   3.256   1.865   6.892 -0.0066 -0.0701  0.1055
 7092SOL    HW132909   3.201   1.930   6.849  1.4147  0.8918 -0.2535
 7092SOL    HW232910   3.281   1.917   6.968 -1.1224  2.1308 -1.0373
 7093SOL     OW32911   1.990   0.263  16.890 -0.3557 -0.0815  0.0753
 7093SOL    HW132912   1.915   0.304  16.933 -1.2249 -1.7635  0.1882
 7093SOL    HW232913   2.053   0.246  16.960  0.2108 -2.2680 -0.9639
 7094SOL     OW32914   2.134   2.513   7.799  0.4767 -0.7871 -0.8822
 7094SOL    HW132915   2.203   2.527   7.735  1.9682  1.0398  1.1163
 7094SOL    HW232916   2.181   2.486   7.878  0.6097  0.2098 -0.6220
 7095SOL     OW32917   2.318   1.162   9.290  0.1468  0.3950  0.3433
 7095SOL    HW132918   2.382   1.151   9.360 -0.7325 -0.3579  1.0281
 7095SOL    HW232919   2.345   1.096   9.227 -0.9266  0.4734 -0.2121
 7096SOL     OW32920   3.188   3.163   8.356 -0.2208  0.5783  0.1028
 7096SOL    HW132921   3.254   3.213   8.404 -0.5047  0.3510  0.7150
 7096SOL    HW232922   3.174   3.085   8.408 -1.0955  0.8939  0.3373
 7097SOL     OW32923   2.175   1.736   6.655 -0.3814  0.3588  0.1289
 7097SOL    HW132924   2.094   1.693   6.627 -0.7541  1.0956  0.0613
 7097SOL    HW232925   2.232   1.660   6.647  0.4494  0.9334  0.6156
 7098SOL     OW32926   0.693   1.653   6.887  0.2788  0.2387  0.1029
 7098SOL    HW132927   0.662   1.563   6.896 -1.0228  0.7216  0.4190
 7098SOL    HW232928   0.785   1.649   6.861  0.7702  1.5913  1.6186
 7099SOL     OW32929   4.317   1.115   3.728 -0.3324 -0.0431 -0.0742
 7099SOL    HW132930   4.401   1.071   3.740 -0.7213 -0.1344  2.2031
 7099SOL    HW232931   4.266   1.048   3.682 -0.7273  0.0034  0.3013
 7100SOL     OW32932   2.526   0.268   0.356 -0.7188 -0.2901  0.9834
 7100SOL    HW132933   2.505   0.194   0.300  2.0705 -0.4827  0.1909
 7100SOL    HW232934   2.483   0.229   0.432  0.9383 -2.5642  0.7531
 7101SOL     OW32935   3.624   2.277   2.875 -0.4905 -0.0267 -0.7702
 7101SOL    HW132936   3.689   2.261   2.806 -0.1839  0.2474 -0.5459
 7101SOL    HW232937   3.566   2.201   2.868 -1.2126  0.5344 -0.8166
 7102SOL     OW32938   0.019   0.309   6.966  0.0335 -0.0167 -0.1230
 7102SOL    HW132939   0.089   0.250   6.994  2.1481  1.9597 -1.2355
 7102SOL    HW232940   4.681   0.270   7.015 -0.7284  0.2185 -1.0686
 7103SOL     OW32941   3.152   3.802   9.041 -0.4054  0.4981  0.2546
 7103SOL    HW132942   3.158   3.744   8.965 -2.0111  0.8595 -0.1412
 7103SOL    HW232943   3.232   3.853   9.027 -1.1098  1.5253 -0.0093
 7104SOL     OW32944   0.612   1.061   4.078  1.1518 -0.0789 -0.2402
 7104SOL    HW132945   0.675   1.008   4.127  0.2902 -1.5003 -0.6765
 7104SOL    HW232946   0.529   1.055   4.126  1.5142 -1.5083  0.1963
 7105SOL     OW32947   2.532   0.439  11.902 -0.3195 -0.0904  0.4697
 7105SOL    HW132948   2.569   0.403  11.822  0.1744  0.4883  0.4342
 7105SOL    HW232949   2.551   0.366  11.960 -1.3565 -1.5163 -0.9869
 7106SOL     OW32950   1.762   3.828  15.685  0.8712  0.0904  0.1555
 7106SOL    HW132951   1.806   3.878  15.617  2.4267 -0.2660  0.9108
 7106SOL    HW232952   1.674   3.848  15.653 -0.3022 -1.4355  2.4238
 7107SOL     OW32953   0.876   1.936   8.053  0.4690 -0.2584 -0.3373
 7107SOL    HW132954   0.966   1.969   8.047  0.2502  0.8271  2.5230
 7107SOL    HW232955   0.868   1.902   7.963 -1.6919  1.1696 -0.6860
 7108SOL     OW32956   1.757   1.673   2.558  0.2088  0.0019 -0.2116
 7108SOL    HW132957   1.852   1.668   2.561  0.1943  0.1960  0.4555
 7108SOL    HW232958   1.735   1.622   2.479 -0.1556 -0.0574 -0.0703
 7109SOL     OW32959   4.164   1.316  13.331 -0.2954  0.6969  0.4202
 7109SOL    HW132960   4.100   1.338  13.263  0.0915 -0.8382 -0.4318
 7109SOL    HW232961   4.232   1.269  13.283 -0.7753  0.5032 -0.0719
 7110SOL     OW32962   3.541   0.668   5.036  0.5948  0.6196 -0.6208
 7110SOL    HW132963   3.597   0.731   4.991  0.0096  1.2532 -0.4652
 7110SOL    HW232964   3.481   0.724   5.086  0.0605 -0.8497  0.3819
 7111SOL     OW32965   3.088   1.583   1.221 -0.1361 -0.0666  0.1181
 7111SOL    HW132966   3.130   1.596   1.136  0.2973 -0.5373  0.2638
 7111SOL    HW232967   3.075   1.489   1.223  3.3974 -0.5303  1.0385
 7112SOL     OW32968   0.382   2.441   5.530 -0.4421 -0.1755  0.0627
 7112SOL    HW132969   0.444   2.392   5.475 -2.1041 -0.5444 -1.4734
 7112SOL    HW232970   0.434   2.521   5.533  1.8004 -1.6854  1.4723
 7113SOL     OW32971   1.555   3.403   4.724  0.2823  0.2191 -0.2391
 7113SOL    HW132972   1.472   3.355   4.725 -1.7666  3.8113  0.6916
 7113SOL    HW232973   1.548   3.453   4.806  1.7767  0.5633 -0.3197
 7114SOL     OW32974   2.922   1.258   3.260  0.5881  0.4572  0.0411
 7114SOL    HW132975   2.888   1.251   3.350  1.7942  1.1642  0.5523
 7114SOL    HW232976   2.964   1.173   3.248 -0.5396 -0.3760  1.9111
 7115SOL     OW32977   2.728   2.425  16.261  0.1239  0.2108 -0.4899
 7115SOL    HW132978   2.655   2.406  16.203  0.9333 -0.7292 -1.2004
 7115SOL    HW232979   2.795   2.441  16.194 -0.3153 -1.4021 -1.3102
 7116SOL     OW32980   4.449   4.515   6.379  0.8379  1.0851 -0.6512
 7116SOL    HW132981   4.458   4.427   6.344 -2.4656  0.3919  0.3041
 7116SOL    HW232982   4.363   4.546   6.351  0.5529 -0.3650 -1.3826
 7117SOL     OW32983   0.074   4.096   5.261 -0.0839 -0.0880 -0.8698
 7117SOL    HW132984   0.047   4.178   5.302 -0.1663 -1.0767  1.0467
 7117SOL    HW232985   0.088   4.132   5.173 -0.4368  0.8697 -0.5395
 7118SOL     OW32986   2.075   3.493   5.209  0.3635  0.0145 -0.3357
 7118SOL    HW132987   1.982   3.516   5.207  0.5834  0.9142  0.4760
 7118SOL    HW232988   2.099   3.511   5.300 -0.1735 -2.0370  0.2256
 7119SOL     OW32989   3.308   1.170  16.348  0.0370 -0.3169  0.1092
 7119SOL    HW132990   3.300   1.080  16.319 -0.7592 -0.5229  0.9765
 7119SOL    HW232991   3.389   1.172  16.399 -0.4841  0.7707  0.9031
 7120SOL     OW32992   2.315   0.253   5.866 -0.7058 -0.4853 -0.0451
 7120SOL    HW132993   2.255   0.325   5.845  0.6381  0.3907 -0.9595
 7120SOL    HW232994   2.334   0.270   5.958 -0.2679 -0.1090 -0.2065
 7121SOL     OW32995   0.600   2.096   5.313  0.3951 -0.1201 -0.6129
 7121SOL    HW132996   0.607   2.185   5.348  1.0741  0.4807 -2.2711
 7121SOL    HW232997   0.682   2.080   5.266  0.0977 -0.5199 -0.9934
 7122SOL     OW32998   0.961   4.359   0.117 -0.1634 -0.3952 -0.6856
 7122SOL    HW132999   0.938   4.384   0.028 -2.1275 -0.2786 -0.1484
 7122SOL    HW233000   0.886   4.306   0.142 -0.1793 -0.5001 -0.9576
 7123SOL     OW33001   4.192   1.067   7.008  0.2053 -0.5790 -0.2861
 7123SOL    HW133002   4.108   1.100   6.977  0.0596  0.9466  1.7298
 7123SOL    HW233003   4.176   1.050   7.101 -1.1273  2.6687  0.0974
 7124SOL     OW33004   1.017   1.458   8.123  0.5693 -0.3739 -0.3918
 7124SOL    HW133005   1.005   1.524   8.055  0.9992 -0.4045 -0.4960
 7124SOL    HW233006   1.107   1.474   8.151  0.2150  1.4030 -0.2349
 7125SOL     OW33007   1.361   4.480   4.730  0.3974 -0.1789  0.7390
 7125SOL    HW133008   1.312   4.542   4.784 -2.0223 -0.0547 -1.5989
 7125SOL    HW233009   1.421   4.543   4.689  0.7779 -1.5003 -0.7251
 7126SOL     OW33010   2.288   3.971  11.353  0.2828 -0.2774 -0.1379
 7126SOL    HW133011   2.303   3.970  11.259  0.6281  0.5320 -0.0847
 7126SOL    HW233012   2.264   3.880  11.374 -2.8153  0.3725 -0.7623
 7127SOL     OW33013   0.807   2.922   9.435  0.2595  0.2535 -0.0610
 7127SOL    HW133014   0.773   2.833   9.433  1.7905 -0.3168 -0.2178
 7127SOL    HW233015   0.859   2.916   9.515 -0.0917 -0.5964  0.1026
 7128SOL     OW33016   3.335   1.415   8.206  0.1286 -0.2470  0.0383
 7128SOL    HW133017   3.326   1.343   8.269  0.3220 -1.1719 -0.9820
 7128SOL    HW233018   3.243   1.441   8.209  0.9654  2.6383  0.0016
 7129SOL     OW33019   2.436   4.634  11.844 -0.3083  0.1979  0.3171
 7129SOL    HW133020   2.518   4.601  11.881 -0.2400  2.8134  2.4984
 7129SOL    HW233021   2.376   4.562  11.827 -0.2687 -0.4152  2.8512
 7130SOL     OW33022   2.727   3.221   6.203  0.1267 -0.2077 -0.3870
 7130SOL    HW133023   2.799   3.284   6.200  0.5712 -0.6681  0.5468
 7130SOL    HW233024   2.750   3.138   6.162 -1.2982 -0.2160 -1.1787
 7131SOL     OW33025   4.156   4.218  13.024  0.4256 -0.2376 -0.0825
 7131SOL    HW133026   4.249   4.229  13.041  0.4444 -2.7081  1.4474
 7131SOL    HW233027   4.116   4.230  13.110  2.8499  1.9320  0.7451
 7132SOL     OW33028   1.791   4.431   6.727  0.2598  0.4276 -0.0492
 7132SOL    HW133029   1.848   4.385   6.665 -0.4728 -1.1412  0.4413
 7132SOL    HW233030   1.745   4.485   6.663 -1.3458 -1.7147 -0.6725
 7133SOL     OW33031   0.769   1.260  10.255 -0.0762 -0.4987  0.3009
 7133SOL    HW133032   0.815   1.313  10.319 -1.0400 -0.6502  1.1156
 7133SOL    HW233033   0.789   1.171  10.285 -3.9904 -1.6370 -0.4135
 7134SOL     OW33034   2.728   4.193  14.366 -0.3803 -0.4711  0.5700
 7134SOL    HW133035   2.776   4.145  14.434  1.0313  0.7427  0.4470
 7134SOL    HW233036   2.758   4.149  14.287 -3.2609 -0.7600 -0.3437
 7135SOL     OW33037   0.453   3.179   9.308  0.1293  0.7452  0.4502
 7135SOL    HW133038   0.382   3.195   9.371 -1.0384  0.6285 -0.8345
 7135SOL    HW233039   0.447   3.085   9.292  0.2735  0.7352  0.4609
 7136SOL     OW33040   2.073   0.435   9.793 -0.1004 -0.1259 -0.1900
 7136SOL    HW133041   2.162   0.470   9.797 -0.0669 -0.2318  0.0064
 7136SOL    HW233042   2.084   0.353   9.744  0.2220  0.1274 -0.5404
 7137SOL     OW33043   2.260   2.420  13.240  0.0675  0.0398 -0.1718
 7137SOL    HW133044   2.350   2.440  13.264 -0.9704  3.8562  0.4411
 7137SOL    HW233045   2.265   2.419  13.144 -2.1357  0.3967 -0.2875
 7138SOL     OW33046   4.340   2.214   5.918  0.3429  0.6189  0.3785
 7138SOL    HW133047   4.262   2.171   5.954  0.2488 -1.5023 -2.4176
 7138SOL    HW233048   4.401   2.200   5.990  1.4090 -1.8664 -1.0208
 7139SOL     OW33049   3.885   3.842   2.405  0.0546  0.3995 -0.0497
 7139SOL    HW133050   3.813   3.903   2.388 -0.5740 -0.0082  1.1125
 7139SOL    HW233051   3.856   3.809   2.490 -1.7381  0.1047 -0.7794
 7140SOL     OW33052   3.352   0.908   3.359 -0.2413  0.2731  0.2284
 7140SOL    HW133053   3.268   0.867   3.378 -1.2799  2.5213  0.4812
 7140SOL    HW233054   3.377   0.952   3.440 -2.4742  1.6659  0.1493
 7141SOL     OW33055   2.275   0.712  16.283  0.0675  0.7930 -0.0560
 7141SOL    HW133056   2.213   0.763  16.334 -0.3175  0.8221 -0.5557
 7141SOL    HW233057   2.323   0.788  16.251 -0.2149  0.6613 -0.7961
 7142SOL     OW33058   1.519   1.830   7.493  0.0541 -0.1838 -0.1913
 7142SOL    HW133059   1.441   1.819   7.439 -0.4947 -1.3662  0.8433
 7142SOL    HW233060   1.529   1.743   7.532  3.0781  0.6658  0.9503
 7143SOL     OW33061   2.829   4.338   5.059 -0.1789 -0.1134  0.1435
 7143SOL    HW133062   2.776   4.415   5.080 -3.4998 -2.2180 -0.5286
 7143SOL    HW233063   2.915   4.354   5.099 -0.1294  0.0291 -0.0227
 7144SOL     OW33064   3.891   0.572   1.615 -0.3020  0.3253 -0.2200
 7144SOL    HW133065   3.956   0.572   1.685  0.7201 -1.2014 -1.1595
 7144SOL    HW233066   3.955   0.584   1.545  0.0955 -0.4505  0.0103
 7145SOL     OW33067   0.102   4.254  10.974  0.3564  0.4013  0.7138
 7145SOL    HW133068   0.174   4.317  10.977  0.4421  0.3347  0.1394
 7145SOL    HW233069   0.082   4.276  10.883  1.6340  2.6777  0.9627
 7146SOL     OW33070   1.846   1.092   7.557  0.1593 -0.2523  0.0697
 7146SOL    HW133071   1.754   1.104   7.534 -0.1709  0.0377  1.5408
 7146SOL    HW233072   1.885   1.088   7.469  0.8880  1.0638  0.3438
 7147SOL     OW33073   0.821   1.170   3.508  0.1633  0.0778 -0.7149
 7147SOL    HW133074   0.805   1.255   3.466  2.8738  2.3555  2.8520
 7147SOL    HW233075   0.838   1.189   3.601 -0.3517 -0.3477 -0.5356
 7148SOL     OW33076   1.232   1.513   8.517 -0.6020  0.1438 -0.1673
 7148SOL    HW133077   1.268   1.534   8.431 -1.7727  0.4551 -0.5821
 7148SOL    HW233078   1.150   1.464   8.508 -0.3332 -0.7492  2.1318
 7149SOL     OW33079   3.584   0.758   3.565  0.0037  0.2865  0.4094
 7149SOL    HW133080   3.549   0.846   3.579  0.0104  0.4811 -0.8044
 7149SOL    HW233081   3.590   0.720   3.653 -0.4121 -1.3751 -0.2923
 7150SOL     OW33082   0.746   3.457   1.144  0.3989  0.1674 -0.3435
 7150SOL    HW133083   0.706   3.527   1.195 -2.0661 -2.3324  1.0909
 7150SOL    HW233084   0.821   3.425   1.194 -0.9856  0.3081  1.7931
 7151SOL     OW33085   2.499   1.721   5.214  0.2604  0.0208  0.3806
 7151SOL    HW133086   2.503   1.625   5.209  0.9902  0.0646  0.1296
 7151SOL    HW233087   2.535   1.738   5.301  1.1160  0.3645 -0.0444
 7152SOL     OW33088   4.714   2.647  10.916  0.0193 -0.0633 -0.4829
 7152SOL    HW133089   4.701   2.554  10.897  0.2926 -0.0614 -0.6809
 7152SOL    HW233090   4.639   2.683  10.868 -0.3802 -1.0429 -0.5897
 7153SOL     OW33091   1.449   2.705  16.079  0.7110  0.0167 -0.2234
 7153SOL    HW133092   1.381   2.739  16.020 -0.2517 -1.8139 -0.1727
 7153SOL    HW233093   1.400   2.693  16.160 -0.5452  1.6875 -0.7167
 7154SOL     OW33094   4.590   0.851   4.642 -0.5979  0.2623 -0.0743
 7154SOL    HW133095   4.683   0.868   4.627 -0.3206 -1.6276 -0.5622
 7154SOL    HW233096   4.558   0.934   4.676  0.7563 -0.3115  2.6074
 7155SOL     OW33097   2.774   2.799   3.123  0.3918 -0.0674 -0.4744
 7155SOL    HW133098   2.700   2.787   3.182 -1.0013  3.3871 -1.5232
 7155SOL    HW233099   2.753   2.721   3.070 -3.7083  2.5776 -2.8324
 7156SOL     OW33100   2.583   2.108   4.597  0.1558  0.1127  0.4442
 7156SOL    HW133101   2.662   2.124   4.545 -1.1722 -1.1928 -1.9900
 7156SOL    HW233102   2.615   2.121   4.686 -0.8893  2.3548  0.4899
 7157SOL     OW33103   0.550   1.065   3.517 -0.1751 -0.5657 -0.1162
 7157SOL    HW133104   0.643   1.090   3.524  0.1059 -0.4863 -4.0900
 7157SOL    HW233105   0.552   0.971   3.532 -1.2981 -0.5034  0.4033
 7158SOL     OW33106   1.412   3.156   4.445  0.4462  0.4862  0.6835
 7158SOL    HW133107   1.465   3.082   4.475  0.3608 -0.4135 -1.3425
 7158SOL    HW233108   1.402   3.203   4.528 -0.2821  0.8071  0.4177
 7159SOL     OW33109   3.917   4.551   5.799 -0.3256  0.7676  0.2225
 7159SOL    HW133110   3.881   4.615   5.737  0.9154  0.7687 -0.5038
 7159SOL    HW233111   3.910   4.605   5.877  0.0334  1.1559 -0.0093
 7160SOL     OW33112   1.329   2.722   4.393 -0.3523  0.2505 -0.2739
 7160SOL    HW133113   1.366   2.641   4.426 -0.2790  0.9374  1.3546
 7160SOL    HW233114   1.406   2.777   4.375  1.8390 -2.7697  0.0286
 7161SOL     OW33115   4.446   0.259   8.387 -0.1788 -0.4417  0.0994
 7161SOL    HW133116   4.532   0.217   8.376 -0.3759 -0.2391 -2.2595
 7161SOL    HW233117   4.455   0.339   8.335 -0.6809 -0.1888  0.4112
 7162SOL     OW33118   0.673   3.089  12.281 -0.1750  0.0963 -0.4969
 7162SOL    HW133119   0.626   3.168  12.252 -0.8474 -0.3638 -0.6758
 7162SOL    HW233120   0.637   3.083  12.370  0.5294  1.2977 -0.1282
 7163SOL     OW33121   3.134   2.681   8.987 -0.6034  0.5112  0.2077
 7163SOL    HW133122   3.094   2.622   8.922 -0.0344  1.3594 -0.8960
 7163SOL    HW233123   3.222   2.696   8.952 -0.9024 -2.2326 -1.7570
 7164SOL     OW33124   3.627   0.807   2.985 -0.4694  0.1636 -0.0522
 7164SOL    HW133125   3.647   0.865   3.058  1.3371 -1.0524  0.4086
 7164SOL    HW233126   3.544   0.767   3.013 -0.2061  0.7948  1.6445
 7165SOL     OW33127   0.517   0.922   8.453 -0.3363 -0.2522  0.1044
 7165SOL    HW133128   0.604   0.954   8.430  0.0273  0.1250  1.9869
 7165SOL    HW233129   0.525   0.906   8.547  0.0618 -0.9924 -0.0550
 7166SOL     OW33130   0.141   0.347   6.550  0.3563  0.0218  0.0395
 7166SOL    HW133131   0.197   0.314   6.620  0.2841 -2.4001 -1.0259
 7166SOL    HW233132   0.056   0.329   6.591  0.7712 -1.6216  0.1936
 7167SOL     OW33133   1.214   0.788   6.300  0.2828  0.3593  0.1169
 7167SOL    HW133134   1.249   0.876   6.317 -0.6893  0.9815 -1.0846
 7167SOL    HW233135   1.166   0.764   6.379  0.1987  0.0271 -0.0359
 7168SOL     OW33136   2.548   3.465   4.728  0.0563  0.3010  0.2625
 7168SOL    HW133137   2.598   3.484   4.808 -1.1572  1.7890  0.6623
 7168SOL    HW233138   2.585   3.527   4.665 -1.4689  0.0226 -0.8883
 7169SOL     OW33139   3.495   3.906  12.743 -0.8822  0.2067  0.1981
 7169SOL    HW133140   3.445   3.833  12.706  2.5551  0.2527 -4.5191
 7169SOL    HW233141   3.497   3.964  12.667 -4.2785  1.1640  0.8219
 7170SOL     OW33142   1.966   1.287   6.181  0.2907 -0.3936  0.0326
 7170SOL    HW133143   1.992   1.373   6.148 -1.3290 -0.3175 -1.0623
 7170SOL    HW233144   1.918   1.309   6.260 -1.3563 -0.0206 -1.0742
 7171SOL     OW33145   4.366   1.589   3.236 -0.3533 -0.4323  0.1160
 7171SOL    HW133146   4.303   1.644   3.284  0.5235 -1.1427  2.0273
 7171SOL    HW233147   4.411   1.649   3.176 -1.4141 -0.2912 -0.5461
 7172SOL     OW33148   2.029   4.349   6.619 -0.8501  0.1877 -0.2550
 7172SOL    HW133149   2.004   4.274   6.566 -0.1741 -0.8438  0.8931
 7172SOL    HW233150   2.104   4.318   6.670 -0.6273  2.9392  1.0898
 7173SOL     OW33151   4.688   2.055   9.954  0.4471 -0.4462  0.0525
 7173SOL    HW133152   4.602   2.033   9.916  1.0839 -1.3120 -0.8791
 7173SOL    HW233153   4.694   1.998  10.031  0.6182  0.2134  0.5175
 7174SOL     OW33154   0.123   3.994   4.004 -0.2946  0.1783  0.5245
 7174SOL    HW133155   0.098   4.081   4.034 -0.5922  0.2131  0.1704
 7174SOL    HW233156   0.054   3.955   3.951 -0.5658  2.0255 -0.4615
 7175SOL     OW33157   1.365   2.423   4.962 -0.1292  0.0254 -0.4344
 7175SOL    HW133158   1.458   2.413   4.980  0.0750  2.6326  0.0024
 7175SOL    HW233159   1.369   2.495   4.899  1.4997  0.8183  0.5609
 7176SOL     OW33160   3.093   4.457   6.710  0.5216  0.3829 -0.4510
 7176SOL    HW133161   3.058   4.529   6.657  1.8545 -1.1886 -3.4879
 7176SOL    HW233162   3.137   4.497   6.785  2.4809  2.5792 -2.7810
 7177SOL     OW33163   0.885   0.275   1.521  0.4716 -0.2007  0.0826
 7177SOL    HW133164   0.907   0.185   1.497  0.4024  0.1608 -1.2977
 7177SOL    HW233165   0.902   0.282   1.615  1.0388  1.8973 -0.1557
 7178SOL     OW33166   2.384   3.855   8.666  0.1716 -0.0142  0.1562
 7178SOL    HW133167   2.312   3.804   8.630 -0.1372  0.7504 -0.3182
 7178SOL    HW233168   2.364   3.936   8.619  2.0673  0.7371  0.6593
 7179SOL     OW33169   0.444   3.183   8.030 -0.2275 -0.7540 -0.5599
 7179SOL    HW133170   0.531   3.211   8.002 -0.4237 -0.2666 -0.6881
 7179SOL    HW233171   0.470   3.102   8.074 -0.7093 -1.5113 -1.6869
 7180SOL     OW33172   0.606   1.592   0.089  0.2998 -0.7340 -0.5161
 7180SOL    HW133173   0.700   1.579   0.096 -0.0483 -2.0660  1.6864
 7180SOL    HW233174   0.586   1.498   0.095  0.3589 -0.6014  2.0653
 7181SOL     OW33175   2.858   4.206   8.124  0.0078 -0.0703 -0.3376
 7181SOL    HW133176   2.927   4.271   8.109  1.3304 -1.9124 -2.1628
 7181SOL    HW233177   2.894   4.126   8.087  0.9339  0.8360 -1.4169
 7182SOL     OW33178   0.561   1.008  10.199 -0.0772  0.0518 -0.5883
 7182SOL    HW133179   0.612   0.983  10.122  2.4889 -1.4787  1.6197
 7182SOL    HW233180   0.565   1.104  10.198  1.7442 -0.0469 -2.0812
 7183SOL     OW33181   1.757   3.666   7.574  0.2113  0.2894 -0.4484
 7183SOL    HW133182   1.686   3.670   7.638  0.8842 -2.3113  0.4862
 7183SOL    HW233183   1.715   3.685   7.490 -1.1318 -1.4988 -0.1935
 7184SOL     OW33184   2.030   3.219   4.233 -0.2167  0.3897 -1.1214
 7184SOL    HW133185   1.966   3.288   4.220 -0.9761  0.0056  0.5187
 7184SOL    HW233186   2.000   3.181   4.316 -0.0709 -0.6486 -1.5368
 7185SOL     OW33187   0.034   0.931   7.063 -0.0724  0.2479  0.9486
 7185SOL    HW133188   0.083   0.939   7.144  3.0782 -0.8802 -0.8518
 7185SOL    HW233189   4.681   0.926   7.100 -0.2722  0.4711  0.5042
 7186SOL     OW33190   3.544   4.298  16.746  0.1859 -0.4350 -0.1578
 7186SOL    HW133191   3.500   4.263  16.669  0.1056 -0.9810  0.1339
 7186SOL    HW233192   3.621   4.240  16.753 -1.9434 -2.9751  2.5540
 7187SOL     OW33193   2.488   1.135   6.254 -0.2363  0.0614 -0.2771
 7187SOL    HW133194   2.463   1.114   6.344 -0.1118 -0.7004 -0.4221
 7187SOL    HW233195   2.416   1.089   6.209 -0.5936 -0.2373  0.5982
 7188SOL     OW33196   1.015   1.421   7.773 -0.1429 -0.2471  0.2541
 7188SOL    HW133197   1.087   1.482   7.756 -1.6741  1.0600 -1.6155
 7188SOL    HW233198   1.041   1.334   7.804 -1.0127 -0.9166 -0.8684
 7189SOL     OW33199   0.849   1.548   2.425  0.1572  0.1451  0.1254
 7189SOL    HW133200   0.761   1.522   2.449 -1.1003  2.3043 -2.1296
 7189SOL    HW233201   0.852   1.644   2.429 -0.6119  0.1422  0.6705
 7190SOL     OW33202   3.225   0.798   2.397  0.4253 -0.1944  0.2060
 7190SOL    HW133203   3.248   0.803   2.304  2.0158  0.9351  0.6738
 7190SOL    HW233204   3.284   0.729   2.427 -0.4586 -0.6588  0.8680
 7191SOL     OW33205   2.968   3.653   5.932  0.2940  0.2963  0.0947
 7191SOL    HW133206   2.967   3.560   5.956 -1.9618 -0.1050 -1.5750
 7191SOL    HW233207   2.892   3.680   5.984  0.1435  0.0502  0.0032
 7192SOL     OW33208   3.430   4.457  11.386  0.0833  0.2598 -0.3445
 7192SOL    HW133209   3.440   4.491  11.475 -0.5036  1.4839 -0.7439
 7192SOL    HW233210   3.335   4.449  11.386  0.3016 -2.2390 -3.2885
 7193SOL     OW33211   0.034   3.362   4.686 -0.2066  0.9893  0.1950
 7193SOL    HW133212   4.717   3.351   4.606  0.1145 -0.4642  0.1816
 7193SOL    HW233213   0.039   3.275   4.724  0.1015  0.7391 -0.4159
 7194SOL     OW33214   3.712   2.785  11.302 -0.5526  0.2526  0.0647
 7194SOL    HW133215   3.793   2.786  11.353  0.2504 -1.2041 -1.1961
 7194SOL    HW233216   3.657   2.846  11.351 -0.5573 -3.8961  5.2707
 7195SOL     OW33217   0.691   3.837  11.653  0.6122  0.3418 -0.0733
 7195SOL    HW133218   0.712   3.891  11.730  0.5165 -1.1831  1.0182
 7195SOL    HW233219   0.665   3.758  11.700 -0.2697  1.0211  0.5907
 7196SOL     OW33220   1.029   1.354   4.138 -0.1443 -0.0007  0.0748
 7196SOL    HW133221   1.047   1.438   4.094  0.6628 -0.9126 -1.3670
 7196SOL    HW233222   1.071   1.362   4.223 -1.1754  0.9252  0.4881
 7197SOL     OW33223   0.374   1.124  17.023  0.2575  0.3550 -0.5242
 7197SOL    HW133224   0.369   1.071  16.943 -1.3204 -0.6122  0.2129
 7197SOL    HW233225   0.432   1.061  17.067  0.4983 -1.1495 -3.0054
 7198SOL     OW33226   1.852   4.218  17.443 -0.3724  0.6540  0.3255
 7198SOL    HW133227   1.888   4.143  17.396 -0.7933 -0.2236  1.3989
 7198SOL    HW233228   1.932   4.248  17.486  0.1777 -1.7816  1.0046
 7199SOL     OW33229   1.668   2.096  13.380  0.3011 -0.1090  0.0528
 7199SOL    HW133230   1.672   2.003  13.361 -1.3267  0.1553 -1.6539
 7199SOL    HW233231   1.749   2.124  13.339 -0.4413  1.9947  0.0201
 7200SOL     OW33232   1.044   0.819  13.636 -0.5204  0.3006 -0.5980
 7200SOL    HW133233   1.135   0.790  13.632 -1.1260 -1.4461 -1.8148
 7200SOL    HW233234   1.010   0.762  13.705 -0.9623  1.5035  0.1784
 7201SOL     OW33235   0.297   1.797   2.500  0.0463  0.0073 -0.3224
 7201SOL    HW133236   0.208   1.827   2.480  0.0078 -0.2691 -0.5738
 7201SOL    HW233237   0.351   1.813   2.422  0.2783 -1.1705 -0.4177
 7202SOL     OW33238   0.842   3.814   2.895  0.3702 -0.2114  0.1769
 7202SOL    HW133239   0.841   3.758   2.972  0.7900 -0.8316 -0.2675
 7202SOL    HW233240   0.885   3.758   2.830  0.7138  0.8773 -0.5276
 7203SOL     OW33241   3.923   3.456  15.001  0.0385 -0.7380  0.3074
 7203SOL    HW133242   3.911   3.551  15.011 -2.4943 -1.0918  0.7012
 7203SOL    HW233243   3.980   3.427  15.072 -0.6219 -0.9383  0.7571
 7204SOL     OW33244   1.205   0.726  11.338 -0.0371 -0.1298 -0.0761
 7204SOL    HW133245   1.277   0.788  11.346  1.7103 -2.1801  0.2517
 7204SOL    HW233246   1.246   0.664  11.277  0.0169  0.1882 -0.3609
 7205SOL     OW33247   0.175   1.294   8.170  0.4646  0.4585 -0.1558
 7205SOL    HW133248   0.149   1.233   8.239 -1.9023  0.0836 -1.3960
 7205SOL    HW233249   0.108   1.362   8.183  1.9946  1.7708  0.8802
 7206SOL     OW33250   0.604   1.527   7.236  0.1673  0.4243 -0.4519
 7206SOL    HW133251   0.651   1.608   7.259  1.4632 -0.5905  0.4950
 7206SOL    HW233252   0.571   1.510   7.324 -0.7283  0.4870 -0.7804
 7207SOL     OW33253   2.361   2.018   2.699  0.3141  0.6497 -0.3235
 7207SOL    HW133254   2.271   2.046   2.683  0.3235  0.6214 -0.4259
 7207SOL    HW233255   2.398   2.079   2.763  0.3460  0.2832  0.0071
 7208SOL     OW33256   1.185   2.555   7.392 -0.2922  0.4596 -0.1008
 7208SOL    HW133257   1.194   2.462   7.412 -1.4684  0.7808  1.8282
 7208SOL    HW233258   1.271   2.581   7.425 -1.6510  1.2498  2.8266
 7209SOL     OW33259   1.948   1.336   5.499 -0.2232 -0.7086  0.6425
 7209SOL    HW133260   1.983   1.420   5.468  0.9509 -0.7424  1.8730
 7209SOL    HW233261   2.008   1.276   5.454 -0.4795 -1.2122  0.9681
 7210SOL     OW33262   0.711   3.365  12.019 -0.2305 -0.5258  0.0004
 7210SOL    HW133263   0.692   3.348  12.112 -1.7647  0.4601 -0.1183
 7210SOL    HW233264   0.657   3.445  12.017  0.1921 -0.2867 -1.2592
 7211SOL     OW33265   0.014   4.206   9.833  0.2307  0.4197 -0.1594
 7211SOL    HW133266   4.725   4.126   9.879 -1.5432  1.5440  0.8919
 7211SOL    HW233267   0.089   4.229   9.887 -0.9844  0.1000  1.6513
 7212SOL     OW33268   2.463   0.254  14.421 -0.1056 -0.3714 -1.2580
 7212SOL    HW133269   2.504   0.266  14.506 -0.5052  0.6430 -1.2024
 7212SOL    HW233270   2.421   0.339  14.404  2.2975  0.7955 -1.3293
 7213SOL     OW33271   2.128   0.508  13.859  0.4215 -0.9423 -0.0037
 7213SOL    HW133272   2.043   0.528  13.820  0.9652  1.6518  0.1431
 7213SOL    HW233273   2.100   0.523  13.949 -0.6325  0.9073 -0.6312
 7214SOL     OW33274   0.843   0.273   0.626 -0.1292 -0.0405  0.1895
 7214SOL    HW133275   0.858   0.275   0.721 -3.3393 -0.0501  0.6947
 7214SOL    HW233276   0.792   0.353   0.613  3.0787  1.8321 -0.8544
 7215SOL     OW33277   2.052   2.563   6.218  0.3894 -0.2717 -0.0794
 7215SOL    HW133278   2.104   2.483   6.226  1.9267  0.6535 -0.6859
 7215SOL    HW233279   1.994   2.558   6.294 -1.0168  0.2224 -1.1164
 7216SOL     OW33280   3.789   2.863   8.984  0.2174 -0.3266  0.6317
 7216SOL    HW133281   3.700   2.865   9.017  0.1449  1.0104  0.3466
 7216SOL    HW233282   3.826   2.788   9.031  0.5626  0.4538  1.6042
 7217SOL     OW33283   0.737   4.403  15.547  0.1494 -0.2784 -0.4275
 7217SOL    HW133284   0.650   4.388  15.510 -0.2725 -1.6571  1.1089
 7217SOL    HW233285   0.776   4.430  15.464  1.0488 -0.9698 -0.2279
 7218SOL     OW33286   1.015   0.910   7.314  0.1959 -0.3854  0.4122
 7218SOL    HW133287   0.941   0.876   7.364 -0.6568 -1.6103 -1.6612
 7218SOL    HW233288   0.995   1.003   7.324 -0.7945 -0.7068  1.3869
 7219SOL     OW33289   4.724   3.467   3.982  0.1820 -0.4824  0.0255
 7219SOL    HW133290   4.674   3.459   3.900 -0.3588 -1.1703  0.4269
 7219SOL    HW233291   4.700   3.555   4.010  2.1719  0.7567 -2.1709
 7220SOL     OW33292   4.048   1.011   1.428  0.2141  0.0033  0.4237
 7220SOL    HW133293   4.046   1.074   1.355 -0.0707 -0.4303  0.0579
 7220SOL    HW233294   4.069   0.927   1.388 -0.6223  0.0743 -0.1731
 7221SOL     OW33295   4.101   2.242  10.042 -0.6649  0.3050 -0.2988
 7221SOL    HW133296   4.141   2.189   9.973 -0.5203 -1.7299  1.3567
 7221SOL    HW233297   4.184   2.282  10.069  0.8793 -2.1478 -1.3409
 7222SOL     OW33298   3.498   3.035   8.716  0.0324 -0.5562 -0.6451
 7222SOL    HW133299   3.516   2.996   8.802  2.1960  0.9179 -0.4244
 7222SOL    HW233300   3.558   2.981   8.665  0.3937 -0.2196 -0.5784
 7223SOL     OW33301   2.850   3.274  16.549 -0.0721 -0.1288 -0.0198
 7223SOL    HW133302   2.901   3.265  16.468 -0.0844  2.0769 -0.2884
 7223SOL    HW233303   2.774   3.218  16.533 -0.8534  0.2165  2.5573
 7224SOL     OW33304   0.636   0.515   4.396 -0.0479 -0.3923  0.4444
 7224SOL    HW133305   0.574   0.460   4.444  0.1225 -0.2351  0.8437
 7224SOL    HW233306   0.601   0.494   4.310  0.4191  1.6770 -0.2459
 7225SOL     OW33307   3.187   4.390   4.940  0.4064 -0.7998 -0.5339
 7225SOL    HW133308   3.159   4.311   4.895  0.4212 -0.1086 -1.7349
 7225SOL    HW233309   3.148   4.382   5.027  2.2647 -0.6350  0.3189
 7226SOL     OW33310   3.238   4.324   2.423 -0.1657 -0.0454 -0.1851
 7226SOL    HW133311   3.178   4.383   2.468  0.7259  0.1220  0.7960
 7226SOL    HW233312   3.175   4.252   2.433 -0.3547  0.0670 -0.5840
 7227SOL     OW33313   3.451   0.935   6.884  0.0932 -0.2000 -0.1001
 7227SOL    HW133314   3.540   0.955   6.911 -0.6643  1.3290  1.2931
 7227SOL    HW233315   3.430   0.876   6.956  0.5209 -0.6558 -0.3559
 7228SOL     OW33316   1.584   0.591   6.273 -0.2236 -0.0660  0.8720
 7228SOL    HW133317   1.493   0.563   6.282 -0.2143 -0.3103  0.2302
 7228SOL    HW233318   1.627   0.520   6.224 -0.2209  0.6525 -0.1796
 7229SOL     OW33319   3.860   1.168  15.776 -0.4671 -0.1927  0.4519
 7229SOL    HW133320   3.790   1.223  15.742  0.2037 -0.1637 -0.8693
 7229SOL    HW233321   3.922   1.184  15.705 -0.5233 -0.8874  0.2425
 7230SOL     OW33322   1.132   3.728   4.756  0.1292 -1.1248 -0.3782
 7230SOL    HW133323   1.104   3.701   4.843  3.7583 -1.2521  0.7269
 7230SOL    HW233324   1.097   3.817   4.746  1.6898 -0.2374  2.0304
 7231SOL     OW33325   3.268   3.444   1.489  0.4792 -0.5461 -0.0907
 7231SOL    HW133326   3.348   3.497   1.489  0.0121  0.1598  1.4113
 7231SOL    HW233327   3.216   3.503   1.434  0.7547  0.6634  0.9292
 7232SOL     OW33328   3.889   1.132   5.699 -0.1383  0.5414 -0.1726
 7232SOL    HW133329   3.961   1.135   5.635  1.5163 -2.8170  1.5147
 7232SOL    HW233330   3.933   1.075   5.762 -0.4409 -0.2124 -0.6391
 7233SOL     OW33331   0.902   3.883   5.245 -0.3719  0.1171  0.6401
 7233SOL    HW133332   0.930   3.974   5.233  0.0146 -0.3524 -1.9904
 7233SOL    HW233333   0.853   3.890   5.327 -0.5098 -0.7608  0.6362
 7234SOL     OW33334   4.648   2.688   6.842 -0.2390 -0.1915 -0.2609
 7234SOL    HW133335   4.646   2.754   6.912  0.7149  0.2291 -0.6248
 7234SOL    HW233336   4.562   2.705   6.804 -1.2492 -3.1102  0.7434
 7235SOL     OW33337   4.047   0.569   1.843 -0.2271  0.1058  0.4788
 7235SOL    HW133338   4.104   0.493   1.837  1.7790  1.5974  0.4551
 7235SOL    HW233339   4.024   0.569   1.936 -3.3712 -4.1461 -0.3060
 7236SOL     OW33340   2.581   4.160   2.547  0.2888 -0.0370  0.1627
 7236SOL    HW133341   2.575   4.194   2.637  1.6941  1.6769 -0.4084
 7236SOL    HW233342   2.651   4.096   2.552  0.0799 -0.2180  0.8263
 7237SOL     OW33343   4.481   3.663  16.496 -0.0042 -0.2101 -0.0926
 7237SOL    HW133344   4.574   3.640  16.497  0.1073  0.2002 -1.4489
 7237SOL    HW233345   4.436   3.578  16.492  0.8961 -0.8586  3.1986
 7238SOL     OW33346   3.832   1.542   8.020  0.1611 -0.1923  0.6918
 7238SOL    HW133347   3.752   1.529   8.071 -0.0476 -0.3644  0.3310
 7238SOL    HW233348   3.794   1.570   7.937 -3.0328  1.5464  2.7577
 7239SOL     OW33349   1.864   3.611  15.043  0.2548  0.5361 -0.4251
 7239SOL    HW133350   1.915   3.692  15.037 -0.9596  1.4643  1.7854
 7239SOL    HW233351   1.917   3.560  15.104 -1.2537 -3.6534 -2.6349
 7240SOL     OW33352   0.440   1.543   6.624 -0.7424 -0.2399  0.0409
 7240SOL    HW133353   0.505   1.606   6.594 -3.1317  1.3192 -1.8910
 7240SOL    HW233354   0.360   1.586   6.594  0.0061  1.8673  1.1274
 7241SOL     OW33355   4.330   1.729  16.456  0.2327 -0.1387 -0.4879
 7241SOL    HW133356   4.287   1.755  16.374 -1.3261  0.6228  0.5732
 7241SOL    HW233357   4.326   1.812  16.505 -2.5413 -1.4286  1.4845
 7242SOL     OW33358   4.037   4.503   2.172 -0.1906  0.2036  0.8229
 7242SOL    HW133359   4.067   4.475   2.086  2.8169 -2.0770  2.6249
 7242SOL    HW233360   4.096   4.573   2.199  1.1944 -1.1043  1.2276
 7243SOL     OW33361   4.191   3.687   0.840 -0.0941  0.1230 -0.2172
 7243SOL    HW133362   4.226   3.755   0.784 -4.4137  0.5107 -2.4532
 7243SOL    HW233363   4.105   3.666   0.803 -0.5745  3.3914 -0.9142
 7244SOL     OW33364   3.758   1.601  12.298  0.0008 -0.6097 -0.1455
 7244SOL    HW133365   3.767   1.585  12.392 -0.1221  2.5899  0.4425
 7244SOL    HW233366   3.717   1.688  12.300 -0.0334 -0.5955 -1.6539
 7245SOL     OW33367   3.720   4.345   8.413 -0.2967  0.3309 -0.1077
 7245SOL    HW133368   3.697   4.402   8.340  1.5286  0.3597 -0.6577
 7245SOL    HW233369   3.657   4.274   8.398  0.9544 -0.6944 -0.4964
 7246SOL     OW33370   4.310   1.657  12.375  0.3569 -0.2153 -0.1750
 7246SOL    HW133371   4.257   1.714  12.319 -1.2598 -0.6158  0.9431
 7246SOL    HW233372   4.259   1.577  12.384 -0.3728  0.1638 -0.9894
 7247SOL     OW33373   3.845   1.377  10.744 -0.1934  0.2035  0.4049
 7247SOL    HW133374   3.828   1.311  10.811  0.5523 -2.1609 -1.7588
 7247SOL    HW233375   3.939   1.361  10.744 -0.2374 -0.1094 -2.0285
 7248SOL     OW33376   1.743   0.172   9.152 -0.1620  0.6049  0.1729
 7248SOL    HW133377   1.704   0.259   9.138 -1.0862 -0.0470 -1.3552
 7248SOL    HW233378   1.769   0.160   9.243 -1.3879 -0.6320  0.3567
 7249SOL     OW33379   2.754   3.930   3.732  0.2300  0.3531  0.3735
 7249SOL    HW133380   2.833   3.879   3.714 -0.6165 -0.5740 -0.7468
 7249SOL    HW233381   2.689   3.873   3.690 -0.1867 -0.1027  1.6586
 7250SOL     OW33382   2.204   3.880   5.139 -0.6071  0.0128  0.0490
 7250SOL    HW133383   2.262   3.897   5.213 -0.0155  1.4359 -0.7341
 7250SOL    HW233384   2.224   3.788   5.124  0.6582 -0.1698  3.0153
 7251SOL     OW33385   2.264   0.751   8.159  0.2049 -0.6793 -0.1637
 7251SOL    HW133386   2.186   0.780   8.208  1.9462  0.2068  2.0849
 7251SOL    HW233387   2.291   0.675   8.211  0.6952 -0.8215 -0.6290
 7252SOL     OW33388   0.651   4.254   7.636 -0.4830  0.7532  0.5488
 7252SOL    HW133389   0.614   4.166   7.638 -0.6984  0.8289  0.0201
 7252SOL    HW233390   0.739   4.234   7.604 -1.1260  0.7717 -1.2697
 7253SOL     OW33391   3.541   1.008   2.781  0.0068 -0.3731  0.2087
 7253SOL    HW133392   3.465   0.955   2.808 -0.4162  0.3154  0.3734
 7253SOL    HW233393   3.603   0.953   2.830  2.7625 -2.5243 -5.6952
 7254SOL     OW33394   3.048   1.225  11.451 -0.4079 -0.0758 -0.4578
 7254SOL    HW133395   2.972   1.279  11.429  0.5682  2.5395  2.5723
 7254SOL    HW233396   3.083   1.213  11.362 -2.0767  0.0822 -1.1273
 7255SOL     OW33397   1.365   1.720  11.689 -0.5710  0.1268  0.3476
 7255SOL    HW133398   1.400   1.803  11.722 -0.0228 -0.5472  1.4798
 7255SOL    HW233399   1.272   1.734  11.706 -1.2822 -1.2931 -2.5204
 7256SOL     OW33400   1.587   1.161   2.307  0.3902 -0.2571  0.0233
 7256SOL    HW133401   1.639   1.116   2.240  1.5239 -1.6095  1.8265
 7256SOL    HW233402   1.568   1.241   2.258  1.7718  0.4384  0.6220
 7257SOL     OW33403   2.979   0.353  12.106  0.1352  0.1239 -0.5379
 7257SOL    HW133404   2.936   0.364  12.021 -0.3334 -0.8541 -0.4299
 7257SOL    HW233405   3.069   0.378  12.084  0.8943 -2.1923 -0.0746
 7258SOL     OW33406   4.368   2.643   8.445  0.2396  0.1555 -0.0161
 7258SOL    HW133407   4.403   2.625   8.357  0.2200 -0.3221  0.0768
 7258SOL    HW233408   4.429   2.715   8.463 -0.7890  0.7281  1.1324
 7259SOL     OW33409   0.601   4.547   5.704  0.2020 -0.2482 -0.1802
 7259SOL    HW133410   0.571   4.491   5.776  0.3102 -1.8950 -1.4215
 7259SOL    HW233411   0.687   4.507   5.694  0.7867  0.9246  0.1459
 7260SOL     OW33412   3.524   0.364  13.382 -0.6185 -0.1024 -0.8298
 7260SOL    HW133413   3.510   0.349  13.475  3.1413  3.6406  0.3613
 7260SOL    HW233414   3.616   0.338  13.377 -1.0401 -1.9250  1.0814
 7261SOL     OW33415   0.505   4.478   8.462 -0.1646  0.3415  0.8360
 7261SOL    HW133416   0.551   4.561   8.475  1.4954 -0.4808  0.2399
 7261SOL    HW233417   0.425   4.508   8.418 -0.1990  1.4910  1.6762
 7262SOL     OW33418   3.152   1.957   4.064 -0.4381  0.2694 -0.2282
 7262SOL    HW133419   3.222   1.895   4.083 -0.8689 -0.4722 -1.0439
 7262SOL    HW233420   3.096   1.920   3.996  0.2398 -1.4984  0.1881
 7263SOL     OW33421   2.250   2.867   5.273  0.7491 -0.2951  0.6862
 7263SOL    HW133422   2.294   2.950   5.258  0.0084  0.2159  1.3489
 7263SOL    HW233423   2.250   2.866   5.369  4.5342  1.0884  0.6746
 7264SOL     OW33424   3.061   4.388   1.904 -0.2483 -0.0514 -0.2799
 7264SOL    HW133425   3.035   4.447   1.976  0.7745  0.5816 -0.4367
 7264SOL    HW233426   2.976   4.344   1.894 -0.7525  0.8336  0.0510
 7265SOL     OW33427   3.555   0.657  16.304 -0.8845  0.3280  0.0817
 7265SOL    HW133428   3.640   0.693  16.331 -0.4187 -0.5495 -0.2169
 7265SOL    HW233429   3.568   0.562  16.310 -0.5781  0.4646  1.5447
 7266SOL     OW33430   2.027   3.668   3.569 -0.5556 -0.0452  0.0824
 7266SOL    HW133431   1.952   3.619   3.536 -1.5482  1.4363  0.1172
 7266SOL    HW233432   2.003   3.758   3.547 -3.6664 -0.8146  0.2958
 7267SOL     OW33433   3.934   4.189   7.138  0.1725  0.1166 -0.2186
 7267SOL    HW133434   3.904   4.265   7.188 -0.1018 -2.1701  3.0955
 7267SOL    HW233435   3.851   4.151   7.111 -1.4779  1.7771  2.5011
 7268SOL     OW33436   3.706   2.605   5.434  0.7134 -0.3228 -0.5439
 7268SOL    HW133437   3.622   2.566   5.459  1.4337 -0.9861  0.8286
 7268SOL    HW233438   3.764   2.541   5.474  2.2383  1.9376  0.8232
 7269SOL     OW33439   3.713   3.480  12.165  0.1359 -0.5218  0.2292
 7269SOL    HW133440   3.708   3.565  12.121 -0.2057 -0.5453  0.2190
 7269SOL    HW233441   3.743   3.505  12.252 -1.5131 -1.9630  1.2079
 7270SOL     OW33442   4.178   1.471   9.315 -0.2125  0.2497  0.3611
 7270SOL    HW133443   4.217   1.554   9.344 -0.0977 -0.3518  1.9443
 7270SOL    HW233444   4.099   1.508   9.276 -0.3083  1.4931  1.7386
 7271SOL     OW33445   0.495   0.330   5.573 -0.2292  0.2244  0.1388
 7271SOL    HW133446   0.563   0.343   5.639  1.7675  0.9902 -2.0805
 7271SOL    HW233447   0.528   0.360   5.489 -0.3286  1.5679  0.5871
 7272SOL     OW33448   1.520   4.142   9.691  0.3311  0.0674 -0.1812
 7272SOL    HW133449   1.529   4.161   9.784 -0.8332 -0.6156  0.0721
 7272SOL    HW233450   1.504   4.049   9.705  0.2349  0.4860  2.3687
 7273SOL     OW33451   3.734   4.714   3.027 -0.2399 -0.1642  0.5095
 7273SOL    HW133452   3.673   0.019   2.965 -2.3812 -0.0147  2.7162
 7273SOL    HW233453   3.722   4.624   2.996 -0.5407 -0.6463  2.0073
 7274SOL     OW33454   4.342   3.437   4.450  0.5697  0.4912  0.6389
 7274SOL    HW133455   4.361   3.511   4.508  0.6203  0.8024  0.2227
 7274SOL    HW233456   4.252   3.415   4.478  0.7356  0.2437  0.9911
 7275SOL     OW33457   0.191   1.529   5.293 -0.4094 -0.1354  0.1104
 7275SOL    HW133458   0.260   1.573   5.342 -0.1992  0.5028 -0.7633
 7275SOL    HW233459   0.130   1.600   5.278  0.4986 -0.0046 -2.8942
 7276SOL     OW33460   3.912   2.520   6.953 -0.1236  0.7257 -0.0490
 7276SOL    HW133461   3.820   2.508   6.928 -0.6884  0.9932  1.8985
 7276SOL    HW233462   3.943   2.441   6.909 -0.3360  0.6986 -0.1550
 7277SOL     OW33463   2.736   2.536  17.196 -0.6153 -0.7595  0.6890
 7277SOL    HW133464   2.763   2.587  17.119  0.1330 -1.2381  0.6263
 7277SOL    HW233465   2.813   2.479  17.200 -0.2604 -0.3387  0.0146
 7278SOL     OW33466   2.290   0.252   2.446  0.0916 -0.0406  0.5719
 7278SOL    HW133467   2.303   0.239   2.352  0.5615 -0.7484  0.7296
 7278SOL    HW233468   2.268   0.345   2.451  0.8506  0.0487  2.1908
 7279SOL     OW33469   1.544   2.861   7.855  0.0255  0.1215 -0.2032
 7279SOL    HW133470   1.637   2.874   7.872  0.2357 -1.7319  0.1200
 7279SOL    HW233471   1.504   2.890   7.936 -0.5173 -0.3634 -0.2977
 7280SOL     OW33472   4.408   1.685  13.635  0.2496  0.0862 -0.5041
 7280SOL    HW133473   4.410   1.668  13.541  2.9158 -3.6344  0.2168
 7280SOL    HW233474   4.317   1.708  13.653  0.5654  0.0232  1.1996
 7281SOL     OW33475   0.667   1.136   5.548 -0.4996  0.4889  0.4261
 7281SOL    HW133476   0.703   1.215   5.588  0.8325  0.0109  0.1705
 7281SOL    HW233477   0.573   1.144   5.564 -0.8028  2.2354 -2.3014
 7282SOL     OW33478   1.889   2.779   4.967  0.6686  0.3149 -0.0683
 7282SOL    HW133479   1.982   2.782   4.942  1.1159  2.4764  1.8888
 7282SOL    HW233480   1.901   2.807   5.058  0.0775  0.7723 -0.1359
 7283SOL     OW33481   3.238   3.396   7.372 -0.4703  0.2828  0.4672
 7283SOL    HW133482   3.323   3.354   7.354 -0.5409  1.2903 -2.2016
 7283SOL    HW233483   3.198   3.346   7.443  0.8285 -0.9399  0.3340
 7284SOL     OW33484   3.479   2.544   2.333 -0.2401  0.9984 -0.3453
 7284SOL    HW133485   3.412   2.566   2.397  0.9896 -0.2585  1.3961
 7284SOL    HW233486   3.429   2.545   2.251 -4.0469 -0.2609  1.9896
 7285SOL     OW33487   2.563   0.789   1.937  0.3810 -1.0028  0.3290
 7285SOL    HW133488   2.616   0.840   1.999 -0.1734 -1.1890  0.9632
 7285SOL    HW233489   2.598   0.833   1.860  0.3050  1.5989  1.7785
 7286SOL     OW33490   1.818   1.366   0.541 -0.5607 -0.6354  0.6925
 7286SOL    HW133491   1.902   1.408   0.561  0.6385 -2.2730 -0.8706
 7286SOL    HW233492   1.850   1.278   0.563  0.4769 -1.2957 -3.4135
 7287SOL     OW33493   3.033   0.374   1.661 -0.3565 -0.2526 -0.2057
 7287SOL    HW133494   3.116   0.371   1.710  0.1590 -0.4711 -1.0897
 7287SOL    HW233495   3.069   0.394   1.575 -0.1078 -2.0027 -0.5161
 7288SOL     OW33496   3.421   0.492   5.803  0.2440  0.3636  0.2385
 7288SOL    HW133497   3.395   0.424   5.741  0.3257  0.9569 -0.4445
 7288SOL    HW233498   3.374   0.457   5.879 -0.0367 -1.6476 -0.8521
 7289SOL     OW33499   1.515   0.355   0.650  0.1719 -0.1634  0.7531
 7289SOL    HW133500   1.456   0.288   0.686  0.1924  0.5195  2.0622
 7289SOL    HW233501   1.458   0.431   0.638  1.0874  0.1061 -1.9302
 7290SOL     OW33502   4.140   3.867  13.116  0.2077  0.1443  0.2779
 7290SOL    HW133503   4.066   3.897  13.063  1.0683  1.4108 -0.2056
 7290SOL    HW233504   4.166   3.955  13.144 -2.2111  1.7762 -2.5731
 7291SOL     OW33505   2.874   3.655   8.527  0.2934 -0.2728  0.1251
 7291SOL    HW133506   2.923   3.737   8.533 -0.4508  0.0246  2.0248
 7291SOL    HW233507   2.808   3.664   8.595  2.3934  0.8393  2.0175
 7292SOL     OW33508   0.144   4.583   6.622 -0.1211  0.4196  0.2274
 7292SOL    HW133509   0.064   4.532   6.612  0.9396 -1.2794  0.3624
 7292SOL    HW233510   0.124   4.631   6.703  0.8121  0.6239  0.3352
 7293SOL     OW33511   2.287   3.980   3.594  0.1242 -0.0686 -0.1754
 7293SOL    HW133512   2.279   3.917   3.666 -0.0039  0.5608  0.3648
 7293SOL    HW233513   2.381   3.976   3.578 -0.2447 -1.4670 -1.9720
 7294SOL     OW33514   0.921   0.881   2.557  0.2550 -0.2741  0.3503
 7294SOL    HW133515   0.961   0.800   2.589  3.3864  2.0002  2.2065
 7294SOL    HW233516   0.907   0.874   2.462  1.7944  1.5729 -0.0075
 7295SOL     OW33517   1.257   3.132  16.428 -0.3675 -0.1077  0.1715
 7295SOL    HW133518   1.351   3.118  16.429 -0.0704  1.9485  1.9590
 7295SOL    HW233519   1.230   3.053  16.382  0.9148 -0.5113  0.1210
 7296SOL     OW33520   1.346   2.130   2.949 -0.2478 -0.1035  0.1352
 7296SOL    HW133521   1.391   2.204   2.909  0.5268 -0.8256 -0.3472
 7296SOL    HW233522   1.339   2.168   3.036  0.4639 -0.7696  0.4884
 7297SOL     OW33523   0.217   3.425   6.781 -0.6477  0.2055 -0.2814
 7297SOL    HW133524   0.229   3.417   6.686 -2.7022 -2.2033 -0.3371
 7297SOL    HW233525   0.285   3.489   6.801 -0.0653 -0.3429 -0.4932
 7298SOL     OW33526   2.811   4.016   7.241 -0.6642  0.2577 -0.5861
 7298SOL    HW133527   2.790   4.086   7.303 -1.4038 -0.6277  0.1618
 7298SOL    HW233528   2.843   3.944   7.295 -1.6294 -0.0104 -0.3751
 7299SOL     OW33529   1.091   4.241   4.372  0.0741  0.0372  0.0346
 7299SOL    HW133530   1.078   4.336   4.375  1.1294  0.2419 -1.9896
 7299SOL    HW233531   1.015   4.220   4.319  1.9886 -1.2268 -2.2282
 7300SOL     OW33532   2.226   4.010  15.280 -0.1069  0.3071  0.4060
 7300SOL    HW133533   2.142   4.000  15.236 -0.1752 -1.2161  0.8782
 7300SOL    HW233534   2.241   3.919  15.306  2.9760  0.5594 -0.5293
 7301SOL     OW33535   1.828   0.835   0.981 -0.0753 -0.7333  0.0452
 7301SOL    HW133536   1.751   0.860   0.929  1.7973  2.1746 -1.3777
 7301SOL    HW233537   1.830   0.914   1.035  1.8279 -0.1997 -0.7740
 7302SOL     OW33538   1.579   0.380   7.093 -0.2883 -0.2611  0.5356
 7302SOL    HW133539   1.542   0.349   7.011  0.0860  0.4027  0.1147
 7302SOL    HW233540   1.569   0.307   7.154  1.0184 -0.1045  0.9448
 7303SOL     OW33541   4.473   2.191   9.195  0.1893 -0.3538  0.2158
 7303SOL    HW133542   4.533   2.211   9.123  1.1732 -0.1138  1.1074
 7303SOL    HW233543   4.526   2.125   9.241 -0.0413 -1.6495 -1.3609
 7304SOL     OW33544   1.265   3.575   9.227 -0.1876  0.1336  0.0615
 7304SOL    HW133545   1.256   3.517   9.303 -0.4100  0.3982  0.2389
 7304SOL    HW233546   1.185   3.628   9.239 -0.9708 -1.2794  1.0379
 7305SOL     OW33547   1.558   0.425   3.012  0.8286  0.5164 -0.0878
 7305SOL    HW133548   1.464   0.445   3.015  0.4981 -0.8606 -1.2757
 7305SOL    HW233549   1.550   0.329   3.007 -2.9373  0.7718  1.0421
 7306SOL     OW33550   4.202   3.537  17.557 -0.1603 -0.3513  0.6437
 7306SOL    HW133551   4.135   3.507  17.497 -0.4091  4.2004 -1.3910
 7306SOL    HW233552   4.191   3.482  17.634 -0.9971 -0.9016  0.1186
 7307SOL     OW33553   3.297   2.588   3.053  0.0156 -0.3760 -0.8636
 7307SOL    HW133554   3.206   2.584   3.026  0.0377  2.5548 -1.3374
 7307SOL    HW233555   3.300   2.522   3.122  2.2004  1.9203  1.2327
 7308SOL     OW33556   4.498   4.390  14.900  0.2080  0.2308  0.1587
 7308SOL    HW133557   4.528   4.359  14.986  0.6084  0.7432  0.2069
 7308SOL    HW233558   4.406   4.365  14.902  0.4495 -0.7048 -0.5577
 7309SOL     OW33559   2.032   1.091  14.834  0.6755 -0.7476  0.6127
 7309SOL    HW133560   2.112   1.127  14.796 -0.2862  0.4990 -0.2033
 7309SOL    HW233561   2.050   1.103  14.928 -0.3424  0.3495  0.6621
 7310SOL     OW33562   0.195   1.895   9.432  0.1394 -0.1542  0.0280
 7310SOL    HW133563   0.258   1.963   9.407  1.1736 -0.7582  0.9933
 7310SOL    HW233564   0.190   1.910   9.526  2.5041 -0.4552  0.2089
 7311SOL     OW33565   0.370   4.335   5.044 -0.2834 -0.7337 -0.1365
 7311SOL    HW133566   0.367   4.242   5.067  1.0904 -0.9814 -0.9278
 7311SOL    HW233567   0.301   4.358   4.982  1.0778  2.1276 -0.5819
 7312SOL     OW33568   4.537   1.262   2.993  0.2512  0.1148 -0.2025
 7312SOL    HW133569   4.555   1.338   2.939  3.7229 -0.6325 -0.0603
 7312SOL    HW233570   4.589   1.276   3.072 -0.6662  1.3612  0.1868
 7313SOL     OW33571   4.018   3.476  17.353  0.5247  0.2457  0.2400
 7313SOL    HW133572   3.996   3.535  17.281 -1.7455 -0.4716  0.3562
 7313SOL    HW233573   3.935   3.444  17.389  0.3795  0.7401  0.3410
 7314SOL     OW33574   4.408   0.752  12.050  0.3948 -0.4078 -0.4534
 7314SOL    HW133575   4.351   0.728  11.977  1.0168 -1.3592 -0.6182
 7314SOL    HW233576   4.333   0.754  12.110 -1.0836  0.8936 -2.3223
 7315SOL     OW33577   3.512   3.597   8.724 -1.1503 -0.0144 -0.3104
 7315SOL    HW133578   3.524   3.502   8.730 -0.5995  0.1486  0.9572
 7315SOL    HW233579   3.603   3.627   8.733 -0.8701 -0.1155 -2.7551
 7316SOL     OW33580   2.776   2.347   3.143 -0.4636  0.2300 -0.3990
 7316SOL    HW133581   2.739   2.421   3.095  0.3865  0.1440 -1.1809
 7316SOL    HW233582   2.772   2.285   3.070 -2.0886 -1.1081  0.8233
 7317SOL     OW33583   2.272   2.048   6.195  0.7807 -0.3604  0.2895
 7317SOL    HW133584   2.267   1.968   6.247  1.9093 -1.2121 -0.9487
 7317SOL    HW233585   2.261   2.009   6.109  1.4555 -1.0085  0.5044
 7318SOL     OW33586   0.734   2.141   3.611  0.4117 -0.3228 -0.0189
 7318SOL    HW133587   0.702   2.110   3.527  2.7962  0.2723 -1.1318
 7318SOL    HW233588   0.645   2.152   3.644  0.5477 -0.3613  0.3628
 7319SOL     OW33589   2.473   4.636  14.500 -0.0257 -0.2569 -0.5736
 7319SOL    HW133590   2.453   4.729  14.497 -1.2064 -0.5006  0.0623
 7319SOL    HW233591   2.566   4.634  14.475 -0.0749  0.9503 -0.8498
 7320SOL     OW33592   2.993   4.650   5.991  0.2401 -0.1785  0.3481
 7320SOL    HW133593   2.923   4.676   5.931  0.0518  0.7914  0.9864
 7320SOL    HW233594   2.942   4.604   6.059 -4.3479  2.8648 -1.0450
 7321SOL     OW33595   4.255   2.444  11.212  0.3085 -0.4818 -0.3178
 7321SOL    HW133596   4.278   2.492  11.132  1.0878  1.1335  0.8816
 7321SOL    HW233597   4.206   2.368  11.182  0.1849 -0.2254 -0.7790
 7322SOL     OW33598   3.503   1.868   6.147 -0.1266  0.1109 -0.4838
 7322SOL    HW133599   3.501   1.809   6.223  1.8642  0.2726 -0.3049
 7322SOL    HW233600   3.582   1.920   6.162  0.5049 -0.7848 -0.6725
 7323SOL     OW33601   4.681   1.846   8.830 -0.2797  0.3180  0.6548
 7323SOL    HW133602   4.589   1.821   8.825 -0.8280  2.4015  0.1086
 7323SOL    HW233603   4.676   1.906   8.755  0.2700 -1.0660 -0.4888
 7324SOL     OW33604   3.238   4.223   0.252 -0.0951  0.0660 -0.6117
 7324SOL    HW133605   3.298   4.282   0.297  1.9357 -0.8523 -2.1484
 7324SOL    HW233606   3.154   4.268   0.265  0.2288  0.3817  0.4014
 7325SOL     OW33607   0.287   3.087   9.019  0.1041 -0.5575 -0.2135
 7325SOL    HW133608   0.299   3.156   8.953 -1.4615 -1.6949 -1.6906
 7325SOL    HW233609   0.370   3.046   8.996  0.5304  1.5424 -2.4508
 7326SOL     OW33610   3.263   3.170   2.909 -0.3927 -0.0259 -0.1054
 7326SOL    HW133611   3.244   3.077   2.900 -1.5731 -0.1338  3.3399
 7326SOL    HW233612   3.209   3.217   2.846 -0.4787  0.6021  0.4253
 7327SOL     OW33613   3.293   1.178   8.395  0.4932 -0.0245  0.4435
 7327SOL    HW133614   3.202   1.208   8.399  0.1227 -1.0894 -0.1732
 7327SOL    HW233615   3.280   1.097   8.444 -2.9977  0.4160  0.2679
 7328SOL     OW33616   3.393   0.456  12.400  0.3883 -0.6121 -0.1033
 7328SOL    HW133617   3.448   0.526  12.437 -0.1064 -0.7474  0.8770
 7328SOL    HW233618   3.405   0.450  12.305  3.2283 -0.2266  0.2252
 7329SOL     OW33619   0.835   1.269  15.475  0.2502  0.2998 -0.6659
 7329SOL    HW133620   0.888   1.267  15.555  0.1888  0.8924 -0.6096
 7329SOL    HW233621   0.859   1.186  15.434  0.3349  0.3441 -0.7044
 7330SOL     OW33622   0.033   2.977   3.599  0.3094  0.6417 -0.1661
 7330SOL    HW133623   4.703   3.016   3.541 -0.8730  2.3531  2.2829
 7330SOL    HW233624   0.073   2.904   3.552  1.1022 -1.7260  4.1514
 7331SOL     OW33625   4.372   3.982   3.781  0.0934  0.2115 -0.2959
 7331SOL    HW133626   4.392   3.892   3.804  0.8298  0.6754  0.8510
 7331SOL    HW233627   4.450   4.020   3.820  0.7105 -0.4493 -0.8822
 7332SOL     OW33628   2.723   3.673   6.777  0.6641 -0.0550 -0.2384
 7332SOL    HW133629   2.789   3.650   6.712  0.3088 -1.7911  0.0368
 7332SOL    HW233630   2.762   3.757   6.803 -0.9265  0.8280 -0.7282
 7333SOL     OW33631   2.349   1.250   7.709 -0.0688  0.1136 -0.2265
 7333SOL    HW133632   2.323   1.244   7.618 -1.2543  0.6010  0.0730
 7333SOL    HW233633   2.415   1.181   7.714 -0.2605 -0.0212  0.4925
 7334SOL     OW33634   1.200   2.898   4.656  0.2588  0.0544 -0.1351
 7334SOL    HW133635   1.281   2.862   4.691 -0.0680 -0.4789  0.0874
 7334SOL    HW233636   1.174   2.956   4.727  2.0682  0.7670 -0.0699
 7335SOL     OW33637   4.656   1.470  11.403  0.3069 -0.0514  0.5538
 7335SOL    HW133638   4.635   1.416  11.479  0.3586  0.1977  0.7452
 7335SOL    HW233639   4.654   1.556  11.445 -1.2014  0.4629 -0.5989
 7336SOL     OW33640   3.022   1.650   2.944  0.6827 -0.4036  0.2019
 7336SOL    HW133641   3.109   1.613   2.928  0.2817 -0.3868 -2.1067
 7336SOL    HW233642   3.010   1.630   3.037  0.9554  0.2098  0.3678
 7337SOL     OW33643   0.595   2.441  14.965 -0.3455 -0.2627  0.2020
 7337SOL    HW133644   0.599   2.442  15.060 -0.6786 -0.1273  0.2165
 7337SOL    HW233645   0.519   2.386  14.944 -1.6999  0.9808  1.8093
 7338SOL     OW33646   1.974   3.848   7.782  0.1274  0.1667 -0.1863
 7338SOL    HW133647   2.031   3.857   7.705 -0.1782 -0.8150 -0.5290
 7338SOL    HW233648   1.958   3.942   7.786  1.8336  0.3227  2.4739
 7339SOL     OW33649   2.708   4.519   7.325  0.0976 -0.3331 -0.1683
 7339SOL    HW133650   2.621   4.557   7.318 -1.2483 -3.4117 -0.0690
 7339SOL    HW233651   2.746   4.605   7.306 -0.0769  0.4314  3.0128
 7340SOL     OW33652   0.063   1.354   3.554  0.0131  0.1527  1.1992
 7340SOL    HW133653   0.032   1.393   3.636  1.8611  0.1812  1.8971
 7340SOL    HW233654   4.721   1.329   3.504 -0.1422  0.4653  1.2865
 7341SOL     OW33655   2.108   3.484  11.047  0.2717 -0.4971 -0.3870
 7341SOL    HW133656   2.173   3.433  10.999 -1.0667 -2.2276 -0.3347
 7341SOL    HW233657   2.096   3.558  10.986  0.3798  2.2800  2.9849
 7342SOL     OW33658   0.246   4.705   4.994 -0.0374 -0.0940 -0.9440
 7342SOL    HW133659   0.233   4.718   5.088 -2.2372  1.5218 -1.4610
 7342SOL    HW233660   0.271   0.061   4.977 -0.3029  0.1485 -0.0144
 7343SOL     OW33661   1.733   1.235  15.908  0.2294  0.1235 -0.0189
 7343SOL    HW133662   1.826   1.216  15.897  0.5903  1.0247  1.4400
 7343SOL    HW233663   1.696   1.218  15.822  3.6382  2.1879 -1.8818
 7344SOL     OW33664   0.572   2.268   2.862 -0.6565  0.0191  0.0371
 7344SOL    HW133665   0.573   2.186   2.814  0.3879  0.7286 -1.1540
 7344SOL    HW233666   0.523   2.322   2.799 -1.5437 -1.7744 -0.8310
 7345SOL     OW33667   3.571   4.029  10.892  0.1035  0.9268  0.6009
 7345SOL    HW133668   3.512   4.019  10.967 -2.7767 -0.5274 -1.8618
 7345SOL    HW233669   3.506   4.043  10.823 -1.5075 -0.0941  1.9186
 7346SOL     OW33670   2.210   2.757   1.161  0.2086  0.1314  0.2241
 7346SOL    HW133671   2.160   2.745   1.080  1.5303 -0.1865 -0.5465
 7346SOL    HW233672   2.228   2.665   1.182 -0.4473  0.2769  1.3956
 7347SOL     OW33673   0.183   0.524   6.333  0.0873  0.6074 -0.0589
 7347SOL    HW133674   0.113   0.586   6.348 -0.0750  0.0773  1.3946
 7347SOL    HW233675   0.164   0.472   6.411 -0.6195  1.1190  0.1032
 7348SOL     OW33676   0.153   0.682   6.677 -0.0490 -0.1558 -0.5534
 7348SOL    HW133677   0.058   0.680   6.676 -0.0808  2.1561 -1.6705
 7348SOL    HW233678   0.166   0.611   6.740  1.5045  1.8825  1.4148
 7349SOL     OW33679   1.430   3.237   5.018  0.0976  0.2090 -0.1236
 7349SOL    HW133680   1.470   3.182   4.951  0.1566 -0.1407  0.1944
 7349SOL    HW233681   1.505   3.244   5.077 -0.8623  0.5976  1.0459
 7350SOL     OW33682   3.472   4.628   1.937  0.6042  0.3256  0.6021
 7350SOL    HW133683   3.565   4.605   1.940  0.9861  1.8962  0.7695
 7350SOL    HW233684   3.448   4.575   1.861 -0.7634 -0.1356  1.3658
 7351SOL     OW33685   0.762   1.093   8.496  0.1530  0.0128 -0.1038
 7351SOL    HW133686   0.791   1.033   8.565 -2.8142  0.5167  1.5974
 7351SOL    HW233687   0.843   1.114   8.450  0.4868  0.4792  0.6935
 7352SOL     OW33688   2.790   2.178  15.860  0.0016  0.1272  0.1404
 7352SOL    HW133689   2.791   2.188  15.764  1.8709  1.7839  0.3168
 7352SOL    HW233690   2.716   2.234  15.883 -0.2409  0.0648 -0.4851
 7353SOL     OW33691   1.503   2.881   6.417 -0.4511 -0.2468  0.2393
 7353SOL    HW133692   1.497   2.791   6.450 -0.2097 -0.2526  0.2674
 7353SOL    HW233693   1.431   2.888   6.355 -0.2711  1.7530  0.2664
 7354SOL     OW33694   3.449   1.922   9.620 -0.2739  0.2466 -0.3523
 7354SOL    HW133695   3.389   1.900   9.549 -0.2173 -0.0204 -0.3164
 7354SOL    HW233696   3.482   1.833   9.633  0.6919  0.8735  1.4691
 7355SOL     OW33697   3.025   3.691  16.454 -0.7308  0.2699 -0.5798
 7355SOL    HW133698   2.952   3.749  16.432 -0.5521  1.7057  2.5399
 7355SOL    HW233699   3.094   3.740  16.409  0.9599  0.6769  2.4216
 7356SOL     OW33700   3.737   1.431  13.377  0.3995 -0.4244  0.5897
 7356SOL    HW133701   3.695   1.365  13.322  1.3286 -1.5089  1.1877
 7356SOL    HW233702   3.768   1.494  13.312  1.8225 -1.8711 -0.1255
 7357SOL     OW33703   2.913   0.332  12.772 -0.3432 -0.3286  0.3576
 7357SOL    HW133704   2.860   0.318  12.693  2.0268  1.0657 -1.4806
 7357SOL    HW233705   2.854   0.274  12.820 -0.3574 -0.1521  0.5553
 7358SOL     OW33706   4.028   0.078   4.433  0.5451 -0.5707 -0.4272
 7358SOL    HW133707   3.945   0.056   4.474  0.5020  0.1442 -0.1255
 7358SOL    HW233708   4.008   0.168   4.406  3.3915  0.7541  1.8802
 7359SOL     OW33709   4.683   0.377   6.081 -0.0234 -0.2022  0.1884
 7359SOL    HW133710   0.017   0.443   6.081 -1.1103  0.9299  1.2534
 7359SOL    HW233711   4.604   0.416   6.043  1.4749  1.0983 -1.5662
 7360SOL     OW33712   1.894   2.953   3.619 -0.7978 -0.3568 -0.4306
 7360SOL    HW133713   1.912   2.871   3.666  5.0708  1.2874  0.1154
 7360SOL    HW233714   1.844   3.011   3.677  0.0795 -0.0397  0.0088
 7361SOL     OW33715   3.962   3.052   2.723 -0.4761 -0.7781 -0.0968
 7361SOL    HW133716   3.913   3.129   2.694 -1.1758 -1.7567 -1.5340
 7361SOL    HW233717   3.907   2.978   2.696 -0.0920 -0.7689 -0.9213
 7362SOL     OW33718   0.907   4.491   8.450 -0.2094  0.4437 -0.2171
 7362SOL    HW133719   0.884   4.440   8.528 -0.1738  0.3067 -0.2964
 7362SOL    HW233720   0.945   4.571   8.488  0.5812 -0.2569  0.4705
 7363SOL     OW33721   2.035   0.367   7.013  0.3670 -0.1895  0.0294
 7363SOL    HW133722   1.979   0.394   7.086 -1.8543 -2.7960 -0.7259
 7363SOL    HW233723   1.982   0.373   6.933  1.6594  0.3089 -0.7809
 7364SOL     OW33724   1.880   3.617   2.953  0.5543 -0.5479  0.1131
 7364SOL    HW133725   1.817   3.684   2.926  0.4965 -1.2523 -1.5280
 7364SOL    HW233726   1.851   3.545   2.897  0.4980 -2.2764  2.3459
 7365SOL     OW33727   3.120   3.965   3.502 -0.1338  1.0580  0.4172
 7365SOL    HW133728   3.126   3.942   3.595  0.6984 -1.0751 -0.1602
 7365SOL    HW233729   3.046   3.915   3.470  0.7977 -0.7746  1.1441
 7366SOL     OW33730   0.977   4.081   2.971 -0.3609 -0.5305 -0.2020
 7366SOL    HW133731   0.953   4.116   3.057 -2.0352 -1.2691 -0.3755
 7366SOL    HW233732   0.937   3.994   2.971  0.6597 -0.9957 -2.3546
 7367SOL     OW33733   1.431   1.762   1.450  0.3027  0.0870 -0.4712
 7367SOL    HW133734   1.396   1.774   1.539  1.3666  3.6351 -0.5506
 7367SOL    HW233735   1.505   1.821   1.448 -0.5887  1.1861 -0.8547
 7368SOL     OW33736   4.492   0.599   4.638 -0.0067  0.2946 -0.0705
 7368SOL    HW133737   4.524   0.587   4.549 -2.7045 -3.7362 -0.5038
 7368SOL    HW233738   4.520   0.690   4.650 -0.5751  0.2929  1.2309
 7369SOL     OW33739   2.151   1.253  10.683  0.0563  0.4285 -0.4936
 7369SOL    HW133740   2.132   1.202  10.763 -1.4269  2.8449  0.6957
 7369SOL    HW233741   2.118   1.336  10.717 -0.8248 -0.1486  0.0713
 7370SOL     OW33742   4.404   3.422   7.463  0.3469 -0.0513 -0.1612
 7370SOL    HW133743   4.494   3.393   7.452  0.0883 -1.5202  1.7338
 7370SOL    HW233744   4.413   3.509   7.423  1.0429 -0.7756 -1.6036
 7371SOL     OW33745   2.861   1.526  13.113  0.4896 -0.4283  0.3246
 7371SOL    HW133746   2.778   1.561  13.144  0.1031 -1.1292  0.0623
 7371SOL    HW233747   2.923   1.591  13.145  0.4515 -0.4466  0.4342
 7372SOL     OW33748   2.712   0.439   6.239 -0.0896 -0.1449 -0.0786
 7372SOL    HW133749   2.794   0.488   6.251  0.1617  0.2076 -3.2877
 7372SOL    HW233750   2.737   0.350   6.264 -1.5670 -0.7237 -0.6441
 7373SOL     OW33751   3.466   0.227   2.318 -0.0224  0.0878 -0.4100
 7373SOL    HW133752   3.398   0.204   2.255  0.5983 -0.4474 -0.8803
 7373SOL    HW233753   3.450   0.321   2.329 -0.1921  0.2602 -2.0137
 7374SOL     OW33754   4.518   4.299   2.077  0.1309 -0.0518  0.3380
 7374SOL    HW133755   4.491   4.251   1.999  0.6979 -0.7472  0.5753
 7374SOL    HW233756   4.584   4.357   2.037  1.7461 -0.9327  1.7179
 7375SOL     OW33757   1.804   1.562   4.060  0.1565  0.7582  0.5904
 7375SOL    HW133758   1.836   1.479   4.095 -0.6730 -0.5038 -1.6494
 7375SOL    HW233759   1.856   1.560   3.980 -0.2319  0.5273  0.3400
 7376SOL     OW33760   2.412   2.294   4.548  0.2213  0.2284 -0.3058
 7376SOL    HW133761   2.471   2.368   4.559  1.8156 -0.9565 -1.0232
 7376SOL    HW233762   2.466   2.220   4.574 -1.8909 -0.9311  0.7797
 7377SOL     OW33763   2.048   1.207   3.862  0.3096  0.0030 -0.0832
 7377SOL    HW133764   1.976   1.194   3.801  0.0145  0.8398  0.0788
 7377SOL    HW233765   2.096   1.273   3.811  0.6138 -0.4877 -0.4313
 7378SOL     OW33766   0.020   4.263   8.680  0.0498  0.1653 -0.5817
 7378SOL    HW133767   0.107   4.247   8.646  0.7351 -1.4323  1.8838
 7378SOL    HW233768   0.032   4.235   8.771 -0.0675 -0.5030 -0.7744
 7379SOL     OW33769   1.270   4.484   9.758  0.2821  0.3153 -0.0288
 7379SOL    HW133770   1.203   4.531   9.710  1.8343  2.0683 -0.4767
 7379SOL    HW233771   1.209   4.429   9.807 -1.8736  0.1448 -2.9008
 7380SOL     OW33772   3.868   0.509   3.962  0.7912 -0.2968  0.6583
 7380SOL    HW133773   3.894   0.478   4.049 -2.3481  0.8438  2.0092
 7380SOL    HW233774   3.777   0.530   3.984  1.8627  2.5552  2.4521
 7381SOL     OW33775   4.284   2.375   5.157 -0.2434  0.3452  0.0782
 7381SOL    HW133776   4.235   2.361   5.076  1.3239 -1.6474 -0.5055
 7381SOL    HW233777   4.234   2.323   5.220  2.8329 -1.4557  0.9818
 7382SOL     OW33778   0.572   3.860   4.687  0.3332 -0.4225  0.0196
 7382SOL    HW133779   0.660   3.859   4.727  1.3890 -1.1844 -2.3578
 7382SOL    HW233780   0.550   3.769   4.670  0.0165 -0.5214  0.9600
 7383SOL     OW33781   2.283   2.454  12.362  0.8010  0.0660 -0.3764
 7383SOL    HW133782   2.229   2.485  12.435  1.8215 -1.4486  1.0170
 7383SOL    HW233783   2.220   2.455  12.290 -1.3797 -1.7603  1.5368
 7384SOL     OW33784   3.050   2.152   9.799 -0.1784  0.3274  0.2309
 7384SOL    HW133785   3.094   2.215   9.742 -0.2950  2.8097  2.9178
 7384SOL    HW233786   3.092   2.177   9.881  0.6099  0.0282 -0.0792
 7385SOL     OW33787   1.266   0.046  10.175 -0.8614 -0.2669  0.4845
 7385SOL    HW133788   1.282   4.732  10.094  1.3447 -1.6197  1.7211
 7385SOL    HW233789   1.215   4.717  10.225 -2.2837  0.6036  0.1439
 7386SOL     OW33790   0.011   4.580  10.181 -0.6473 -0.4311  0.4120
 7386SOL    HW133791   4.712   4.494  10.204 -2.8604  0.9394  2.2382
 7386SOL    HW233792   4.703   4.591  10.096 -0.2057  2.2048  0.5107
 7387SOL     OW33793   2.933   2.457  13.480  0.2320 -0.6802 -0.3518
 7387SOL    HW133794   2.838   2.454  13.491  0.7084 -0.4286  3.6492
 7387SOL    HW233795   2.941   2.524  13.412 -1.0698 -0.9197 -0.7410
 7388SOL     OW33796   1.401   2.228   6.110  0.7094 -0.8314 -0.0868
 7388SOL    HW133797   1.383   2.312   6.153 -0.1322 -1.3016  0.4737
 7388SOL    HW233798   1.496   2.221   6.119  0.6902  0.3628  1.0146
 7389SOL     OW33799   2.667   0.393   9.992 -0.3813 -0.5383 -0.1787
 7389SOL    HW133800   2.618   0.473   9.975 -0.0406 -0.1470  0.6411
 7389SOL    HW233801   2.752   0.434  10.010 -0.3014 -0.8406  0.1442
 7390SOL     OW33802   3.424   3.315   8.436  0.4108  0.2332 -0.0941
 7390SOL    HW133803   3.383   3.401   8.430 -0.2957 -0.1928 -1.3563
 7390SOL    HW233804   3.493   3.338   8.498  2.4588  2.4461 -3.1753
 7391SOL     OW33805   1.148   2.639   3.802  0.4242  0.5572  0.1091
 7391SOL    HW133806   1.239   2.653   3.828 -0.5296  4.2142  1.4443
 7391SOL    HW233807   1.141   2.550   3.837  2.0418  0.5889  0.5137
 7392SOL     OW33808   3.850   1.924  15.910 -0.1214  0.2734  0.1030
 7392SOL    HW133809   3.889   1.839  15.931 -0.4856  0.0940  0.0557
 7392SOL    HW233810   3.852   1.924  15.815 -3.1599  1.8108  0.0272
 7393SOL     OW33811   1.467   1.442  11.668  0.4105  0.1201 -0.4193
 7393SOL    HW133812   1.415   1.413  11.594 -0.4458  3.3392 -1.0772
 7393SOL    HW233813   1.455   1.537  11.673 -0.5731 -0.0600  0.5500
 7394SOL     OW33814   0.595   2.729  12.403 -0.1516  0.6547 -0.2809
 7394SOL    HW133815   0.531   2.661  12.385 -3.3526  3.6119 -0.0403
 7394SOL    HW233816   0.637   2.725  12.317 -1.3906  1.2218 -0.9015
 7395SOL     OW33817   1.435   4.725   0.474 -0.3775  0.8183 -0.0274
 7395SOL    HW133818   1.378   0.025   0.406 -2.7304 -1.5320  0.7161
 7395SOL    HW233819   1.509   4.713   0.415 -0.1170  1.5944  0.1482
 7396SOL     OW33820   3.646   3.217   5.914 -0.1146  0.6795  0.0348
 7396SOL    HW133821   3.643   3.133   5.959  2.1424  0.3839 -0.3889
 7396SOL    HW233822   3.582   3.201   5.844  1.1519  1.1053 -1.2073
 7397SOL     OW33823   2.546   1.487   5.586 -0.4355  0.3444 -0.0672
 7397SOL    HW133824   2.539   1.398   5.620  1.1993  0.1310 -0.2830
 7397SOL    HW233825   2.618   1.482   5.523  0.5128  1.3789  0.9321
 7398SOL     OW33826   2.393   3.586   8.370 -0.1429 -0.0380  0.1629
 7398SOL    HW133827   2.328   3.626   8.428 -1.9885  0.8887 -2.5443
 7398SOL    HW233828   2.478   3.620   8.399  0.0797  0.7717 -1.4456
 7399SOL     OW33829   3.436   2.935   8.996 -0.2384  0.0515 -0.2542
 7399SOL    HW133830   3.402   2.858   8.951 -0.8502  0.3008 -0.2135
 7399SOL    HW233831   3.472   2.901   9.078 -0.2555  0.6575 -0.0022
 7400SOL     OW33832   0.283   2.779   2.105 -0.0291 -0.1085  0.1155
 7400SOL    HW133833   0.226   2.856   2.105 -0.4559 -0.3916  3.2347
 7400SOL    HW233834   0.235   2.726   2.041 -0.0010 -0.8070  0.6671
 7401SOL     OW33835   3.277   0.184   8.619  0.1475  0.0106 -0.2833
 7401SOL    HW133836   3.368   0.174   8.593  1.3631  1.9554  3.2585
 7401SOL    HW233837   3.235   0.104   8.587 -1.4362  0.2400  1.2253
 7402SOL     OW33838   4.646   1.774  10.544 -0.2095  0.4008  0.0110
 7402SOL    HW133839   4.656   1.757  10.451 -1.3820  0.0405 -0.0473
 7402SOL    HW233840   4.602   1.697  10.581  0.7768  0.6400  1.7134
 7403SOL     OW33841   3.345   3.989   2.531 -0.5216 -0.1448 -0.1509
 7403SOL    HW133842   3.424   3.994   2.583  0.5297 -3.4406 -1.3934
 7403SOL    HW233843   3.276   4.017   2.591 -0.2462  2.8287 -1.2164
 7404SOL     OW33844   1.338   4.686   6.093 -0.1342 -0.7558  0.1484
 7404SOL    HW133845   1.295   4.620   6.147 -2.0250  0.0047 -0.4408
 7404SOL    HW233846   1.286   0.029   6.112 -0.1999 -0.3290 -1.7972
 7405SOL     OW33847   1.607   3.159  13.608 -0.6475  0.0150  0.8024
 7405SOL    HW133848   1.660   3.116  13.542 -0.1767 -0.1351  1.2737
 7405SOL    HW233849   1.514   3.139  13.596 -0.1979 -2.5754  1.6937
 7406SOL     OW33850   1.079   2.181   9.559 -0.3798  0.0562 -0.8717
 7406SOL    HW133851   1.169   2.179   9.592 -0.1815  0.0939 -1.4003
 7406SOL    HW233852   1.029   2.124   9.618  1.7647 -0.4331  0.4939
 7407SOL     OW33853   3.758   1.529  12.560  0.4456 -0.4182  0.2735
 7407SOL    HW133854   3.685   1.512  12.619  1.3601 -0.7756  1.2972
 7407SOL    HW233855   3.835   1.520  12.616  0.2129  1.2714  0.8672
 7408SOL     OW33856   2.886   2.529   6.813 -0.0536 -0.2713  0.7550
 7408SOL    HW133857   2.934   2.489   6.740 -0.1999 -1.8123  1.5055
 7408SOL    HW233858   2.865   2.451   6.864 -1.1299 -0.6690 -0.2880
 7409SOL     OW33859   1.082   4.210  10.941 -0.6589 -0.0597  0.0284
 7409SOL    HW133860   1.044   4.150  10.877 -0.2163  1.2447 -1.4562
 7409SOL    HW233861   1.041   4.293  10.917  1.0913  0.8446  0.1471
 7410SOL     OW33862   0.620   3.009   7.459  0.3553  0.1451  0.1105
 7410SOL    HW133863   0.574   2.925   7.453 -0.8993  0.9065 -0.9778
 7410SOL    HW233864   0.705   2.984   7.497  0.7807  0.7578 -0.4304
 7411SOL     OW33865   2.020   4.514   9.280 -0.0776  0.1263 -0.0970
 7411SOL    HW133866   1.930   4.497   9.306 -0.4084  0.4688 -0.9841
 7411SOL    HW233867   2.030   4.449   9.210 -2.6513 -0.2425 -0.1249
 7412SOL     OW33868   3.418   1.739   4.773 -0.4326  0.5612 -0.5705
 7412SOL    HW133869   3.452   1.650   4.780  0.8122  0.9601 -1.3736
 7412SOL    HW233870   3.470   1.778   4.702 -0.4386 -0.9422 -1.4044
 7413SOL     OW33871   1.270   4.683   5.831 -0.3474  0.2901  0.3256
 7413SOL    HW133872   1.294   4.676   5.924 -2.0206 -0.0314  0.7316
 7413SOL    HW233873   1.340   0.003   5.796  2.2911 -2.8374  0.6935
 7414SOL     OW33874   3.375   2.752   8.463 -0.0232 -0.2657 -0.7099
 7414SOL    HW133875   3.323   2.831   8.451 -0.2645 -0.5012 -1.2017
 7414SOL    HW233876   3.452   2.774   8.516  1.2243 -1.3617 -2.0629
 7415SOL     OW33877   3.243   3.442   4.524  0.3810  0.2572  0.1975
 7415SOL    HW133878   3.237   3.473   4.433 -1.1703  1.0722  0.5805
 7415SOL    HW233879   3.273   3.352   4.512 -1.9177 -0.6663  1.5593
 7416SOL     OW33880   1.729   1.496   6.003  0.2133  0.5403  0.2529
 7416SOL    HW133881   1.781   1.434   6.053 -2.1743 -2.0686 -0.4525
 7416SOL    HW233882   1.771   1.581   6.015  2.0142 -0.4240  0.6272
 7417SOL     OW33883   4.563   0.609   4.371 -0.4074  0.2449 -0.2610
 7417SOL    HW133884   4.522   0.560   4.299  2.9009  1.0812 -2.6784
 7417SOL    HW233885   4.625   0.665   4.325  1.3392  0.1509  1.9407
 7418SOL     OW33886   0.702   2.709  12.089 -0.2723 -0.2371  0.3041
 7418SOL    HW133887   0.712   2.804  12.077  2.3103 -0.7790 -1.6775
 7418SOL    HW233888   0.647   2.685  12.015 -0.7361  2.6350 -0.3054
 7419SOL     OW33889   1.643   4.681   7.815  0.3784 -0.1635 -0.3019
 7419SOL    HW133890   1.685   0.019   7.860  1.0640 -1.7807  1.6994
 7419SOL    HW233891   1.630   4.613   7.881 -0.0323 -1.5399 -1.7780
 7420SOL     OW33892   4.501   1.498  10.591  0.3265 -0.2307  0.0459
 7420SOL    HW133893   4.480   1.493  10.684  0.8719  1.2301  0.2547
 7420SOL    HW233894   4.416   1.491  10.548  0.6714 -2.6869 -0.1981
 7421SOL     OW33895   3.722   2.970   7.410 -0.2169 -0.1878  0.2311
 7421SOL    HW133896   3.714   2.902   7.343  0.2149 -0.4535  0.4484
 7421SOL    HW233897   3.718   2.907   7.481 -1.7335  0.6302  0.8702
 7422SOL     OW33898   0.399   2.544   3.011  0.4566  0.2276  0.1160
 7422SOL    HW133899   0.354   2.573   2.932 -0.0438  0.2888  0.4233
 7422SOL    HW233900   0.475   2.602   3.014  0.7382 -0.1529  0.5461
 7423SOL     OW33901   3.632   3.663   0.523 -0.2433  0.0528 -0.4839
 7423SOL    HW133902   3.561   3.724   0.503  0.7910  2.5514  3.5187
 7423SOL    HW233903   3.659   3.701   0.607  1.7818 -0.4170 -0.9317
 7424SOL     OW33904   3.524   2.120  12.110  0.4003 -0.1765 -0.3337
 7424SOL    HW133905   3.444   2.142  12.062 -0.3105 -0.6861  0.6162
 7424SOL    HW233906   3.495   2.080  12.192 -0.7529 -1.5784 -1.4231
 7425SOL     OW33907   0.893   3.246  12.335  0.1839  0.3830 -0.0352
 7425SOL    HW133908   0.807   3.204  12.346  0.4598 -0.0030  0.6258
 7425SOL    HW233909   0.909   3.220  12.244 -1.5147 -1.6588  0.2615
 7426SOL     OW33910   2.606   3.431  13.681  0.1468 -0.5774  0.5195
 7426SOL    HW133911   2.599   3.374  13.758  0.6276 -1.0688  0.2006
 7426SOL    HW233912   2.650   3.381  13.612 -1.8744 -0.8106 -0.5842
 7427SOL     OW33913   3.347   1.129   7.911 -0.3835  0.5321  0.8462
 7427SOL    HW133914   3.390   1.124   7.997 -2.0467 -3.1061  1.4502
 7427SOL    HW233915   3.263   1.090   7.933 -0.1827  0.6752  1.8698
 7428SOL     OW33916   0.143   1.122   7.921 -0.0248  0.3333  0.3394
 7428SOL    HW133917   0.236   1.115   7.944  1.1400  2.5711 -3.8105
 7428SOL    HW233918   0.123   1.190   7.985 -1.9459  0.7889 -0.7547
 7429SOL     OW33919   3.920   3.523   7.973  0.7175 -0.2873  0.5042
 7429SOL    HW133920   3.986   3.566   8.028  0.3560  1.1550 -0.1906
 7429SOL    HW233921   3.975   3.453   7.940 -0.9030 -0.9826 -0.7105
 7430SOL     OW33922   4.693   0.440   3.331  0.2471 -0.3523  0.0644
 7430SOL    HW133923   4.609   0.394   3.337 -1.1096  2.4859  3.1321
 7430SOL    HW233924   0.007   0.364   3.302 -3.5086 -2.6242 -0.3176
 7431SOL     OW33925   3.481   4.197   7.960 -0.3728 -0.2729  0.4832
 7431SOL    HW133926   3.459   4.220   7.869  4.1549  1.4972 -0.1619
 7431SOL    HW233927   3.564   4.155   7.939 -0.5928 -1.2885  1.7079
 7432SOL     OW33928   4.671   1.981   6.622 -0.2093 -0.0434  0.0772
 7432SOL    HW133929   4.640   2.052   6.679  0.4698  1.1765 -1.0751
 7432SOL    HW233930   0.028   2.007   6.616 -0.0656 -0.4797  0.4797
 7433SOL     OW33931   2.701   4.010   5.073 -0.3776  0.4167 -0.3924
 7433SOL    HW133932   2.765   4.081   5.085  0.9082 -1.0494  1.3271
 7433SOL    HW233933   2.694   3.959   5.154  1.0417  1.8400  0.6339
 7434SOL     OW33934   2.565   2.837  12.861 -0.4985  0.0660 -0.4325
 7434SOL    HW133935   2.503   2.905  12.890 -0.3726 -0.4905  1.1398
 7434SOL    HW233936   2.503   2.766  12.847 -0.5208 -0.5629  2.9911
 7435SOL     OW33937   1.814   1.354  13.415 -0.0475 -0.1206  0.1467
 7435SOL    HW133938   1.755   1.348  13.490 -0.9412  1.7293 -0.4038
 7435SOL    HW233939   1.811   1.448  13.395  2.1152 -0.4279 -1.5777
 7436SOL     OW33940   4.113   3.367   0.499  0.0610 -0.3280  0.3488
 7436SOL    HW133941   4.042   3.401   0.555 -2.1172 -0.3477 -2.4300
 7436SOL    HW233942   4.186   3.395   0.555  1.8112  1.9575 -3.0304
 7437SOL     OW33943   3.715   4.556   2.541  0.4306  0.3095  0.0627
 7437SOL    HW133944   3.744   4.633   2.589 -1.0439 -1.2830  3.4522
 7437SOL    HW233945   3.688   4.584   2.453  0.8226 -0.1063 -0.1891
 7438SOL     OW33946   0.832   3.205   8.965  0.4831 -0.0965  0.5269
 7438SOL    HW133947   0.750   3.219   8.917  0.2871  4.0256  2.0766
 7438SOL    HW233948   0.802   3.138   9.026 -2.3749  0.6528 -0.0607
 7439SOL     OW33949   1.225   3.480   6.584 -0.0795 -0.2677  0.0392
 7439SOL    HW133950   1.201   3.570   6.605 -0.0645  0.3120 -2.4604
 7439SOL    HW233951   1.316   3.489   6.554 -0.5278  0.7640 -1.0021
 7440SOL     OW33952   1.325   2.024   4.852 -0.5023  0.3115 -0.5437
 7440SOL    HW133953   1.256   2.089   4.840 -0.3880  0.6624  0.7001
 7440SOL    HW233954   1.381   2.055   4.780 -1.3078  2.3789 -0.2761
 7441SOL     OW33955   1.406   2.388   3.799 -0.3968 -0.4129  0.0858
 7441SOL    HW133956   1.436   2.369   3.710 -1.1914  2.0013 -0.6783
 7441SOL    HW233957   1.335   2.325   3.815  0.3748 -1.4983 -0.7554
 7442SOL     OW33958   0.360   1.501   9.499 -0.4443  0.0067  0.4141
 7442SOL    HW133959   0.391   1.411   9.488 -0.7433  0.0566 -0.8058
 7442SOL    HW233960   0.267   1.489   9.482 -0.8727  3.5567  0.3276
 7443SOL     OW33961   3.542   1.831   2.879 -0.1408  0.1984  0.1649
 7443SOL    HW133962   3.557   1.738   2.862  1.8435  0.4987  0.2558
 7443SOL    HW233963   3.618   1.850   2.933  0.3835  0.2624 -0.5907
 7444SOL     OW33964   2.737   3.125   9.129  0.2045 -0.3167  0.1014
 7444SOL    HW133965   2.803   3.150   9.063  0.1972  3.1178  1.4486
 7444SOL    HW233966   2.780   3.051   9.173 -0.3897 -0.3722  0.5706
 7445SOL     OW33967   1.700   1.476   4.630 -0.1046  0.4872  0.2910
 7445SOL    HW133968   1.660   1.555   4.666  0.0013  0.5653  0.2362
 7445SOL    HW233969   1.618   1.438   4.597 -0.1196 -0.8234  1.8158
 7446SOL     OW33970   2.620   2.433   3.867  0.3381 -1.0065  0.1298
 7446SOL    HW133971   2.608   2.392   3.782 -0.0386 -0.8182  0.0897
 7446SOL    HW233972   2.608   2.364   3.932 -0.6473 -1.0878 -0.1428
 7447SOL     OW33973   0.029   3.116   7.739 -0.1742 -0.1184  0.0940
 7447SOL    HW133974   4.733   3.206   7.728 -1.2500 -0.4498  0.5268
 7447SOL    HW233975   0.119   3.133   7.767 -0.3455 -1.0737  1.2137
 7448SOL     OW33976   3.312   1.994   2.060 -0.0464  0.6881 -0.3695
 7448SOL    HW133977   3.343   1.945   2.136 -1.7898  0.7297  0.3580
 7448SOL    HW233978   3.304   2.083   2.095  1.1994  0.5709  0.2132
 7449SOL     OW33979   3.754   2.767   8.219 -0.3565  0.2757 -0.7499
 7449SOL    HW133980   3.659   2.775   8.206 -0.6558  0.1968  1.3730
 7449SOL    HW233981   3.785   2.857   8.231  0.3041  0.1362 -1.3885
 7450SOL     OW33982   1.024   0.359   8.758 -0.1203  0.5146  0.4482
 7450SOL    HW133983   0.986   0.272   8.769 -2.0438  1.5259  1.8645
 7450SOL    HW233984   0.996   0.412   8.834  2.3468 -0.8312  2.2929
 7451SOL     OW33985   0.335   3.194   2.862  0.1927  0.4506 -0.3960
 7451SOL    HW133986   0.304   3.252   2.931 -0.2567  1.0167 -1.0707
 7451SOL    HW233987   0.403   3.148   2.912  0.6338  0.0608 -1.3601
 7452SOL     OW33988   1.151   2.456  13.725 -0.7399 -0.1553  0.2160
 7452SOL    HW133989   1.149   2.390  13.794  3.1770  0.4019  0.8207
 7452SOL    HW233990   1.183   2.415  13.644 -3.0912 -1.2800 -0.1556
 7453SOL     OW33991   0.746   0.265   7.778  0.4788 -0.1954 -0.0061
 7453SOL    HW133992   0.758   0.237   7.687  0.1183  2.1037 -0.7508
 7453SOL    HW233993   0.818   0.325   7.796  0.9274 -0.2555 -1.6491
 7454SOL     OW33994   3.047   3.985  11.005  0.2498  0.1591  0.0522
 7454SOL    HW133995   2.994   3.992  10.925  1.6519  2.9987 -0.6233
 7454SOL    HW233996   3.011   4.049  11.066  0.4552 -0.7246  1.0947
 7455SOL     OW33997   0.826   3.834   9.429 -0.4505 -0.3833  0.1488
 7455SOL    HW133998   0.734   3.807   9.432 -0.4431 -0.4814 -0.6855
 7455SOL    HW233999   0.877   3.776   9.485 -0.0116  1.2030  1.4156
 7456SOL     OW34000   3.524   2.549   8.344  0.1801 -0.2436 -0.2546
 7456SOL    HW134001   3.485   2.635   8.359  2.8245  0.8399  0.3507
 7456SOL    HW234002   3.449   2.491   8.330  0.2822 -0.5848  0.6159
 7457SOL     OW34003   1.837   0.136   6.089  0.3324 -0.1686 -0.1144
 7457SOL    HW134004   1.916   0.105   6.044 -0.3380 -1.0400 -0.6750
 7457SOL    HW234005   1.766   0.120   6.028 -0.1613  1.8786 -0.0686
 7458SOL     OW34006   2.004   1.865  13.996  0.3326 -0.1636 -0.7540
 7458SOL    HW134007   1.940   1.888  13.929 -1.4642 -0.8852  0.7404
 7458SOL    HW234008   2.093   1.880  13.963  0.5740  2.5449  1.0970
 7459SOL     OW34009   3.608   0.795   6.510  0.2868  0.4497 -0.2148
 7459SOL    HW134010   3.562   0.735   6.569  1.0929 -0.2803 -0.3338
 7459SOL    HW234011   3.554   0.802   6.431 -0.2566  1.5776  0.2523
 7460SOL     OW34012   2.054   1.019   5.139  0.2772  0.5229 -0.3916
 7460SOL    HW134013   2.140   1.003   5.101  0.2970  1.3645 -0.6944
 7460SOL    HW234014   1.995   0.989   5.070  0.9843  2.1709 -1.6961
 7461SOL     OW34015   1.090   2.721   2.390  0.0102  0.1172 -0.2733
 7461SOL    HW134016   1.051   2.635   2.372 -2.0592  1.7584 -3.5829
 7461SOL    HW234017   1.169   2.703   2.440 -0.6289 -0.7148  0.4245
 7462SOL     OW34018   1.390   2.924   3.774  0.0875 -0.2840 -0.4572
 7462SOL    HW134019   1.423   2.945   3.861  2.4674  0.3354 -1.5009
 7462SOL    HW234020   1.368   2.834   3.794  2.1734 -0.9006 -0.9482
 7463SOL     OW34021   4.486   4.006   7.528  0.1954 -0.2355  0.3817
 7463SOL    HW134022   4.458   3.991   7.619 -1.4200 -1.3636 -0.2832
 7463SOL    HW234023   4.565   4.053   7.554  0.1613  0.1885 -0.2880
 7464SOL     OW34024   3.614   2.405  11.994 -0.1466  0.4793  0.3793
 7464SOL    HW134025   3.645   2.440  12.077  0.2573 -0.2466  0.5376
 7464SOL    HW234026   3.521   2.386  12.008 -0.8804  2.4939 -1.7829
 7465SOL     OW34027   1.045   3.089   3.054 -0.2311  0.4685  0.1952
 7465SOL    HW134028   1.092   3.074   3.137  1.1261  0.1121 -0.6441
 7465SOL    HW234029   0.971   3.028   3.056 -0.9531  1.3292 -0.9424
 7466SOL     OW34030   0.898   2.359  15.787 -0.2791  0.2675 -0.3553
 7466SOL    HW134031   0.929   2.303  15.858  3.9098  1.6964 -1.0443
 7466SOL    HW234032   0.973   2.365  15.727 -1.8553 -1.3050 -2.4876
 7467SOL     OW34033   0.358   0.193  17.563  0.0664  0.3348 -0.3439
 7467SOL    HW134034   0.358   0.253  17.637 -0.6510  0.2933 -0.3091
 7467SOL    HW234035   0.339   0.255  17.492 -1.4572  2.2650  1.7434
 7468SOL     OW34036   3.738   0.086   2.267  0.0086 -0.1761  0.0332
 7468SOL    HW134037   3.661   0.131   2.232 -1.4023 -1.0493  2.0077
 7468SOL    HW234038   3.701   4.733   2.272  0.3823 -0.4003 -1.2619
 7469SOL     OW34039   2.579   0.428   2.363  0.1710 -0.5471  0.6969
 7469SOL    HW134040   2.531   0.470   2.292  1.6982 -0.3233 -0.2106
 7469SOL    HW234041   2.526   0.446   2.441 -1.4888  3.9275 -1.4291
 7470SOL     OW34042   1.296   4.032   1.504 -0.0876 -0.5552 -0.0706
 7470SOL    HW134043   1.360   3.963   1.515  0.3623 -0.2650 -0.9016
 7470SOL    HW234044   1.336   4.095   1.564 -0.1321  0.8327 -1.4807
 7471SOL     OW34045   3.020   1.729   1.759 -0.6595 -0.1894 -0.0312
 7471SOL    HW134046   2.972   1.676   1.695  0.3138 -2.2275  0.9374
 7471SOL    HW234047   2.962   1.732   1.835 -0.0281  2.9439  0.3142
 7472SOL     OW34048   2.314   4.572   6.038  0.2186 -0.1475  0.4436
 7472SOL    HW134049   2.326   4.582   5.944 -1.3783 -0.6409  0.1738
 7472SOL    HW234050   2.362   4.648   6.072  1.1736 -0.4784 -0.1805
 7473SOL     OW34051   1.013   3.981   5.855 -0.1209 -0.4696  0.0909
 7473SOL    HW134052   0.988   4.061   5.809  0.5375  0.3555  1.1958
 7473SOL    HW234053   0.971   3.989   5.941  3.7308  1.5281  1.7985
 7474SOL     OW34054   0.611   0.123   4.486  0.0131 -0.3510  0.5153
 7474SOL    HW134055   0.662   0.119   4.405  0.8038 -0.2119  0.9986
 7474SOL    HW234056   0.633   0.039   4.527  1.3647 -1.3159 -2.2082
 7475SOL     OW34057   2.356   4.579   9.762  0.3156 -0.0714  0.4079
 7475SOL    HW134058   2.386   4.641   9.696  0.5385 -2.1585 -1.4154
 7475SOL    HW234059   2.327   4.505   9.709 -3.5926  0.7796  1.3084
 7476SOL     OW34060   0.438   3.726   8.966 -0.2595  0.3049 -0.5001
 7476SOL    HW134061   0.427   3.812   8.925  2.2498  0.0908 -1.6121
 7476SOL    HW234062   0.432   3.737   9.060 -1.6671  0.9840 -0.6782
 7477SOL     OW34063   3.468   1.261   8.777  0.2111  0.1532 -0.0001
 7477SOL    HW134064   3.452   1.301   8.692 -0.0593 -0.4868 -0.2512
 7477SOL    HW234065   3.447   1.167   8.772  0.4342  0.1166 -0.2195
 7478SOL     OW34066   2.583   3.953   7.114 -0.2143  0.3746  0.1456
 7478SOL    HW134067   2.648   4.001   7.165  0.4190  1.6008 -1.7909
 7478SOL    HW234068   2.613   3.865   7.136  0.8738  0.8505  0.5919
 7479SOL     OW34069   4.163   1.875   2.710 -0.6850 -0.2436 -0.0039
 7479SOL    HW134070   4.115   1.793   2.700  0.0425 -0.3741 -2.3891
 7479SOL    HW234071   4.111   1.927   2.772  1.7473  1.3109  0.7484
 7480SOL     OW34072   0.039   1.236   5.563  1.0179  0.5609 -0.6814
 7480SOL    HW134073   4.681   1.212   5.559  1.0521  0.3626 -0.2471
 7480SOL    HW234074   0.076   1.149   5.547  0.1052 -0.0801  0.7327
 7481SOL     OW34075   2.972   2.395   3.344  0.0122 -0.3451 -0.0267
 7481SOL    HW134076   2.952   2.387   3.251  0.7022 -0.9668 -0.1214
 7481SOL    HW234077   3.067   2.402   3.333  0.0222  1.0207  0.9901
 7482SOL     OW34078   2.307   2.191  13.875 -0.4784 -0.3445  0.9543
 7482SOL    HW134079   2.278   2.249  13.805  2.1815  0.8350  0.8429
 7482SOL    HW234080   2.402   2.191  13.868 -0.4864 -0.9549  0.8177
 7483SOL     OW34081   1.508   0.601   6.646  0.3346  0.0151 -0.3545
 7483SOL    HW134082   1.526   0.524   6.700  0.6798  0.5644  0.3259
 7483SOL    HW234083   1.429   0.579   6.597  1.2855  2.0023 -2.7996
 7484SOL     OW34084   3.674   2.056   8.386 -0.1474  0.3231 -0.6069
 7484SOL    HW134085   3.728   1.977   8.387 -0.9391 -0.2570 -3.6947
 7484SOL    HW234086   3.597   2.023   8.432  0.2989 -0.4679 -0.4343
 7485SOL     OW34087   3.892   2.178   7.836  0.0699  0.2930 -0.2015
 7485SOL    HW134088   3.986   2.183   7.851  0.6174 -1.9825 -2.8736
 7485SOL    HW234089   3.858   2.232   7.908 -0.5300 -0.4614  0.0897
 7486SOL     OW34090   1.461   2.124   7.031  0.0041  0.0732 -0.5755
 7486SOL    HW134091   1.475   2.030   7.034  1.4075  0.3335  0.8950
 7486SOL    HW234092   1.547   2.161   7.048  0.0185 -0.3561  0.2714
 7487SOL     OW34093   4.671   4.632   8.856 -0.3550 -0.3122 -0.2625
 7487SOL    HW134094   4.605   4.563   8.856 -0.1431 -0.5191  1.7605
 7487SOL    HW234095   4.698   4.616   8.766  1.4499  0.2897  0.1721
 7488SOL     OW34096   3.224   1.748   1.967  0.3367  0.5384  0.0303
 7488SOL    HW134097   3.243   1.837   1.997 -0.1323  0.2633  1.1198
 7488SOL    HW234098   3.141   1.758   1.920  0.6247 -0.4825 -0.7187
 7489SOL     OW34099   2.351   1.822   4.865 -0.1685  0.3220  0.2071
 7489SOL    HW134100   2.356   1.729   4.887 -1.8391  0.0661 -0.4674
 7489SOL    HW234101   2.260   1.826   4.834  0.5938 -1.2287 -2.2236
 7490SOL     OW34102   2.280   3.483   3.510 -0.1840 -0.3903  0.7007
 7490SOL    HW134103   2.272   3.400   3.556 -1.0705 -1.4251 -1.3078
 7490SOL    HW234104   2.191   3.513   3.530  0.3283  0.4178  1.7579
 7491SOL     OW34105   0.342   3.420   4.380  0.3383  0.1315 -0.7128
 7491SOL    HW134106   0.342   3.368   4.299  0.7647  0.0849 -0.6862
 7491SOL    HW234107   0.423   3.472   4.380 -0.2758  1.0735 -1.8619
 7492SOL     OW34108   1.524   1.375   9.669  0.5739  0.2587 -0.4553
 7492SOL    HW134109   1.508   1.285   9.641 -2.0611  0.0593  1.5704
 7492SOL    HW234110   1.613   1.365   9.702  0.4419 -0.6820 -0.3798
 7493SOL     OW34111   2.795   0.644  16.121  0.0350 -0.6044  0.2498
 7493SOL    HW134112   2.806   0.665  16.028 -1.3712  0.1715  0.2609
 7493SOL    HW234113   2.884   0.658  16.154 -0.7363  2.1267  1.1341
 7494SOL     OW34114   3.319   4.545   8.907  0.0250 -0.1070 -0.5524
 7494SOL    HW134115   3.246   4.581   8.857 -0.7517  1.9500  2.0382
 7494SOL    HW234116   3.284   4.560   8.995  0.3396 -0.7785 -0.3153
 7495SOL     OW34117   4.364   4.585  15.428 -0.1878 -0.5498  0.4521
 7495SOL    HW134118   4.407   4.652  15.481 -2.4548  0.8131  0.5602
 7495SOL    HW234119   4.394   4.599  15.338 -0.2668  0.7207  0.6258
 7496SOL     OW34120   1.318   1.835   7.689  0.4651  0.0936 -0.1971
 7496SOL    HW134121   1.364   1.866   7.611 -1.4155  0.0701 -1.2974
 7496SOL    HW234122   1.258   1.910   7.695 -0.1501 -0.3700 -0.5392
 7497SOL     OW34123   2.367   3.320   8.338 -0.5515 -0.2088  0.3138
 7497SOL    HW134124   2.394   3.410   8.359  0.1464 -0.5798  0.9728
 7497SOL    HW234125   2.285   3.324   8.387 -1.4998  0.7276 -1.3244
 7498SOL     OW34126   3.341   4.541  11.918 -0.4460  0.0414 -0.0306
 7498SOL    HW134127   3.300   4.601  11.980 -1.0770 -0.2109 -0.2056
 7498SOL    HW234128   3.423   4.515  11.961 -1.3409 -0.9050  1.0886
 7499SOL     OW34129   0.366   2.143   9.389  1.1835  0.2782 -0.2776
 7499SOL    HW134130   0.415   2.160   9.469  0.1340 -2.1375  0.8697
 7499SOL    HW234131   0.309   2.219   9.396  1.1743  0.1694  0.8267
 7500SOL     OW34132   1.229   3.036   5.227  0.2888 -0.4913 -0.0366
 7500SOL    HW134133   1.137   3.062   5.224  0.6016  0.6643  0.3465
 7500SOL    HW234134   1.270   3.112   5.270 -1.4307  1.2272 -1.4689
 7501SOL     OW34135   2.841   2.374  13.020 -0.3430  0.0399 -0.5497
 7501SOL    HW134136   2.750   2.345  13.027  0.7156 -2.8284  0.9907
 7501SOL    HW234137   2.819   2.465  13.000  0.3580  0.3340 -0.0002
 7502SOL     OW34138   3.227   0.683   5.479  0.3806 -0.1147  0.4191
 7502SOL    HW134139   3.178   0.737   5.417  0.0746  0.1591  0.8956
 7502SOL    HW234140   3.209   0.726   5.563  1.4696 -0.0662  0.6388
 7503SOL     OW34141   3.838   3.639  12.615  0.4086  0.2981  0.0664
 7503SOL    HW134142   3.873   3.722  12.646  2.1431 -0.4394  0.0428
 7503SOL    HW234143   3.839   3.657  12.521  3.1092  1.4731  0.3350
 7504SOL     OW34144   2.221   0.300  10.282  0.6168 -0.3252 -0.4077
 7504SOL    HW134145   2.228   0.254  10.199  1.5037 -0.1005 -0.4564
 7504SOL    HW234146   2.191   0.231  10.342  0.8687 -0.2625 -0.2047
 7505SOL     OW34147   1.897   2.932   5.943  0.1778  0.5080  0.1650
 7505SOL    HW134148   1.956   2.856   5.946  1.0269  1.0472 -2.7782
 7505SOL    HW234149   1.823   2.891   5.988 -1.9219  3.4395 -0.6236
 7506SOL     OW34150   3.098   2.218  10.575 -0.0856  0.5661 -0.2528
 7506SOL    HW134151   3.130   2.129  10.591 -1.8829 -0.3778 -1.9898
 7506SOL    HW234152   3.012   2.208  10.535  0.6184 -1.8075 -1.2054
 7507SOL     OW34153   3.571   1.495   7.475  0.2063  0.0270  0.1954
 7507SOL    HW134154   3.487   1.464   7.509  0.4258 -1.4240 -0.5794
 7507SOL    HW234155   3.552   1.489   7.381 -0.1050 -0.7247  0.3084
 7508SOL     OW34156   0.056   3.415   4.311  0.5083  0.0520  0.0648
 7508SOL    HW134157   0.106   3.478   4.362  0.0036  0.1020  0.5040
 7508SOL    HW234158   0.056   3.446   4.220  0.3698 -0.0495  0.0286
 7509SOL     OW34159   1.839   0.425   1.317  0.4654 -0.4628 -0.3461
 7509SOL    HW134160   1.751   0.389   1.304 -0.4471  1.7989 -0.6027
 7509SOL    HW234161   1.899   0.351   1.318  0.7912 -0.1920  0.9261
 7510SOL     OW34162   2.956   3.834  13.670  0.4764 -0.2432  0.3296
 7510SOL    HW134163   2.891   3.764  13.675  0.7356 -0.5413 -0.4911
 7510SOL    HW234164   2.981   3.840  13.762 -0.0525  0.6375  0.4158
 7511SOL     OW34165   1.771   2.173  16.509  0.4298  0.5352  0.0642
 7511SOL    HW134166   1.857   2.213  16.497 -0.6454  2.6356 -0.7118
 7511SOL    HW234167   1.734   2.170  16.421 -0.5313  1.5752  0.4284
 7512SOL     OW34168   1.485   0.335   6.809  0.1529  0.1133  0.0018
 7512SOL    HW134169   1.400   0.376   6.791  0.0229 -0.0081  0.3206
 7512SOL    HW234170   1.460   0.247   6.783 -1.1961  0.5972 -0.3848
 7513SOL     OW34171   3.415   4.393   1.766 -0.1388 -0.6873  0.0285
 7513SOL    HW134172   3.333   4.345   1.773 -0.7923  0.3336 -0.5770
 7513SOL    HW234173   3.478   4.347   1.822 -1.8692  0.1508  2.6448
 7514SOL     OW34174   3.277   2.985   8.568 -0.1486  0.4186 -0.0853
 7514SOL    HW134175   3.216   2.992   8.643  0.2208 -1.5094  0.3979
 7514SOL    HW234176   3.355   2.989   8.624 -0.3120 -2.4634  0.3127
 7515SOL     OW34177   3.488   0.821   6.265 -0.2696 -0.0718 -0.3476
 7515SOL    HW134178   3.492   0.748   6.202  1.9632 -1.2712  1.1798
 7515SOL    HW234179   3.402   0.859   6.248 -0.4039  0.1686  0.8374
 7516SOL     OW34180   0.187   1.655   3.918  0.0557 -0.5443 -0.1506
 7516SOL    HW134181   0.148   1.741   3.934  2.1534  0.1191  1.4240
 7516SOL    HW234182   0.149   1.640   3.832 -0.5832 -0.3541  0.0944
 7517SOL     OW34183   2.846   0.308   4.717  0.5960 -0.4806  0.0772
 7517SOL    HW134184   2.825   0.397   4.690 -1.0695 -0.7798  0.3933
 7517SOL    HW234185   2.940   0.301   4.701  0.4866 -2.8308  0.4884
 7518SOL     OW34186   1.907   3.648   3.256 -0.3075  0.5809  0.2541
 7518SOL    HW134187   1.869   3.650   3.169  0.7259 -0.8009 -0.2386
 7518SOL    HW234188   1.831   3.656   3.314  0.4997  0.9787  1.2796
 7519SOL     OW34189   4.178   2.771  11.375 -0.0907  0.4576  0.0708
 7519SOL    HW134190   4.246   2.710  11.405 -0.9746 -0.1426  0.8516
 7519SOL    HW234191   4.137   2.736  11.296  1.7966  3.5155 -2.3066
 7520SOL     OW34192   0.524   1.757  14.218  0.2659 -0.3016 -0.2462
 7520SOL    HW134193   0.605   1.808  14.227  0.1594 -0.3956  1.2441
 7520SOL    HW234194   0.464   1.831  14.203  1.2250  0.8645  1.6796
 7521SOL     OW34195   2.357   4.262   3.354 -0.4153 -0.0073  0.5440
 7521SOL    HW134196   2.437   4.243   3.403  0.0618  0.9448  0.1379
 7521SOL    HW234197   2.314   4.178   3.339 -3.1278  1.4877 -0.0322
 7522SOL     OW34198   3.889   1.592  16.565 -0.1790 -0.1571  0.2852
 7522SOL    HW134199   3.832   1.532  16.614 -2.0116  1.7229  0.4694
 7522SOL    HW234200   3.976   1.561  16.591 -0.8094 -1.6113  0.6354
 7523SOL     OW34201   1.559   1.724   2.710  0.5083 -0.0369  0.4825
 7523SOL    HW134202   1.630   1.716   2.646  1.3269 -0.6628  1.4720
 7523SOL    HW234203   1.482   1.686   2.667  0.2256  0.0745  0.8888
 7524SOL     OW34204   3.673   1.267  16.278 -0.2207 -0.1570 -0.5783
 7524SOL    HW134205   3.646   1.177  16.298  0.1049 -0.2727 -0.6533
 7524SOL    HW234206   3.726   1.252  16.200  1.4876 -1.2265  0.7842
 7525SOL     OW34207   3.712   2.359   6.312 -0.4249  0.4069  0.2690
 7525SOL    HW134208   3.726   2.280   6.365 -0.8896  1.9475  2.7294
 7525SOL    HW234209   3.621   2.345   6.287  0.4981 -1.9171 -1.8171
 7526SOL     OW34210   3.777   0.673   4.534  0.0960  0.0478  0.3468
 7526SOL    HW134211   3.787   0.749   4.477  0.3583 -0.9722 -0.9693
 7526SOL    HW234212   3.693   0.639   4.503 -0.4741  3.2520 -1.6250
 7527SOL     OW34213   1.447   1.544   0.070 -0.0593 -0.6654 -0.1867
 7527SOL    HW134214   1.531   1.500   0.084 -0.6243 -2.1440 -1.4309
 7527SOL    HW234215   1.474   1.628   0.033 -3.1596  1.7301  2.9258
 7528SOL     OW34216   2.320   2.471   4.825 -0.5727 -0.0059  0.1550
 7528SOL    HW134217   2.304   2.456   4.918 -0.4078 -1.5829 -0.0676
 7528SOL    HW234218   2.285   2.395   4.780  1.4877 -2.0290  1.9534
 7529SOL     OW34219   2.826   2.571   8.963 -0.2134  0.0572 -0.0050
 7529SOL    HW134220   2.880   2.562   8.885 -0.8641 -0.8781 -0.3438
 7529SOL    HW234221   2.775   2.651   8.947 -1.2398 -1.1898 -2.9964
 7530SOL     OW34222   3.307   2.863   1.665 -0.0436  0.0072 -0.2765
 7530SOL    HW134223   3.371   2.795   1.688 -0.3905 -0.7214 -1.4357
 7530SOL    HW234224   3.363   2.906   1.600  1.3653 -1.8253 -0.2855
 7531SOL     OW34225   4.317   3.455   9.202  0.4552 -0.3801 -0.1886
 7531SOL    HW134226   4.264   3.419   9.132  0.0615  1.9220 -1.0876
 7531SOL    HW234227   4.264   3.433   9.279 -1.5539  1.5039 -1.0204
 7532SOL     OW34228   3.061   1.917   6.067 -0.1426  0.4915  0.6976
 7532SOL    HW134229   3.140   1.971   6.066  0.3840 -0.3044 -0.3365
 7532SOL    HW234230   3.052   1.898   6.161 -0.4026 -2.0693  0.1579
 7533SOL     OW34231   1.987   2.282  11.282 -0.0665 -0.3895 -0.2867
 7533SOL    HW134232   1.964   2.367  11.245 -0.2913 -0.4201 -0.2185
 7533SOL    HW234233   2.023   2.312  11.365  2.1683  3.0748 -2.5426
 7534SOL     OW34234   3.907   1.058  12.520 -0.4591  0.1484 -0.0527
 7534SOL    HW134235   3.827   1.098  12.485 -0.9918  0.5980  1.6384
 7534SOL    HW234236   3.867   0.976  12.547 -1.2908  0.4041 -0.4987
 7535SOL     OW34237   3.839   1.188   2.801  0.2653  0.3593 -0.2315
 7535SOL    HW134238   3.873   1.260   2.853 -0.9920  1.1045 -0.4483
 7535SOL    HW234239   3.830   1.233   2.718  0.0594  0.7606  0.0125
 7536SOL     OW34240   4.586   1.058   8.139 -0.0268  0.0193  0.3244
 7536SOL    HW134241   4.520   0.992   8.162 -1.0606  1.5123  1.6695
 7536SOL    HW234242   4.622   1.021   8.059  0.9179  0.8271  0.3662
 7537SOL     OW34243   1.018   0.273  15.986 -0.7115 -0.2770  0.4595
 7537SOL    HW134244   1.029   0.327  16.064 -1.2890  0.9455 -0.3067
 7537SOL    HW234245   0.925   0.288  15.970  0.0941  0.3257 -3.7248
 7538SOL     OW34246   3.633   3.492   7.982 -0.6743 -0.2380 -0.2812
 7538SOL    HW134247   3.720   3.503   7.944 -0.7712  2.4089  0.2428
 7538SOL    HW234248   3.636   3.560   8.049 -0.7135 -0.2388 -0.2782
 7539SOL     OW34249   3.803   0.757  11.684  0.0328 -0.0566  0.0898
 7539SOL    HW134250   3.726   0.814  11.691 -1.8818 -2.4067 -2.0010
 7539SOL    HW234251   3.782   0.685  11.744 -0.0331  1.0958  1.4611
 7540SOL     OW34252   2.509   1.563  13.753 -0.2597 -0.3273  0.2318
 7540SOL    HW134253   2.578   1.531  13.812 -2.2224  1.4707  3.5167
 7540SOL    HW234254   2.532   1.655  13.762 -0.4076 -0.2405 -0.2872
 7541SOL     OW34255   1.336   0.661  13.443 -0.1390  0.0354  0.3529
 7541SOL    HW134256   1.259   0.606  13.454  1.5482 -2.5743 -0.8739
 7541SOL    HW234257   1.331   0.700  13.530 -2.3784 -0.7891  0.5876
 7542SOL     OW34258   2.270   2.269  15.874  0.2653 -0.1658  0.3394
 7542SOL    HW134259   2.216   2.283  15.952 -0.5612  0.2725 -0.3241
 7542SOL    HW234260   2.247   2.178  15.857  2.7461 -0.4671 -1.4562
 7543SOL     OW34261   3.887   1.562   3.696 -0.0225  0.1850 -0.2067
 7543SOL    HW134262   3.978   1.543   3.720 -0.7867 -1.6687  1.2979
 7543SOL    HW234263   3.862   1.490   3.638 -3.1965  0.9848  0.1271
 7544SOL     OW34264   0.722   0.213  16.547  0.1194  0.0799  0.6240
 7544SOL    HW134265   0.685   0.249  16.627  0.5651  0.6722  0.5658
 7544SOL    HW234266   0.734   0.284  16.483  1.6383 -1.2283 -0.5553
 7545SOL     OW34267   0.176   0.088  12.361 -0.4016  0.5782  0.4146
 7545SOL    HW134268   0.121   0.024  12.316 -0.6402  1.3785 -0.4378
 7545SOL    HW234269   0.262   0.063  12.327 -0.4522 -0.2553  0.9069
 7546SOL     OW34270   1.944   3.890   9.367  0.4912  0.3320 -0.1004
 7546SOL    HW134271   1.941   3.854   9.456 -1.4286  0.2831 -0.2039
 7546SOL    HW234272   2.035   3.915   9.353  0.5219  0.2466 -0.0587
 7547SOL     OW34273   3.366   3.577   3.270 -0.1158  0.9852  0.0485
 7547SOL    HW134274   3.288   3.528   3.297  1.3915 -0.8303  0.9932
 7547SOL    HW234275   3.404   3.530   3.196 -2.7474  0.5444 -1.0469
 7548SOL     OW34276   3.949   2.310   8.874  0.4712  0.2394 -0.1126
 7548SOL    HW134277   4.019   2.374   8.863  0.9149 -0.7646 -3.1161
 7548SOL    HW234278   3.894   2.325   8.797  1.0080 -0.5455 -0.6496
 7549SOL     OW34279   4.316   0.102   6.765  0.3601 -0.3450  0.8802
 7549SOL    HW134280   4.381   0.046   6.722  1.9449  1.4026  1.0099
 7549SOL    HW234281   4.341   0.189   6.734 -0.4614  0.3932  2.2885
 7550SOL     OW34282   0.267   4.038   4.488 -0.4032 -0.0459 -0.2314
 7550SOL    HW134283   0.306   4.060   4.573  1.2464 -1.1626 -0.7085
 7550SOL    HW234284   0.175   4.051   4.510 -0.8717 -3.0147 -0.4362
 7551SOL     OW34285   3.087   1.643   6.072  0.2564  0.1993 -0.1989
 7551SOL    HW134286   3.025   1.634   6.145 -0.8166 -0.0839 -1.1400
 7551SOL    HW234287   3.069   1.725   6.027  0.0539  1.9739  3.0871
 7552SOL     OW34288   2.944   0.330  13.458 -0.3978  0.1965  0.3439
 7552SOL    HW134289   2.955   0.294  13.370 -4.9881  2.8727 -1.2859
 7552SOL    HW234290   3.028   0.376  13.467 -0.4090 -0.0238  1.5164
 7553SOL     OW34291   0.245   2.695   8.786 -0.2475 -0.2848 -0.6144
 7553SOL    HW134292   0.167   2.734   8.827 -0.4129 -1.2977  0.0383
 7553SOL    HW234293   0.237   2.602   8.810 -0.8021 -0.2029 -0.4829
 7554SOL     OW34294   4.485   0.566  17.206  0.2739  0.1141  0.0903
 7554SOL    HW134295   4.484   0.499  17.274  0.4095  0.8704  0.8433
 7554SOL    HW234296   4.545   0.625  17.252  1.6620 -0.7464 -0.6345
 7555SOL     OW34297   2.757   2.340   5.582  0.0672 -0.1992  0.7814
 7555SOL    HW134298   2.682   2.290   5.552  0.3142  0.4767 -0.9408
 7555SOL    HW234299   2.820   2.267   5.577 -1.0982 -1.1783  0.3618
 7556SOL     OW34300   3.543   1.741   3.274 -0.0405 -0.6338  0.1439
 7556SOL    HW134301   3.627   1.788   3.272  0.2268 -1.1446 -0.6844
 7556SOL    HW234302   3.524   1.736   3.368 -0.3378  0.3301  0.1345
 7557SOL     OW34303   3.256   2.068   7.401 -0.2924 -1.0064  0.0811
 7557SOL    HW134304   3.204   2.082   7.480 -0.5148  1.1422 -0.4637
 7557SOL    HW234305   3.340   2.037   7.436  0.4960  1.1577  0.0712
 7558SOL     OW34306   2.152   2.243   6.700  0.4414 -0.7841 -0.4485
 7558SOL    HW134307   2.220   2.177   6.682  1.2090  0.4496 -2.0708
 7558SOL    HW234308   2.134   2.220   6.791  0.4022 -0.5779 -0.4046
 7559SOL     OW34309   1.356   1.195   2.792 -0.3161 -0.1719 -0.3545
 7559SOL    HW134310   1.372   1.206   2.886 -0.0262 -0.4522 -0.3716
 7559SOL    HW234311   1.300   1.118   2.805  1.5301 -1.1644  1.8390
 7560SOL     OW34312   3.228   1.512  16.920 -0.4222 -0.5216 -0.1683
 7560SOL    HW134313   3.294   1.542  16.858  2.0416 -0.0936  2.6437
 7560SOL    HW234314   3.225   1.417  16.912  2.9345 -0.7070  0.7161
 7561SOL     OW34315   1.927   3.165   3.419 -0.3294 -0.5331 -0.3068
 7561SOL    HW134316   2.014   3.141   3.387  0.5262 -0.2645  1.8681
 7561SOL    HW234317   1.895   3.106   3.486  0.5936  1.2653  1.7203
 7562SOL     OW34318   0.814   4.406  11.569  0.0876 -0.2939  0.1062
 7562SOL    HW134319   0.834   4.485  11.620  2.1419  0.2234 -1.5214
 7562SOL    HW234320   0.874   4.340  11.604 -0.5087 -0.8668  0.0464
 7563SOL     OW34321   4.709   0.015   2.873 -0.0977 -0.1884  0.5932
 7563SOL    HW134322   4.735   0.021   2.965 -0.4652  2.3812  0.5262
 7563SOL    HW234323   4.639   4.685   2.874  0.1391 -0.4403  0.6316
 7564SOL     OW34324   2.423   3.893   5.306  0.1995  0.4819 -0.0012
 7564SOL    HW134325   2.421   3.983   5.338  2.2065  0.4602  0.2092
 7564SOL    HW234326   2.440   3.848   5.389 -0.8902 -0.1718 -0.1281
 7565SOL     OW34327   4.001   0.385   0.166  0.1832 -0.2091  0.1959
 7565SOL    HW134328   4.013   0.476   0.140 -0.7692  0.1680  1.0785
 7565SOL    HW234329   3.922   0.404   0.218  0.2703  1.0763 -0.1446
 7566SOL     OW34330   4.032   4.358  12.796  0.1759 -0.5177 -0.1010
 7566SOL    HW134331   3.939   4.364  12.775 -0.1508 -1.9477  0.9368
 7566SOL    HW234332   4.071   4.442  12.770  0.4670 -0.8670 -0.7938
 7567SOL     OW34333   3.642   3.203   5.061 -0.1800  0.5005 -0.0024
 7567SOL    HW134334   3.580   3.189   4.990 -0.0006  0.0334 -0.0609
 7567SOL    HW234335   3.677   3.288   5.034 -0.1808  0.6154  0.3531
 7568SOL     OW34336   3.213   1.382   0.349  0.1493  0.0332  0.4559
 7568SOL    HW134337   3.179   1.294   0.362  0.8229 -0.4144 -0.7588
 7568SOL    HW234338   3.294   1.359   0.302 -0.8355 -0.9113 -0.7708
 7569SOL     OW34339   4.052   1.062   9.250 -0.2158 -0.4528  0.0071
 7569SOL    HW134340   4.104   1.121   9.305 -0.4154  1.2310 -1.6072
 7569SOL    HW234341   4.098   1.071   9.166 -1.5076  0.6704 -0.5690
 7570SOL     OW34342   4.091   0.207  17.699  0.1803 -0.0576  0.4632
 7570SOL    HW134343   4.048   0.261   0.027  1.7915  0.6383  0.9371
 7570SOL    HW234344   4.141   0.148   0.016  0.1690 -0.8569 -0.3686
 7571SOL     OW34345   1.522   4.237  14.029 -0.3159  0.5585  0.3740
 7571SOL    HW134346   1.461   4.284  13.972 -0.8030  1.0636  1.3036
 7571SOL    HW234347   1.591   4.215  13.966  0.0538  3.4783 -0.2316
 7572SOL     OW34348   1.289   3.684   6.077  0.5243 -0.1321 -0.1512
 7572SOL    HW134349   1.195   3.689   6.093  0.9839  1.4906  1.9977
 7572SOL    HW234350   1.329   3.657   6.159  1.8975  2.6656  0.1032
 7573SOL     OW34351   3.656   1.073   2.514 -0.2576 -0.1374 -0.3291
 7573SOL    HW134352   3.598   1.054   2.588 -1.4284 -1.9665 -1.7177
 7573SOL    HW234353   3.658   1.168   2.507 -0.8715 -0.0560  0.5469
 7574SOL     OW34354   1.329   3.675   8.423 -0.1606  0.1205 -0.6662
 7574SOL    HW134355   1.414   3.680   8.468 -0.1917 -1.4764 -0.4215
 7574SOL    HW234356   1.318   3.580   8.419 -3.1458  0.3959  0.6504
 7575SOL     OW34357   4.359   1.471   1.083 -0.4198 -0.6184  0.0124
 7575SOL    HW134358   4.445   1.450   1.121  1.4204  0.4041 -3.6150
 7575SOL    HW234359   4.308   1.452   1.162  1.5674 -0.3581  1.3657
 7576SOL     OW34360   0.516   1.129   3.844  0.0778  0.3258 -0.5197
 7576SOL    HW134361   0.422   1.131   3.861  0.2496  0.5334  0.4140
 7576SOL    HW234362   0.545   1.137   3.935 -1.8695 -0.8223  0.2235
 7577SOL     OW34363   3.884   0.894  15.837 -0.0231 -0.3518 -0.2450
 7577SOL    HW134364   3.865   0.884  15.931 -2.1654  1.2603 -0.4934
 7577SOL    HW234365   3.866   0.986  15.820 -0.4662 -0.6449 -1.3740
 7578SOL     OW34366   1.723   0.425   9.108  0.1010  0.0684 -0.3678
 7578SOL    HW134367   1.763   0.455   9.026  2.0769 -0.8232  0.2758
 7578SOL    HW234368   1.787   0.466   9.165  0.6760 -1.0841 -0.1820
 7579SOL     OW34369   0.034   2.476   4.229  0.1607 -0.2589  0.3247
 7579SOL    HW134370   0.039   2.556   4.282  2.1795 -1.1441  1.4697
 7579SOL    HW234371   0.079   2.410   4.282 -1.9553 -1.0628  1.1136
 7580SOL     OW34372   1.175   0.584   3.918 -0.6558  0.3459  0.2727
 7580SOL    HW134373   1.169   0.679   3.920 -0.9467  0.3321  0.1215
 7580SOL    HW234374   1.106   0.558   3.856  1.6902 -0.7731 -1.8634
 7581SOL     OW34375   3.796   2.779   5.799  0.4984 -0.1273  0.4141
 7581SOL    HW134376   3.851   2.730   5.860  0.7712 -1.4590 -0.9026
 7581SOL    HW234377   3.839   2.799   5.716 -1.8864 -1.3612 -1.1041
 7582SOL     OW34378   0.196   3.061   5.733  0.4053  0.0655 -0.2496
 7582SOL    HW134379   0.113   3.101   5.708  0.7428  0.4917 -0.6947
 7582SOL    HW234380   0.198   2.987   5.672  2.0954  0.0240 -0.1532
 7583SOL     OW34381   3.925   3.854  13.400 -0.1797  0.1868  0.8005
 7583SOL    HW134382   3.909   3.765  13.369 -0.6357  0.7436 -0.5209
 7583SOL    HW234383   3.882   3.896  13.326  0.3254 -0.0772  0.3489
 7584SOL     OW34384   0.973   3.396   4.599  0.0486 -0.4401  0.3660
 7584SOL    HW134385   1.014   3.311   4.616  0.5976 -0.4914 -1.2680
 7584SOL    HW234386   0.938   3.391   4.511  0.5453  1.2622  0.0827
 7585SOL     OW34387   2.265   1.203   8.779 -0.0165 -0.1956 -0.4134
 7585SOL    HW134388   2.200   1.234   8.841 -1.6886 -1.6281 -1.4633
 7585SOL    HW234389   2.340   1.185   8.836 -0.1252 -1.2836 -0.6176
 7586SOL     OW34390   4.351   1.912   8.348  0.1006  0.3573  0.1271
 7586SOL    HW134391   4.293   1.964   8.293  0.5101  2.5622  1.7687
 7586SOL    HW234392   4.330   1.820   8.334 -1.9536  0.7091  0.8249
 7587SOL     OW34393   1.487   4.419  10.080  0.5581 -0.5560 -0.4862
 7587SOL    HW134394   1.470   4.457  10.166 -2.2270  0.7211 -1.5994
 7587SOL    HW234395   1.494   4.494  10.020  2.6753 -0.2837  0.0824
 7588SOL     OW34396   4.315   2.793   7.070 -0.1422 -0.3674 -0.2765
 7588SOL    HW134397   4.228   2.807   7.110 -0.7583  1.7534 -2.3359
 7588SOL    HW234398   4.301   2.700   7.054 -0.0644 -0.2479 -1.0407
 7589SOL     OW34399   4.150   2.150   6.714  0.0022  0.0844 -0.4581
 7589SOL    HW134400   4.167   2.202   6.793 -1.6238 -0.5400  0.3100
 7589SOL    HW234401   4.061   2.119   6.730  0.2484 -0.5717 -0.3826
 7590SOL     OW34402   2.271   2.179   7.554  0.4297 -0.4457 -0.2321
 7590SOL    HW134403   2.262   2.156   7.461  5.3432 -2.4409 -0.1931
 7590SOL    HW234404   2.194   2.127   7.576 -0.9778  0.9583 -1.8706
 7591SOL     OW34405   0.962   2.888   7.298 -0.4097  0.3775 -0.2754
 7591SOL    HW134406   0.957   2.953   7.228 -0.1431  2.5586  1.7437
 7591SOL    HW234407   0.952   2.949   7.371 -2.2862 -3.5166  2.7235
 7592SOL     OW34408   3.781   3.880  13.644  0.4842  0.3741 -0.2795
 7592SOL    HW134409   3.840   3.888  13.570  0.3921  1.2757 -0.2603
 7592SOL    HW234410   3.737   3.965  13.652  2.2865  1.4055 -1.4622
 7593SOL     OW34411   2.338   1.453   8.457 -0.3775 -0.2727  0.2722
 7593SOL    HW134412   2.372   1.368   8.429  0.9528  0.9849 -1.8490
 7593SOL    HW234413   2.373   1.457   8.546  2.0446  0.9513 -0.7550
 7594SOL     OW34414   2.224   3.647   3.286 -0.1089 -0.7675 -0.6697
 7594SOL    HW134415   2.238   3.610   3.373  1.1144  1.6535  0.1578
 7594SOL    HW234416   2.130   3.664   3.277 -0.4018 -3.2068 -2.4920
 7595SOL     OW34417   0.749   2.142   8.509  0.0001  0.2149 -0.4101
 7595SOL    HW134418   0.789   2.099   8.584  1.5314 -0.5558 -1.6672
 7595SOL    HW234419   0.775   2.233   8.527  1.3661 -0.0545 -1.0568
 7596SOL     OW34420   2.281   1.146  11.499 -0.1000  0.4235  0.1060
 7596SOL    HW134421   2.193   1.174  11.475 -0.1050 -0.1992 -0.5815
 7596SOL    HW234422   2.311   1.213  11.561 -1.2404  0.7289  0.3228
 7597SOL     OW34423   4.478   0.116   7.038  0.1058  0.3008 -0.0049
 7597SOL    HW134424   4.478   0.026   7.007  1.2492  1.1395 -2.3731
 7597SOL    HW234425   4.456   0.166   6.959  0.1610 -2.1899 -1.5768
 7598SOL     OW34426   0.759   4.077  15.840 -0.1722  0.0896  0.5674
 7598SOL    HW134427   0.837   4.037  15.880  1.0335  1.9763  0.0529
 7598SOL    HW234428   0.693   4.007  15.841  0.9321 -0.9356  2.2465
 7599SOL     OW34429   2.314   4.119  13.263 -0.7487  0.0061 -0.5995
 7599SOL    HW134430   2.229   4.163  13.257 -1.1870 -0.4266  2.5782
 7599SOL    HW234431   2.367   4.182  13.216  0.9394 -0.4022  0.7460
 7600SOL     OW34432   3.582   4.568   3.752  0.2511 -0.1549 -0.2978
 7600SOL    HW134433   3.506   4.610   3.793 -0.6704  0.0016 -2.1912
 7600SOL    HW234434   3.626   4.637   3.703  0.3049 -0.2915 -0.4407
 7601SOL     OW34435   3.542   0.078   2.804 -0.0640  0.3887 -0.2152
 7601SOL    HW134436   3.457   0.079   2.761  0.5803 -1.3113 -1.5600
 7601SOL    HW234437   3.601   0.093   2.730  0.0062  1.5613  0.0742
 7602SOL     OW34438   3.658   2.679   2.117 -0.2575 -0.2136 -0.1858
 7602SOL    HW134439   3.723   2.698   2.050  0.1205 -1.1374 -0.0826
 7602SOL    HW234440   3.642   2.588   2.092 -0.6642  0.3702 -1.9902
 7603SOL     OW34441   4.252   1.322   1.720  0.2663  0.0872  0.1759
 7603SOL    HW134442   4.188   1.389   1.747  2.0004  0.8666  2.4053
 7603SOL    HW234443   4.222   1.247   1.772 -1.7332  0.0108 -1.0772
 7604SOL     OW34444   0.670   1.426   4.141  0.4440  0.6036  0.0401
 7604SOL    HW134445   0.578   1.418   4.166  0.4219 -0.5771 -0.4359
 7604SOL    HW234446   0.689   1.520   4.141  0.4025  0.6063 -1.3769
 7605SOL     OW34447   4.436   0.294   7.597 -0.4250  0.1077  0.2334
 7605SOL    HW134448   4.374   0.298   7.669 -1.2556  0.0761 -0.4801
 7605SOL    HW234449   4.406   0.210   7.564  0.1305  0.7775 -1.9814
 7606SOL     OW34450   1.642   0.422  15.175 -0.7878  0.2639  0.3198
 7606SOL    HW134451   1.682   0.498  15.216 -0.7453 -0.4516  1.6132
 7606SOL    HW234452   1.612   0.464  15.094 -1.2914  1.0863  0.9321
 7607SOL     OW34453   3.496   4.278   0.974  0.0512 -0.2217  0.0584
 7607SOL    HW134454   3.475   4.250   1.063 -3.3920 -0.1773 -0.7343
 7607SOL    HW234455   3.590   4.272   0.989  0.4966  2.7353 -1.5109
 7608SOL     OW34456   1.017   0.247   5.553  0.5135  0.1816 -0.1342
 7608SOL    HW134457   0.952   0.183   5.585  0.1287 -1.0905 -3.5014
 7608SOL    HW234458   1.054   0.191   5.485 -1.3367  0.4558 -1.3596
 7609SOL     OW34459   1.623   2.647   1.309  0.0009  0.2010 -0.2657
 7609SOL    HW134460   1.559   2.584   1.276  0.3399 -0.3033  0.0521
 7609SOL    HW234461   1.659   2.676   1.225 -0.9044  2.0525 -0.0154
 7610SOL     OW34462   0.602   1.916   4.744 -0.8285  0.2387  0.5263
 7610SOL    HW134463   0.511   1.899   4.766 -1.6340  1.0486 -2.2911
 7610SOL    HW234464   0.626   1.979   4.812  3.3745 -2.9837  2.1021
 7611SOL     OW34465   3.800   3.362   3.842 -0.5150 -0.3644 -0.2104
 7611SOL    HW134466   3.806   3.393   3.752  0.1606 -1.8791 -0.6781
 7611SOL    HW234467   3.851   3.282   3.831  1.1437  0.5333  1.0598
 7612SOL     OW34468   0.261   2.602  15.655 -0.6228 -0.2029 -0.7119
 7612SOL    HW134469   0.220   2.519  15.676  1.6269 -2.0769 -3.7437
 7612SOL    HW234470   0.346   2.581  15.615  0.4904  2.1976  0.3949
 7613SOL     OW34471   4.300   3.874   2.154  0.5147  0.8711  0.1707
 7613SOL    HW134472   4.212   3.870   2.191  0.1986  0.9204 -0.5714
 7613SOL    HW234473   4.346   3.940   2.206 -1.6023  2.3461  0.1831
 7614SOL     OW34474   1.374   2.409   8.767 -0.4287  0.2451 -0.0420
 7614SOL    HW134475   1.408   2.329   8.726 -3.8084 -0.8975 -0.5930
 7614SOL    HW234476   1.410   2.483   8.719 -1.2546 -1.1636 -2.8173
 7615SOL     OW34477   0.069   2.260  17.499 -0.0225  0.3334 -0.0627
 7615SOL    HW134478   0.056   2.345  17.541  1.0601 -0.1311  1.2247
 7615SOL    HW234479   4.727   2.251  17.444 -0.0256 -0.0039 -0.0031
 7616SOL     OW34480   1.564   1.832   5.589 -0.6812 -0.0466 -0.4103
 7616SOL    HW134481   1.545   1.896   5.658 -0.6421 -1.6585  1.0762
 7616SOL    HW234482   1.659   1.840   5.588 -0.3967 -3.9803 -2.2371
 7617SOL     OW34483   2.698   2.871   2.103  0.3108  0.3777  0.1264
 7617SOL    HW134484   2.657   2.839   2.022  0.5158 -1.3768  0.7038
 7617SOL    HW234485   2.788   2.886   2.072  0.5742 -0.5210  0.4499
 7618SOL     OW34486   0.081   3.228   4.991  0.4652  0.0295 -0.2030
 7618SOL    HW134487   0.047   3.177   4.917 -0.6417 -0.5134  0.6615
 7618SOL    HW234488   0.017   3.297   5.008 -0.7291 -0.7572 -1.4841
 7619SOL     OW34489   2.232   2.333   3.492  0.2674  0.1548 -0.6864
 7619SOL    HW134490   2.300   2.390   3.457  0.0660  1.6576  1.4080
 7619SOL    HW234491   2.211   2.278   3.417  0.2055 -0.5791 -0.1409
 7620SOL     OW34492   2.452   3.524   4.095  0.1730 -0.1331  0.5006
 7620SOL    HW134493   2.502   3.445   4.116  0.0320  0.0564  1.5130
 7620SOL    HW234494   2.377   3.505   4.151 -0.3960 -1.0193 -0.5597
 7621SOL     OW34495   0.197   3.152   5.261 -0.6565 -0.5912 -0.1223
 7621SOL    HW134496   0.111   3.115   5.282 -0.7937 -0.8180 -1.0925
 7621SOL    HW234497   0.183   3.176   5.170 -1.0496  0.5564  0.2384
 7622SOL     OW34498   2.264   4.570  15.162  0.7275  0.0930  0.2469
 7622SOL    HW134499   2.339   4.524  15.201  1.7183  0.6733 -0.9545
 7622SOL    HW234500   2.199   4.518  15.208 -0.3551  1.5536  0.3449
 7623SOL     OW34501   4.402   3.354  10.239 -0.1505  0.2478  0.3881
 7623SOL    HW134502   4.452   3.287  10.286  0.4216  0.5260  0.1751
 7623SOL    HW234503   4.315   3.345  10.277 -0.5559  0.1699 -0.5519
 7624SOL     OW34504   4.091   0.623   1.436  0.0763  0.0068  0.5607
 7624SOL    HW134505   4.061   0.621   1.345 -0.1672  0.0598  0.6390
 7624SOL    HW234506   4.150   0.696   1.420 -1.0712  0.8986  0.3846
 7625SOL     OW34507   4.631   0.012   7.699 -0.1005  0.1609 -0.7748
 7625SOL    HW134508   4.692   4.681   7.666 -0.2410  0.7562 -2.2201
 7625SOL    HW234509   4.609   0.054   7.616  1.8620  1.3253 -0.7213
 7626SOL     OW34510   1.146   2.465   8.508  0.0441  0.0193 -0.0326
 7626SOL    HW134511   1.188   2.460   8.594  1.3201  1.3204 -0.5831
 7626SOL    HW234512   1.210   2.436   8.443  0.8632  1.0415  0.3236
 7627SOL     OW34513   1.464   2.602   8.594 -0.3101  0.3901 -0.1367
 7627SOL    HW134514   1.402   2.573   8.528 -0.9498 -0.1400  0.6917
 7627SOL    HW234515   1.442   2.695   8.594  3.1303  1.2259  1.7073
 7628SOL     OW34516   1.581   1.427  11.920  0.0358 -0.0565  0.0160
 7628SOL    HW134517   1.563   1.430  11.826  1.6142  0.4760 -0.2663
 7628SOL    HW234518   1.567   1.334  11.937  0.0522 -0.4174 -1.9848
 7629SOL     OW34519   4.053   2.820   7.140 -0.3177  0.3624  0.9159
 7629SOL    HW134520   4.027   2.737   7.180  0.0128 -0.1730  0.0112
 7629SOL    HW234521   4.047   2.880   7.215 -2.6807  0.2003  0.8512
 7630SOL     OW34522   4.501   1.545  16.535  0.7912  0.4210  0.5121
 7630SOL    HW134523   4.461   1.597  16.465 -0.3393  1.8069  2.1953
 7630SOL    HW234524   4.527   1.623  16.585  2.3080 -0.2550  0.7902
 7631SOL     OW34525   3.827   1.850   1.297  0.1066  0.3301  0.1082
 7631SOL    HW134526   3.774   1.775   1.270  2.3392 -0.7488 -1.2694
 7631SOL    HW234527   3.915   1.814   1.290 -0.1696 -0.1689 -0.8409
 7632SOL     OW34528   4.097   2.444  17.252  0.7295  0.2265  0.6070
 7632SOL    HW134529   4.045   2.524  17.259 -0.3199 -0.4040  0.0198
 7632SOL    HW234530   4.068   2.404  17.170 -1.9424  1.0891  1.1454
 7633SOL     OW34531   1.769   4.019   5.119  0.0633 -0.2856 -0.5924
 7633SOL    HW134532   1.764   4.029   5.024 -3.1660  0.8764 -0.2852
 7633SOL    HW234533   1.813   3.934   5.130 -1.0939 -0.4801  2.4490
 7634SOL     OW34534   3.068   1.729   3.415 -0.1617  0.9206  0.4188
 7634SOL    HW134535   3.146   1.688   3.378 -0.3690 -0.2069  1.2190
 7634SOL    HW234536   3.098   1.741   3.505 -1.2004 -0.9435  1.0151
 7635SOL     OW34537   0.367   1.464   8.103 -0.0861  0.0572  0.0642
 7635SOL    HW134538   0.297   1.414   8.146 -1.3399  1.8649  0.1662
 7635SOL    HW234539   0.324   1.549   8.117 -2.3775 -0.9978 -0.4477
 7636SOL     OW34540   1.754   2.661   1.558  0.3591 -0.0463 -0.2580
 7636SOL    HW134541   1.721   2.651   1.469 -1.0871  0.6149  0.2012
 7636SOL    HW234542   1.845   2.642   1.536  1.1671  1.0961  2.0967
 7637SOL     OW34543   2.330   4.028   8.164 -0.0915 -0.3258  0.9437
 7637SOL    HW134544   2.351   3.990   8.250 -1.2821  0.5119  1.6035
 7637SOL    HW234545   2.395   4.098   8.157  1.3056 -1.9840 -2.6627
 7638SOL     OW34546   0.080   0.198   3.269 -0.0215  0.2379 -1.0845
 7638SOL    HW134547   0.161   0.190   3.220  1.1143 -0.2131  0.8832
 7638SOL    HW234548   0.023   0.141   3.216 -0.5608 -1.6870  1.5896
 7639SOL     OW34549   3.299   0.060  16.601  0.4044 -0.3510  0.3818
 7639SOL    HW134550   3.285   4.702  16.616  1.8971 -0.3500  1.8300
 7639SOL    HW234551   3.330   0.078  16.690  1.0070 -1.9067  0.4808
 7640SOL     OW34552   4.407   1.187   7.380  1.0449 -0.5512  0.3384
 7640SOL    HW134553   4.501   1.169   7.386  0.2344 -3.5724  3.7843
 7640SOL    HW234554   4.381   1.154   7.294  0.9143  0.8252 -0.1498
 7641SOL     OW34555   1.114   0.829   3.413 -0.1804 -0.2289  0.4339
 7641SOL    HW134556   1.056   0.764   3.371 -1.7141  1.3806  0.0543
 7641SOL    HW234557   1.066   0.829   3.496 -0.1534  0.7404  0.4527
 7642SOL     OW34558   2.835   1.073  14.574 -0.6955 -0.4470 -0.0072
 7642SOL    HW134559   2.804   1.005  14.635 -0.8147  0.7549  1.2679
 7642SOL    HW234560   2.773   1.042  14.508 -2.0319 -0.1991  1.1187
 7643SOL     OW34561   0.964   0.989   4.308  0.2180 -0.8358 -0.0827
 7643SOL    HW134562   0.884   1.042   4.317  0.8820  0.3753 -1.2988
 7643SOL    HW234563   1.024   1.052   4.268  0.4951 -1.1776 -0.2046
 7644SOL     OW34564   3.828   0.691   2.295  0.3968 -0.3686 -0.2288
 7644SOL    HW134565   3.908   0.665   2.341  2.0790  0.8602 -2.4964
 7644SOL    HW234566   3.818   0.785   2.306 -0.7159 -0.3506 -1.3505
 7645SOL     OW34567   0.964   2.184   3.791  0.3067 -0.8088 -0.4830
 7645SOL    HW134568   0.909   2.142   3.857 -0.0784 -1.4112 -1.1794
 7645SOL    HW234569   0.902   2.189   3.718  1.0671  0.9055 -1.0214
 7646SOL     OW34570   1.048   3.337   5.820  1.1628 -0.0070 -0.4491
 7646SOL    HW134571   0.965   3.378   5.794 -0.9897 -2.5792  2.3837
 7646SOL    HW234572   1.084   3.401   5.881 -2.2075 -0.4820  2.0269
 7647SOL     OW34573   1.157   3.837   5.212 -0.4676  0.2935 -0.4489
 7647SOL    HW134574   1.212   3.900   5.258 -2.5466  2.3772 -0.8138
 7647SOL    HW234575   1.071   3.861   5.246 -1.2430 -0.7569 -1.6659
 7648SOL     OW34576   2.002   2.393  10.559 -0.9918  0.0996  0.1832
 7648SOL    HW134577   2.044   2.434  10.483  0.6978 -1.9565 -0.0135
 7648SOL    HW234578   1.913   2.408  10.528 -1.6416  2.3281  3.1416
 7649SOL     OW34579   1.028   1.607   7.469  0.0699  0.3234  0.7558
 7649SOL    HW134580   1.055   1.694   7.440 -2.7678  1.3153  1.0787
 7649SOL    HW234581   1.091   1.591   7.539  0.6364  0.9090  0.3740
 7650SOL     OW34582   0.719   1.201   6.902 -0.5343  0.2052  0.3016
 7650SOL    HW134583   0.673   1.272   6.947 -0.8613  0.3295 -0.2400
 7650SOL    HW234584   0.731   1.148   6.981 -0.4220 -1.2813 -0.7365
 7651SOL     OW34585   4.657   0.059   3.736  0.1122 -0.4860  0.1728
 7651SOL    HW134586   4.607   0.136   3.763 -1.5785 -0.6932 -2.3399
 7651SOL    HW234587   4.707   0.053   3.817 -1.4320  1.9772  1.2977
 7652SOL     OW34588   0.553   1.566   2.393 -0.3747  0.1712 -0.5128
 7652SOL    HW134589   0.553   1.652   2.351  1.1922 -0.3270 -1.5350
 7652SOL    HW234590   0.469   1.559   2.437 -0.6245 -0.9661 -1.1709
 7653SOL     OW34591   0.160   4.471   8.929 -0.4379 -0.5269  0.0147
 7653SOL    HW134592   0.197   4.520   9.002  2.0722 -2.2051 -0.1301
 7653SOL    HW234593   0.094   4.539   8.914  0.5618  0.9659  2.3984
 7654SOL     OW34594   1.978   4.524   1.883  0.2276 -0.1997  0.1301
 7654SOL    HW134595   1.936   4.441   1.858  1.7831 -1.1118  0.5494
 7654SOL    HW234596   1.929   4.582   1.825  0.6296 -0.7247 -0.7312
 7655SOL     OW34597   3.280   2.201   4.846  0.0622 -0.6776  0.4374
 7655SOL    HW134598   3.275   2.155   4.762 -0.7912 -0.9415  0.6310
 7655SOL    HW234599   3.212   2.160   4.901 -1.8385 -0.5977 -1.8405
 7656SOL     OW34600   0.673   3.599   6.492 -0.3207 -0.3313  0.2554
 7656SOL    HW134601   0.629   3.660   6.433 -1.5599 -0.8838  0.6037
 7656SOL    HW234602   0.653   3.515   6.449  0.0330 -0.7243  0.8552
 7657SOL     OW34603   3.698   2.107   3.896  0.3983 -0.6426  0.3208
 7657SOL    HW134604   3.753   2.095   3.818  0.6383  0.4501  0.3310
 7657SOL    HW234605   3.703   2.202   3.906 -2.2508 -0.3335 -1.1991
 7658SOL     OW34606   1.525   1.952   6.769  0.2566  0.5966 -0.1229
 7658SOL    HW134607   1.444   2.001   6.758  0.1733  0.5862  0.4191
 7658SOL    HW234608   1.507   1.906   6.851  1.0207  0.2923 -0.1239
 7659SOL     OW34609   1.317   1.022  12.674  0.5848 -0.3545  0.3172
 7659SOL    HW134610   1.339   1.062  12.759 -1.0338 -0.7821  0.9274
 7659SOL    HW234611   1.224   1.015  12.692  0.0909  3.3033 -0.7754
 7660SOL     OW34612   1.099   3.661   5.839 -0.1007 -0.1048  0.3531
 7660SOL    HW134613   1.081   3.755   5.837 -1.6310 -0.4708 -2.4536
 7660SOL    HW234614   1.184   3.652   5.795 -0.4602 -0.1808 -0.3148
 7661SOL     OW34615   2.851   2.404   3.666 -0.0191 -0.0637 -0.0779
 7661SOL    HW134616   2.845   2.498   3.652  0.1631 -0.3764 -2.1319
 7661SOL    HW234617   2.814   2.372   3.584 -1.5120  1.7893 -0.1409
 7662SOL     OW34618   2.298   1.608   2.668 -0.5295 -0.2692  0.2964
 7662SOL    HW134619   2.386   1.645   2.673 -0.3221 -0.5054 -1.5185
 7662SOL    HW234620   2.281   1.566   2.753  2.2805 -0.4272  0.7784
 7663SOL     OW34621   1.916   3.813   6.608 -0.1912  0.4757 -0.4926
 7663SOL    HW134622   1.860   3.890   6.617  1.5344  1.6653 -0.0925
 7663SOL    HW234623   1.993   3.855   6.569  0.0949 -1.3950 -1.9620
 7664SOL     OW34624   0.345   3.473   5.948  0.1893  0.8022  0.0553
 7664SOL    HW134625   0.290   3.457   6.025 -0.7832  0.5583 -0.6852
 7664SOL    HW234626   0.287   3.440   5.879 -0.3636  3.0203 -0.5558
 7665SOL     OW34627   3.760   1.622   8.997 -0.2317 -0.3423 -0.2745
 7665SOL    HW134628   3.775   1.716   8.987 -1.9674 -0.1082 -0.6377
 7665SOL    HW234629   3.711   1.596   8.919  1.8637 -0.1723 -1.6556
 7666SOL     OW34630   0.190   3.066   6.012 -0.0205  0.3921  0.5808
 7666SOL    HW134631   0.273   3.072   6.060 -0.6118 -4.3213  2.2372
 7666SOL    HW234632   0.217   3.046   5.922 -0.0517 -0.7070  0.8102
 7667SOL     OW34633   1.385   0.959   2.152 -0.3036  0.2997  0.2266
 7667SOL    HW134634   1.401   1.005   2.235 -1.1213  2.2625 -0.6892
 7667SOL    HW234635   1.462   0.978   2.098  0.3586 -1.6902  0.4740
 7668SOL     OW34636   0.179   3.047   2.067  0.4386 -0.1038  0.0816
 7668SOL    HW134637   0.228   3.107   2.122  0.6322  0.5039 -0.7512
 7668SOL    HW234638   0.089   3.073   2.087  0.0597 -0.6739 -0.8390
 7669SOL     OW34639   3.961   1.423   9.066 -0.3036 -0.2005 -0.0335
 7669SOL    HW134640   3.886   1.477   9.040 -1.5591 -0.3818  3.2458
 7669SOL    HW234641   3.930   1.338   9.033  0.8202 -0.2015 -1.0695
 7670SOL     OW34642   0.472   2.279   8.780 -0.9005  0.1779  0.4208
 7670SOL    HW134643   0.509   2.364   8.755  2.6304 -1.3712  0.4870
 7670SOL    HW234644   0.540   2.262   8.845 -0.3351 -0.8020 -0.4423
 7671SOL     OW34645   2.263   1.840  13.951 -0.1541  0.8754 -0.1187
 7671SOL    HW134646   2.326   1.768  13.941 -2.7285 -1.3124 -0.5321
 7671SOL    HW234647   2.287   1.877  14.036 -0.4494 -3.2500  1.7598
 7672SOL     OW34648   0.228   4.726   8.118  0.3182  0.1749  0.1465
 7672SOL    HW134649   0.226   0.081   8.148  2.7870  0.5935 -0.9617
 7672SOL    HW234650   0.215   0.015   8.026  0.6543  0.2337  0.1147
 7673SOL     OW34651   4.017   1.686  10.396 -0.0220  0.1434  0.3342
 7673SOL    HW134652   4.031   1.683  10.490 -1.2039 -0.4725  0.4919
 7673SOL    HW234653   3.921   1.696  10.397 -0.2703 -2.2710 -0.9747
 7674SOL     OW34654   4.071   1.080   5.980  0.3358 -0.3517 -0.9968
 7674SOL    HW134655   4.136   1.030   6.029 -0.2645  0.5043  0.6779
 7674SOL    HW234656   4.040   1.016   5.916 -1.6238  1.7031 -2.1148
 7675SOL     OW34657   3.641   4.031   3.960  0.7203  0.1603  0.3403
 7675SOL    HW134658   3.703   4.003   4.027 -0.0598  0.5751  1.2298
 7675SOL    HW234659   3.619   3.944   3.928 -0.2051  0.0974  1.1529
 7676SOL     OW34660   0.136   2.667   3.786  0.4058  0.0316  0.0848
 7676SOL    HW134661   0.096   2.628   3.864 -1.9644 -0.0623 -1.1982
 7676SOL    HW234662   0.191   2.597   3.749  2.5131  0.7954  1.7497
 7677SOL     OW34663   1.205   3.224   4.293  0.4644  0.2529  0.4404
 7677SOL    HW134664   1.278   3.187   4.341  0.5451  0.1960  0.2715
 7677SOL    HW234665   1.242   3.222   4.205 -0.4880 -0.3044  0.0470
 7678SOL     OW34666   4.096   3.384   9.042 -0.2458  0.1014  0.4411
 7678SOL    HW134667   4.007   3.374   9.008  0.6411 -3.7019 -0.8127
 7678SOL    HW234668   4.116   3.469   9.003 -2.7610  0.1133 -0.8287
 7679SOL     OW34669   1.745   1.410   7.804  0.0749 -0.0787 -0.4558
 7679SOL    HW134670   1.794   1.456   7.873  0.9424  0.1944 -1.2489
 7679SOL    HW234671   1.763   1.325   7.846 -1.0609 -1.3823 -2.6184
 7680SOL     OW34672   4.228   0.264   7.787  0.2512  0.4101  0.5799
 7680SOL    HW134673   4.287   0.296   7.855  0.6614 -0.3020  0.5661
 7680SOL    HW234674   4.160   0.217   7.836 -1.6574  0.2151 -2.2773
 7681SOL     OW34675   3.316   2.784   9.569  0.1734 -0.5894 -0.2114
 7681SOL    HW134676   3.323   2.862   9.514 -1.1345 -1.1659 -1.2042
 7681SOL    HW234677   3.398   2.794   9.617  0.0756 -0.0231 -0.1685
 7682SOL     OW34678   1.267   1.017   3.304 -0.5260  0.6812  0.1617
 7682SOL    HW134679   1.222   0.940   3.341  2.0571 -1.5011 -1.2008
 7682SOL    HW234680   1.318   1.046   3.380  1.4770 -0.1991 -0.8244
 7683SOL     OW34681   2.885   3.175   5.848 -1.0559  0.1435  0.5107
 7683SOL    HW134682   2.791   3.163   5.839 -1.0160  1.4387 -1.8963
 7683SOL    HW234683   2.913   3.084   5.850 -0.4226  0.2820 -1.6905
 7684SOL     OW34684   0.547   1.260   1.942  0.1344  0.3274  0.3550
 7684SOL    HW134685   0.545   1.201   2.017  1.1752  1.5960  1.3756
 7684SOL    HW234686   0.488   1.220   1.878 -0.5659 -1.2005  1.9367
 7685SOL     OW34687   0.462   1.663   3.914  0.0311 -0.3220 -0.2840
 7685SOL    HW134688   0.367   1.655   3.925  0.0945 -0.2370  0.3415
 7685SOL    HW234689   0.488   1.573   3.898  1.1163  0.5129 -3.1670
 7686SOL     OW34690   0.063   4.698   1.912 -0.3990 -0.0374 -0.3097
 7686SOL    HW134691   0.155   4.698   1.940  0.5485  0.1481 -3.3723
 7686SOL    HW234692   0.023   4.675   1.995  2.5291  0.7654  1.3223
 7687SOL     OW34693   4.461   4.721   5.803 -0.1034  0.4444 -0.1572
 7687SOL    HW134694   4.494   4.695   5.717 -2.4177  0.6074 -1.1009
 7687SOL    HW234695   4.515   0.065   5.811 -0.5163  0.7568 -0.4058
 7688SOL     OW34696   4.207   4.715   3.855  0.2087  0.2789  0.2240
 7688SOL    HW134697   4.226   4.652   3.925  1.4988  1.4333  0.9147
 7688SOL    HW234698   4.160   4.657   3.795 -0.4533  2.8590 -1.7290
 7689SOL     OW34699   1.335   4.701   5.459 -0.6366 -0.1789  0.3264
 7689SOL    HW134700   1.398   0.024   5.415 -0.9760 -0.7202 -0.8705
 7689SOL    HW234701   1.256   4.723   5.409 -0.2453 -1.0970 -0.6822
 7690SOL     OW34702   0.062   2.976   6.834  0.4486  0.5145  0.1600
 7690SOL    HW134703   0.094   2.993   6.922  1.3061 -1.0486  0.1497
 7690SOL    HW234704   0.035   2.884   6.842 -1.6630  1.0157 -1.0758
 7691SOL     OW34705   4.723   0.314   5.140  0.2019 -0.2262 -0.6178
 7691SOL    HW134706   4.718   0.384   5.206  2.3794  0.2092 -0.8831
 7691SOL    HW234707   4.644   0.329   5.088  0.1114 -0.3517 -0.5147
 7692SOL     OW34708   3.262   1.908   7.930  0.2000 -0.0838 -0.2295
 7692SOL    HW134709   3.188   1.908   7.991  0.9480  1.8362  0.6926
 7692SOL    HW234710   3.337   1.908   7.991  0.9816  0.1007 -1.1981
 7693SOL     OW34711   0.516   0.488   4.127 -0.0950 -0.2606 -0.2484
 7693SOL    HW134712   0.442   0.428   4.139  0.7995 -1.0816  1.1704
 7693SOL    HW234713   0.590   0.437   4.092  1.2327  0.4753  1.4409
 7694SOL     OW34714   3.753   1.003  12.812  0.2192 -0.2916  0.2666
 7694SOL    HW134715   3.791   0.917  12.830 -2.7484 -1.2039  2.0119
 7694SOL    HW234716   3.819   1.043  12.755 -0.7965  2.3326  0.9527
 7695SOL     OW34717   2.454   0.667  14.045  0.1093  0.4239 -0.5190
 7695SOL    HW134718   2.436   0.642  13.954  0.4449  1.4001 -0.8565
 7695SOL    HW234719   2.423   0.590  14.093 -0.0256  1.1090  0.4941
 7696SOL     OW34720   2.844   1.943   5.799  0.8473 -0.2328  0.0184
 7696SOL    HW134721   2.898   1.892   5.859 -0.3713 -1.1736  0.3002
 7696SOL    HW234722   2.904   2.009   5.765  1.3806  0.7245  2.7693
 7697SOL     OW34723   4.628   1.909   4.521  0.0746  0.1505 -0.4189
 7697SOL    HW134724   4.706   1.947   4.561  0.5922  0.0053 -1.2891
 7697SOL    HW234725   4.601   1.980   4.462  1.3798  0.3024 -0.8376
 7698SOL     OW34726   3.147   4.538   6.978 -0.0057 -0.0908 -0.2018
 7698SOL    HW134727   3.227   4.535   7.031  1.5558  2.4231 -2.3895
 7698SOL    HW234728   3.091   4.566   7.051  1.0149  2.7039 -0.4651
 7699SOL     OW34729   2.815   4.619   4.811 -0.0665 -0.0288  0.1998
 7699SOL    HW134730   2.730   4.604   4.770 -0.1438 -1.0399  0.7311
 7699SOL    HW234731   2.785   4.618   4.902 -2.0909 -1.0036 -0.4812
 7700SOL     OW34732   2.113   2.569   3.619  0.5715 -0.1434  0.0467
 7700SOL    HW134733   2.149   2.487   3.585 -0.2844  0.0986 -1.4435
 7700SOL    HW234734   2.144   2.632   3.555  1.1914 -0.0404  0.4500
 7701SOL     OW34735   2.329   1.061  17.162 -0.4621  0.5913 -0.4053
 7701SOL    HW134736   2.328   1.135  17.101 -1.8289 -0.0976 -1.2089
 7701SOL    HW234737   2.347   1.101  17.247  0.3299  0.2365 -0.3995
 7702SOL     OW34738   1.953   0.634  17.299  0.2447  0.3132  0.0711
 7702SOL    HW134739   2.029   0.639  17.357 -1.3359 -0.7695  2.2478
 7702SOL    HW234740   1.882   0.647  17.363  0.3282  0.6088  0.1060
 7703SOL     OW34741   0.203   1.080  13.281  0.3121 -0.2828  0.7260
 7703SOL    HW134742   0.288   1.043  13.255 -0.0114 -0.7682  0.3426
 7703SOL    HW234743   0.204   1.148  13.213  2.6811 -0.0652  0.9572
 7704SOL     OW34744   1.122   2.349  15.648 -0.1862  0.2662 -0.4813
 7704SOL    HW134745   1.193   2.363  15.710  0.7182 -0.2645 -1.3863
 7704SOL    HW234746   1.176   2.298  15.587 -0.9942 -4.0676  2.4370
 7705SOL     OW34747   0.616   1.700   9.040 -0.1024  0.1608  0.4264
 7705SOL    HW134748   0.596   1.730   8.951 -2.2837 -2.6000 -0.0299
 7705SOL    HW234749   0.699   1.746   9.051 -0.6939  0.6895  2.8547
 7706SOL     OW34750   4.106   4.455   5.294 -0.2291  0.3533 -0.1082
 7706SOL    HW134751   4.024   4.504   5.283 -0.7988 -0.9011 -1.4355
 7706SOL    HW234752   4.106   4.449   5.390  0.7883  0.3006 -0.1184
 7707SOL     OW34753   0.984   2.809   3.723 -0.2236 -0.2206 -0.4340
 7707SOL    HW134754   1.051   2.745   3.747 -1.2847 -0.6037  1.5689
 7707SOL    HW234755   0.977   2.846   3.812  1.1177  0.6427 -0.6729
 7708SOL     OW34756   4.594   4.709   4.359  0.4703 -0.3803 -0.5264
 7708SOL    HW134757   4.527   4.653   4.398  1.5921 -1.4212 -0.1170
 7708SOL    HW234758   4.670   4.654   4.346  0.9034  0.0771  0.1072
 7709SOL     OW34759   2.282   0.921   6.553  0.2800  0.1171 -0.0562
 7709SOL    HW134760   2.196   0.938   6.516  0.3456  0.3496 -0.1018
 7709SOL    HW234761   2.266   0.885   6.640 -0.2905 -0.3507 -0.3498
 7710SOL     OW34762   1.063   0.290  17.411 -0.1353 -0.2134  0.2294
 7710SOL    HW134763   0.988   0.264  17.465 -0.8836  2.9440  0.7554
 7710SOL    HW234764   1.122   0.314  17.482  0.6029 -1.3572 -0.0072
 7711SOL     OW34765   1.495   1.437   3.872 -0.0790 -0.4120 -0.3331
 7711SOL    HW134766   1.542   1.354   3.860  0.5507  0.0776 -1.2980
 7711SOL    HW234767   1.540   1.475   3.947  0.2002  0.7320 -1.0775
 7712SOL     OW34768   1.908   3.106   9.501 -0.1953  0.9018 -0.0887
 7712SOL    HW134769   1.828   3.086   9.549  0.9920  0.6398  1.7686
 7712SOL    HW234770   1.907   3.198   9.528 -1.6748  0.8484  0.0114
 7713SOL     OW34771   0.774   1.026   3.776 -0.5663 -0.3190  0.4201
 7713SOL    HW134772   0.739   0.950   3.824  0.6557  0.8444  3.1230
 7713SOL    HW234773   0.692   1.075   3.786  0.3797  1.2676  0.2115
 7714SOL     OW34774   4.007   0.145   6.666 -0.0161  0.0601  0.0915
 7714SOL    HW134775   4.093   0.133   6.626 -0.1791 -1.6619  0.2869
 7714SOL    HW234776   4.025   0.169   6.757  0.6694 -0.0800 -0.0073
 7715SOL     OW34777   3.241   3.296  14.911 -0.0452 -0.3896  0.1376
 7715SOL    HW134778   3.251   3.325  15.002  1.0924 -2.0464  0.5305
 7715SOL    HW234779   3.147   3.284  14.919 -0.0786 -1.7002 -2.1902
 7716SOL     OW34780   0.276   3.980   4.943  0.2080  0.4567 -0.5815
 7716SOL    HW134781   0.229   3.899   4.962  1.3575  0.4092  2.1506
 7716SOL    HW234782   0.354   3.971   4.999  0.2542  0.9644 -0.5628
 7717SOL     OW34783   1.815   0.191   3.133  0.5329  0.0933 -0.2426
 7717SOL    HW134784   1.781   0.120   3.079  0.3028 -0.7416  1.0166
 7717SOL    HW234785   1.873   0.236   3.071  2.4489 -0.0878  1.4209
 7718SOL     OW34786   1.057   3.430   8.583  0.6859  0.7606 -0.5534
 7718SOL    HW134787   1.020   3.387   8.506  2.3069  1.6886 -1.8364
 7718SOL    HW234788   0.974   3.446   8.627  1.9369  4.5272  0.4178
 7719SOL     OW34789   2.870   4.021   8.671  1.1951  0.7332  0.2598
 7719SOL    HW134790   2.815   4.036   8.594 -0.4309 -0.9206  1.1101
 7719SOL    HW234791   2.806   4.026   8.742  0.2361 -1.5930 -0.4437
 7720SOL     OW34792   1.370   1.176  10.400 -0.2667  0.0544  0.3549
 7720SOL    HW134793   1.301   1.155  10.463 -0.8936  0.9495 -0.0477
 7720SOL    HW234794   1.317   1.181  10.320 -0.4656  1.1485  0.5577
 7721SOL     OW34795   0.283   0.723  17.470 -0.8715 -0.0844 -0.3900
 7721SOL    HW134796   0.238   0.740  17.553  2.1169  3.3366  0.5323
 7721SOL    HW234797   0.227   0.651  17.443 -0.4655 -1.1809  1.6656
 7722SOL     OW34798   2.476   1.813   8.865 -0.0308 -0.6752  0.5666
 7722SOL    HW134799   2.470   1.881   8.932  2.1422  1.7925 -1.7203
 7722SOL    HW234800   2.516   1.743   8.916 -0.1934 -0.4887  0.9460
 7723SOL     OW34801   4.125   1.977   6.302  0.2321 -0.4379 -0.2345
 7723SOL    HW134802   4.157   2.046   6.361 -0.6901  0.4552 -0.7715
 7723SOL    HW234803   4.083   1.910   6.357 -0.3856 -0.4341 -0.7005
 7724SOL     OW34804   3.327   0.871  12.595 -0.3667 -0.5335 -0.4963
 7724SOL    HW134805   3.374   0.855  12.677  1.5179  1.8038 -1.1196
 7724SOL    HW234806   3.287   0.957  12.608  0.2690  0.0005 -2.1284
 7725SOL     OW34807   1.314   3.000  17.651  0.2692 -0.0584  0.3318
 7725SOL    HW134808   1.305   3.059  17.726  1.6269 -0.0478  0.4753
 7725SOL    HW234809   1.403   3.011  17.618 -0.1008  2.2542  0.0764
 7726SOL     OW34810   4.231   2.473  12.448  0.1416  0.3803 -0.5380
 7726SOL    HW134811   4.234   2.482  12.544 -3.8999 -2.7863 -0.1036
 7726SOL    HW234812   4.288   2.396  12.435  0.0786 -0.2388  2.8820
 7727SOL     OW34813   3.161   4.562   0.176 -1.2436  0.4814 -0.8665
 7727SOL    HW134814   3.241   4.539   0.223 -0.0550  2.8394 -1.7164
 7727SOL    HW234815   3.190   4.545   0.086  0.0297 -3.4090  0.2678
 7728SOL     OW34816   3.070   2.439   4.103 -0.3032 -0.0949 -0.4095
 7728SOL    HW134817   3.098   2.511   4.046  0.7932  0.0950  0.3768
 7728SOL    HW234818   3.131   2.369   4.079  0.6660  0.9054 -0.8848
 7729SOL     OW34819   0.398   4.490   1.889  0.1128 -0.6602 -0.1633
 7729SOL    HW134820   0.400   4.582   1.864 -1.2363 -1.0356 -1.6707
 7729SOL    HW234821   0.454   4.479   1.966 -0.6664  1.1221  0.6357
 7730SOL     OW34822   2.732   2.193   3.494 -0.1861 -0.3600  0.2346
 7730SOL    HW134823   2.707   2.156   3.409  0.3305 -0.0164 -0.0661
 7730SOL    HW234824   2.826   2.177   3.508  0.3576  1.9293 -0.7816
 7731SOL     OW34825   1.565   0.849   7.542  0.5704 -0.0750  0.0803
 7731SOL    HW134826   1.560   0.943   7.523  4.0379  0.5242  2.0906
 7731SOL    HW234827   1.530   0.820   7.458  1.5785  1.0249 -0.7345
 7732SOL     OW34828   4.703   2.364   1.314  0.2988  0.5454  0.3844
 7732SOL    HW134829   0.038   2.387   1.252 -0.5321  0.3032 -0.6431
 7732SOL    HW234830   4.721   2.437   1.373  0.0695 -0.4724  1.7098
 7733SOL     OW34831   0.496   1.804   4.160 -0.0766  0.7651  0.1500
 7733SOL    HW134832   0.413   1.793   4.205 -0.4254 -1.2004 -1.0098
 7733SOL    HW234833   0.489   1.753   4.079 -1.7061 -0.2647  0.9490
 7734SOL     OW34834   2.530   0.400   8.190 -0.2431 -0.0985 -0.5066
 7734SOL    HW134835   2.537   0.377   8.097 -0.4274 -0.5471 -0.4061
 7734SOL    HW234836   2.519   0.317   8.236 -0.7711  0.8282  1.0358
 7735SOL     OW34837   4.390   2.607   1.856  0.3471  0.0712 -0.1769
 7735SOL    HW134838   4.306   2.563   1.841  2.1570 -2.8376 -1.8747
 7735SOL    HW234839   4.403   2.564   1.940 -0.4303  0.1946  0.0032
 7736SOL     OW34840   1.123   0.716   6.624 -0.0142 -0.4139 -0.5070
 7736SOL    HW134841   1.180   0.655   6.578 -0.7893 -2.3943  1.1279
 7736SOL    HW234842   1.111   0.678   6.711 -1.3868  0.0883 -0.4873
 7737SOL     OW34843   3.363   3.094   6.146  0.8075 -0.2925 -0.3934
 7737SOL    HW134844   3.342   3.021   6.087 -0.1930  1.0349 -1.6715
 7737SOL    HW234845   3.399   3.046   6.221  1.8476  1.9089  0.4992
 7738SOL     OW34846   1.823   4.018  12.237  0.1637  0.0377 -0.2041
 7738SOL    HW134847   1.883   4.093  12.238  0.9939 -0.6707  4.9954
 7738SOL    HW234848   1.747   4.055  12.282 -0.0805 -0.1185 -0.4881
 7739SOL     OW34849   4.136   2.552   0.765 -0.0963  0.1341  0.0123
 7739SOL    HW134850   4.048   2.513   0.769  1.2101 -2.8159  0.4305
 7739SOL    HW234851   4.189   2.473   0.755 -1.9439 -1.1208  0.1029
 7740SOL     OW34852   0.091   2.649   9.863  0.7049 -0.5024  0.0529
 7740SOL    HW134853   0.015   2.619   9.812 -0.1052  3.1484 -0.9010
 7740SOL    HW234854   0.047   2.715   9.916 -1.0339 -0.7783 -1.0163
 7741SOL     OW34855   3.847   4.271   4.771  0.0358 -0.1474 -0.3852
 7741SOL    HW134856   3.756   4.284   4.744  0.3316 -0.2564 -1.4418
 7741SOL    HW234857   3.853   4.176   4.768  1.3412 -0.1463  2.0461
 7742SOL     OW34858   0.714   4.031   7.098 -0.6918  0.7101 -0.3671
 7742SOL    HW134859   0.741   3.944   7.069  2.7659  1.4100  0.7898
 7742SOL    HW234860   0.700   4.014   7.191  1.7583  3.2558  0.4593
 7743SOL     OW34861   2.487   2.237   5.053 -0.2927 -0.0221  0.2543
 7743SOL    HW134862   2.473   2.143   5.059  0.3510 -0.0600  1.0923
 7743SOL    HW234863   2.431   2.271   5.123 -0.1402 -0.5107  0.6112
 7744SOL     OW34864   1.427   0.105   5.125  0.2624  0.2584 -0.5109
 7744SOL    HW134865   1.423   0.009   5.119  1.0503  0.1813  0.1100
 7744SOL    HW234866   1.406   0.136   5.037  2.0811  0.5764 -0.8351
 7745SOL     OW34867   4.197   4.708   2.143 -0.1486  0.2194  0.3308
 7745SOL    HW134868   4.261   4.697   2.072  1.0182 -1.2862  1.6204
 7745SOL    HW234869   4.128   0.023   2.099  0.8029  0.0741 -1.3387
 7746SOL     OW34870   0.248   0.618   0.357  0.3886 -0.2642  0.2250
 7746SOL    HW134871   0.222   0.598   0.447 -0.5984 -1.0299 -0.2249
 7746SOL    HW234872   0.192   0.688   0.324  3.2994  1.7845 -0.3950
 7747SOL     OW34873   3.561   1.795   5.027 -0.4646 -0.7034 -0.2655
 7747SOL    HW134874   3.591   1.769   5.115  1.5387  1.1308 -0.4281
 7747SOL    HW234875   3.493   1.728   5.021 -2.7576  1.3570  2.7076
 7748SOL     OW34876   0.335   1.811   2.066 -0.2519  0.5129 -0.0356
 7748SOL    HW134877   0.274   1.749   2.105  1.1061 -0.8097  0.0029
 7748SOL    HW234878   0.284   1.880   2.024 -3.0550 -2.5798 -1.6063
 7749SOL     OW34879   3.062   3.970   7.472 -0.1115  0.8003 -0.1849
 7749SOL    HW134880   3.142   3.967   7.524  0.7912 -0.4448 -1.6668
 7749SOL    HW234881   3.003   4.009   7.537 -0.1347  0.5885 -0.0781
 7750SOL     OW34882   3.940   0.505   5.840  0.3683 -0.1257 -0.6634
 7750SOL    HW134883   3.864   0.550   5.803 -0.3955 -1.1677 -0.3313
 7750SOL    HW234884   3.991   0.482   5.762 -1.8637 -0.6040 -1.9916
 7751SOL     OW34885   3.315   3.407  16.082  0.3340  0.0937  0.7365
 7751SOL    HW134886   3.275   3.472  16.139 -0.5793  0.6701 -0.5520
 7751SOL    HW234887   3.384   3.449  16.030  0.5357 -0.9645  0.1409
 7752SOL     OW34888   4.288   3.793   9.432 -0.4232 -0.2025  0.4649
 7752SOL    HW134889   4.340   3.773   9.354  1.7251  0.5074  1.6872
 7752SOL    HW234890   4.298   3.717   9.488 -0.8322 -1.3501 -1.0265
 7753SOL     OW34891   1.122   0.558   6.857  0.4537  0.1982  0.4164
 7753SOL    HW134892   1.132   0.515   6.942  0.5679 -0.4785  0.0614
 7753SOL    HW234893   1.142   0.484   6.800  1.6533  0.3123  0.6866
 7754SOL     OW34894   1.119   3.131   8.115 -0.1728 -0.2128  0.1223
 7754SOL    HW134895   1.132   3.038   8.134  0.1386 -0.8395 -3.1179
 7754SOL    HW234896   1.025   3.142   8.105 -0.3476 -0.5507  1.3892
 7755SOL     OW34897   0.899   2.106   2.824 -0.4370 -0.0570 -0.4937
 7755SOL    HW134898   0.826   2.058   2.784 -2.5470  0.2217  2.9647
 7755SOL    HW234899   0.950   2.043   2.876  0.9649  1.5175  0.0329
 7756SOL     OW34900   3.040   0.367   5.795  0.2783 -0.3327  0.1595
 7756SOL    HW134901   3.094   0.389   5.871 -1.5272  0.2393  1.2763
 7756SOL    HW234902   3.104   0.318   5.744  1.0881  0.5589  0.3157
 7757SOL     OW34903   4.568   3.657   7.604 -0.1863  0.5344 -0.2977
 7757SOL    HW134904   4.556   3.577   7.553 -0.3547  0.3293  0.0677
 7757SOL    HW234905   4.494   3.658   7.665  0.7192 -0.9611  0.8143
 7758SOL     OW34906   2.628   3.510   0.770 -0.1660 -0.3040  0.6454
 7758SOL    HW134907   2.547   3.543   0.731  0.8379 -1.9863 -2.9048
 7758SOL    HW234908   2.673   3.594   0.760 -0.5244 -0.1654  0.1708
 7759SOL     OW34909   0.821   3.860  14.216 -0.2888  0.3479  0.3497
 7759SOL    HW134910   0.835   3.953  14.202  2.8293 -0.1749 -0.0527
 7759SOL    HW234911   0.804   3.828  14.127  1.2198  0.5273 -0.0120
 7760SOL     OW34912   0.525   3.360   9.684 -0.7795  0.3317  0.0351
 7760SOL    HW134913   0.528   3.324   9.773 -0.4526 -0.7804 -0.4329
 7760SOL    HW234914   0.561   3.288   9.632 -0.5193 -0.0930  0.8013
 7761SOL     OW34915   3.111   2.231   7.645  0.2121 -0.7815 -0.1080
 7761SOL    HW134916   3.072   2.309   7.685  1.8052  1.2283 -2.4127
 7761SOL    HW234917   3.194   2.233   7.694 -0.7101  0.7219  1.4048
 7762SOL     OW34918   2.171   4.069   3.344  0.3348 -0.0791 -0.2162
 7762SOL    HW134919   2.107   3.998   3.340  1.3259 -1.0967  1.9861
 7762SOL    HW234920   2.217   4.041   3.423 -0.7680 -1.8215 -0.1852
 7763SOL     OW34921   2.328   3.056   2.639 -0.1624  0.1212  0.4944
 7763SOL    HW134922   2.303   3.134   2.590 -1.6758 -0.1381  0.8429
 7763SOL    HW234923   2.263   3.068   2.708 -0.1363 -0.1288  0.5616
 7764SOL     OW34924   1.374   4.264   8.469  0.3484 -0.3528 -0.4423
 7764SOL    HW134925   1.313   4.212   8.416 -1.2261  0.3017  0.7069
 7764SOL    HW234926   1.337   4.352   8.461 -1.9324 -1.1658  1.0645
 7765SOL     OW34927   0.126   3.259  11.600 -0.3166 -0.4722  0.2004
 7765SOL    HW134928   0.065   3.212  11.657 -1.1315 -2.0505 -2.0004
 7765SOL    HW234929   0.187   3.189  11.575 -1.2724 -1.8101  1.6322
 7766SOL     OW34930   0.869   3.227   2.544  0.4549  0.1428  0.1750
 7766SOL    HW134931   0.946   3.228   2.600  1.8417 -1.7273 -1.6605
 7766SOL    HW234932   0.893   3.286   2.473  2.5222 -0.6795  0.1956
 7767SOL     OW34933   2.995   3.525   7.518  0.2627  0.2926  0.4367
 7767SOL    HW134934   3.069   3.469   7.541 -0.9994 -1.5347  0.0707
 7767SOL    HW234935   2.918   3.483   7.556  1.3012 -1.8847  0.1267
 7768SOL     OW34936   0.397   0.366   7.547  0.4116  0.7941 -0.5058
 7768SOL    HW134937   0.334   0.303   7.581  1.7581  0.5430  1.5564
 7768SOL    HW234938   0.335   0.420   7.497  1.0038  1.4831 -0.5092
 7769SOL     OW34939   2.547   1.696   6.762  0.1297  0.2024  0.6722
 7769SOL    HW134940   2.521   1.649   6.841  2.6817 -2.3507 -0.0160
 7769SOL    HW234941   2.642   1.684   6.763  0.3014  1.2837 -2.3363
 7770SOL     OW34942   1.173   2.809   6.509  0.1468 -0.1996 -0.0501
 7770SOL    HW134943   1.201   2.881   6.565  4.2464 -0.5791 -1.6300
 7770SOL    HW234944   1.220   2.730   6.535 -1.8706 -1.1992  0.5797
 7771SOL     OW34945   2.560   0.269   7.935 -0.3048 -0.0685  0.5354
 7771SOL    HW134946   2.502   0.194   7.942 -0.7611  0.0583 -1.8028
 7771SOL    HW234947   2.641   0.227   7.906 -0.1802  0.3511  0.2607
 7772SOL     OW34948   1.948   0.940   1.683  0.1465  0.1219  0.5454
 7772SOL    HW134949   1.867   0.889   1.688 -2.1422  3.6386 -1.1148
 7772SOL    HW234950   1.922   1.020   1.638  0.4272  1.1230  2.1710
 7773SOL     OW34951   4.253   3.376   8.705 -0.0737 -0.1195  0.9093
 7773SOL    HW134952   4.250   3.433   8.628 -0.0769  0.2242  1.1659
 7773SOL    HW234953   4.199   3.427   8.765 -0.7320 -0.4055  0.5631
 7774SOL     OW34954   2.780   2.053   5.091 -0.0720  0.3537  0.1823
 7774SOL    HW134955   2.684   2.047   5.086 -0.1469  0.0170  2.0574
 7774SOL    HW234956   2.807   1.962   5.090 -1.6916 -0.1330  0.1218
 7775SOL     OW34957   1.573   3.741   6.912  0.0396  0.3635  0.4730
 7775SOL    HW134958   1.531   3.793   6.844  0.3793 -0.1768 -0.1538
 7775SOL    HW234959   1.501   3.680   6.930  1.1085 -0.4187  2.2209
 7776SOL     OW34960   2.391   4.294   4.251 -0.8048 -0.0945 -0.2757
 7776SOL    HW134961   2.466   4.274   4.306 -0.8705 -0.4861 -0.3297
 7776SOL    HW234962   2.421   4.239   4.178 -1.6868 -1.2575  0.2361
 7777SOL     OW34963   3.041   1.429   8.220  0.6151 -0.2609 -0.2991
 7777SOL    HW134964   3.005   1.397   8.302 -2.9880  1.4874 -1.1868
 7777SOL    HW234965   2.998   1.376   8.152  0.7199 -1.5467  0.6505
 7778SOL     OW34966   3.811   0.919   5.911 -0.0701 -0.5704  0.3679
 7778SOL    HW134967   3.790   1.005   5.947 -0.4518  0.6947 -2.8390
 7778SOL    HW234968   3.807   0.869   5.992 -0.6537 -0.9528  0.1036
 7779SOL     OW34969   0.875   2.135   1.724  0.2891  0.1710 -0.2459
 7779SOL    HW134970   0.866   2.231   1.719 -1.0047  0.1648  1.9610
 7779SOL    HW234971   0.951   2.124   1.782  0.5042 -0.4147 -0.6446
 7780SOL     OW34972   2.469   2.530   5.631  0.5432  0.6440 -0.3370
 7780SOL    HW134973   2.478   2.447   5.586 -3.7054 -1.0062  1.8966
 7780SOL    HW234974   2.378   2.546   5.607 -0.1171 -1.5833  0.7697
 7781SOL     OW34975   0.733   1.231   2.797  0.7514 -0.1447 -0.0059
 7781SOL    HW134976   0.666   1.299   2.803 -0.0391 -1.1118  2.2506
 7781SOL    HW234977   0.813   1.279   2.814  0.4043  0.4151  0.0494
 7782SOL     OW34978   0.027   2.126   2.363 -0.0542  0.4273  0.5040
 7782SOL    HW134979   0.054   2.035   2.375  0.1456  0.3990 -0.1313
 7782SOL    HW234980   4.667   2.114   2.366  0.2333 -1.7593  0.5230
 7783SOL     OW34981   3.059   0.190   2.793  0.1821  0.1037  0.4391
 7783SOL    HW134982   3.047   0.100   2.823 -0.7884 -0.7049 -2.3771
 7783SOL    HW234983   2.979   0.204   2.741  0.4409 -2.1531 -0.5221
 7784SOL     OW34984   4.010   0.031   7.854 -0.0392 -0.7309 -0.4310
 7784SOL    HW134985   3.947   0.053   7.785 -0.6565  0.9594  0.6622
 7784SOL    HW234986   3.976   0.076   7.932 -0.6037 -0.7616 -0.6554
 7785SOL     OW34987   0.971   3.449  12.754 -0.2492  0.2781  0.0361
 7785SOL    HW134988   1.018   3.521  12.795  1.4644 -0.3272 -0.8477
 7785SOL    HW234989   0.897   3.440  12.814 -0.3850 -0.6052 -0.2550
 7786SOL     OW34990   3.841   2.094  11.567  0.2616  0.0197 -0.6588
 7786SOL    HW134991   3.899   2.062  11.638 -0.1063 -0.0683 -0.3987
 7786SOL    HW234992   3.859   2.187  11.579  0.2930 -0.0856  0.1171
 7787SOL     OW34993   4.404   3.717   3.885  0.2844  0.1301 -0.2900
 7787SOL    HW134994   4.400   3.729   3.980  0.4285  4.2923 -0.8258
 7787SOL    HW234995   4.312   3.725   3.859 -0.0419  0.4713  0.9632
 7788SOL     OW34996   2.865   0.452   5.548  0.3336  0.2198 -0.1247
 7788SOL    HW134997   2.782   0.478   5.588 -0.1653  0.0103 -1.0182
 7788SOL    HW234998   2.927   0.460   5.620 -0.6788  1.1069  0.6546
 7789SOL     OW34999   0.889   4.504   2.192  0.2380 -0.1853 -0.2492
 7789SOL    HW135000   0.805   4.475   2.155 -0.0267  0.3078 -0.0404
 7789SOL    HW235001   0.940   4.423   2.184 -0.9648 -1.0473  0.8425
 7790SOL     OW35002   2.955   3.253   8.972  0.5519  0.2806 -0.6801
 7790SOL    HW135003   3.033   3.198   8.981 -0.2671 -1.2228 -2.8722
 7790SOL    HW235004   2.962   3.282   8.881 -0.0437 -0.7793 -1.0676
 7791SOL     OW35005   3.709   2.762  16.825 -0.0424 -0.0440  0.0595
 7791SOL    HW135006   3.788   2.745  16.773  0.6670 -0.1402  1.1740
 7791SOL    HW235007   3.648   2.806  16.765  0.7114 -0.5185 -1.0619
 7792SOL     OW35008   3.999   3.538   9.273 -0.0637 -0.7520  0.0248
 7792SOL    HW135009   3.945   3.466   9.240 -0.3878 -0.8056  0.6533
 7792SOL    HW235010   4.064   3.488   9.323 -0.4600 -0.7329  0.5660
 7793SOL     OW35011   1.118   2.760  15.220  0.3709  0.2269  0.1165
 7793SOL    HW135012   1.090   2.815  15.293  2.2294  1.6884 -0.2676
 7793SOL    HW235013   1.074   2.814  15.154  0.5583  1.1480  0.7370
 7794SOL     OW35014   4.440   0.444   5.284  0.1866  0.8815 -0.2533
 7794SOL    HW135015   4.434   0.412   5.194  1.4235  2.6007 -0.9354
 7794SOL    HW235016   4.483   0.367   5.320 -0.0109  0.8014 -0.1874
 7795SOL     OW35017   0.597   0.965   4.792 -0.0333 -0.0515 -0.3112
 7795SOL    HW135018   0.622   0.993   4.704 -0.4094 -0.4015 -0.5293
 7795SOL    HW235019   0.504   0.944   4.790 -0.1887  0.5779  0.2179
 7796SOL     OW35020   2.179   0.595  12.441  0.0384  0.5775  0.0662
 7796SOL    HW135021   2.187   0.690  12.435 -0.6519  0.4742 -2.3623
 7796SOL    HW235022   2.095   0.592  12.485  0.0383 -2.9954 -0.2258
 7797SOL     OW35023   1.836   3.207  12.341 -0.5351  0.4471 -0.6721
 7797SOL    HW135024   1.826   3.112  12.332  1.0175  0.2676 -0.5074
 7797SOL    HW235025   1.779   3.244  12.274 -0.7570 -1.9044 -1.7855
 7798SOL     OW35026   2.941   3.464   6.984  0.0982 -0.5117 -0.2986
 7798SOL    HW135027   2.880   3.484   7.055  1.5648 -0.8318  1.0532
 7798SOL    HW235028   2.954   3.553   6.952  0.4519 -0.6430 -0.5143
 7799SOL     OW35029   2.781   1.701   3.741 -0.0456 -0.0864  0.3026
 7799SOL    HW135030   2.727   1.770   3.702  2.7548  2.7832  1.5267
 7799SOL    HW235031   2.723   1.678   3.814  1.0127 -0.0572  1.1552
 7800SOL     OW35032   4.065   3.365  15.205  0.2630 -0.9455  0.1939
 7800SOL    HW135033   4.145   3.346  15.157 -0.0993  2.6601 -1.7791
 7800SOL    HW235034   4.105   3.447  15.234  0.6375 -0.8200 -0.6777
 7801SOL     OW35035   3.036   2.879   7.715  0.4318  0.2234  1.4501
 7801SOL    HW135036   3.089   2.904   7.639 -0.7198 -1.0513  0.2412
 7801SOL    HW235037   3.098   2.840   7.776  1.2960  0.0904  0.4893
 7802SOL     OW35038   4.687   3.636   4.560 -0.0135 -0.1256 -0.6493
 7802SOL    HW135039   0.025   3.631   4.498  0.9679  1.8049  0.3606
 7802SOL    HW235040   0.003   3.606   4.635 -0.7532 -0.8240 -0.4359
 7803SOL     OW35041   4.606   4.430   2.787  0.3043 -0.5640 -0.2320
 7803SOL    HW135042   4.639   4.365   2.725 -1.4692 -0.9558 -0.7628
 7803SOL    HW235043   4.561   4.383   2.857  3.0432 -2.3104  0.3454
 7804SOL     OW35044   0.455   3.776   7.124 -0.1669  0.1548 -0.6652
 7804SOL    HW135045   0.486   3.817   7.205  0.7927  3.0398 -2.4978
 7804SOL    HW235046   0.531   3.787   7.066  1.6392 -0.9125  1.5347
 7805SOL     OW35047   4.102   1.852   3.069  0.0235 -0.1934 -0.3956
 7805SOL    HW135048   4.106   1.904   3.149 -0.4260  1.9151 -1.7220
 7805SOL    HW235049   4.190   1.844   3.034 -0.5142  0.8927 -2.0177
 7806SOL     OW35050   1.607   4.449   2.398  0.0690 -0.3891  0.2585
 7806SOL    HW135051   1.526   4.412   2.363 -1.2346  0.6406  2.1810
 7806SOL    HW235052   1.666   4.388   2.354 -1.2247 -0.6974 -1.0766
 7807SOL     OW35053   4.270   1.794   0.998 -0.3204  0.1257  0.1165
 7807SOL    HW135054   4.317   1.716   0.969 -0.8020  0.6027 -1.9904
 7807SOL    HW235055   4.177   1.778   0.982 -0.5948  0.2284  1.6240
 7808SOL     OW35056   2.901   1.842  10.438 -0.7466 -0.4667  0.1669
 7808SOL    HW135057   2.933   1.809  10.522 -1.8434 -2.2640 -0.1256
 7808SOL    HW235058   2.825   1.784  10.431 -1.2790  0.0916  1.3024
 7809SOL     OW35059   0.328   0.593  14.954 -0.2502 -0.2215  0.3427
 7809SOL    HW135060   0.295   0.648  14.884  1.5333  1.4617  0.8101
 7809SOL    HW235061   0.306   0.504  14.928 -1.7322  0.2650 -0.0582
 7810SOL     OW35062   2.190   4.460  14.913 -0.5902  0.4566 -0.8443
 7810SOL    HW135063   2.229   4.489  14.996  0.8959 -0.4655 -1.2082
 7810SOL    HW235064   2.178   4.366  14.928 -2.0503  0.8521  0.4390
 7811SOL     OW35065   2.956   1.412   2.578  0.8404  0.5916  0.2804
 7811SOL    HW135066   2.866   1.410   2.612  1.0167  1.8684  0.8322
 7811SOL    HW235067   2.996   1.347   2.634  1.9667  0.2339 -0.9332
 7812SOL     OW35068   3.751   1.636   5.750  0.2382  0.5499  1.0752
 7812SOL    HW135069   3.659   1.610   5.748 -0.7562  4.1531  1.4464
 7812SOL    HW235070   3.793   1.550   5.761 -1.3888 -0.5031 -0.9788
 7813SOL     OW35071   1.174   1.266   1.427  0.0980  0.0490 -0.4660
 7813SOL    HW135072   1.129   1.345   1.458  0.4950  0.1662 -0.1947
 7813SOL    HW235073   1.111   1.195   1.421  1.3924 -1.0356 -1.2850
 7814SOL     OW35074   4.307   3.553  11.119  0.2661  0.1519  0.1163
 7814SOL    HW135075   4.269   3.577  11.034  0.4472 -3.0506 -0.8893
 7814SOL    HW235076   4.373   3.620  11.132  1.2519 -0.3741 -2.1245
 7815SOL     OW35077   0.629   1.068   8.954  0.2812  0.1161 -0.4535
 7815SOL    HW135078   0.714   1.067   8.998 -1.2258 -0.3879  2.4445
 7815SOL    HW235079   0.585   1.144   8.993 -1.5750  0.0922 -2.4517
 7816SOL     OW35080   3.065   2.452   4.772  0.2765  0.4582  0.1745
 7816SOL    HW135081   3.100   2.430   4.858 -0.5776 -3.0563 -0.3733
 7816SOL    HW235082   3.003   2.520   4.796 -3.8711 -2.9929 -0.8101
 7817SOL     OW35083   0.814   4.712   5.284 -0.2426  0.0461  0.4130
 7817SOL    HW135084   0.840   0.006   5.196  0.0097 -1.0810  0.1142
 7817SOL    HW235085   0.731   0.023   5.299  0.1549  1.1995 -0.9993
 7818SOL     OW35086   1.219   1.554  13.595  0.0146  0.2301  0.9336
 7818SOL    HW135087   1.223   1.644  13.563  1.0114 -0.2317 -0.2670
 7818SOL    HW235088   1.174   1.505  13.526 -1.3556  1.9860  0.5935
 7819SOL     OW35089   3.943   4.026   8.319  0.2876 -0.4550 -0.3499
 7819SOL    HW135090   3.971   4.011   8.410 -0.1287  0.3277 -0.0868
 7819SOL    HW235091   4.025   4.072   8.299 -0.1480  0.4343 -0.1150
 7820SOL     OW35092   1.386   4.331   3.159 -0.1416  0.0261 -0.2582
 7820SOL    HW135093   1.305   4.382   3.163  1.1931  2.0077  0.9718
 7820SOL    HW235094   1.352   4.249   3.121  1.2403 -0.3269 -0.7263
 7821SOL     OW35095   0.707   3.923   7.342 -0.7241  0.0734 -0.0117
 7821SOL    HW135096   0.769   3.890   7.407  0.5501 -1.8426 -2.1676
 7821SOL    HW235097   0.630   3.876   7.373  0.5664 -1.3641  1.0378
 7822SOL     OW35098   2.461   1.226  14.418 -0.5301 -0.2198 -0.7639
 7822SOL    HW135099   2.531   1.291  14.406  0.7974 -1.3339  0.9581
 7822SOL    HW235100   2.461   1.209  14.512  0.3342  1.3207 -0.4730
 7823SOL     OW35101   1.320   0.303  11.012  0.0173 -0.5534  0.8793
 7823SOL    HW135102   1.271   0.343  10.940  0.9301  1.1615  1.2047
 7823SOL    HW235103   1.385   0.246  10.970 -0.6796  0.1028 -1.0834
 7824SOL     OW35104   1.141   2.377   3.165 -0.4274 -0.0121  0.1154
 7824SOL    HW135105   1.176   2.401   3.080 -0.5029  0.5313  0.2343
 7824SOL    HW235106   1.066   2.325   3.137 -0.3034  0.8070 -1.7496
 7825SOL     OW35107   3.551   4.221   4.722  0.5406  0.3272 -0.2753
 7825SOL    HW135108   3.495   4.145   4.704 -0.4683  0.8325  0.7643
 7825SOL    HW235109   3.534   4.238   4.815 -0.8264 -0.5116 -0.3607
 7826SOL     OW35110   1.017   3.891   2.195 -0.4056 -0.4730 -0.0769
 7826SOL    HW135111   1.106   3.873   2.225 -0.0610 -0.0357 -0.8335
 7826SOL    HW235112   0.979   3.879   2.282  0.7435 -0.9112  0.3599
 7827SOL     OW35113   0.535   4.377  16.012 -0.0103  0.2052  0.1226
 7827SOL    HW135114   0.533   4.420  15.927  0.6028  2.4953  1.2919
 7827SOL    HW235115   0.517   4.283  16.000 -1.3767  0.3764  0.8747
 7828SOL     OW35116   3.579   1.299   2.845  0.4429 -0.3757 -0.6293
 7828SOL    HW135117   3.605   1.351   2.769  1.0947 -0.9022 -0.7683
 7828SOL    HW235118   3.629   1.219   2.829  1.1017 -0.0048 -0.4313
 7829SOL     OW35119   1.757   1.128   9.074  0.4049 -0.0066  0.0125
 7829SOL    HW135120   1.751   1.168   8.988  3.1732  0.8625  0.2268
 7829SOL    HW235121   1.680   1.159   9.122 -1.7958 -1.4149 -2.6253
 7830SOL     OW35122   4.255   2.792   2.941  0.1106 -0.5811 -0.2488
 7830SOL    HW135123   4.329   2.732   2.933 -0.0601 -0.4920 -2.5243
 7830SOL    HW235124   4.288   2.881   2.927  0.4181 -0.4952  1.0214
 7831SOL     OW35125   0.499   3.718   8.600  0.9417  0.1133  0.2485
 7831SOL    HW135126   0.442   3.781   8.556  0.5399  1.2318  2.3987
 7831SOL    HW235127   0.587   3.747   8.578  1.2701 -2.0559 -1.2773
 7832SOL     OW35128   0.352   4.650   7.151  0.2525  0.1986 -0.0481
 7832SOL    HW135129   0.351   4.555   7.155 -1.0487  0.2700  1.2349
 7832SOL    HW235130   0.350   4.674   7.243 -0.3706 -0.3836  0.0902
 7833SOL     OW35131   0.484   0.777  15.136  0.1204  0.2395 -0.4806
 7833SOL    HW135132   0.449   0.849  15.083  1.9779 -0.4052 -2.5526
 7833SOL    HW235133   0.476   0.708  15.069 -1.4616 -0.1304  0.0851
 7834SOL     OW35134   0.643   2.109   9.555 -0.1043  0.0202 -0.1167
 7834SOL    HW135135   0.557   2.138   9.587 -1.4124 -2.8871 -0.9798
 7834SOL    HW235136   0.668   2.077   9.641 -1.5232 -2.3978 -0.5919
 7835SOL     OW35137   0.299   1.251   2.172  0.6237  0.0732 -0.3601
 7835SOL    HW135138   0.308   1.283   2.262  0.1439  1.4158 -0.7987
 7835SOL    HW235139   0.267   1.331   2.130 -0.5086 -0.5559 -0.7071
 7836SOL     OW35140   1.747   0.220   5.005 -0.4046  0.0190  0.3215
 7836SOL    HW135141   1.691   0.293   5.033  0.4450  1.1230 -0.8186
 7836SOL    HW235142   1.759   0.156   5.075  2.7821  1.0207  0.7128
 7837SOL     OW35143   0.080   4.237   9.521  0.4289  0.1439 -0.0814
 7837SOL    HW135144   0.004   4.181   9.534 -1.0656  2.4797  1.0566
 7837SOL    HW235145   0.127   4.187   9.588  0.2077 -0.3825 -0.3151
 7838SOL     OW35146   0.277   0.491   2.160  0.0558  0.4874  0.3771
 7838SOL    HW135147   0.188   0.526   2.167  0.4734  1.3354  1.5117
 7838SOL    HW235148   0.329   0.572   2.164  1.9130 -0.7360  1.2803
 7839SOL     OW35149   2.882   2.449   5.810  0.2194 -0.7822  0.1200
 7839SOL    HW135150   2.894   2.544   5.807 -0.9989 -0.6594 -0.8333
 7839SOL    HW235151   2.846   2.424   5.725  0.4938 -2.5314  0.5083
 7840SOL     OW35152   3.949   2.870   5.074 -0.1423 -0.4118  0.0730
 7840SOL    HW135153   3.892   2.828   5.009  2.0617 -1.5855 -1.0826
 7840SOL    HW235154   3.877   2.923   5.108 -0.2578 -0.0738 -0.6996
 7841SOL     OW35155   4.165   1.934   7.252 -0.1127 -0.2824  0.1214
 7841SOL    HW135156   4.251   1.896   7.270  0.8262  1.2703 -1.0425
 7841SOL    HW235157   4.122   1.906   7.333 -1.3054  2.0444  0.3093
 7842SOL     OW35158   3.494   0.708   2.655  0.4736  0.5532  0.0295
 7842SOL    HW135159   3.448   0.771   2.711  1.2988 -0.3314  1.7111
 7842SOL    HW235160   3.504   0.633   2.713  1.4108 -0.6821 -1.7287
 7843SOL     OW35161   0.768   1.746   2.851  0.2027 -0.3341 -0.3060
 7843SOL    HW135162   0.763   1.838   2.824 -0.9889 -0.6120 -1.0030
 7843SOL    HW235163   0.803   1.699   2.775 -1.1926 -0.0779 -1.0874
 7844SOL     OW35164   0.677   2.298   8.987 -0.5514  0.3079  0.2503
 7844SOL    HW135165   0.617   2.237   9.031  0.7576 -0.4494  0.9842
 7844SOL    HW235166   0.752   2.294   9.046  0.1243  1.6887 -0.5138
 7845SOL     OW35167   2.079   1.295  13.494 -0.2739 -0.3720  0.0819
 7845SOL    HW135168   2.004   1.288  13.436 -2.2739 -2.0496  2.8622
 7845SOL    HW235169   2.039   1.266  13.576 -2.1451  0.7102 -0.4691
 7846SOL     OW35170   0.880   3.766   1.467  0.2443  0.8603  0.0147
 7846SOL    HW135171   0.803   3.772   1.523 -1.0535  1.0676 -1.7890
 7846SOL    HW235172   0.927   3.843   1.499  2.9178 -0.7557  0.0372
 7847SOL     OW35173   3.534   1.802   1.943 -0.1353  0.1121 -0.0505
 7847SOL    HW135174   3.451   1.809   1.897 -0.7788 -1.5476  0.8851
 7847SOL    HW235175   3.587   1.860   1.887 -0.2767 -0.0772 -0.3824
 7848SOL     OW35176   2.139   0.305   0.346  1.0471  0.1436 -0.2755
 7848SOL    HW135177   2.131   0.400   0.352 -0.5008  0.0236 -0.6265
 7848SOL    HW235178   2.057   0.271   0.380  1.3549 -0.3777 -0.0426
 7849SOL     OW35179   1.576   2.983  10.573  0.0348  0.7199 -0.7160
 7849SOL    HW135180   1.541   3.043  10.639  0.1729  0.0656 -0.0458
 7849SOL    HW235181   1.502   2.972  10.513  0.3109  2.5050 -1.3926
 7850SOL     OW35182   1.778   2.554  12.433  1.0263  0.3190 -0.2513
 7850SOL    HW135183   1.782   2.459  12.431  0.0877  0.2764 -0.5471
 7850SOL    HW235184   1.788   2.581  12.341 -0.7608 -0.4857 -0.6794
 7851SOL     OW35185   3.419   4.506   1.507 -0.6051 -0.0827 -0.1813
 7851SOL    HW135186   3.356   4.435   1.501 -2.1998  1.3408 -0.2681
 7851SOL    HW235187   3.429   4.507   1.602  0.8220  0.5260 -0.3423
 7852SOL     OW35188   2.315   0.933   1.710  0.1384  0.5359  0.1659
 7852SOL    HW135189   2.267   0.881   1.645 -0.0038 -0.2673  0.9015
 7852SOL    HW235190   2.387   0.979   1.668 -1.1201  0.0497 -2.5220
 7853SOL     OW35191   3.231   0.887   1.672  0.0374  0.5954 -0.6544
 7853SOL    HW135192   3.309   0.914   1.624  1.7003  1.1212  2.3359
 7853SOL    HW235193   3.270   0.832   1.739 -1.3760  0.0406 -0.2853
 7854SOL     OW35194   0.297   4.570   8.318  0.3675 -0.5822 -0.0836
 7854SOL    HW135195   0.249   4.490   8.299 -0.1262  0.1326 -1.8461
 7854SOL    HW235196   0.254   4.630   8.256 -1.7215 -0.6908  1.2492
 7855SOL     OW35197   3.040   3.846   9.633  0.4301 -0.2511 -0.0461
 7855SOL    HW135198   2.985   3.899   9.576  1.0595 -0.6736 -1.0470
 7855SOL    HW235199   3.072   3.789   9.563  1.0324  0.0589 -0.0178
 7856SOL     OW35200   2.471   3.654   4.402  0.1454 -0.0539 -0.3487
 7856SOL    HW135201   2.409   3.591   4.365  1.7086 -2.9946  2.1116
 7856SOL    HW235202   2.418   3.701   4.466  1.6671 -1.1075  1.6922
 7857SOL     OW35203   2.866   1.093   7.772 -0.3845  0.0422 -0.2233
 7857SOL    HW135204   2.867   1.073   7.678  1.5444  0.7874 -0.3655
 7857SOL    HW235205   2.931   1.031   7.803 -0.4167  0.6523  1.0556
 7858SOL     OW35206   4.409   3.607   6.833  0.1793  0.0033 -0.2191
 7858SOL    HW135207   4.472   3.581   6.766  1.6913 -1.0359  1.6052
 7858SOL    HW235208   4.431   3.700   6.836 -1.9400  0.4650  0.5990
 7859SOL     OW35209   1.719   3.997   5.783  0.0227  0.3293  0.2322
 7859SOL    HW135210   1.700   3.919   5.834  0.5213  1.0321  1.5123
 7859SOL    HW235211   1.630   4.027   5.766  0.1951  1.0764  0.6307
 7860SOL     OW35212   0.654   2.470   8.382  0.0584 -0.2397  0.2683
 7860SOL    HW135213   0.674   2.510   8.298  1.0724 -1.4226 -0.0513
 7860SOL    HW235214   0.732   2.415   8.392 -0.2100 -0.2614  2.2146
 7861SOL     OW35215   1.597   0.896   1.366 -0.5120 -0.8058  0.3639
 7861SOL    HW135216   1.668   0.838   1.392 -0.1494 -0.2364  0.6366
 7861SOL    HW235217   1.558   0.916   1.451 -0.5880 -2.2187  0.6655
 7862SOL     OW35218   3.014   2.527   8.775 -0.0906  0.1646 -0.1608
 7862SOL    HW135219   3.003   2.446   8.725 -0.0033  0.4785 -0.6873
 7862SOL    HW235220   3.100   2.550   8.739  1.3158 -1.6323  2.0454
 7863SOL     OW35221   1.462   4.110   5.696 -0.0069 -0.2474  0.2474
 7863SOL    HW135222   1.405   4.053   5.748 -2.1068  1.1905 -0.4361
 7863SOL    HW235223   1.401   4.184   5.691  2.0841  1.5163  1.2278
 7864SOL     OW35224   2.853   4.362   2.486  0.4468  0.0891  0.0262
 7864SOL    HW135225   2.933   4.410   2.508  1.1044 -0.1613 -1.7726
 7864SOL    HW235226   2.788   4.415   2.532 -0.4531 -0.3267 -0.7507
 7865SOL     OW35227   0.898   3.681   3.924  0.1158 -1.3591 -0.2275
 7865SOL    HW135228   0.910   3.644   3.837  0.7295  0.5903 -0.9874
 7865SOL    HW235229   0.929   3.618   3.989 -0.6894  0.6710  2.1725
 7866SOL     OW35230   1.787   0.884   2.551  0.2654  0.2181  0.1486
 7866SOL    HW135231   1.863   0.886   2.609  0.1040 -0.6367  0.3916
 7866SOL    HW235232   1.823   0.934   2.478 -2.3903  0.3597 -1.0749
 7867SOL     OW35233   0.991   3.458  13.584 -0.4937 -0.1383 -0.5916
 7867SOL    HW135234   1.065   3.433  13.529  0.1219  0.5765 -0.0756
 7867SOL    HW235235   0.958   3.373  13.614 -0.8752  0.3627  0.3853
 7868SOL     OW35236   0.992   1.387   2.733 -0.2160  0.9325 -0.4733
 7868SOL    HW135237   0.976   1.304   2.688 -0.2243 -0.3661  1.8862
 7868SOL    HW235238   1.005   1.356   2.823  1.3057 -1.4840 -1.5149
 7869SOL     OW35239   1.872   2.896  11.903  0.3916  0.4331  0.4275
 7869SOL    HW135240   1.777   2.903  11.915  0.4496  2.7329 -0.4251
 7869SOL    HW235241   1.892   2.969  11.961 -0.1278  0.8285  0.1130
 7870SOL     OW35242   2.655   3.706   4.600 -0.2644  0.2060  0.4722
 7870SOL    HW135243   2.578   3.755   4.631 -0.0746  0.6594  0.2340
 7870SOL    HW235244   2.632   3.690   4.508  0.7294 -0.1409  0.2957
 7871SOL     OW35245   3.242   2.222   4.074  0.1411 -0.7615 -0.0448
 7871SOL    HW135246   3.297   2.235   3.997 -1.0882 -2.0320 -1.1391
 7871SOL    HW235247   3.221   2.130   4.059 -1.5391 -0.0804 -1.9678
 7872SOL     OW35248   1.109   4.441   1.042  0.3459  0.0130  0.0005
 7872SOL    HW135249   1.108   4.360   0.990  1.1169 -0.0404  0.0592
 7872SOL    HW235250   1.173   4.429   1.113  0.1433  1.7287  0.4801
 7873SOL     OW35251   4.635   1.488  14.386  0.0171  0.2881 -0.0071
 7873SOL    HW135252   4.634   1.412  14.444 -2.2377  0.7414  0.5485
 7873SOL    HW235253   4.593   1.558  14.435  1.5398  1.3211 -0.1847
 7874SOL     OW35254   1.611   1.127   7.987 -0.2769 -0.5722  0.2822
 7874SOL    HW135255   1.686   1.105   7.932 -0.0922  2.9828 -0.8894
 7874SOL    HW235256   1.573   1.039   7.983  0.3893 -0.8015 -0.9870
 7875SOL     OW35257   2.602   1.568   2.178 -0.7597 -0.1979 -0.2018
 7875SOL    HW135258   2.583   1.629   2.107  0.7069 -0.6629 -1.0002
 7875SOL    HW235259   2.522   1.526   2.207 -1.0422  0.4348 -0.0773
 7876SOL     OW35260   3.204   1.098   2.457  0.4288 -0.1742 -0.0880
 7876SOL    HW135261   3.206   1.004   2.474 -1.4453 -0.2525 -0.3089
 7876SOL    HW235262   3.236   1.135   2.539  1.6075  1.2904 -1.1985
 7877SOL     OW35263   4.548   0.363  15.551 -0.1372  0.6419 -0.5639
 7877SOL    HW135264   4.632   0.358  15.505  0.2562  1.9600  0.0213
 7877SOL    HW235265   4.521   0.439  15.500  0.9353 -0.0336 -2.1510
 7878SOL     OW35266   0.024   1.738   5.263 -0.1650  0.0081  0.3598
 7878SOL    HW135267   0.039   1.823   5.223  0.1225 -0.6724 -0.9834
 7878SOL    HW235268   4.718   1.767   5.344 -0.4831  1.7974 -0.4468
 7879SOL     OW35269   2.931   3.139   7.641  0.6043 -0.1431  0.5722
 7879SOL    HW135270   2.925   3.058   7.590  0.7647  0.0266  0.2862
 7879SOL    HW235271   2.942   3.100   7.728  1.4587  0.2783  0.6459
 7880SOL     OW35272   0.671   3.955   4.432  0.5207  0.0945 -0.2324
 7880SOL    HW135273   0.625   3.966   4.516 -1.0666 -3.9352 -0.5533
 7880SOL    HW235274   0.595   3.919   4.385  0.1020 -1.1196  1.3435
 7881SOL     OW35275   2.936   1.993   2.857 -0.4282 -0.4498  0.2251
 7881SOL    HW135276   2.970   2.015   2.944  0.6934 -2.5796  0.3308
 7881SOL    HW235277   3.002   1.931   2.825  0.9210  1.7935 -1.2686
 7882SOL     OW35278   4.330   3.471   0.746 -0.6912 -0.2346  0.4534
 7882SOL    HW135279   4.392   3.533   0.707 -0.1632 -0.6925  0.5687
 7882SOL    HW235280   4.293   3.534   0.807  0.3673  0.6688  0.1670
 7883SOL     OW35281   0.854   1.465   1.353  0.3510  0.0015  0.4225
 7883SOL    HW135282   0.945   1.492   1.365  0.4726  0.7341 -2.0906
 7883SOL    HW235283   0.822   1.545   1.310 -0.1788 -0.7159 -0.5080
 7884SOL     OW35284   0.368   1.635   9.725 -0.2286  0.2709  0.1673
 7884SOL    HW135285   0.359   1.597   9.638  0.9678  0.0115  0.1536
 7884SOL    HW235286   0.448   1.595   9.759  1.4249  1.1002 -2.7558
 7885SOL     OW35287   0.379   4.693   3.498  0.0282  0.9757 -0.4304
 7885SOL    HW135288   0.411   4.672   3.586 -0.4506 -0.6439 -0.6397
 7885SOL    HW235289   0.346   0.047   3.501  0.7926  1.2211  0.8037
 7886SOL     OW35290   2.283   3.906   9.622  0.2080 -0.2871 -0.3458
 7886SOL    HW135291   2.374   3.905   9.593  0.5419 -1.0034  0.7303
 7886SOL    HW235292   2.286   3.946   9.709 -0.3073  0.6729 -0.7676
 7887SOL     OW35293   3.258   4.083   8.083  0.6580  0.0478  0.4980
 7887SOL    HW135294   3.302   4.057   8.164 -0.5687  0.1061  1.1714
 7887SOL    HW235295   3.327   4.137   8.043 -0.2264 -0.0185 -1.1344
 7888SOL     OW35296   0.988   0.418   7.802 -0.1526 -0.2229 -0.4123
 7888SOL    HW135297   1.014   0.335   7.761  0.5310 -0.3574  0.2891
 7888SOL    HW235298   0.967   0.474   7.727  1.5677  0.6964 -0.2248
 7889SOL     OW35299   0.518   3.925   5.117  0.1823 -0.2675  0.5616
 7889SOL    HW135300   0.600   3.975   5.117  0.0370 -0.0166  1.7662
 7889SOL    HW235301   0.465   3.986   5.168  1.1565  0.6652  0.4551
 7890SOL     OW35302   3.591   1.848   7.564 -0.2627 -0.4120 -0.3462
 7890SOL    HW135303   3.563   1.930   7.523  0.5095  0.5241  1.0239
 7890SOL    HW235304   3.507   1.802   7.567 -1.4866  1.9099  0.6380
 7891SOL     OW35305   4.465   0.651   9.259  0.5663  0.1485  0.4940
 7891SOL    HW135306   4.390   0.709   9.247  0.3675 -0.1843  0.1396
 7891SOL    HW235307   4.534   0.716   9.243  1.5446 -0.7652  0.9298
 7892SOL     OW35308   0.007   1.182   4.613  0.3682  0.0433 -0.0001
 7892SOL    HW135309   4.686   1.242   4.563  2.0316  0.7866 -0.9842
 7892SOL    HW235310   4.687   1.161   4.688 -0.2002  1.6633  0.0501
 7893SOL     OW35311   1.338   3.730   7.202  0.0308 -0.3892  0.0256
 7893SOL    HW135312   1.342   3.700   7.111  0.4402 -2.3271  0.6920
 7893SOL    HW235313   1.390   3.811   7.199  0.2709 -0.5713 -0.6944
 7894SOL     OW35314   1.531   1.165   1.016 -0.0122 -0.0695  0.2251
 7894SOL    HW135315   1.514   1.259   1.024  1.1002  0.2305 -0.9223
 7894SOL    HW235316   1.441   1.135   1.030 -0.8814  2.3484 -0.1239
 7895SOL     OW35317   1.552   1.504   0.704 -0.3467 -0.2426  0.2952
 7895SOL    HW135318   1.644   1.506   0.731 -0.5193  0.3971  0.8242
 7895SOL    HW235319   1.554   1.433   0.640  1.0897  0.0259  0.0279
 7896SOL     OW35320   3.486   3.383   4.717  0.5409  0.1773 -0.0471
 7896SOL    HW135321   3.494   3.342   4.630 -1.7352  0.7478 -0.5223
 7896SOL    HW235322   3.395   3.412   4.705  0.4370  0.0243  0.3728
 7897SOL     OW35323   4.583   4.464   8.605 -0.3641 -0.2779 -0.3452
 7897SOL    HW135324   4.516   4.451   8.672  0.9073 -1.5482  0.7149
 7897SOL    HW235325   4.634   4.385   8.625  3.7220  1.9459 -2.0029
 7898SOL     OW35326   0.358   3.229   4.919 -0.2663 -0.6094  0.1525
 7898SOL    HW135327   0.339   3.152   4.865 -0.4741  0.8486 -1.8637
 7898SOL    HW235328   0.271   3.251   4.951 -0.0781 -3.5434  2.6569
 7899SOL     OW35329   3.590   4.146   9.712 -0.5777 -0.1981  0.0311
 7899SOL    HW135330   3.569   4.225   9.661 -0.3482  0.6790  1.3073
 7899SOL    HW235331   3.676   4.131   9.672 -0.2227  3.5143 -0.6544
 7900SOL     OW35332   2.825   2.796   7.882 -0.6435 -0.2997  0.0904
 7900SOL    HW135333   2.736   2.776   7.854 -1.4419  1.1056  1.6507
 7900SOL    HW235334   2.868   2.810   7.797 -0.8465 -0.7280 -0.0808
 7901SOL     OW35335   3.216   1.220  16.917  0.2141 -0.0064 -0.1153
 7901SOL    HW135336   3.252   1.167  16.845 -0.9441 -0.2781 -0.4886
 7901SOL    HW235337   3.258   1.186  16.996  2.3690 -2.0377 -2.1038
 7902SOL     OW35338   3.546   0.557   8.458  0.1299  0.1722 -0.4380
 7902SOL    HW135339   3.562   0.501   8.382 -0.5886 -1.7470  0.8337
 7902SOL    HW235340   3.598   0.503   8.518 -1.7891  1.4295  2.3565
 7903SOL     OW35341   0.101   2.920   3.864 -0.3997  0.0443  0.0262
 7903SOL    HW135342   0.055   2.946   3.785 -1.8823 -1.4980  0.3727
 7903SOL    HW235343   0.132   2.833   3.838 -0.1771 -0.0518  0.6038
 7904SOL     OW35344   0.765   2.043   4.023 -0.0417  0.3016 -0.1223
 7904SOL    HW135345   0.840   2.062   4.080  0.0531 -1.9290  0.5219
 7904SOL    HW235346   0.788   1.950   4.017 -0.1707  0.2984 -0.5573
 7905SOL     OW35347   3.501   3.877   5.774 -0.2778  0.1152  0.0183
 7905SOL    HW135348   3.499   3.786   5.802 -0.8620 -0.0983 -0.7378
 7905SOL    HW235349   3.492   3.867   5.679 -3.0827  2.2381  0.0606
 7906SOL     OW35350   0.236   2.355   1.998 -0.2370  0.8929  0.4286
 7906SOL    HW135351   0.225   2.346   1.903 -0.2904 -0.6527  0.5840
 7906SOL    HW235352   0.229   2.450   2.007  0.1307  0.8383  1.2825
 7907SOL     OW35353   1.814   4.475  15.359 -0.0315  0.3605 -0.5652
 7907SOL    HW135354   1.909   4.476  15.368 -0.1303  0.5159  0.5341
 7907SOL    HW235355   1.790   4.456  15.450 -2.9606 -0.3472 -1.4869
 7908SOL     OW35356   2.549   2.671   7.220  0.2594  0.2498  0.2732
 7908SOL    HW135357   2.531   2.591   7.270 -2.3151  0.3315 -0.5019
 7908SOL    HW235358   2.500   2.662   7.138  1.7827  2.3735 -0.8789
 7909SOL     OW35359   1.112   1.651   7.130 -0.3143  0.5939 -0.4924
 7909SOL    HW135360   1.174   1.588   7.091  1.9545  2.6206 -0.1731
 7909SOL    HW235361   1.083   1.696   7.051  2.6427  0.6487 -1.5679
 7910SOL     OW35362   2.819   0.717   0.816  0.1685 -0.2260  0.2344
 7910SOL    HW135363   2.874   0.779   0.769 -1.8354  1.8504  0.6268
 7910SOL    HW235364   2.849   0.750   0.901  0.7844 -0.7996  0.2314
 7911SOL     OW35365   1.819   0.364  12.734 -0.2492  0.3169  0.5641
 7911SOL    HW135366   1.810   0.301  12.806 -0.3026  0.5264  0.7432
 7911SOL    HW235367   1.905   0.400  12.757  0.4794 -0.7399 -0.4938
 7912SOL     OW35368   2.478   0.952   4.369  0.1386  0.4958  0.4458
 7912SOL    HW135369   2.521   0.886   4.423  0.2046  0.9014  0.8893
 7912SOL    HW235370   2.498   1.032   4.418 -2.9648  1.1939  0.6250
 7913SOL     OW35371   0.552   2.568   5.799 -0.3372  0.2811 -0.4461
 7913SOL    HW135372   0.545   2.588   5.706 -1.9884 -3.2335 -1.0623
 7913SOL    HW235373   0.509   2.483   5.807 -0.8217  0.6287  0.7479
 7914SOL     OW35374   3.356   2.826  14.829 -0.0776 -0.0754  0.0135
 7914SOL    HW135375   3.388   2.917  14.827  0.7034 -0.2621  2.8992
 7914SOL    HW235376   3.295   2.823  14.756  1.7442  0.2211 -1.5093
 7915SOL     OW35377   0.116   2.734  13.948  0.3642 -0.2269 -0.3085
 7915SOL    HW135378   0.170   2.781  13.884 -0.5102 -0.8001 -1.4682
 7915SOL    HW235379   0.113   2.793  14.023 -4.3926  0.0129 -0.6726
 7916SOL     OW35380   2.802   2.694  14.087  0.4093 -0.3792  0.0895
 7916SOL    HW135381   2.856   2.660  14.016  0.3076 -0.2052 -0.0700
 7916SOL    HW235382   2.716   2.677  14.049  0.8020  0.7385 -1.2829
 7917SOL     OW35383   1.114   0.474   5.658 -0.2692  0.3950 -0.1420
 7917SOL    HW135384   1.126   0.553   5.604 -0.3787 -1.0044 -2.2004
 7917SOL    HW235385   1.113   0.400   5.597  1.2556  0.1183  0.1808
 7918SOL     OW35386   3.827   2.143   3.461  0.1367 -0.1135  0.2315
 7918SOL    HW135387   3.740   2.184   3.457 -0.4611 -1.6978 -2.7196
 7918SOL    HW235388   3.884   2.215   3.433 -2.2616  2.0750  0.9442
 7919SOL     OW35389   0.287   0.805   7.642  0.3117 -0.5138  0.0842
 7919SOL    HW135390   0.259   0.889   7.606  2.0158  0.5394  1.2395
 7919SOL    HW235391   0.284   0.818   7.737  0.4574 -0.3521  0.0673
 7920SOL     OW35392   2.333   0.507   8.589  0.3039  0.1807  0.8344
 7920SOL    HW135393   2.294   0.594   8.601 -3.9890 -1.1438 -3.7131
 7920SOL    HW235394   2.352   0.481   8.679  2.7465  0.1603  0.3077
 7921SOL     OW35395   0.454   2.812   3.438  0.1969 -0.6908 -0.2963
 7921SOL    HW135396   0.533   2.760   3.454  3.3117  4.3988  0.5198
 7921SOL    HW235397   0.459   2.807   3.342  2.8055  1.2726 -0.2592
 7922SOL     OW35398   2.719   4.464   0.314  0.6629  0.5750  0.0585
 7922SOL    HW135399   2.781   4.509   0.256  1.9825  1.1253  1.8979
 7922SOL    HW235400   2.745   4.501   0.398  1.6289  0.5307 -0.2263
 7923SOL     OW35401   3.738   0.118   3.245  0.2104  0.4438 -0.4116
 7923SOL    HW135402   3.761   0.042   3.298  0.5299  0.8010 -0.0359
 7923SOL    HW235403   3.725   0.078   3.159  1.6303  0.1474 -0.4874
 7924SOL     OW35404   2.960   2.735   8.132  0.0740  0.0350 -0.4691
 7924SOL    HW135405   2.923   2.647   8.125 -1.3572  0.4874  1.5156
 7924SOL    HW235406   2.940   2.775   8.047  3.3895  0.5850 -0.9712
 7925SOL     OW35407   2.997   4.565   2.094  0.4570 -0.1227 -0.2764
 7925SOL    HW135408   2.943   4.643   2.080  0.3377 -0.3603 -1.1325
 7925SOL    HW235409   3.016   4.575   2.188 -2.2187  0.2886  0.2028
 7926SOL     OW35410   3.331   4.712   7.335 -0.0821 -0.1295 -0.0222
 7926SOL    HW135411   3.268   0.045   7.359  0.2385 -0.1480  0.8582
 7926SOL    HW235412   3.365   0.004   7.250 -0.8607 -0.7712 -0.5405
 7927SOL     OW35413   2.239   2.499   8.132 -0.4639  0.0451  0.4416
 7927SOL    HW135414   2.333   2.517   8.127 -0.2609 -1.2366 -0.4207
 7927SOL    HW235415   2.245   2.417   8.181 -0.2733 -0.3489 -0.2443
 7928SOL     OW35416   0.356   1.042   2.572 -0.2374 -0.3142  0.2412
 7928SOL    HW135417   0.451   1.054   2.569 -0.4405  0.6132 -2.2049
 7928SOL    HW235418   0.336   1.115   2.630 -1.1590  0.7264 -1.3948
 7929SOL     OW35419   1.752   2.251   2.541 -0.3003 -0.1354  0.2546
 7929SOL    HW135420   1.721   2.231   2.629 -0.1044  1.0240  0.5889
 7929SOL    HW235421   1.846   2.238   2.554 -0.2416 -1.2095 -1.2204
 7930SOL     OW35422   2.765   3.679   9.561 -0.8539 -0.2796  0.3333
 7930SOL    HW135423   2.788   3.670   9.654  1.0877  0.1191 -0.1001
 7930SOL    HW235424   2.765   3.587   9.535 -2.5216 -1.0864  3.1354
 7931SOL     OW35425   0.023   0.589  11.920  0.2965 -0.7392  0.0980
 7931SOL    HW135426   4.698   0.532  11.871 -0.4984  0.2562 -0.0708
 7931SOL    HW235427   0.110   0.575  11.882 -0.5621  1.2093 -2.6075
 7932SOL     OW35428   4.232   0.684   4.530 -0.9785  0.3235  0.2175
 7932SOL    HW135429   4.312   0.678   4.582  1.2828 -2.8625 -3.6230
 7932SOL    HW235430   4.163   0.664   4.594 -0.0677 -0.3499  0.9796
 7933SOL     OW35431   1.558   4.070   3.873  0.3102 -0.8398 -0.2482
 7933SOL    HW135432   1.566   4.088   3.966  1.2549 -1.1160 -0.2777
 7933SOL    HW235433   1.474   4.025   3.881 -0.6054  1.0153  0.6080
 7934SOL     OW35434   1.958   0.847   5.646  0.5296  0.2910 -0.3736
 7934SOL    HW135435   1.900   0.874   5.717 -1.8790 -0.3440 -2.1246
 7934SOL    HW235436   1.956   0.752   5.658  0.8854  0.3161 -0.0921
 7935SOL     OW35437   0.213   1.279   8.639 -0.1827 -0.4836  0.1451
 7935SOL    HW135438   0.135   1.303   8.689  1.1503  3.0907  0.5117
 7935SOL    HW235439   0.251   1.213   8.698  0.5815 -1.5959 -1.5881
 7936SOL     OW35440   2.274   0.866  11.779 -0.2430 -0.0917 -0.4857
 7936SOL    HW135441   2.352   0.904  11.819 -0.0910 -2.0699  1.0773
 7936SOL    HW235442   2.290   0.772  11.771  0.2498 -0.2256  2.2484
 7937SOL     OW35443   2.214   3.987   7.667 -0.2385  0.6856 -0.1643
 7937SOL    HW135444   2.227   3.971   7.574 -2.1830  1.7389 -0.6186
 7937SOL    HW235445   2.305   3.984   7.700 -0.2649  0.5358 -0.1049
 7938SOL     OW35446   1.490   0.876   7.291  0.5228  0.7418  0.0140
 7938SOL    HW135447   1.482   0.824   7.211 -1.4433  0.8080  0.1638
 7938SOL    HW235448   1.562   0.935   7.271 -1.0104  2.9892  1.0869
 7939SOL     OW35449   3.628   3.457   6.066  0.3029 -0.2919 -0.0951
 7939SOL    HW135450   3.582   3.424   6.143  0.5798 -4.6833 -1.8315
 7939SOL    HW235451   3.633   3.372   6.023  1.4398  0.0593 -0.6702
 7940SOL     OW35452   4.008   1.914   4.962  0.3220  0.4210  0.0070
 7940SOL    HW135453   3.928   1.878   4.924  0.9740 -1.7148  0.6316
 7940SOL    HW235454   4.077   1.885   4.902  0.8458 -0.6628  1.1460
 7941SOL     OW35455   1.136   2.969  16.111  0.6060  0.3238 -0.6156
 7941SOL    HW135456   1.187   2.894  16.141 -1.6276 -1.2917 -0.8582
 7941SOL    HW235457   1.056   2.928  16.078  0.7104 -0.6716  0.3584
 7942SOL     OW35458   2.890   0.647   3.487  0.0955  0.1309  0.6974
 7942SOL    HW135459   2.830   0.624   3.416  2.0937 -1.2450 -0.5289
 7942SOL    HW235460   2.840   0.716   3.531 -0.5742 -0.6275  1.1312
 7943SOL     OW35461   2.666   1.341  11.991  0.1444  0.2216  0.3058
 7943SOL    HW135462   2.727   1.303  11.928 -0.9405  0.8273 -1.1097
 7943SOL    HW235463   2.701   1.311  12.074  0.8967 -0.0463 -0.1092
 7944SOL     OW35464   0.277   0.728   3.727 -0.4128  0.3962  0.2052
 7944SOL    HW135465   0.241   0.813   3.703 -0.6859  0.3369  0.4111
 7944SOL    HW235466   0.241   0.730   3.815  0.7308  0.2547  0.6744
 7945SOL     OW35467   3.632   0.389   2.150 -0.0501 -0.1766  0.0050
 7945SOL    HW135468   3.645   0.349   2.236  0.7871  0.3254  0.1077
 7945SOL    HW235469   3.608   0.312   2.098 -2.7423  1.1058 -0.6698
 7946SOL     OW35470   3.027   1.063  11.003  0.4117 -0.3195  0.5682
 7946SOL    HW135471   2.936   1.064  11.034  0.6908  1.5102  1.3192
 7946SOL    HW235472   3.079   1.012  11.065  0.2133 -1.2292 -0.0089
 7947SOL     OW35473   2.629   4.323   4.393 -0.2238 -0.2485  0.1343
 7947SOL    HW135474   2.687   4.319   4.317  2.4565 -0.2881  2.2010
 7947SOL    HW235475   2.638   4.411   4.431  1.1516 -0.1635 -0.4064
 7948SOL     OW35476   4.086   4.693  16.577 -0.5772  0.2155  0.0265
 7948SOL    HW135477   4.142   4.634  16.527 -0.1457  0.8231 -0.2030
 7948SOL    HW235478   4.053   4.627  16.639 -1.7126  1.0551  0.3136
 7949SOL     OW35479   2.017   3.802   9.618  0.0386 -0.3330  0.2842
 7949SOL    HW135480   2.103   3.838   9.639 -0.2722  0.0062  1.0031
 7949SOL    HW235481   2.009   3.718   9.663  0.3128  0.0859  1.1218
 7950SOL     OW35482   0.582   1.429  12.987  0.3271  0.2920  1.1802
 7950SOL    HW135483   0.676   1.414  12.997  0.2570 -1.1040 -0.2185
 7950SOL    HW235484   0.569   1.347  12.940 -0.9586  0.4381  1.2648
 7951SOL     OW35485   4.275   0.448   8.026  0.1226 -0.6097  0.3562
 7951SOL    HW135486   4.309   0.473   8.112 -0.8960  2.9064 -0.2370
 7951SOL    HW235487   4.340   0.508   7.989 -1.2794 -0.3820 -1.6968
 7952SOL     OW35488   4.358   1.401   6.634  0.0773  0.1187  0.1615
 7952SOL    HW135489   4.443   1.417   6.675  1.2375 -0.2644 -2.0740
 7952SOL    HW235490   4.309   1.417   6.714  0.4586  1.3208  0.1520
 7953SOL     OW35491   2.168   0.210   6.810 -0.0507 -0.2143  0.3909
 7953SOL    HW135492   2.108   0.214   6.885  1.8569 -0.4429  1.9301
 7953SOL    HW235493   2.115   0.196   6.731 -0.0817  1.8085  0.0557
 7954SOL     OW35494   1.892   4.396  17.007 -0.1003  0.4062 -0.1150
 7954SOL    HW135495   1.801   4.418  16.990 -0.3140 -1.9984 -2.0458
 7954SOL    HW235496   1.889   4.316  17.060 -0.2447 -0.0824 -0.8693
 7955SOL     OW35497   3.362   2.435  14.194 -0.0108  0.4696  0.4308
 7955SOL    HW135498   3.410   2.440  14.111  0.1802  0.3629  0.5347
 7955SOL    HW235499   3.302   2.366  14.167  0.1929  1.2516 -2.0012
 7956SOL     OW35500   2.910   2.648  13.240 -0.5185 -0.4950  0.5268
 7956SOL    HW135501   2.820   2.667  13.211 -0.9664 -1.3114  1.3887
 7956SOL    HW235502   2.966   2.658  13.163 -0.1246  0.0041  0.8836
 7957SOL     OW35503   0.432   0.259   8.555  0.4657 -0.1878  0.4337
 7957SOL    HW135504   0.467   0.257   8.645 -1.5933  1.2581  1.2724
 7957SOL    HW235505   0.454   0.170   8.529  0.8423 -0.1442  0.5883
 7958SOL     OW35506   2.686   1.362   3.136 -0.4015 -0.2378 -0.4896
 7958SOL    HW135507   2.778   1.343   3.154 -0.2786  0.6980 -0.1157
 7958SOL    HW235508   2.698   1.390   3.045  2.3293  3.5024  0.9913
 7959SOL     OW35509   0.700   0.493  11.090  1.2800 -0.2523 -0.3286
 7959SOL    HW135510   0.767   0.520  11.028  0.6136  0.0779 -0.9080
 7959SOL    HW235511   0.750   0.502  11.170  0.8171  0.8859 -0.1683
 7960SOL     OW35512   2.961   3.308  15.469 -0.3963 -0.0888  0.2466
 7960SOL    HW135513   3.015   3.367  15.418  0.5009  0.9366  2.3668
 7960SOL    HW235514   3.019   3.232  15.476 -2.3187 -1.5819 -0.1527
 7961SOL     OW35515   1.465   3.750  16.902 -0.1042  0.1190  0.0779
 7961SOL    HW135516   1.531   3.818  16.918  0.2638 -0.0782 -0.6313
 7961SOL    HW235517   1.387   3.806  16.911 -0.6756 -0.6816  0.0980
 7962SOL     OW35518   0.594   4.251   0.085  0.1668  0.0044  0.0436
 7962SOL    HW135519   0.662   4.241   0.151 -0.4428 -0.5236  0.5995
 7962SOL    HW235520   0.568   4.339   0.111 -0.1948 -0.5293  1.4910
 7963SOL     OW35521   0.808   4.340   7.333  0.3140 -0.3045  0.2773
 7963SOL    HW135522   0.881   4.331   7.272 -0.6610 -0.0778 -0.9324
 7963SOL    HW235523   0.829   4.272   7.396 -1.1394 -0.2359  0.8392
 7964SOL     OW35524   0.968   4.103  17.651 -0.3717  0.4819  0.4338
 7964SOL    HW135525   1.054   4.136  17.625 -0.2847 -0.5583 -0.5513
 7964SOL    HW235526   0.970   4.012  17.621 -1.3744  0.7675 -0.5101
 7965SOL     OW35527   1.093   2.978   2.558 -0.6063 -0.6708  0.4744
 7965SOL    HW135528   1.098   2.898   2.505 -0.6829 -1.5790  1.8431
 7965SOL    HW235529   1.136   3.034   2.493  0.3533  0.2989  1.9545
 7966SOL     OW35530   3.917   0.923  16.137 -0.8621  0.0275  0.2517
 7966SOL    HW135531   3.878   1.008  16.119 -1.6751  0.0209  2.0086
 7966SOL    HW235532   3.847   0.898  16.197 -2.3778 -1.3288 -2.0807
 7967SOL     OW35533   2.584   3.403   8.935 -0.2922 -0.9036  0.4481
 7967SOL    HW135534   2.546   3.318   8.957  1.6027 -2.1542 -1.1206
 7967SOL    HW235535   2.602   3.435   9.024 -1.3238 -1.5071  0.8707
 7968SOL     OW35536   1.775   3.936  15.434  0.1774  0.3852 -0.8440
 7968SOL    HW135537   1.825   4.017  15.422  0.5266  0.2518 -0.3112
 7968SOL    HW235538   1.699   3.939  15.376  1.1128 -0.7172 -2.1266
 7969SOL     OW35539   0.171   2.570   5.686 -0.4922  0.8535 -0.3468
 7969SOL    HW135540   0.220   2.647   5.715 -0.8866  1.3979 -1.1353
 7969SOL    HW235541   0.239   2.518   5.644  0.8290  0.8437  1.7745
 7970SOL     OW35542   1.629   0.997   6.942  0.4740  0.1993 -0.5346
 7970SOL    HW135543   1.589   0.912   6.961  1.9354  0.1413  2.2117
 7970SOL    HW235544   1.597   1.049   7.016 -1.0641  0.7976 -1.6070
 7971SOL     OW35545   2.264   1.792   6.306  0.4580  0.1422  0.5568
 7971SOL    HW135546   2.190   1.811   6.364 -0.8466 -1.0215 -0.7100
 7971SOL    HW235547   2.323   1.764   6.376  1.0347  0.5981  0.2493
 7972SOL     OW35548   0.308   3.484   7.684  0.2232  0.1232  0.1512
 7972SOL    HW135549   0.235   3.454   7.738  0.1761  0.0707  0.0585
 7972SOL    HW235550   0.370   3.517   7.749 -0.5209 -0.2596  1.0527
 7973SOL     OW35551   4.645   0.159   9.430 -0.4941  0.0052 -0.2269
 7973SOL    HW135552   0.005   0.147   9.437 -0.2080  3.7042  2.8389
 7973SOL    HW235553   4.648   0.241   9.381  0.8348  0.8349  1.2076
 7974SOL     OW35554   4.365   1.370  16.805 -0.1155 -0.0176 -0.4085
 7974SOL    HW135555   4.314   1.401  16.879 -0.4297 -0.1490 -0.5711
 7974SOL    HW235556   4.436   1.434  16.804 -1.4375  1.4217 -0.8203
 7975SOL     OW35557   1.540   1.153  11.959  0.0117  0.0694  0.3413
 7975SOL    HW135558   1.454   1.151  11.915 -0.7716 -0.4765  1.8870
 7975SOL    HW235559   1.533   1.072  12.010 -1.5145  0.1562  0.2769
 7976SOL     OW35560   1.986   2.894   5.211  0.2222  0.2699 -0.5277
 7976SOL    HW135561   1.946   2.827   5.265 -0.5377  1.4990  0.4197
 7976SOL    HW235562   2.078   2.869   5.222 -0.1933 -0.2276  1.7515
 7977SOL     OW35563   2.562   0.705   6.699 -0.2752  0.8123 -0.0548
 7977SOL    HW135564   2.500   0.717   6.770 -0.6889  0.0637 -0.2875
 7977SOL    HW235565   2.512   0.643   6.646  0.3615 -1.0658  1.5456
 7978SOL     OW35566   1.573   2.063  10.763  0.1938 -0.7637 -0.6552
 7978SOL    HW135567   1.568   2.114  10.682  1.3690  0.1135 -0.1780
 7978SOL    HW235568   1.664   2.034  10.753  0.8441  0.6072  1.4541
 7979SOL     OW35569   0.256   1.789   4.332  0.2598 -0.8731 -0.3461
 7979SOL    HW135570   0.337   1.779   4.381  1.5917  0.5041 -2.2552
 7979SOL    HW235571   0.208   1.712   4.363  2.6591 -1.6347  1.4987
 7980SOL     OW35572   2.396   3.845   3.229  0.4132 -0.1784  0.3086
 7980SOL    HW135573   2.344   3.768   3.250 -0.7870 -0.0382 -2.2096
 7980SOL    HW235574   2.341   3.882   3.161  0.7894  0.9068  0.5858
 7981SOL     OW35575   3.091   2.261   5.862  0.1514 -0.0533 -0.4602
 7981SOL    HW135576   3.059   2.201   5.795  0.1221 -0.4467 -0.0902
 7981SOL    HW235577   3.021   2.325   5.868 -1.1642 -1.5962  0.6278
 7982SOL     OW35578   2.163   0.559   1.964  0.1064 -0.0413  0.2250
 7982SOL    HW135579   2.153   0.581   1.871 -3.7426 -1.5246  0.2865
 7982SOL    HW235580   2.205   0.637   2.000  0.5297  0.3753 -1.1610
 7983SOL     OW35581   1.466   2.803   8.945 -0.1135 -0.2918  0.0401
 7983SOL    HW135582   1.536   2.817   8.881  0.4689  1.2929  1.0234
 7983SOL    HW235583   1.456   2.891   8.983  0.5783 -0.3339  0.3190
 7984SOL     OW35584   2.149   0.841   7.877 -0.4116  0.2272 -0.3038
 7984SOL    HW135585   2.054   0.835   7.890  0.0785 -0.5776  2.8769
 7984SOL    HW235586   2.178   0.837   7.968  0.6803 -1.6559 -0.7228
 7985SOL     OW35587   1.179   2.782   3.488  0.0374  0.2486  0.3144
 7985SOL    HW135588   1.119   2.768   3.562  0.5442 -0.8015  0.5273
 7985SOL    HW235589   1.180   2.691   3.457 -0.3274  0.1813  0.4853
 7986SOL     OW35590   1.729   3.657   2.089 -0.2266 -0.8044 -0.3675
 7986SOL    HW135591   1.736   3.751   2.069 -1.1574 -0.1163  2.4881
 7986SOL    HW235592   1.661   3.648   2.156 -1.1574  1.5264 -0.9966
 7987SOL     OW35593   0.798   2.484   4.340 -0.3018  0.1525 -0.1727
 7987SOL    HW135594   0.872   2.545   4.346  0.0816 -0.3176 -0.1215
 7987SOL    HW235595   0.801   2.434   4.422  1.4590  1.4236  0.5285
 7988SOL     OW35596   4.198   0.552  11.499 -0.5417 -0.3933 -0.1841
 7988SOL    HW135597   4.266   0.524  11.561  0.3285 -0.2532 -1.0736
 7988SOL    HW235598   4.169   0.636  11.534  1.0784 -0.7251  2.0007
 7989SOL     OW35599   3.189   2.312   6.437  0.7754 -0.1797 -0.2404
 7989SOL    HW135600   3.146   2.338   6.355  0.9058  1.1422  0.1020
 7989SOL    HW235601   3.263   2.272   6.392  1.8437  0.1746  1.1804
 7990SOL     OW35602   4.592   1.420   9.356 -0.0566 -0.0468 -0.0245
 7990SOL    HW135603   4.562   1.497   9.308 -0.7305 -0.4927 -0.3291
 7990SOL    HW235604   4.534   1.406   9.431  1.3397 -1.4551  0.7917
 7991SOL     OW35605   3.558   1.547   0.853  0.0485 -0.2087  0.3832
 7991SOL    HW135606   3.471   1.585   0.864  2.0904  3.8605  2.3986
 7991SOL    HW235607   3.601   1.609   0.794 -0.7317  0.1574  0.1933
 7992SOL     OW35608   1.584   0.149   9.883 -0.2034  0.2385 -0.5410
 7992SOL    HW135609   1.582   0.240   9.911 -3.4811  0.4448 -1.4567
 7992SOL    HW235610   1.674   0.119   9.899 -0.5780 -0.9805 -0.6471
 7993SOL     OW35611   4.523   0.358  12.000 -0.0293 -0.2776  0.4307
 7993SOL    HW135612   4.460   0.289  12.024  0.6269 -0.4326  1.7111
 7993SOL    HW235613   4.563   0.329  11.918 -0.8756  1.3649 -0.5482
 7994SOL     OW35614   1.331   4.121   0.668  0.4998  0.8835 -0.8565
 7994SOL    HW135615   1.364   4.100   0.755  1.4419 -1.2530 -1.7455
 7994SOL    HW235616   1.296   4.210   0.677  0.5464  0.9428 -1.2735
 7995SOL     OW35617   2.021   4.633  16.959  0.2153 -0.2167  0.2580
 7995SOL    HW135618   1.967   4.554  16.963  1.2878 -0.9160  0.7535
 7995SOL    HW235619   1.966   4.694  16.908 -0.2238 -0.4928  0.3991
 7996SOL     OW35620   0.670   3.837   3.742 -0.2968  0.5050  0.1306
 7996SOL    HW135621   0.718   3.778   3.800  0.0503  2.9753  2.3901
 7996SOL    HW235622   0.595   3.866   3.795 -0.6438 -0.1036 -0.0332
 7997SOL     OW35623   4.566   1.874  11.425 -0.0669 -0.7983 -0.1976
 7997SOL    HW135624   4.632   1.935  11.455 -0.7529  0.4030 -1.1320
 7997SOL    HW235625   4.494   1.936  11.415  1.2267  0.8886  1.1154
 7998SOL     OW35626   0.650   4.559   2.543  0.3388 -0.1904  0.1220
 7998SOL    HW135627   0.581   4.496   2.522  1.9966 -1.1468 -2.4329
 7998SOL    HW235628   0.599   4.635   2.570  2.0185  1.6228 -1.8447
 7999SOL     OW35629   0.938   0.395   9.026  0.0862  0.0823  0.0228
 7999SOL    HW135630   0.954   0.454   9.101 -2.0580 -0.4457  0.9012
 7999SOL    HW235631   0.867   0.341   9.062  0.2977  0.0737  0.4334
 8000SOL     OW35632   1.943   4.093   6.512  0.3050 -0.0677 -0.4729
 8000SOL    HW135633   1.970   4.014   6.466 -0.2870 -1.2717  1.2385
 8000SOL    HW235634   1.904   4.147   6.442  1.5287  1.7008  0.2060
 8001SOL     OW35635   4.015   1.567   0.555 -0.2406  0.1787 -0.5977
 8001SOL    HW135636   4.097   1.524   0.530 -0.3994 -1.0995  1.1209
 8001SOL    HW235637   3.953   1.547   0.485  0.7341  1.3885 -1.8089
 8002SOL     OW35638   2.071   1.974   2.935 -0.5327  0.5037 -0.1319
 8002SOL    HW135639   2.019   1.895   2.919  2.3045 -1.2730 -0.5252
 8002SOL    HW235640   2.083   2.000   2.843  0.7020  1.3034  0.2500
 8003SOL     OW35641   2.030   3.090  13.098 -0.4100  0.1501 -0.4889
 8003SOL    HW135642   2.068   3.043  13.023 -1.1530 -1.2314 -0.0047
 8003SOL    HW235643   1.941   3.110  13.068 -0.2266  0.4790 -0.8108
 8004SOL     OW35644   0.987   0.307   8.470 -0.1030 -0.6838  0.9771
 8004SOL    HW135645   1.034   0.316   8.553  2.5430  2.7730 -0.8859
 8004SOL    HW235646   0.898   0.336   8.491 -0.5430 -2.7608  1.9375
 8005SOL     OW35647   3.644   1.593   2.552 -0.4144 -0.0293 -0.4490
 8005SOL    HW135648   3.567   1.586   2.495 -0.2312 -1.6732 -0.4994
 8005SOL    HW235649   3.697   1.657   2.503  2.8229 -0.5973  2.3407
 8006SOL     OW35650   2.208   0.635   2.346  0.6216  1.4058  0.5585
 8006SOL    HW135651   2.259   0.621   2.426 -2.2258 -0.5074  2.0377
 8006SOL    HW235652   2.195   0.730   2.340 -0.6879  1.3121  2.0161
 8007SOL     OW35653   1.119   1.369   4.772 -0.0747 -0.0818  0.0706
 8007SOL    HW135654   1.062   1.367   4.848 -0.7304 -3.3476 -0.5233
 8007SOL    HW235655   1.072   1.317   4.707 -0.1704 -0.3642  0.3661
 8008SOL     OW35656   4.125   3.168   4.160 -0.2654  0.2039  0.3653
 8008SOL    HW135657   4.189   3.223   4.115 -1.1255  0.5195 -0.4637
 8008SOL    HW235658   4.124   3.209   4.247  1.7502  1.3996 -0.1878
 8009SOL     OW35659   2.716   3.352   8.498 -0.5013 -0.0336  0.6022
 8009SOL    HW135660   2.652   3.297   8.541  0.3807 -3.5295 -2.5550
 8009SOL    HW235661   2.709   3.310   8.412 -0.1928 -0.6721  0.8875
 8010SOL     OW35662   4.038   0.635   1.146 -0.9108  0.1066 -0.5393
 8010SOL    HW135663   3.953   0.599   1.120 -0.3823 -1.6037  0.0742
 8010SOL    HW235664   4.028   0.723   1.110  2.6462  0.3553 -0.8883
 8011SOL     OW35665   2.656   3.725   7.821 -0.3906 -0.3166  0.2201
 8011SOL    HW135666   2.722   3.662   7.852 -2.2182 -2.6000 -0.5560
 8011SOL    HW235667   2.711   3.803   7.827 -0.3241 -0.4495  1.3119
 8012SOL     OW35668   2.960   2.873   6.604 -1.3633  0.3490  0.6564
 8012SOL    HW135669   2.897   2.918   6.660 -0.6075  1.8885  0.2966
 8012SOL    HW235670   3.041   2.897   6.649  0.1886 -1.6640 -1.0465
 8013SOL     OW35671   3.930   1.969  17.596 -0.5199 -0.2636  0.2128
 8013SOL    HW135672   4.004   1.956  17.537 -0.5168  0.6957  0.0025
 8013SOL    HW235673   3.946   2.061  17.617 -1.6680 -0.3902  1.6436
 8014SOL     OW35674   4.379   4.431   6.684 -0.0614 -0.0100  0.9101
 8014SOL    HW135675   4.292   4.440   6.644  0.4043  0.9305  0.1178
 8014SOL    HW235676   4.363   4.366   6.753 -2.0867 -0.2834  0.1836
 8015SOL     OW35677   2.631   3.412   1.851  0.4067  0.1149 -0.6917
 8015SOL    HW135678   2.705   3.472   1.850  0.5164 -0.0051  0.2455
 8015SOL    HW235679   2.683   3.332   1.862  0.6420  0.8930  3.5881
 8016SOL     OW35680   4.369   1.054   0.486 -0.0829  0.2121  0.2729
 8016SOL    HW135681   4.411   1.132   0.523  1.3362  0.8792 -2.7208
 8016SOL    HW235682   4.332   1.088   0.404 -1.7782 -0.8113  0.6153
 8017SOL     OW35683   2.767   2.056   7.628  0.1433  0.0781 -0.4066
 8017SOL    HW135684   2.812   2.101   7.700  0.6503  0.2720 -0.8508
 8017SOL    HW235685   2.685   2.105   7.624 -0.3768 -0.7248  0.2488
 8018SOL     OW35686   4.725   0.276   7.642  1.1420  0.2524  0.0869
 8018SOL    HW135687   4.648   0.313   7.600  1.3853 -0.6228 -1.1255
 8018SOL    HW235688   4.719   0.326   7.723 -2.8886  0.2379 -0.2059
 8019SOL     OW35689   3.134   3.601   5.433  0.3544 -0.3782  0.4994
 8019SOL    HW135690   3.091   3.575   5.514 -0.8033 -1.7210 -0.5651
 8019SOL    HW235691   3.161   3.690   5.457  0.9879 -0.5028  0.2659
 8020SOL     OW35692   1.366   3.396  14.418  0.6961  0.2675  0.1340
 8020SOL    HW135693   1.322   3.366  14.339  1.3759  0.4114 -0.2919
 8020SOL    HW235694   1.325   3.482  14.426  0.4492  0.1605  0.0221
 8021SOL     OW35695   2.021   1.816   3.661 -0.1560 -0.2035 -0.2384
 8021SOL    HW135696   1.989   1.811   3.571 -1.4428  0.1012  0.2044
 8021SOL    HW235697   1.969   1.896   3.672 -0.0766 -0.5226  2.4789
 8022SOL     OW35698   1.055   3.077   7.813  0.2222  0.1990  0.3283
 8022SOL    HW135699   1.102   3.015   7.758  0.0654 -0.8403  1.3697
 8022SOL    HW235700   1.056   3.039   7.901  1.2815 -1.1069 -0.2574
 8023SOL     OW35701   4.577   2.676  10.653  0.2049  0.3382 -0.6628
 8023SOL    HW135702   4.591   2.767  10.678 -1.4067  0.9138 -1.7969
 8023SOL    HW235703   4.551   2.690  10.562 -1.4321  0.5579 -0.1745
 8024SOL     OW35704   2.735   1.909  15.843  0.8758 -0.5081 -0.0050
 8024SOL    HW135705   2.688   1.908  15.759 -0.4792 -1.3508  0.7613
 8024SOL    HW235706   2.745   2.003  15.861 -0.2828 -0.4639  0.4152
 8025SOL     OW35707   3.384   4.013   4.671 -0.3020 -0.2554 -0.3229
 8025SOL    HW135708   3.292   4.037   4.674  0.1028  0.9999  2.0296
 8025SOL    HW235709   3.380   3.940   4.608  1.2532 -1.0109  0.4408
 8026SOL     OW35710   1.311   4.123  14.990  0.1060  0.2665  0.5378
 8026SOL    HW135711   1.311   4.032  14.960 -2.1524  1.0169 -1.7318
 8026SOL    HW235712   1.299   4.110  15.084  4.1632 -1.7224  0.7959
 8027SOL     OW35713   2.076   3.064  16.224 -0.2495 -0.2199 -0.9078
 8027SOL    HW135714   2.111   3.010  16.295  1.1800  1.1747 -0.5691
 8027SOL    HW235715   1.986   3.032  16.211 -0.3583 -0.0514 -0.5501
 8028SOL     OW35716   1.095   3.771   3.074  0.4779 -0.0945 -0.2797
 8028SOL    HW135717   1.106   3.777   2.979 -3.8948 -1.5413 -0.8572
 8028SOL    HW235718   1.072   3.679   3.086 -1.0533  0.3318  0.1000
 8029SOL     OW35719   0.758   0.441   2.981 -0.9984  0.3481 -0.0043
 8029SOL    HW135720   0.732   0.514   2.925 -0.4349  0.1481 -0.5254
 8029SOL    HW235721   0.716   0.367   2.938  0.1176  0.2796 -0.9881
 8030SOL     OW35722   0.066   4.001   6.796  0.2660  0.2681 -0.1938
 8030SOL    HW135723   0.133   3.977   6.732 -0.5545 -0.2412 -0.8508
 8030SOL    HW235724   0.114   3.978   6.876 -1.2206 -1.0708  0.3228
 8031SOL     OW35725   0.715   0.770   5.506  0.1464 -0.2846  0.1870
 8031SOL    HW135726   0.752   0.683   5.492  0.8206 -0.1444  1.1398
 8031SOL    HW235727   0.634   0.755   5.556  1.4361  0.2064  2.4151
 8032SOL     OW35728   2.026   4.235   5.784 -0.3366  0.3047  0.6262
 8032SOL    HW135729   2.025   4.254   5.877  0.7859 -0.0122  0.7033
 8032SOL    HW235730   1.951   4.277   5.742  0.1537 -0.4534 -1.0188
 8033SOL     OW35731   1.834   4.460  11.745 -0.0436  0.2464  0.4842
 8033SOL    HW135732   1.755   4.435  11.696  1.1935 -1.2079 -0.7923
 8033SOL    HW235733   1.823   4.408  11.825  0.6015  0.6360  0.8207
 8034SOL     OW35734   4.176   0.191  12.964 -0.0111  0.1250  0.5003
 8034SOL    HW135735   4.197   0.160  12.876 -1.7153  1.0238 -0.2167
 8034SOL    HW235736   4.201   0.118  13.021  0.5473 -0.7953 -0.9303
 8035SOL     OW35737   3.250   4.571   3.021 -0.6709  0.7034 -0.1275
 8035SOL    HW135738   3.322   4.563   3.085  0.2379 -0.9169 -1.3519
 8035SOL    HW235739   3.187   4.519   3.071  1.4371 -0.4807  1.3557
 8036SOL     OW35740   2.757   2.687   7.408 -0.8633 -0.2059 -0.3588
 8036SOL    HW135741   2.849   2.667   7.389 -0.1193 -0.8517  3.9004
 8036SOL    HW235742   2.725   2.710   7.321 -1.6469  0.7971  0.1994
 8037SOL     OW35743   2.902   1.731   7.731 -0.4383 -0.4696  0.3096
 8037SOL    HW135744   2.933   1.695   7.814 -0.2698 -0.2766  0.3308
 8037SOL    HW235745   2.958   1.807   7.717 -1.1452 -0.0711 -0.4253
 8038SOL     OW35746   3.590   2.984  11.460  0.2639 -0.0346 -0.3319
 8038SOL    HW135747   3.497   2.986  11.480  0.1769 -0.8850 -0.6514
 8038SOL    HW235748   3.615   3.072  11.487  0.9765 -0.4760  0.4910
 8039SOL     OW35749   2.456   1.472   7.226 -0.1785 -0.2136 -0.7070
 8039SOL    HW135750   2.484   1.561   7.249  0.0191 -0.8609  1.5581
 8039SOL    HW235751   2.537   1.430   7.256 -0.2836 -0.3066 -0.5548
 8040SOL     OW35752   0.272   1.695   8.241 -0.2469  0.2201  0.8706
 8040SOL    HW135753   0.190   1.670   8.285 -0.2417 -0.2047  0.6430
 8040SOL    HW235754   0.335   1.690   8.313  0.7991 -1.4498 -0.1738
 8041SOL     OW35755   0.361   1.715  12.744 -0.2595 -0.2080  0.3877
 8041SOL    HW135756   0.270   1.744  12.745  0.5354  2.2516  1.1642
 8041SOL    HW235757   0.391   1.757  12.825  0.3702  1.2217 -0.5975
 8042SOL     OW35758   2.274   0.968   3.416 -0.0573  0.0846 -0.2529
 8042SOL    HW135759   2.205   0.977   3.351 -0.7474 -0.4410  0.4082
 8042SOL    HW235760   2.222   0.985   3.495  0.7748 -1.2642  0.5908
 8043SOL     OW35761   0.886   2.062   2.425 -0.1997 -0.1975 -0.4238
 8043SOL    HW135762   0.946   2.136   2.418 -1.1192  0.6613  0.7982
 8043SOL    HW235763   0.854   2.054   2.335  1.1813 -0.0371 -0.9280
 8044SOL     OW35764   0.697   2.651  12.780  0.1334 -0.5931  0.0757
 8044SOL    HW135765   0.690   2.575  12.837  1.2698 -3.4500 -3.5673
 8044SOL    HW235766   0.766   2.644  12.713  0.9517 -1.5460  1.0218
 8045SOL     OW35767   3.201   4.329   8.547 -0.3965 -0.4602  0.1080
 8045SOL    HW135768   3.212   4.277   8.627  1.6428 -1.8518 -1.0789
 8045SOL    HW235769   3.138   4.273   8.501 -0.6020 -0.8364  0.8360
 8046SOL     OW35770   1.674   2.192   2.797 -0.5365  0.2891 -0.1580
 8046SOL    HW135771   1.660   2.097   2.801 -0.6202  0.3965  2.1400
 8046SOL    HW235772   1.698   2.206   2.888  1.0404  0.6988 -0.6321
 8047SOL     OW35773   3.064   0.961   5.479 -0.4221 -0.2495 -0.2926
 8047SOL    HW135774   3.009   0.902   5.530 -0.5533  1.2692  1.3069
 8047SOL    HW235775   3.137   0.956   5.541 -0.2247  1.1872 -0.4156
 8048SOL     OW35776   4.461   3.497   1.855 -0.1146  0.4087  0.0266
 8048SOL    HW135777   4.423   3.557   1.919 -0.5685 -0.3735  0.4960
 8048SOL    HW235778   4.454   3.412   1.899  0.9027  0.2541 -0.1029
 8049SOL     OW35779   4.268   2.494  15.591 -0.6921  0.2163 -0.0309
 8049SOL    HW135780   4.363   2.499  15.587 -0.6859  0.0862 -0.0536
 8049SOL    HW235781   4.243   2.462  15.678  1.8080 -1.1774  0.1834
 8050SOL     OW35782   2.339   4.277   7.145  0.2019  0.5103  0.2196
 8050SOL    HW135783   2.341   4.194   7.098  1.3170  1.0973 -0.7594
 8050SOL    HW235784   2.291   4.332   7.083 -1.3045 -2.0054 -0.8722
 8051SOL     OW35785   3.132   2.731   3.562  0.1740  0.2129 -0.4452
 8051SOL    HW135786   3.158   2.717   3.471 -2.1457  0.2521 -1.1206
 8051SOL    HW235787   3.208   2.709   3.616  0.2808 -1.0387 -1.0965
 8052SOL     OW35788   4.604   4.588   9.932  0.5589  0.3615 -0.6073
 8052SOL    HW135789   4.551   4.649   9.880 -1.5425  0.2838  1.4614
 8052SOL    HW235790   4.576   4.499   9.914  3.2249 -0.5230 -0.5001
 8053SOL     OW35791   1.421   1.895  15.124 -0.5097  0.2769 -0.3948
 8053SOL    HW135792   1.468   1.977  15.133  0.1978 -0.1772  0.0407
 8053SOL    HW235793   1.495   1.847  15.087 -0.3966  3.2666 -4.0384
 8054SOL     OW35794   2.371   0.791   6.888 -0.1625  0.4113  0.3595
 8054SOL    HW135795   2.282   0.826   6.880 -0.3510 -0.5481 -1.9208
 8054SOL    HW235796   2.342   0.706   6.923 -1.2634 -0.5733 -2.9319
 8055SOL     OW35797   3.300   1.761   7.558  0.4136 -0.2819  0.0759
 8055SOL    HW135798   3.269   1.722   7.476 -0.3707  0.5924 -0.0471
 8055SOL    HW235799   3.227   1.807   7.598  0.3787 -1.1276  0.9716
 8056SOL     OW35800   2.804   1.230   9.448 -0.3546 -0.2356  0.0633
 8056SOL    HW135801   2.735   1.214   9.513  1.5089  1.4517  2.4740
 8056SOL    HW235802   2.866   1.287   9.494 -1.2118  1.3727 -0.7567
 8057SOL     OW35803   1.973   3.475   7.626 -0.1814  0.3915 -0.1908
 8057SOL    HW135804   2.003   3.502   7.713 -0.6486  0.0739  0.0651
 8057SOL    HW235805   1.918   3.546   7.593 -0.5116 -0.0123 -0.5112
 8058SOL     OW35806   0.209   0.953  11.918 -0.2764 -0.3735 -1.2301
 8058SOL    HW135807   0.191   0.973  11.826  0.1785  0.3151 -1.1706
 8058SOL    HW235808   0.124   0.913  11.938  0.0688 -0.2957  0.4019
 8059SOL     OW35809   3.117   1.318  11.001  0.2025 -0.0222  0.0706
 8059SOL    HW135810   3.076   1.372  10.934 -2.5245  0.2571  1.9703
 8059SOL    HW235811   3.096   1.232  10.965 -0.3399  0.5767 -1.0490
 8060SOL     OW35812   4.247   2.304   9.650  0.1134  0.4720  0.0435
 8060SOL    HW135813   4.218   2.286   9.560  0.0592 -0.7741  0.3083
 8060SOL    HW235814   4.341   2.319   9.642 -0.0257  1.4296  0.1703
 8061SOL     OW35815   2.713   2.145   2.978 -0.0426  0.4451 -0.1396
 8061SOL    HW135816   2.749   2.110   2.897  0.8948 -0.9051  0.8497
 8061SOL    HW235817   2.620   2.155   2.959 -0.6207 -1.9363  1.3887
 8062SOL     OW35818   3.264   0.261  14.628 -0.1973 -0.2572  0.4101
 8062SOL    HW135819   3.269   0.223  14.716  1.7199  1.1297  0.8999
 8062SOL    HW235820   3.247   0.349  14.661  4.0831  0.3071  1.0997
 8063SOL     OW35821   4.429   3.499  12.152 -0.1224 -0.6990 -0.3790
 8063SOL    HW135822   4.506   3.512  12.208  0.1193 -1.0731 -0.6246
 8063SOL    HW235823   4.362   3.498  12.220  1.9403  1.8033  1.6754
 8064SOL     OW35824   3.536   3.726  14.386  0.7452  0.5112  0.2398
 8064SOL    HW135825   3.591   3.648  14.390 -0.4125 -0.4149 -1.6035
 8064SOL    HW235826   3.449   3.689  14.400  2.0556 -2.0889  1.5696
 8065SOL     OW35827   3.697   0.480   2.440 -0.3319  0.0622 -0.1279
 8065SOL    HW135828   3.610   0.491   2.400  0.4430  1.0086 -1.5717
 8065SOL    HW235829   3.751   0.546   2.396  0.8058 -0.6085  0.2603
 8066SOL     OW35830   1.974   1.677   1.924 -0.5108 -0.5877  0.1580
 8066SOL    HW135831   1.885   1.682   1.961 -0.8277 -1.3051 -0.5255
 8066SOL    HW235832   1.983   1.755   1.869  0.1752 -0.0586  1.0176
 8067SOL     OW35833   3.509   1.615   4.101 -0.4773 -0.1123  0.4415
 8067SOL    HW135834   3.570   1.673   4.147 -0.6462  0.4680 -0.0578
 8067SOL    HW235835   3.562   1.538   4.084  0.1357  0.8974 -2.1816
 8068SOL     OW35836   1.087   4.254   7.780  0.3578  0.3170 -0.6669
 8068SOL    HW135837   1.096   4.233   7.873 -1.4060 -4.5998 -1.6035
 8068SOL    HW235838   1.121   4.177   7.734 -1.5731  0.1891 -1.8492
 8069SOL     OW35839   2.119   0.900   6.776  0.1289  0.3601  0.4214
 8069SOL    HW135840   2.067   0.855   6.842 -2.3034  2.8262  0.1783
 8069SOL    HW235841   2.054   0.967   6.756 -0.9043 -0.9613 -0.6272
 8070SOL     OW35842   4.676   1.136   0.812  0.0869  0.0874  0.6597
 8070SOL    HW135843   4.630   1.174   0.737  1.5244  0.6714  0.0755
 8070SOL    HW235844   0.031   1.157   0.788  0.6539  0.1439  2.8203
 8071SOL     OW35845   2.835   1.430   6.534 -0.4643  0.0186  0.5656
 8071SOL    HW135846   2.814   1.372   6.607  1.5692 -1.5864 -0.1419
 8071SOL    HW235847   2.931   1.431   6.531 -0.4744  2.7383  0.4392
 8072SOL     OW35848   4.519   4.454  10.538  0.0410 -0.1491  0.5102
 8072SOL    HW135849   4.521   4.470  10.632  0.2065 -0.0969  0.4979
 8072SOL    HW235850   4.591   4.500  10.496  0.0116 -2.3436 -1.9840
 8073SOL     OW35851   3.027   2.785   9.381 -0.1534  1.0900  0.2753
 8073SOL    HW135852   3.024   2.744   9.468 -3.2556  0.5234 -0.0904
 8073SOL    HW235853   3.112   2.830   9.385  0.4615  0.1339 -1.9269
 8074SOL     OW35854   0.317   2.008   5.238 -0.4489 -0.0555  0.1404
 8074SOL    HW135855   0.281   2.081   5.288  2.0631  1.8845 -0.8586
 8074SOL    HW235856   0.410   2.030   5.248 -0.7483  0.9138  0.8793
 8075SOL     OW35857   0.009   2.985  15.694 -0.0215 -0.3348  0.0918
 8075SOL    HW135858   0.019   3.080  15.700 -1.4865 -0.0988 -1.2915
 8075SOL    HW235859   0.101   2.959  15.697  0.1144  0.0857 -0.6233
 8076SOL     OW35860   4.239   0.401   3.012 -0.6851 -0.5141  0.1662
 8076SOL    HW135861   4.256   0.495   3.000  0.2789 -0.9256 -1.6768
 8076SOL    HW235862   4.146   0.411   3.029 -0.6762 -0.8501  0.4030
 8077SOL     OW35863   2.902   4.341  12.863  0.2674 -0.0742 -0.1213
 8077SOL    HW135864   2.837   4.410  12.873 -0.8587 -1.1104 -0.2394
 8077SOL    HW235865   2.960   4.366  12.935  0.0575 -0.4059  0.1649
 8078SOL     OW35866   2.034   2.665   5.844 -0.1526  0.0557  0.3640
 8078SOL    HW135867   2.002   2.586   5.887  0.0588 -0.3430 -0.2060
 8078SOL    HW235868   2.114   2.697   5.886 -0.8226  0.5182  1.2871
 8079SOL     OW35869   1.414   0.776   0.860  0.3416  0.2203  0.0023
 8079SOL    HW135870   1.357   0.850   0.878 -0.2644 -0.2102 -0.1690
 8079SOL    HW235871   1.442   0.760   0.950  1.7792 -0.5641 -0.5767
 8080SOL     OW35872   2.431   0.268  15.342 -0.3852 -0.1993 -0.2953
 8080SOL    HW135873   2.384   0.348  15.366  0.9025  0.6943 -0.7415
 8080SOL    HW235874   2.497   0.269  15.411 -0.2212 -0.6202 -0.4452
 8081SOL     OW35875   1.045   1.530   6.477  0.2091 -0.4031  0.3343
 8081SOL    HW135876   1.038   1.616   6.436  0.7626 -0.6983 -0.3925
 8081SOL    HW235877   1.105   1.559   6.546 -2.1909  0.4823  2.0524
 8082SOL     OW35878   1.638   2.646   4.912  0.1886  0.1725  0.1163
 8082SOL    HW135879   1.706   2.709   4.936 -0.7941  1.0410  0.6445
 8082SOL    HW235880   1.564   2.707   4.899 -0.8390 -0.6953  1.9487
 8083SOL     OW35881   3.209   4.546  17.655  0.3213  0.4066 -0.1425
 8083SOL    HW135882   3.172   4.632  17.673 -0.6245  0.5605 -2.8859
 8083SOL    HW235883   3.224   4.550  17.561  0.4681  0.7071 -0.1053
 8084SOL     OW35884   1.245   1.403  13.815  0.6935 -0.3828 -0.6127
 8084SOL    HW135885   1.230   1.451  13.733  0.3710  0.5997  0.0180
 8084SOL    HW235886   1.172   1.341  13.812  0.0773  0.2236  2.1111
 8085SOL     OW35887   0.673   2.704   4.559 -0.0247  0.6300  0.2181
 8085SOL    HW135888   0.582   2.731   4.547 -0.2617 -1.2949 -2.2805
 8085SOL    HW235889   0.708   2.729   4.474 -1.1222  1.1572 -0.0634
 8086SOL     OW35890   3.021   0.635   8.974  0.1081 -0.3683  0.0877
 8086SOL    HW135891   3.076   0.700   8.931 -2.5731  2.9339  1.6740
 8086SOL    HW235892   2.995   0.687   9.050 -0.7522  1.7645 -1.6643
 8087SOL     OW35893   3.686   1.141   4.644  0.0151 -0.1211  0.5010
 8087SOL    HW135894   3.772   1.099   4.638 -0.5855 -1.3947  1.0060
 8087SOL    HW235895   3.702   1.215   4.704  0.1561 -0.0903  0.4259
 8088SOL     OW35896   4.691   1.611   4.463 -0.2766 -0.2638 -0.5487
 8088SOL    HW135897   0.038   1.595   4.509  1.1625  1.5228 -2.4768
 8088SOL    HW235898   4.666   1.698   4.495  0.9994 -0.0625 -0.1233
 8089SOL     OW35899   2.249   1.751   6.961  0.2100 -0.0637 -0.4016
 8089SOL    HW135900   2.230   1.663   6.991 -2.3422  1.1269  1.4676
 8089SOL    HW235901   2.270   1.732   6.870 -0.0407 -0.9245 -0.2806
 8090SOL     OW35902   1.630   4.386   3.088 -0.0055  0.5424 -0.4624
 8090SOL    HW135903   1.543   4.367   3.122 -1.2723  0.5153 -3.6927
 8090SOL    HW235904   1.605   4.421   3.002 -0.0803 -0.0616 -0.6870
 8091SOL     OW35905   4.709   4.100   8.039 -0.5225  0.2339  0.6148
 8091SOL    HW135906   4.699   4.013   8.077  0.0479 -0.5857 -1.1487
 8091SOL    HW235907   0.041   4.134   8.098  1.8436 -0.1239 -1.8895
 8092SOL     OW35908   1.478   2.144   8.639  0.1968  0.4115  0.2877
 8092SOL    HW135909   1.550   2.102   8.593  0.4182  1.2957 -0.1678
 8092SOL    HW235910   1.475   2.109   8.728  1.5185 -1.6886 -0.5090
 8093SOL     OW35911   1.025   0.342   1.302  0.3388 -0.5919  0.2776
 8093SOL    HW135912   0.982   0.324   1.385 -0.1323 -0.8218 -0.0196
 8093SOL    HW235913   0.994   0.432   1.294 -2.1923 -1.3803  1.4320
 8094SOL     OW35914   1.888   3.297   9.829 -0.0443  0.3151 -0.4304
 8094SOL    HW135915   1.805   3.272   9.790 -0.3679  2.5662 -1.1621
 8094SOL    HW235916   1.908   3.210   9.865  1.0793  0.1220 -1.5025
 8095SOL     OW35917   0.608   2.369  14.292 -0.1590 -0.2780 -0.3496
 8095SOL    HW135918   0.653   2.443  14.333 -1.5802 -0.6641  1.9315
 8095SOL    HW235919   0.559   2.346  14.371 -0.8116 -0.2732 -0.7543
 8096SOL     OW35920   1.458   0.226  15.525  0.7385 -0.2430  0.1561
 8096SOL    HW135921   1.500   0.152  15.482  3.0856  1.6902 -0.9071
 8096SOL    HW235922   1.523   0.296  15.515  2.0759 -1.0666  3.0797
 8097SOL     OW35923   1.660   3.254   8.240 -0.0896  0.1240  0.0906
 8097SOL    HW135924   1.652   3.347   8.264  0.4618 -0.0510  0.9405
 8097SOL    HW235925   1.618   3.254   8.155  0.7691  2.8426 -0.3425
 8098SOL     OW35926   0.491   4.481   7.946 -0.3003  0.3770 -0.5194
 8098SOL    HW135927   0.431   4.420   7.988  1.0309 -0.7859 -0.3073
 8098SOL    HW235928   0.441   4.519   7.874 -1.5424 -0.3425 -0.0471
 8099SOL     OW35929   3.403   2.168   6.579 -0.3572 -0.1260 -0.6179
 8099SOL    HW135930   3.417   2.166   6.674  0.3275  2.7086 -0.6488
 8099SOL    HW235931   3.390   2.263   6.572  2.3830  0.4002  1.2034
 8100SOL     OW35932   0.929   2.716   1.885 -0.0924 -0.5146  0.0458
 8100SOL    HW135933   0.886   2.743   1.966 -1.2291  0.1559 -0.7883
 8100SOL    HW235934   0.989   2.649   1.920  0.0427  0.8862  2.4702
 8101SOL     OW35935   0.656   4.353   5.125 -0.0917  0.1906  0.1174
 8101SOL    HW135936   0.561   4.337   5.122  0.2200 -1.6961  0.1527
 8101SOL    HW235937   0.682   4.332   5.035  0.1907 -0.0793  0.2651
 8102SOL     OW35938   3.439   3.651   6.287 -0.0836 -0.3043  0.3593
 8102SOL    HW135939   3.354   3.638   6.246  0.5647 -2.4668 -0.2947
 8102SOL    HW235940   3.472   3.561   6.293  0.6919 -0.1785 -2.3116
 8103SOL     OW35941   2.644   4.091   1.810 -0.0819  0.6593 -0.4661
 8103SOL    HW135942   2.554   4.111   1.838 -1.2420 -1.7150 -2.5729
 8103SOL    HW235943   2.650   4.001   1.841  0.4473  0.0154 -2.4390
 8104SOL     OW35944   2.602   2.329   2.701 -0.0485  1.0041 -0.1929
 8104SOL    HW135945   2.549   2.299   2.775  1.0942  1.3509  0.7756
 8104SOL    HW235946   2.611   2.423   2.717  0.5621  0.5123  2.4341
 8105SOL     OW35947   0.007   1.942  10.734 -0.0210 -0.0296  0.3138
 8105SOL    HW135948   4.659   1.989  10.723 -0.5538 -1.3902 -1.5224
 8105SOL    HW235949   4.719   1.872  10.672 -1.5959  0.8752 -0.1192
 8106SOL     OW35950   1.208   0.614  10.264 -0.4326  0.2970 -0.2479
 8106SOL    HW135951   1.292   0.616  10.309 -0.3711  2.2712 -0.4331
 8106SOL    HW235952   1.204   0.530  10.219  0.4918 -0.6752  1.5096
 8107SOL     OW35953   3.365   4.695   3.866 -0.3800  0.1887  0.0107
 8107SOL    HW135954   3.302   0.003   3.808 -0.2323  0.1045 -0.2164
 8107SOL    HW235955   3.358   0.007   3.949  2.8156 -0.6144  0.7332
 8108SOL     OW35956   1.129   0.356   4.387  0.1070  0.5843 -0.6147
 8108SOL    HW135957   1.037   0.358   4.415  0.2716  0.3088 -0.0636
 8108SOL    HW235958   1.126   0.420   4.315 -1.8310  2.2600  0.9317
 8109SOL     OW35959   1.750   3.763   4.049  0.5864 -0.4030  0.2110
 8109SOL    HW135960   1.691   3.773   4.123  0.8695 -0.9620  0.5151
 8109SOL    HW235961   1.829   3.750   4.103  1.6008  0.5153 -1.0607
 8110SOL     OW35962   4.213   3.364   1.305 -0.3636 -0.4002 -0.0834
 8110SOL    HW135963   4.253   3.278   1.295 -0.1741 -0.4085  0.8262
 8110SOL    HW235964   4.217   3.400   1.216 -1.2859  1.2086  0.5341
 8111SOL     OW35965   0.104   1.769   6.003  0.6067  0.0703 -0.4203
 8111SOL    HW135966   0.169   1.735   6.065  0.3383  0.3917  0.0359
 8111SOL    HW235967   0.069   1.846   6.049  0.5804  0.4722 -1.1080
 8112SOL     OW35968   2.399   2.265   1.800  0.3031 -0.6308 -0.2901
 8112SOL    HW135969   2.393   2.326   1.874  0.7574 -1.4705  0.4415
 8112SOL    HW235970   2.450   2.197   1.844 -1.5179 -1.4045  0.6382
 8113SOL     OW35971   2.672   0.720  16.348  0.2437 -0.2838  0.1991
 8113SOL    HW135972   2.665   0.634  16.389 -1.2058  0.1931  0.9352
 8113SOL    HW235973   2.723   0.694  16.271  0.8285  0.4509  0.3387
 8114SOL     OW35974   0.960   0.554   3.688 -0.1979 -0.0620  0.1322
 8114SOL    HW135975   0.918   0.618   3.630  0.2567  0.1637  0.0552
 8114SOL    HW235976   0.919   0.477   3.649 -0.5016  0.6960 -1.0564
 8115SOL     OW35977   3.709   2.390  14.550 -0.3423 -0.0905 -0.5592
 8115SOL    HW135978   3.716   2.459  14.615  2.0055 -1.1325  0.2758
 8115SOL    HW235979   3.680   2.436  14.471 -1.3452 -1.7018 -1.1495
 8116SOL     OW35980   4.694   0.139   1.046  0.1090 -0.2460 -0.3462
 8116SOL    HW135981   0.019   0.067   1.028  1.5695  0.3879  1.9729
 8116SOL    HW235982   4.616   0.096   1.012 -1.1768  1.8382 -0.0320
 8117SOL     OW35983   2.532   1.703  13.371 -0.1820 -0.4647 -0.3395
 8117SOL    HW135984   2.608   1.646  13.369 -0.3593 -0.7650  1.4784
 8117SOL    HW235985   2.459   1.642  13.361 -2.1302  2.2589 -2.7234
 8118SOL     OW35986   2.163   3.474   4.904 -0.1360 -0.2658 -0.4821
 8118SOL    HW135987   2.237   3.534   4.905 -0.8771  0.6205  0.8546
 8118SOL    HW235988   2.126   3.487   4.992  3.1219 -2.3103  1.2109
 8119SOL     OW35989   2.966   2.032   4.669 -0.1307  0.8974 -0.0203
 8119SOL    HW135990   2.992   2.036   4.761 -0.1701 -0.0973  0.0351
 8119SOL    HW235991   3.047   2.008   4.625  0.0550  0.8890  0.3264
 8120SOL     OW35992   3.724   4.064   7.832 -0.0460 -0.3633 -0.0529
 8120SOL    HW135993   3.713   3.975   7.799  0.2249  0.1277 -1.4895
 8120SOL    HW235994   3.725   4.108   7.747  0.6543  3.6864  2.0540
 8121SOL     OW35995   2.389   2.012   7.336 -0.0182  0.2470 -0.1397
 8121SOL    HW135996   2.293   2.011   7.334  0.0153  1.8300 -2.2749
 8121SOL    HW235997   2.410   2.008   7.243 -2.3986 -1.1502 -0.6153
 8122SOL     OW35998   2.540   0.634   0.819  0.1161 -0.1400 -0.7135
 8122SOL    HW135999   2.565   0.583   0.896  1.0646  1.3375 -0.0335
 8122SOL    HW236000   2.617   0.690   0.813 -0.8582  1.1543 -1.2392
 8123SOL     OW36001   0.343   1.189  10.282 -0.2634  0.4731 -0.2798
 8123SOL    HW136002   0.350   1.110  10.335 -0.7752  1.0941  0.7160
 8123SOL    HW236003   0.273   1.231  10.331 -1.4563 -0.1222 -1.4824
 8124SOL     OW36004   3.829   1.326   9.801  0.1368 -0.0230 -0.1076
 8124SOL    HW136005   3.814   1.265   9.872 -0.9050 -0.8028 -0.9957
 8124SOL    HW236006   3.908   1.279   9.776  0.4547  0.5814 -0.2406
 8125SOL     OW36007   0.475   3.409  13.162 -0.0852  0.1773 -0.1202
 8125SOL    HW136008   0.553   3.411  13.217 -0.3026 -4.6671  0.3519
 8125SOL    HW236009   0.428   3.333  13.195 -2.5893  2.2288  1.0344
 8126SOL     OW36010   2.548   2.583  16.046  0.3785 -0.4184  0.2089
 8126SOL    HW136011   2.624   2.618  16.000 -0.3282  1.1607  0.2519
 8126SOL    HW236012   2.520   2.663  16.091  0.2791 -0.6470  0.5563
 8127SOL     OW36013   3.767   1.883   3.036  0.0592  1.0150  0.1599
 8127SOL    HW136014   3.770   1.907   3.129  0.3686 -0.7041  0.5984
 8127SOL    HW236015   3.858   1.855   3.025 -0.3140  1.2204 -3.2959
 8128SOL     OW36016   2.995   4.179   6.228 -0.2448 -0.4338 -0.3170
 8128SOL    HW136017   3.048   4.217   6.158 -0.3028  0.8227  0.3302
 8128SOL    HW236018   3.061   4.117   6.258  1.3795 -0.2686 -3.5079
 8129SOL     OW36019   1.784   2.350   3.868  0.2123  0.1643  0.1392
 8129SOL    HW136020   1.854   2.415   3.880 -0.0362  0.1612  1.5862
 8129SOL    HW236021   1.780   2.359   3.772  0.3403 -0.2621  0.0961
 8130SOL     OW36022   4.666   1.117  13.927 -0.2985 -0.0591 -0.0021
 8130SOL    HW136023   0.025   1.114  13.941  0.0078  1.5879 -1.6933
 8130SOL    HW236024   4.649   1.209  13.948  0.9726 -0.3345  2.1903
 8131SOL     OW36025   3.678   3.769   6.269  0.0477  0.1118 -0.1336
 8131SOL    HW136026   3.724   3.690   6.296 -0.0326  0.3052  0.5804
 8131SOL    HW236027   3.587   3.743   6.285  0.8726 -1.8694  1.2787
 8132SOL     OW36028   4.217   0.961  11.060 -0.1740  0.1813  0.0855
 8132SOL    HW136029   4.141   0.987  11.007 -0.3021 -0.1966  0.0821
 8132SOL    HW236030   4.167   0.931  11.136 -0.9308  1.7954  0.2479
 8133SOL     OW36031   4.172   1.248   4.957  0.4599  0.3614 -0.0324
 8133SOL    HW136032   4.205   1.255   5.046 -0.6115 -1.3877  0.5014
 8133SOL    HW236033   4.149   1.338   4.935 -1.7173 -0.3248 -0.6000
 8134SOL     OW36034   1.442   4.627  16.304 -0.2825  0.3675  0.2855
 8134SOL    HW136035   1.401   4.649  16.388 -2.0432 -2.7724  0.2561
 8134SOL    HW236036   1.471   4.536  16.310  2.6499  1.1449 -2.2423
 8135SOL     OW36037   3.787   1.804   4.863  0.1672  0.0176  0.2440
 8135SOL    HW136038   3.753   1.814   4.774  0.4773  1.2071  0.2704
 8135SOL    HW236039   3.706   1.785   4.911 -0.1401 -0.6703 -0.5362
 8136SOL     OW36040   0.285   0.860   8.306 -0.1293 -0.3525  0.1833
 8136SOL    HW136041   0.275   0.943   8.259 -0.5005 -0.9583 -0.8073
 8136SOL    HW236042   0.376   0.866   8.337 -0.3732 -0.5240  0.9190
 8137SOL     OW36043   3.079   0.607   3.718 -0.4658  0.2117  0.1353
 8137SOL    HW136044   3.011   0.638   3.658 -1.6185 -1.5822  0.5171
 8137SOL    HW236045   3.044   0.557   3.792  1.5502  0.5208  1.3052
 8138SOL     OW36046   1.954   3.019   2.561 -0.0549 -0.2409  0.2081
 8138SOL    HW136047   1.982   2.952   2.623  0.5872  1.1729  1.4607
 8138SOL    HW236048   1.964   3.096   2.617  1.7601  0.1447 -0.6490
 8139SOL     OW36049   3.154   1.637   7.347 -0.2437  0.0944  0.1837
 8139SOL    HW136050   3.177   1.586   7.269  3.1620  0.5491  0.8934
 8139SOL    HW236051   3.061   1.647   7.329 -0.2220  0.8322  0.5221
 8140SOL     OW36052   4.710   1.079  17.619  0.0141 -0.0218  0.2715
 8140SOL    HW136053   4.720   1.166  17.580 -1.6049 -0.1165 -0.3613
 8140SOL    HW236054   4.673   1.018  17.555  0.3450 -0.3588  0.3969
 8141SOL     OW36055   2.659   4.587   2.164  0.1437 -0.8283 -0.6063
 8141SOL    HW136056   2.599   4.546   2.102  1.0410 -2.6284 -0.2794
 8141SOL    HW236057   2.712   4.511   2.185 -0.4647 -0.9304  0.6127
 8142SOL     OW36058   2.804   4.492   9.392  0.0863  0.1898 -0.0150
 8142SOL    HW136059   2.798   4.397   9.382  0.8438 -0.0811  2.1737
 8142SOL    HW236060   2.759   4.508   9.475 -0.3655 -1.0988 -0.0143
 8143SOL     OW36061   0.200   3.848   6.974  0.5030  0.1042  0.2604
 8143SOL    HW136062   0.279   3.882   7.017 -0.3167  2.5712 -0.2015
 8143SOL    HW236063   0.241   3.769   6.937 -1.0878 -0.9219  0.7024
 8144SOL     OW36064   4.352   4.593   3.329 -0.1680 -0.2939 -0.3975
 8144SOL    HW136065   4.331   4.509   3.370  0.5086  0.3307  1.2128
 8144SOL    HW236066   4.407   4.630   3.397 -0.0675  0.3980 -0.8506
 8145SOL     OW36067   0.746   3.242   2.818 -0.2356 -0.6218  0.5734
 8145SOL    HW136068   0.705   3.301   2.755  1.4362  0.0724  0.1261
 8145SOL    HW236069   0.832   3.225   2.778 -0.5156 -2.0518  0.5632
 8146SOL     OW36070   4.327   0.658   2.993  0.2094 -0.3774  0.1000
 8146SOL    HW136071   4.408   0.667   3.044  0.4262 -0.6682 -0.1895
 8146SOL    HW236072   4.349   0.699   2.910  0.3081 -0.6505 -0.0099
 8147SOL     OW36073   2.922   1.714   7.191 -0.4155  0.2074  0.0389
 8147SOL    HW136074   2.989   1.772   7.227 -1.3817  0.3579  1.5804
 8147SOL    HW236075   2.876   1.778   7.136  1.7212  1.4238 -0.3428
 8148SOL     OW36076   3.570   2.586   1.493 -0.0043 -0.2545 -0.0961
 8148SOL    HW136077   3.636   2.572   1.560 -0.0597 -1.1043 -0.2227
 8148SOL    HW236078   3.536   2.667   1.532  1.7140  0.2854  0.2451
 8149SOL     OW36079   3.651   1.836  12.352 -0.5450 -0.0673  0.3277
 8149SOL    HW136080   3.611   1.861  12.435 -0.2040  2.0205 -0.1422
 8149SOL    HW236081   3.742   1.822  12.377 -0.0671  1.0737 -0.8057
 8150SOL     OW36082   0.936   2.651   7.409  0.1605 -0.1488  0.1568
 8150SOL    HW136083   1.018   2.603   7.401  0.9746  1.6009 -1.9687
 8150SOL    HW236084   0.942   2.729   7.353 -0.2503  0.9879  1.6963
 8151SOL     OW36085   1.517   3.162   2.380  0.0235  0.2411  0.0115
 8151SOL    HW136086   1.577   3.232   2.407 -1.0426  1.1250  0.0997
 8151SOL    HW236087   1.559   3.129   2.301  2.2009  1.7200  0.5320
 8152SOL     OW36088   0.957   4.475   4.890 -0.6159 -0.4493  0.3778
 8152SOL    HW136089   0.865   4.457   4.910 -1.2543 -1.4706 -3.6117
 8152SOL    HW236090   0.961   4.471   4.795  0.2550 -2.9504  0.5180
 8153SOL     OW36091   3.477   2.595   6.179 -0.7153 -0.0879  0.7593
 8153SOL    HW136092   3.540   2.638   6.237  0.0328 -0.3089  0.1150
 8153SOL    HW236093   3.532   2.590   6.101 -1.6724  2.9326 -0.1199
 8154SOL     OW36094   1.231   2.223   8.943  0.3612  0.1341  0.1472
 8154SOL    HW136095   1.255   2.290   9.007 -1.4607  0.1900  0.7674
 8154SOL    HW236096   1.252   2.263   8.859 -2.9254  0.8634 -0.3415
 8155SOL     OW36097   1.006   1.858   7.296 -0.4315  0.2033 -0.1725
 8155SOL    HW136098   1.012   1.936   7.240  0.0279 -0.1990 -0.6803
 8155SOL    HW236099   1.069   1.796   7.261  1.2241  2.8146 -1.8007
 8156SOL     OW36100   4.421   1.786   6.235  0.0275 -0.3826  0.1761
 8156SOL    HW136101   4.390   1.710   6.284 -0.3305 -0.7105 -0.5581
 8156SOL    HW236102   4.391   1.869   6.272 -1.4345 -1.1170  0.6153
 8157SOL     OW36103   2.085   1.543   6.083  0.1482  0.4406  0.5059
 8157SOL    HW136104   2.176   1.571   6.072  0.1257  0.0230 -0.7747
 8157SOL    HW236105   2.044   1.622   6.051 -2.1892 -0.0673  2.2389
 8158SOL     OW36106   3.531   1.008  16.399  0.6268  0.1912  1.0139
 8158SOL    HW136107   3.584   0.965  16.466 -0.4215 -1.4267  0.8009
 8158SOL    HW236108   3.470   0.939  16.374  1.1342 -0.3023  1.1362
 8159SOL     OW36109   2.673   3.845   8.191 -0.1933  0.0087  0.1987
 8159SOL    HW136110   2.656   3.828   8.098  0.6097 -0.5998  0.1598
 8159SOL    HW236111   2.654   3.761   8.234 -0.2891  0.9314  1.9301
 8160SOL     OW36112   0.151   0.640   4.712 -0.0832 -0.0912  0.6017
 8160SOL    HW136113   0.119   0.598   4.791  0.4174  1.0732  1.4307
 8160SOL    HW236114   0.119   0.581   4.644  1.0134  0.9141 -0.7989
 8161SOL     OW36115   1.552   1.296   0.489 -0.1025  0.0629 -0.1028
 8161SOL    HW136116   1.647   1.300   0.473 -0.1629 -0.7480 -0.6419
 8161SOL    HW236117   1.523   1.206   0.473  0.6822 -0.5025  1.6109
 8162SOL     OW36118   0.565   4.275   7.233  0.1680  0.3902  0.0386
 8162SOL    HW136119   0.653   4.301   7.260 -0.4808  1.3026  1.2719
 8162SOL    HW236120   0.521   4.341   7.286  0.2090 -0.2081  0.8143
 8163SOL     OW36121   1.706   1.022   7.236 -0.0660 -0.1901 -0.8355
 8163SOL    HW136122   1.797   1.009   7.207 -0.1220 -0.1251 -1.0425
 8163SOL    HW236123   1.695   1.107   7.192  1.4391 -0.3469 -1.5293
 8164SOL     OW36124   4.126   4.211   5.860  0.3239  0.0143  0.6939
 8164SOL    HW136125   4.063   4.153   5.818 -0.9181  0.8666  1.3716
 8164SOL    HW236126   4.076   4.293   5.852 -0.5788 -0.3518  2.7235
 8165SOL     OW36127   4.245   0.262  10.666  0.6280 -0.0205  0.4041
 8165SOL    HW136128   4.213   0.174  10.682  0.0768  0.2799  0.9609
 8165SOL    HW236129   4.285   0.254  10.579  0.0175 -3.0917  0.4235
 8166SOL     OW36130   0.052   2.874   8.895 -0.0614  0.2416 -0.2211
 8166SOL    HW136131   0.099   2.953   8.868  0.9123 -0.3534 -0.2613
 8166SOL    HW236132   0.002   2.914   8.966 -0.3873  2.0055 -1.4481
 8167SOL     OW36133   3.263   3.331   3.131  0.4471  0.0452 -0.5260
 8167SOL    HW136134   3.271   3.267   3.061  4.0607  0.3828 -0.4462
 8167SOL    HW236135   3.352   3.365   3.141  0.9947 -1.6938  0.3701
 8168SOL     OW36136   0.344   0.866  13.509  0.4614  0.3171 -0.0727
 8168SOL    HW136137   0.417   0.806  13.528  0.3943 -0.5202 -2.3609
 8168SOL    HW236138   0.390   0.945  13.480  3.9373 -1.6275  0.1423
 8169SOL     OW36139   4.126   4.557   7.389 -0.0762  0.1194  0.3215
 8169SOL    HW136140   4.051   4.517   7.432 -1.1426  1.5264 -0.2383
 8169SOL    HW236141   4.194   4.514   7.442 -2.4972 -3.4291  0.5495
 8170SOL     OW36142   3.604   1.125   5.675  0.2358 -0.0017  0.1169
 8170SOL    HW136143   3.573   1.200   5.726 -0.1797 -0.2260  0.1952
 8170SOL    HW236144   3.697   1.129   5.699  0.3267  2.7135 -0.6432
 8171SOL     OW36145   0.811   4.322   5.346  0.0539  0.5364 -0.4105
 8171SOL    HW136146   0.739   4.321   5.410  0.9608 -0.2922  0.6038
 8171SOL    HW236147   0.770   4.345   5.263 -1.4509 -1.3724 -0.1894
 8172SOL     OW36148   2.092   1.398   3.149 -0.2981 -0.1590 -0.1078
 8172SOL    HW136149   2.108   1.312   3.111  0.0143 -0.1461 -0.0017
 8172SOL    HW236150   2.177   1.437   3.129 -1.8429  2.6603 -1.1476
 8173SOL     OW36151   1.421   3.993   6.263 -0.0773  0.1665 -0.3590
 8173SOL    HW136152   1.354   4.012   6.196  0.0103 -1.6309 -0.9690
 8173SOL    HW236153   1.424   4.075   6.311  1.9905  1.2692 -2.3814
 8174SOL     OW36154   2.253   4.408  11.871 -0.3916 -0.0591  0.1391
 8174SOL    HW136155   2.185   4.472  11.848  0.1646  0.0559 -1.1448
 8174SOL    HW236156   2.218   4.332  11.826 -0.7616  0.0975  0.1607
 8175SOL     OW36157   0.391   0.339  15.471  0.0940  0.5249 -0.3952
 8175SOL    HW136158   0.375   0.414  15.415 -0.5504 -0.5166 -1.6153
 8175SOL    HW236159   0.337   0.264  15.446  1.8127 -0.3391 -1.5579
 8176SOL     OW36160   2.259   4.272   4.751 -0.3169  0.9851 -0.1492
 8176SOL    HW136161   2.269   4.276   4.656  1.2552  1.3421  0.0240
 8176SOL    HW236162   2.344   4.230   4.764 -1.3979 -0.8896  1.0072
 8177SOL     OW36163   2.936   3.873   4.054  0.3038 -0.3005 -0.1394
 8177SOL    HW136164   2.872   3.811   4.021 -0.4079  0.5870 -0.4378
 8177SOL    HW236165   2.912   3.953   4.007  0.8253 -0.3153 -0.4290
 8178SOL     OW36166   3.832   0.261   1.892  0.1344 -1.0323 -0.3096
 8178SOL    HW136167   3.744   0.224   1.899 -0.9470  1.2601 -1.7249
 8178SOL    HW236168   3.824   0.309   1.810 -0.3452 -1.6056 -0.5902
 8179SOL     OW36169   0.567   1.725   6.440 -0.0285 -0.3147 -0.1716
 8179SOL    HW136170   0.489   1.775   6.417 -1.8990 -2.4337  1.7066
 8179SOL    HW236171   0.597   1.691   6.355 -3.2453  0.1569 -1.4770
 8180SOL     OW36172   1.814   2.888  14.051 -0.1632 -0.2086 -0.5288
 8180SOL    HW136173   1.759   2.928  13.983  1.3866  1.5589 -0.7460
 8180SOL    HW236174   1.843   2.965  14.101  0.3390 -0.7361 -0.0108
 8181SOL     OW36175   2.971   1.394   7.427  0.4757  0.2259 -0.4465
 8181SOL    HW136176   2.956   1.306   7.393 -1.1297 -0.0508  0.9318
 8181SOL    HW236177   3.043   1.370   7.485 -0.8176 -1.1897  0.6021
 8182SOL     OW36178   4.583   1.773  11.168  0.1141 -0.2409 -0.2462
 8182SOL    HW136179   4.505   1.722  11.187  2.3622 -3.4049  0.3846
 8182SOL    HW236180   4.580   1.821  11.251  0.3912 -0.7215  0.0389
 8183SOL     OW36181   2.829   2.693   3.633  0.4717 -0.1350  0.0498
 8183SOL    HW136182   2.798   2.758   3.696 -0.0696 -0.3750  0.0317
 8183SOL    HW236183   2.921   2.721   3.637  0.7185 -1.0125  0.5749
 8184SOL     OW36184   4.181   4.080   3.253 -0.2832  0.1852 -0.0432
 8184SOL    HW136185   4.199   4.076   3.159 -2.2558 -1.3639 -0.3348
 8184SOL    HW236186   4.124   4.156   3.260 -1.5411 -0.8039  0.3084
 8185SOL     OW36187   1.817   0.288  14.874 -0.7736 -0.2861 -0.8195
 8185SOL    HW136188   1.820   0.252  14.963 -1.8874  0.0239 -0.6598
 8185SOL    HW236189   1.829   0.208  14.823  1.7699  1.2836 -2.6462
 8186SOL     OW36190   3.339   2.074   5.605 -0.4506  0.2169  0.7114
 8186SOL    HW136191   3.281   2.141   5.569 -1.0593 -1.4144 -1.3157
 8186SOL    HW236192   3.340   2.026   5.522 -3.5697 -1.1445  1.4581
 8187SOL     OW36193   4.522   2.047   3.739  0.2232  0.0012 -0.3809
 8187SOL    HW136194   4.488   2.116   3.682 -1.8122 -2.1652 -1.7993
 8187SOL    HW236195   4.445   2.022   3.790  0.0362  1.7793  0.1903
 8188SOL     OW36196   1.357   0.370   1.743  0.3313  0.3590 -0.0383
 8188SOL    HW136197   1.409   0.341   1.819 -0.0270 -0.8486 -0.2582
 8188SOL    HW236198   1.297   0.299   1.720  0.6501  0.0236  0.1703
 8189SOL     OW36199   0.418   1.131   8.080 -0.1780 -0.1119 -0.0663
 8189SOL    HW136200   0.508   1.151   8.107  0.5064 -0.2637 -2.2133
 8189SOL    HW236201   0.365   1.207   8.104 -1.8350 -2.0296  2.3187
 8190SOL     OW36202   4.047   4.302  14.412  0.2307  0.1445 -0.0242
 8190SOL    HW136203   3.974   4.248  14.381 -1.2322  2.4949 -0.6690
 8190SOL    HW236204   4.027   4.374  14.352  1.4414 -0.2658 -0.9345
 8191SOL     OW36205   2.615   0.466   1.053  0.3776 -0.1901 -0.3193
 8191SOL    HW136206   2.614   0.480   1.148  1.1376 -1.5888 -0.1011
 8191SOL    HW236207   2.631   0.373   1.037 -0.1534 -0.1210 -1.2514
 8192SOL     OW36208   3.260   1.272  11.222 -0.2965 -0.4809  0.5568
 8192SOL    HW136209   3.233   1.301  11.135 -1.9669 -1.9025  0.5933
 8192SOL    HW236210   3.321   1.200  11.204 -1.4514 -1.7429  1.6689
 8193SOL     OW36211   3.614   4.671  16.657  0.4354 -0.5011  0.0026
 8193SOL    HW136212   3.586   0.026  16.670  2.4122 -0.1498  1.8621
 8193SOL    HW236213   3.686   4.664  16.719 -1.9289  0.8521  2.8986
 8194SOL     OW36214   3.130   1.586   0.508 -0.2374 -0.4733 -0.1600
 8194SOL    HW136215   3.163   1.676   0.501  1.2873 -1.1469 -1.7960
 8194SOL    HW236216   3.180   1.535   0.444 -0.7157 -1.4021  0.2120
 8195SOL     OW36217   1.056   0.436   2.947  0.6233  0.3235 -0.5082
 8195SOL    HW136218   0.966   0.418   2.975  0.8357  0.0655  0.0149
 8195SOL    HW236219   1.073   0.514   3.000 -2.2227  0.5597  0.0637
 8196SOL     OW36220   1.769   1.686   6.448 -0.7426  0.2942  0.0455
 8196SOL    HW136221   1.758   1.729   6.363 -1.5748 -1.3989 -0.7162
 8196SOL    HW236222   1.677   1.661   6.447 -0.6933  0.1635 -2.1314
 8197SOL     OW36223   0.282   3.636   9.994  0.4584  0.1412 -0.8472
 8197SOL    HW136224   0.321   3.676  10.072  1.5622 -2.4598 -0.0628
 8197SOL    HW236225   0.246   3.715   9.953  2.0236  0.7149 -1.1172
 8198SOL     OW36226   0.404   1.931   6.759 -0.8143  0.1584  0.9776
 8198SOL    HW136227   0.342   1.942   6.687  1.9338  0.1925 -1.4162
 8198SOL    HW236228   0.412   2.025   6.779  0.1859  0.0640  1.0571
 8199SOL     OW36229   3.431   0.735   1.836  0.1031  0.0533  0.0691
 8199SOL    HW136230   3.420   0.674   1.764 -0.0796 -1.0104  1.0042
 8199SOL    HW236231   3.492   0.802   1.807 -1.4251  1.4110 -0.0469
 8200SOL     OW36232   0.061   2.172   7.561  0.2366 -0.3722  0.1746
 8200SOL    HW136233   0.065   2.079   7.585  1.3983  0.1179  1.9082
 8200SOL    HW236234   0.065   2.215   7.646 -0.6918  0.1450 -0.0400
 8201SOL     OW36235   2.336   3.022   1.176 -0.2687 -0.0477 -0.0645
 8201SOL    HW136236   2.278   3.071   1.235  2.1974 -0.3187  2.5840
 8201SOL    HW236237   2.292   2.938   1.188 -1.0826  0.5975  1.5127
 8202SOL     OW36238   1.625   2.462  16.400 -0.5909  0.0354 -0.1746
 8202SOL    HW136239   1.663   2.453  16.312  0.8787  1.9069  0.2505
 8202SOL    HW236240   1.555   2.399  16.391 -0.4445 -0.3093  1.2010
 8203SOL     OW36241   2.267   3.772  12.381  0.4732 -0.3918  0.6995
 8203SOL    HW136242   2.251   3.734  12.467  0.3851 -0.6880  0.5515
 8203SOL    HW236243   2.337   3.837  12.394 -0.7045  0.9403  0.3890
 8204SOL     OW36244   2.281   3.989   7.391 -0.0287 -0.2595 -1.0581
 8204SOL    HW136245   2.213   3.969   7.327  0.6574 -1.7622 -1.3154
 8204SOL    HW236246   2.338   3.913   7.380  1.2332  0.9166 -2.6233
 8205SOL     OW36247   4.272   0.215   9.921 -0.2508 -0.6487 -0.2131
 8205SOL    HW136248   4.278   0.261   9.838 -0.0996  0.2138  0.2748
 8205SOL    HW236249   4.294   0.125   9.895 -0.9186 -0.6426 -0.7935
 8206SOL     OW36250   4.544   0.432   5.609 -0.1310 -0.2332 -0.6334
 8206SOL    HW136251   4.459   0.477   5.608  0.1443  0.3154  0.7835
 8206SOL    HW236252   4.543   0.375   5.532 -1.3323 -1.3687  0.2145
 8207SOL     OW36253   1.619   2.869  11.413 -0.0428 -0.2745  0.5515
 8207SOL    HW136254   1.664   2.920  11.346  1.6345 -1.3787  0.8466
 8207SOL    HW236255   1.558   2.932  11.451  0.1542 -0.3876  1.0523
 8208SOL     OW36256   3.913   2.506  13.604  0.3605  0.0081 -0.5408
 8208SOL    HW136257   3.844   2.534  13.544 -0.6660  1.0928  1.1594
 8208SOL    HW236258   3.961   2.446  13.547  0.8316  1.8776 -2.1365
 8209SOL     OW36259   1.408   0.038   6.671  0.0233  0.2327  0.5743
 8209SOL    HW136260   1.377   4.715   6.602 -0.9545  0.5838  0.7279
 8209SOL    HW236261   1.380   4.726   6.749  0.7035  0.6868  1.0965
 8210SOL     OW36262   3.867   1.208   5.373 -0.8529  0.0722 -0.1410
 8210SOL    HW136263   3.784   1.244   5.404 -0.7437  0.1171  0.1051
 8210SOL    HW236264   3.897   1.283   5.322  1.2544 -1.0492 -0.5209
 8211SOL     OW36265   4.153   1.004   8.137  0.3809 -0.0310  0.0476
 8211SOL    HW136266   4.147   1.014   8.042  0.3180 -0.7541 -0.0251
 8211SOL    HW236267   4.140   1.093   8.169  1.5300  0.3364 -0.4701
 8212SOL     OW36268   1.320   0.619   4.511 -0.2765  0.2057 -0.0853
 8212SOL    HW136269   1.411   0.648   4.499 -0.5168  1.4560  1.1311
 8212SOL    HW236270   1.292   0.615   4.420 -0.4727  0.6635 -0.0458
 8213SOL     OW36271   4.327   4.238   9.317  0.1041 -0.7866  0.0000
 8213SOL    HW136272   4.325   4.167   9.380 -1.8917 -0.0834  0.7289
 8213SOL    HW236273   4.276   4.305   9.362 -0.9055 -1.2919 -0.4049
 8214SOL     OW36274   2.786   3.712  15.840  0.0764 -0.0726 -1.2888
 8214SOL    HW136275   2.722   3.782  15.830  0.8797  0.7005 -1.0478
 8214SOL    HW236276   2.739   3.654  15.901  0.2886  0.1818 -0.8851
 8215SOL     OW36277   0.904   4.194   7.548  1.3065  0.2610 -0.4081
 8215SOL    HW136278   0.974   4.142   7.509  1.5768  0.0430  0.3650
 8215SOL    HW236279   0.950   4.221   7.627  2.9838  0.5791 -1.4880
 8216SOL     OW36280   2.310   0.709   3.463 -0.0332  0.4841 -0.2573
 8216SOL    HW136281   2.378   0.682   3.402 -0.4825 -1.0511 -0.0811
 8216SOL    HW236282   2.283   0.794   3.429  2.0796  1.7215  1.1738
 8217SOL     OW36283   2.790   1.201   3.517 -0.4473  0.3658 -0.4149
 8217SOL    HW136284   2.768   1.247   3.598  1.0699  0.1191  0.1378
 8217SOL    HW236285   2.751   1.116   3.538  0.2476  0.5242  1.5315
 8218SOL     OW36286   2.218   4.307   8.844  0.6094  0.4654 -0.2448
 8218SOL    HW136287   2.283   4.265   8.787  0.6096  0.8109 -0.5046
 8218SOL    HW236288   2.142   4.281   8.792 -1.4297  2.7622  1.6318
 8219SOL     OW36289   0.439   3.834   4.328 -0.3840  0.3494  0.2147
 8219SOL    HW136290   0.373   3.883   4.377 -2.6987 -2.6768  0.0807
 8219SOL    HW236291   0.427   3.892   4.252 -1.2037 -1.4795 -1.0315
 8220SOL     OW36292   4.699   0.845  11.963 -0.0345 -0.2372 -0.0954
 8220SOL    HW136293   4.611   0.880  11.977  0.5646  1.0968  0.3567
 8220SOL    HW236294   4.682   0.752  11.979 -1.4671 -0.5282 -3.3071
 8221SOL     OW36295   3.944   3.606  10.816  0.2007  0.5007 -0.2042
 8221SOL    HW136296   3.858   3.647  10.810  0.0932  0.4777  1.1716
 8221SOL    HW236297   3.918   3.514  10.808  1.6785  0.2796 -2.4383
 8222SOL     OW36298   2.615   2.547   6.740 -0.2935 -0.0354  0.1681
 8222SOL    HW136299   2.686   2.527   6.678 -1.3268  3.6314 -2.2067
 8222SOL    HW236300   2.608   2.465   6.788  1.2228 -0.3454 -0.1171
 8223SOL     OW36301   0.880   0.934   4.599  0.7584 -0.3806  0.1826
 8223SOL    HW136302   0.964   0.899   4.570  1.3608  1.8789 -0.7785
 8223SOL    HW236303   0.827   0.856   4.585 -0.4472  0.1570  1.7470
 8224SOL     OW36304   0.574   2.645   6.140  0.2588 -0.6536  0.1815
 8224SOL    HW136305   0.480   2.650   6.121  0.0742 -0.0784  1.2180
 8224SOL    HW236306   0.611   2.719   6.093  2.2482 -0.6389  1.7836
 8225SOL     OW36307   3.535   0.782   8.603  0.3223  0.5609  0.2644
 8225SOL    HW136308   3.556   0.706   8.550  3.6022  0.6479  1.4282
 8225SOL    HW236309   3.611   0.837   8.586 -0.3618  1.7454  1.0103
 8226SOL     OW36310   0.735   4.210   1.725 -0.0856 -0.2408 -0.1335
 8226SOL    HW136311   0.794   4.277   1.691 -1.2174  2.3194  2.9943
 8226SOL    HW236312   0.649   4.253   1.724 -0.5885 -1.2533  0.2498
 8227SOL     OW36313   3.917   3.608   3.285  0.2854 -0.6029 -0.3086
 8227SOL    HW136314   3.911   3.595   3.380 -3.0886  2.4153 -0.0757
 8227SOL    HW236315   3.878   3.695   3.271  0.2676 -0.5581  0.0264
 8228SOL     OW36316   3.839   3.514   4.734  0.0472 -0.2615  0.2737
 8228SOL    HW136317   3.779   3.478   4.799 -0.5203 -1.2696 -0.8209
 8228SOL    HW236318   3.786   3.591   4.714 -2.0056 -2.2509 -1.9344
 8229SOL     OW36319   2.472   2.653   3.900 -0.2930  0.1916 -0.0728
 8229SOL    HW136320   2.390   2.603   3.898 -0.8586  1.0823  0.7082
 8229SOL    HW236321   2.544   2.593   3.882  1.1200  2.5029 -2.0884
 8230SOL     OW36322   1.456   0.920   1.621  0.0660 -0.2451  0.0023
 8230SOL    HW136323   1.362   0.919   1.640  0.1475  3.2345  0.5434
 8230SOL    HW236324   1.471   1.014   1.632 -1.1583  0.0521 -0.8845
 8231SOL     OW36325   4.596   4.411   9.127  0.5359  0.0196  0.1535
 8231SOL    HW136326   4.501   4.395   9.126  0.1266  2.2997  1.5483
 8231SOL    HW236327   4.599   4.455   9.212  2.3460  0.1338  0.0151
 8232SOL     OW36328   2.825   4.064  17.330 -0.2410 -0.1410 -0.6060
 8232SOL    HW136329   2.804   3.985  17.280 -1.5909 -0.5655  0.6573
 8232SOL    HW236330   2.739   4.103  17.338 -1.0049 -1.8864 -0.2350
 8233SOL     OW36331   4.406   3.260   2.597  0.2631 -0.2026  0.1832
 8233SOL    HW136332   4.468   3.195   2.631  0.0680 -0.5163 -0.0560
 8233SOL    HW236333   4.328   3.210   2.574  1.2929 -2.1332  0.8622
 8234SOL     OW36334   3.235   4.453   7.671 -0.1238 -0.2516  0.9196
 8234SOL    HW136335   3.192   4.369   7.690 -0.0986 -1.0566 -2.5385
 8234SOL    HW236336   3.194   4.466   7.586 -0.3994 -0.9783  0.9372
 8235SOL     OW36337   0.902   2.398   7.728  0.5210 -0.7488 -0.1371
 8235SOL    HW136338   0.839   2.361   7.790  0.3346 -1.1547 -0.5669
 8235SOL    HW236339   0.968   2.329   7.722 -0.6661 -1.8046 -1.0606
 8236SOL     OW36340   1.472   4.606   9.886 -0.1938 -0.0964  0.3000
 8236SOL    HW136341   1.401   4.564   9.837 -2.2563  0.7914  2.4934
 8236SOL    HW236342   1.488   4.686   9.836  0.1577 -0.7683 -0.6690
 8237SOL     OW36343   3.016   1.919   0.825 -0.0151 -0.0737  0.6614
 8237SOL    HW136344   2.970   2.002   0.830  1.3523  0.6291  1.6205
 8237SOL    HW236345   2.983   1.877   0.904 -1.5048 -1.0263 -0.4575
 8238SOL     OW36346   1.552   0.900  15.025 -0.7032 -0.2416  0.0961
 8238SOL    HW136347   1.633   0.910  14.976 -1.6909 -0.2743 -1.5369
 8238SOL    HW236348   1.527   0.810  15.003 -0.2626 -0.4963  0.6288
 8239SOL     OW36349   2.299   3.371   7.890  0.3461  0.0662 -0.1635
 8239SOL    HW136350   2.251   3.355   7.971  0.4696  0.1883 -0.0645
 8239SOL    HW236351   2.303   3.285   7.848  0.4650 -0.8191  1.6496
 8240SOL     OW36352   1.755   1.741   7.749  0.6860 -0.3910 -0.0064
 8240SOL    HW136353   1.776   1.672   7.686  1.2108  1.3348 -1.7435
 8240SOL    HW236354   1.809   1.711   7.822  0.7242  0.4623  0.3168
 8241SOL     OW36355   1.781   1.310  10.467  0.4466 -0.3429  0.0836
 8241SOL    HW136356   1.790   1.215  10.459  2.0898  0.0122 -2.2643
 8241SOL    HW236357   1.781   1.305  10.563  2.7963  2.9484  0.2755
 8242SOL     OW36358   3.768   2.979   7.847 -0.0286  0.2004 -0.3661
 8242SOL    HW136359   3.685   2.934   7.862  0.8515 -1.3826 -0.2276
 8242SOL    HW236360   3.743   3.069   7.824  0.5530  0.4013 -0.2318
 8243SOL     OW36361   1.402   0.765   3.489 -0.0417 -0.2073  0.0013
 8243SOL    HW136362   1.429   0.677   3.462 -0.4035 -0.9595  2.0278
 8243SOL    HW236363   1.317   0.774   3.446 -0.5538  1.4623  1.3637
 8244SOL     OW36364   0.709   0.516   1.016 -0.4085  0.4364  0.4844
 8244SOL    HW136365   0.735   0.600   0.980 -0.3389  1.0554  1.9903
 8244SOL    HW236366   0.769   0.454   0.974  0.6232  1.5241  0.3711
 8245SOL     OW36367   0.507   0.107   7.878 -0.0692  0.0879  0.0086
 8245SOL    HW136368   0.533   0.083   7.967  1.8729 -0.4852 -0.6976
 8245SOL    HW236369   0.558   0.185   7.856 -0.7469 -0.0315 -1.9254
 8246SOL     OW36370   0.065   4.697   5.837 -0.0664 -0.0137 -0.1188
 8246SOL    HW136371   0.088   0.002   5.921  0.9538  0.1561 -0.4763
 8246SOL    HW236372   0.023   0.038   5.797  0.0328  0.9034  1.5020
 8247SOL     OW36373   1.283   1.689   2.344  0.0523  0.9957 -0.3311
 8247SOL    HW136374   1.294   1.678   2.438  1.2183 -1.1951 -0.7198
 8247SOL    HW236375   1.255   1.602   2.315 -1.6005 -0.0300  4.3635
 8248SOL     OW36376   3.644   0.853   7.369  0.0046 -0.0308  0.1693
 8248SOL    HW136377   3.675   0.806   7.446 -0.1411  2.6633  1.8583
 8248SOL    HW236378   3.555   0.816   7.363  0.1566 -0.7005  1.9130
 8249SOL     OW36379   0.294   3.933  16.829 -0.3086  0.0883 -0.2774
 8249SOL    HW136380   0.252   3.999  16.885 -0.9871 -2.4230  2.1283
 8249SOL    HW236381   0.380   3.975  16.837  0.5861 -1.7055 -0.5084
 8250SOL     OW36382   2.918   4.275  10.507 -0.2746 -0.0182  0.1048
 8250SOL    HW136383   2.863   4.296  10.583  2.5233  0.5414  1.9873
 8250SOL    HW236384   2.988   4.232  10.556  0.0045 -0.1809 -0.4399
 8251SOL     OW36385   3.498   4.338   8.200  0.8256 -0.4018 -0.0886
 8251SOL    HW136386   3.425   4.294   8.242  0.2695  0.5566 -0.0707
 8251SOL    HW236387   3.495   4.297   8.113 -2.7850 -0.6836  0.1999
 8252SOL     OW36388   0.694   0.062   0.564  0.1230 -0.3439  0.0341
 8252SOL    HW136389   0.771   0.004   0.564  0.5980  0.3021 -1.0741
 8252SOL    HW236390   0.744   0.143   0.568 -1.2261  0.4882 -0.0889
 8253SOL     OW36391   1.765   2.785  12.720  0.3398 -0.1646 -0.4938
 8253SOL    HW136392   1.704   2.801  12.648 -1.2627 -0.3580  0.8239
 8253SOL    HW236393   1.795   2.875  12.731 -0.9026  0.1873 -0.0280
 8254SOL     OW36394   4.692   3.235  13.317  0.5216  0.0002  0.3406
 8254SOL    HW136395   4.624   3.296  13.348  1.9277  1.9150 -0.3315
 8254SOL    HW236396   0.020   3.301  13.287 -0.6067  0.8933 -0.0630
 8255SOL     OW36397   0.617   4.040  10.774 -0.4781 -0.6019  0.1037
 8255SOL    HW136398   0.621   3.990  10.855 -2.0102 -3.0086 -1.2882
 8255SOL    HW236399   0.606   4.126  10.815  0.0225  0.4917 -2.0488
 8256SOL     OW36400   1.539   4.284   4.706 -0.4172  0.5908 -0.1113
 8256SOL    HW136401   1.505   4.196   4.726  0.6646  0.1664 -0.1475
 8256SOL    HW236402   1.462   4.341   4.711 -0.7295  0.1308  0.3725
 8257SOL     OW36403   2.051   1.559   5.356 -0.4198 -0.0303 -0.5303
 8257SOL    HW136404   2.107   1.591   5.285 -1.6545 -0.3393 -1.6446
 8257SOL    HW236405   1.973   1.542   5.303 -0.1217  0.1275 -1.0253
 8258SOL     OW36406   2.942   1.735   2.259 -0.3366  0.0680  0.5489
 8258SOL    HW136407   2.983   1.650   2.271 -0.8571 -0.2585  0.0296
 8258SOL    HW236408   3.004   1.795   2.301 -1.3936  0.4053  1.6263
 8259SOL     OW36409   3.266   0.844   2.130 -0.0643 -0.4300  0.2045
 8259SOL    HW136410   3.247   0.929   2.090 -0.1125  0.1429  1.4313
 8259SOL    HW236411   3.353   0.820   2.097 -0.3856  2.3145 -2.6382
 8260SOL     OW36412   3.191   0.674   6.765  0.0872  0.1000  0.3709
 8260SOL    HW136413   3.166   0.706   6.852  0.4858 -1.3033  0.9939
 8260SOL    HW236414   3.210   0.755   6.718  1.2849 -0.0532  0.5801
 8261SOL     OW36415   0.457   0.883   8.721 -0.0336 -0.3430 -0.5955
 8261SOL    HW136416   0.495   0.839   8.797  0.4401 -0.2233 -0.7610
 8261SOL    HW236417   0.382   0.933   8.752 -0.8798 -1.8302 -0.2235
 8262SOL     OW36418   4.057   2.590   8.242  0.2947  0.0560 -0.0294
 8262SOL    HW136419   4.078   2.676   8.206 -2.4537  0.2094 -1.2490
 8262SOL    HW236420   4.039   2.621   8.331 -0.5860 -1.3079  0.2714
 8263SOL     OW36421   1.938   1.902   3.960  0.2805 -0.1623 -0.3893
 8263SOL    HW136422   1.921   1.825   4.014 -0.5380  0.2769 -0.0049
 8263SOL    HW236423   2.033   1.913   3.958  0.0384  2.6794  2.3199
 8264SOL     OW36424   4.032   0.646   4.696  0.0495  0.3777  0.2263
 8264SOL    HW136425   4.046   0.716   4.760 -0.5139 -1.9247  2.9003
 8264SOL    HW236426   3.937   0.638   4.683  0.2648  0.5190 -1.3724
 8265SOL     OW36427   4.594   3.711   6.033 -0.1666  0.3564 -0.8562
 8265SOL    HW136428   4.638   3.793   6.010  1.5983  0.4351  2.7399
 8265SOL    HW236429   4.662   3.643   6.032 -1.6230 -1.1787  2.0711
 8266SOL     OW36430   1.983   1.328   2.006 -0.3263  0.2541  0.3501
 8266SOL    HW136431   2.077   1.308   2.013 -0.5383 -0.3000  1.6485
 8266SOL    HW236432   1.985   1.421   2.028  2.6213  0.6595 -1.5814
 8267SOL     OW36433   0.077   0.868   1.704  0.0367  0.0338 -0.0889
 8267SOL    HW136434   0.034   0.832   1.781  0.6133 -1.5400 -0.5067
 8267SOL    HW236435   0.118   0.947   1.740 -0.1242 -0.7673  1.8386
 8268SOL     OW36436   0.928   0.089   7.406 -0.0582  0.2364 -0.3344
 8268SOL    HW136437   0.856   0.049   7.455  1.0605  0.4662  1.5090
 8268SOL    HW236438   0.876   0.107   7.327  0.1833  1.5300 -0.1989
 8269SOL     OW36439   0.375   0.360  14.131  1.0915  0.2965 -0.2559
 8269SOL    HW136440   0.284   0.334  14.117  1.3675  0.3726 -2.1728
 8269SOL    HW236441   0.420   0.279  14.106  1.7896  0.9710 -1.1774
 8270SOL     OW36442   3.794   0.104   2.685 -0.2747  0.1869 -0.0505
 8270SOL    HW136443   3.777   0.191   2.721 -2.9171  0.1314 -1.1787
 8270SOL    HW236444   3.877   0.099   2.732 -0.2542  0.1287 -0.0930
 8271SOL     OW36445   1.195   4.618   4.946 -0.5764 -0.2922 -0.2186
 8271SOL    HW136446   1.252   4.593   5.019  0.7818  1.6579 -0.6181
 8271SOL    HW236447   1.116   4.572   4.975 -0.0575 -1.6993 -1.0809
 8272SOL     OW36448   1.425   3.383   3.189 -0.8317 -0.0934  0.1304
 8272SOL    HW136449   1.450   3.412   3.101  0.2960  0.4963  0.6483
 8272SOL    HW236450   1.432   3.288   3.192  0.7606  0.0131 -0.3565
 8273SOL     OW36451   4.595   4.076   9.526 -0.1844  0.2437 -0.0367
 8273SOL    HW136452   4.501   4.065   9.543  0.0141  1.8870  2.1421
 8273SOL    HW236453   4.602   4.034   9.440 -0.9470  2.3130 -1.1238
 8274SOL     OW36454   0.876   2.895  16.147 -0.3832  0.1789  0.8747
 8274SOL    HW136455   0.930   2.902  16.226  1.1332 -0.5153 -0.1034
 8274SOL    HW236456   0.787   2.916  16.176 -1.1959  1.5580 -2.6460
 8275SOL     OW36457   0.437   2.287  15.776 -0.0433  0.4307  0.0316
 8275SOL    HW136458   0.515   2.256  15.729 -1.7350 -0.5456 -2.1143
 8275SOL    HW236459   0.479   2.332  15.849  0.5437  0.4069 -0.2912
 8276SOL     OW36460   3.187   1.878   1.198 -0.6085  0.0998  0.0125
 8276SOL    HW136461   3.132   1.829   1.259  0.9947 -1.6121  0.0751
 8276SOL    HW236462   3.146   1.965   1.195  0.4743  0.4657 -3.1696
 8277SOL     OW36463   0.515   1.219  13.384  0.4085 -0.4660  0.2513
 8277SOL    HW136464   0.512   1.277  13.460 -0.7890 -0.3223  0.0943
 8277SOL    HW236465   0.576   1.149  13.406 -0.2278 -1.5097 -1.3566
 8278SOL     OW36466   4.302   0.176   8.107 -0.5095 -0.1261 -0.3133
 8278SOL    HW136467   4.296   0.270   8.091 -0.2583 -0.6156 -3.1716
 8278SOL    HW236468   4.385   0.157   8.064  0.2100  1.8827  0.1711
 8279SOL     OW36469   2.114   2.484  12.570 -0.2316  0.1258 -0.2941
 8279SOL    HW136470   2.146   2.482  12.660 -1.1143 -2.9793 -0.0658
 8279SOL    HW236471   2.022   2.511  12.578  0.2075  2.0790 -1.9028
 8280SOL     OW36472   1.117   3.170  17.571 -0.2845 -0.1696  0.3556
 8280SOL    HW136473   1.052   3.147  17.505  1.1612 -1.6051 -0.5658
 8280SOL    HW236474   1.147   3.083  17.598  0.5187  0.5456  1.7836
 8281SOL     OW36475   3.603   0.655   5.651  0.1696 -0.7331 -0.1224
 8281SOL    HW136476   3.617   0.589   5.584  1.4869 -1.6185  1.0281
 8281SOL    HW236477   3.540   0.605   5.702 -0.5457  1.5759  1.2645
 8282SOL     OW36478   1.005   0.912   0.497  0.4654 -0.5482  0.3431
 8282SOL    HW136479   0.995   1.004   0.472 -0.6431 -0.7542  0.0341
 8282SOL    HW236480   0.915   0.880   0.490 -0.3800  1.6197  1.1882
 8283SOL     OW36481   4.374   4.039  13.475  0.1025 -0.4032 -0.0919
 8283SOL    HW136482   4.412   4.038  13.563  1.4835 -2.8356 -0.7384
 8283SOL    HW236483   4.297   3.985  13.489  1.4693 -2.2388  0.3153
 8284SOL     OW36484   1.599   4.595   2.612  0.0307  0.0796 -0.1793
 8284SOL    HW136485   1.619   4.543   2.534 -0.5344 -0.7613  0.2397
 8284SOL    HW236486   1.676   4.651   2.611 -0.5993  0.9509 -0.5431
 8285SOL     OW36487   3.193   0.605   7.278 -0.4286  0.2293 -0.1930
 8285SOL    HW136488   3.106   0.593   7.242 -0.1658 -1.4951 -0.2135
 8285SOL    HW236489   3.164   0.662   7.350 -0.4799  1.0370 -0.8467
 8286SOL     OW36490   0.948   2.767  12.881 -0.3257  0.4846 -0.5360
 8286SOL    HW136491   0.871   2.711  12.889  1.1561 -1.4078  0.4043
 8286SOL    HW236492   0.899   2.849  12.883 -0.9610  0.1217 -1.2972
 8287SOL     OW36493   4.074   0.675   0.722  0.1371  0.1747  0.1496
 8287SOL    HW136494   4.066   0.683   0.627  1.0772  2.5077  0.2657
 8287SOL    HW236495   4.072   0.581   0.739  0.9673 -0.0254 -0.8508
 8288SOL     OW36496   3.823   4.665  16.947  0.5381 -0.3996  0.3006
 8288SOL    HW136497   3.765   4.589  16.941  0.7285 -0.6103  1.1641
 8288SOL    HW236498   3.900   4.636  16.996  1.0263 -3.3581 -2.2211
 8289SOL     OW36499   4.258   3.533   1.103  0.3971 -0.0812  0.5041
 8289SOL    HW136500   4.289   3.585   1.029  0.4984 -0.0503  0.5685
 8289SOL    HW236501   4.165   3.550   1.086  0.7261 -0.3515 -1.4647
 8290SOL     OW36502   0.087   2.627   1.980  0.4220  0.2124 -0.5800
 8290SOL    HW136503   0.035   2.708   1.977  3.0455  1.8444 -1.5464
 8290SOL    HW236504   0.052   2.581   1.904  3.0104 -0.5125 -1.3268
 8291SOL     OW36505   0.104   3.470   7.860  0.2702 -0.0333 -0.0555
 8291SOL    HW136506   0.144   3.444   7.943 -0.5623 -0.2224  0.2865
 8291SOL    HW236507   0.029   3.527   7.879 -0.5710 -0.9612 -0.5596
 8292SOL     OW36508   2.433   4.155  15.407 -0.3472  0.9207  0.2896
 8292SOL    HW136509   2.348   4.129  15.371 -1.1245  0.7444  2.2028
 8292SOL    HW236510   2.489   4.078  15.403 -2.8349 -0.6948 -3.1194
 8293SOL     OW36511   3.084   1.676   4.473  0.1678  0.4245 -0.5676
 8293SOL    HW136512   3.007   1.652   4.422  0.8640  0.2291 -1.5255
 8293SOL    HW236513   3.059   1.621   4.547  0.4150  0.9717 -0.0711
 8294SOL     OW36514   0.892   3.788   7.470  0.4030 -0.0587  1.0732
 8294SOL    HW136515   0.919   3.750   7.553  2.0055 -1.2972 -0.0160
 8294SOL    HW236516   0.980   3.796   7.434 -0.5053  1.2401 -0.8689
 8295SOL     OW36517   0.080   0.283   2.850 -0.1594 -0.2336  0.4458
 8295SOL    HW136518   0.032   0.200   2.845 -0.7597  0.1698 -0.5819
 8295SOL    HW236519   0.006   0.340   2.828 -1.3171 -1.4820  1.0683
 8296SOL     OW36520   3.381   0.795   7.395 -0.4249 -0.4051 -0.3529
 8296SOL    HW136521   3.306   0.780   7.452 -0.7899  0.4567 -0.5932
 8296SOL    HW236522   3.333   0.837   7.323  1.9748  2.4284 -0.3028
 8297SOL     OW36523   4.310   2.253   7.042 -0.0791  0.1272  0.1321
 8297SOL    HW136524   4.343   2.296   6.963 -0.2572  0.6424  0.3412
 8297SOL    HW236525   4.387   2.266   7.097 -0.4493  1.4323  0.3204
 8298SOL     OW36526   3.389   0.145   4.065 -0.3503  0.4572  0.2591
 8298SOL    HW136527   3.474   0.181   4.087  0.0997  0.4630 -1.4993
 8298SOL    HW236528   3.362   0.210   4.000 -0.1275 -0.5533 -0.8443
 8299SOL     OW36529   4.322   0.494  12.375 -0.4569  0.1837 -0.6518
 8299SOL    HW136530   4.354   0.404  12.378 -0.6866  0.1881  2.7918
 8299SOL    HW236531   4.387   0.538  12.320  0.1277 -1.2778 -1.1105
 8300SOL     OW36532   0.826   4.437  14.857 -0.5606  0.6268  0.4601
 8300SOL    HW136533   0.779   4.495  14.797 -1.6068  0.7892  1.4296
 8300SOL    HW236534   0.909   4.435  14.811 -0.0588  0.6976  1.3563
 8301SOL     OW36535   2.379   3.314   2.965 -0.6635 -0.3262  0.0863
 8301SOL    HW136536   2.305   3.290   2.908  0.5979 -0.6400 -1.4387
 8301SOL    HW236537   2.339   3.311   3.052 -1.5096 -1.6390 -0.3559
 8302SOL     OW36538   4.285   4.432   9.711  0.1321  0.2063  0.1017
 8302SOL    HW136539   4.379   4.432   9.690  0.1500 -1.6106  0.1828
 8302SOL    HW236540   4.264   4.338   9.716  0.2415  0.0416 -2.8210
 8303SOL     OW36541   3.045   2.278   8.062 -0.0148  0.3222  0.1709
 8303SOL    HW136542   3.016   2.348   8.005  2.1079  4.5889  4.3006
 8303SOL    HW236543   2.964   2.228   8.059  0.9053 -1.2202  0.9366
 8304SOL     OW36544   4.460   4.126   8.623 -0.4759  0.1090  0.3127
 8304SOL    HW136545   4.506   4.193   8.572 -1.2339  0.7698  0.4952
 8304SOL    HW236546   4.532   4.063   8.626 -0.0147  0.7094  1.6063
 8305SOL     OW36547   4.680   2.281   4.721  0.5164 -0.4342  0.2323
 8305SOL    HW136548   4.653   2.291   4.813  1.9130  3.8712  0.2003
 8305SOL    HW236549   4.603   2.234   4.689 -1.2042  2.6750 -0.2260
 8306SOL     OW36550   2.737   1.975   3.785 -0.0824 -0.5259  0.3107
 8306SOL    HW136551   2.644   1.993   3.775 -0.3701 -2.0835  0.1523
 8306SOL    HW236552   2.753   1.999   3.876  1.3675 -0.2421 -0.0136
 8307SOL     OW36553   0.352   4.365   4.654  0.1132  0.2891  0.6752
 8307SOL    HW136554   0.307   4.423   4.715 -0.5526  0.6332 -0.1445
 8307SOL    HW236555   0.390   4.296   4.707 -0.4079  0.6006  1.4513
 8308SOL     OW36556   2.687   3.877   7.485  0.1240  0.2229  0.5949
 8308SOL    HW136557   2.756   3.822   7.449  0.7418  1.7217 -0.5332
 8308SOL    HW236558   2.612   3.864   7.427  1.6109 -0.7110 -1.1012
 8309SOL     OW36559   4.168   0.557  11.180 -0.4553 -0.5203  0.2044
 8309SOL    HW136560   4.194   0.612  11.106 -2.3316  1.6815  1.1612
 8309SOL    HW236561   4.187   0.607  11.259 -1.0555  2.8016 -1.7405
 8310SOL     OW36562   0.489   2.437   6.650 -0.2400  0.0821 -0.4712
 8310SOL    HW136563   0.477   2.489   6.729 -4.6464 -0.3493 -0.8656
 8310SOL    HW236564   0.546   2.491   6.596 -2.1047  0.6440 -1.8984
 8311SOL     OW36565   1.912   0.207   0.448  0.2681  0.0226 -0.3643
 8311SOL    HW136566   1.860   0.208   0.528  0.7176 -0.3493 -0.0659
 8311SOL    HW236567   1.922   0.114   0.431 -0.6110 -0.8369  3.7307
 8312SOL     OW36568   3.853   0.225   7.968 -0.7254  0.2778  0.5738
 8312SOL    HW136569   3.795   0.162   8.011 -1.7270  0.3539 -0.6655
 8312SOL    HW236570   3.790   0.281   7.922  1.1924  0.9135 -1.2716
 8313SOL     OW36571   2.727   2.068   3.232  0.4090  0.2767  0.1840
 8313SOL    HW136572   2.820   2.044   3.237  0.0438 -1.7236 -2.7673
 8313SOL    HW236573   2.726   2.118   3.150  0.2182  0.5533  0.3528
 8314SOL     OW36574   4.510   1.158   5.562 -0.3149 -0.5269  0.1976
 8314SOL    HW136575   4.447   1.171   5.491  1.1365  2.1099 -0.6192
 8314SOL    HW236576   4.498   1.066   5.585  1.2090 -0.6097  0.6066
 8315SOL     OW36577   1.696   2.006   4.288 -0.4542  0.0986 -0.2113
 8315SOL    HW136578   1.758   2.079   4.285  0.6123 -0.8481 -1.2431
 8315SOL    HW236579   1.664   2.000   4.198 -2.2415  1.8926  0.2974
 8316SOL     OW36580   0.476   2.117   8.447  0.3172  0.4257  0.1078
 8316SOL    HW136581   0.567   2.140   8.464  0.5637  0.6852 -1.5925
 8316SOL    HW236582   0.478   2.057   8.373 -1.2915 -1.4511  1.5765
 8317SOL     OW36583   4.254   1.937  16.290  0.2047 -0.0288  0.2970
 8317SOL    HW136584   4.196   2.008  16.317 -1.3337 -0.7266 -1.1353
 8317SOL    HW236585   4.210   1.916  16.207 -0.0777  1.1759  0.1472
 8318SOL     OW36586   3.966   3.635   3.623  0.2419 -0.2914  0.0905
 8318SOL    HW136587   3.954   3.710   3.565 -1.2856 -1.1753 -0.7311
 8318SOL    HW236588   3.896   3.573   3.605  0.2949 -1.3371  3.4546
 8319SOL     OW36589   1.710   0.605   2.555  0.3328 -0.6529 -0.1769
 8319SOL    HW136590   1.748   0.685   2.520 -1.6517 -0.7782 -2.6083
 8319SOL    HW236591   1.763   0.593   2.634  1.2164 -1.3875 -0.8696
 8320SOL     OW36592   4.658   2.831   5.221 -0.3513  0.0883  0.1706
 8320SOL    HW136593   4.733   2.824   5.162  1.5142 -0.5291  2.6104
 8320SOL    HW236594   4.590   2.790   5.167 -0.5794  1.6389 -0.7207
 8321SOL     OW36595   3.625   0.455  12.100  0.0472 -0.3325  0.2781
 8321SOL    HW136596   3.531   0.470  12.111  0.2793  2.6353 -1.8597
 8321SOL    HW236597   3.635   0.383  12.163  0.6223 -2.9851 -2.8209
 8322SOL     OW36598   3.050   4.670   2.858 -0.2602  0.0162  0.1891
 8322SOL    HW136599   3.120   4.648   2.920 -0.4049 -1.4898 -0.1837
 8322SOL    HW236600   3.047   4.592   2.802  1.0320 -0.0571  0.2118
 8323SOL     OW36601   0.130   3.109   2.696 -0.2411 -0.2799 -0.1667
 8323SOL    HW136602   0.186   3.133   2.769  0.6850  1.2191 -1.3686
 8323SOL    HW236603   0.137   3.014   2.709 -2.1843 -0.3569  0.2764
 8324SOL     OW36604   0.794   1.895   5.948 -0.2009  0.0734  0.4064
 8324SOL    HW136605   0.843   1.937   6.019 -1.3466  1.1825  0.5309
 8324SOL    HW236606   0.783   1.971   5.890  2.5029 -0.3648 -0.7253
 8325SOL     OW36607   4.665   4.217   1.661  0.7573  0.2537  0.5776
 8325SOL    HW136608   4.669   4.288   1.725  0.1973  0.6976  0.1298
 8325SOL    HW236609   4.597   4.158   1.694 -1.1745  0.8423 -2.3190
 8326SOL     OW36610   2.195   0.057  11.886  0.5233 -0.1405 -0.1202
 8326SOL    HW136611   2.135   4.721  11.862 -1.9775  2.2557 -0.8945
 8326SOL    HW236612   2.274   0.016  11.850  2.4004 -0.2375  4.1078
 8327SOL     OW36613   2.420   4.148   4.012  0.1174  0.5615 -0.3637
 8327SOL    HW136614   2.349   4.187   3.960 -0.2157  0.7144  0.1966
 8327SOL    HW236615   2.487   4.148   3.945 -1.0666 -0.2064 -1.5543
 8328SOL     OW36616   3.274   0.235   7.577 -0.1828 -0.5443  0.0415
 8328SOL    HW136617   3.323   0.287   7.514  1.5057 -2.5907 -0.3401
 8328SOL    HW236618   3.196   0.214   7.527  1.5310 -0.8002 -2.5104
 8329SOL     OW36619   1.212   4.271   8.064  0.1360 -0.2152 -0.5419
 8329SOL    HW136620   1.296   4.294   8.024 -0.9000 -0.5014 -2.9101
 8329SOL    HW236621   1.242   4.231   8.145  0.5558 -1.3061 -1.2345
 8330SOL     OW36622   4.693   3.970   2.118  0.5366 -0.2468  0.0594
 8330SOL    HW136623   4.697   4.061   2.149  1.9404 -0.1370 -0.4464
 8330SOL    HW236624   0.038   3.940   2.160  0.4823 -0.4271  0.0335
 8331SOL     OW36625   1.383   2.412   6.692 -0.1141 -0.1910 -0.4061
 8331SOL    HW136626   1.404   2.322   6.716 -1.6681 -0.2906  0.5428
 8331SOL    HW236627   1.340   2.432   6.775  2.6794  1.7858  0.6035
 8332SOL     OW36628   2.205   3.982   6.739  0.2076  0.2814 -0.0409
 8332SOL    HW136629   2.286   4.033   6.747  0.4069  0.2648 -2.0250
 8332SOL    HW236630   2.193   3.973   6.645 -1.9337 -2.5874  0.4897
 8333SOL     OW36631   2.851   2.255  11.989 -0.4868 -0.1209 -0.6389
 8333SOL    HW136632   2.825   2.186  11.928 -0.5044  1.3829 -2.3311
 8333SOL    HW236633   2.891   2.206  12.061 -0.4219 -0.3937 -0.8619
 8334SOL     OW36634   2.593   3.493  15.897  0.6061 -0.1889  0.3906
 8334SOL    HW136635   2.544   3.493  15.815  1.9016 -0.3097 -0.3863
 8334SOL    HW236636   2.525   3.495  15.963  0.3765  0.9096  0.1082
 8335SOL     OW36637   1.324   3.414   8.457  0.2078  0.3329 -0.2287
 8335SOL    HW136638   1.321   3.342   8.393 -4.7582  1.0321 -0.7679
 8335SOL    HW236639   1.234   3.439   8.477 -0.3318 -2.9472  1.3586
 8336SOL     OW36640   1.605   1.482   8.698  0.0478  0.6187 -0.2630
 8336SOL    HW136641   1.568   1.564   8.663 -1.6199  0.2971  0.7403
 8336SOL    HW236642   1.648   1.448   8.620  0.3549  1.0509 -0.2856
 8337SOL     OW36643   0.805   0.813  15.174 -0.3737 -0.1547  0.1356
 8337SOL    HW136644   0.775   0.746  15.113 -0.7570  0.0232  0.1279
 8337SOL    HW236645   0.880   0.849  15.128 -0.5596  0.5639  0.3862
 8338SOL     OW36646   1.451   0.351   0.386 -0.5527 -0.9182  0.0432
 8338SOL    HW136647   1.359   0.375   0.392 -0.2421  0.4008 -0.3714
 8338SOL    HW236648   1.473   0.318   0.473  0.6949 -1.7750 -0.5990
 8339SOL     OW36649   3.771   0.032   6.518  0.1455  0.1358 -0.3268
 8339SOL    HW136650   3.715   0.036   6.595  1.3284  1.4126  0.4681
 8339SOL    HW236651   3.853   0.074   6.545 -0.1186  0.9375 -0.7698
 8340SOL     OW36652   0.679   4.035   5.910  0.5608  0.7277 -0.0534
 8340SOL    HW136653   0.736   4.087   5.967  0.3700 -0.2533  1.0548
 8340SOL    HW236654   0.658   4.101   5.845 -0.8145  0.3323 -0.0180
 8341SOL     OW36655   0.506   3.254   7.391 -0.1946 -0.2442  0.2551
 8341SOL    HW136656   0.423   3.221   7.425 -0.3059 -1.6230 -1.3496
 8341SOL    HW236657   0.574   3.198   7.426  0.3654  0.7101  0.6942
 8342SOL     OW36658   0.843   4.104   1.073 -0.0417 -0.4564 -0.1273
 8342SOL    HW136659   0.753   4.076   1.054 -0.5515  1.2924 -0.2598
 8342SOL    HW236660   0.873   4.114   0.982 -1.6075  3.6874 -0.1655
 8343SOL     OW36661   2.934   0.252   3.979 -0.3693  0.4444 -0.1145
 8343SOL    HW136662   3.002   0.190   4.007  0.0727  0.4680 -1.1319
 8343SOL    HW236663   2.946   0.247   3.884  0.7820 -0.7994  0.0905
 8344SOL     OW36664   4.431   0.909   8.642 -0.3822  0.3260  0.0150
 8344SOL    HW136665   4.444   0.979   8.579 -0.2669  0.6934  0.4420
 8344SOL    HW236666   4.517   0.902   8.685 -0.3696 -0.4171 -0.1270
 8345SOL     OW36667   2.111   3.326   5.667 -0.2663 -0.2266  0.1080
 8345SOL    HW136668   2.137   3.234   5.673 -0.0095 -0.1132  0.7877
 8345SOL    HW236669   2.081   3.335   5.577 -1.4631 -0.3125  0.4910
 8346SOL     OW36670   3.288   2.241   2.225  0.5129  0.0497  0.5223
 8346SOL    HW136671   3.237   2.256   2.305  1.1730  3.5005  0.3155
 8346SOL    HW236672   3.298   2.325   2.180  1.6531  0.4160  1.4483
 8347SOL     OW36673   1.750   0.982  14.583  0.4530  0.2603  0.4438
 8347SOL    HW136674   1.801   0.966  14.504 -1.5219 -3.2308 -0.1010
 8347SOL    HW236675   1.746   1.078  14.576 -1.9446  0.0170 -1.7732
 8348SOL     OW36676   3.906   3.865   1.931  0.0441  0.0644  0.2516
 8348SOL    HW136677   3.973   3.865   1.863  0.1011  0.6155  0.3079
 8348SOL    HW236678   3.935   3.931   1.994  0.6905 -1.7468  1.8928
 8349SOL     OW36679   0.576   1.550   6.065  0.0538 -0.6897 -0.1230
 8349SOL    HW136680   0.547   1.499   6.140 -0.1095 -0.5050 -0.0615
 8349SOL    HW236681   0.655   1.597   6.094 -0.9087  1.2658 -0.6769
 8350SOL     OW36682   3.334   3.875   4.913 -0.2094 -0.0225  0.5144
 8350SOL    HW136683   3.301   3.802   4.860  0.5499 -1.2138  1.6652
 8350SOL    HW236684   3.373   3.927   4.844  0.5503 -1.8029 -0.3967
 8351SOL     OW36685   0.909   2.173  10.760 -0.3918 -0.5714  0.0959
 8351SOL    HW136686   0.844   2.184  10.829  2.2897  0.0170  2.4969
 8351SOL    HW236687   0.843   2.155  10.692  0.9360 -2.5900 -0.6535
 8352SOL     OW36688   3.875   2.240   6.057  0.2874  0.1942 -0.1004
 8352SOL    HW136689   3.956   2.194   6.036  0.4887  0.9743 -1.0164
 8352SOL    HW236690   3.835   2.262   5.973  0.7244 -0.1496 -0.3998
 8353SOL     OW36691   2.581   1.611   5.993  0.0497 -0.1345  0.3305
 8353SOL    HW136692   2.546   1.561   5.919 -0.0355  0.6211 -0.1401
 8353SOL    HW236693   2.501   1.657   6.016 -0.7308 -1.4624  0.2246
 8354SOL     OW36694   0.723   2.108   5.662 -0.4629  0.2419  0.0044
 8354SOL    HW136695   0.746   2.017   5.645 -0.1523 -0.1670  2.5569
 8354SOL    HW236696   0.767   2.163   5.597  2.7025 -1.6867  0.5560
 8355SOL     OW36697   4.475   0.174  10.128  0.4401 -0.2924  0.1018
 8355SOL    HW136698   4.423   0.132  10.197 -0.4770  0.9111  0.1447
 8355SOL    HW236699   4.402   0.195  10.069  1.3454 -0.9110 -1.2438
 8356SOL     OW36700   0.953   0.955   7.052 -0.6926 -0.0527  0.1907
 8356SOL    HW136701   0.858   0.941   7.060 -0.7449 -1.1442 -2.4681
 8356SOL    HW236702   0.968   0.967   7.146 -0.8109  0.4524  0.1435
 8357SOL     OW36703   0.501   3.221   5.595 -0.4186  0.7804 -0.0472
 8357SOL    HW136704   0.437   3.263   5.539 -1.0585 -2.9186 -2.0684
 8357SOL    HW236705   0.470   3.131   5.592  1.7508  0.1900 -3.7970
 8358SOL     OW36706   2.723   3.557   2.485 -0.1051  0.2223  1.0466
 8358SOL    HW136707   2.645   3.505   2.505  0.7024 -0.7499  1.6587
 8358SOL    HW236708   2.794   3.492   2.485 -1.3351 -1.1089 -1.1443
 8359SOL     OW36709   4.674   2.861   9.974 -0.0509 -0.1111  0.2185
 8359SOL    HW136710   4.687   2.937  10.031  0.8152 -1.2829  1.5638
 8359SOL    HW236711   4.584   2.838   9.997 -0.1287 -2.7871 -2.7727
 8360SOL     OW36712   2.918   4.337  12.052 -0.2762 -0.6878 -0.2741
 8360SOL    HW136713   2.871   4.352  12.134 -0.4609 -1.3017 -0.2728
 8360SOL    HW236714   2.855   4.288  12.000 -0.0929 -0.8693 -0.3269
 8361SOL     OW36715   1.989   4.607   2.588  0.5546  0.1480  0.1242
 8361SOL    HW136716   2.010   4.692   2.549  0.6973  0.2468  0.4208
 8361SOL    HW236717   2.039   4.552   2.528  1.0926 -1.6063  2.1897
 8362SOL     OW36718   1.035   4.587  10.251 -0.4300 -0.6728 -0.7534
 8362SOL    HW136719   1.020   4.641  10.328  1.8030  0.4767 -1.1305
 8362SOL    HW236720   0.993   4.648  10.190  1.5900 -0.4753 -1.9591
 8363SOL     OW36721   2.786   3.583   9.852  0.1085  0.2253  0.0435
 8363SOL    HW136722   2.804   3.513   9.915  2.3771  1.6909  1.0316
 8363SOL    HW236723   2.822   3.661   9.895  1.3560 -0.4647  0.2675
 8364SOL     OW36724   2.566   2.151   0.499  0.1263 -0.5594 -0.1882
 8364SOL    HW136725   2.577   2.187   0.587 -3.4978 -0.0703  0.0695
 8364SOL    HW236726   2.593   2.063   0.526 -0.3851  0.0871  2.5012
 8365SOL     OW36727   0.882   0.533   7.575  0.0247 -0.4178 -0.5956
 8365SOL    HW136728   0.814   0.476   7.540  0.4483 -0.9377 -0.5685
 8365SOL    HW236729   0.871   0.608   7.516  0.4658  2.3734  2.9238
 8366SOL     OW36730   0.786   1.817   7.806 -0.5109  0.4055  0.0209
 8366SOL    HW136731   0.767   1.723   7.805 -1.3851  0.5972 -1.7108
 8366SOL    HW236732   0.700   1.847   7.775 -0.8940  1.1575  1.7532
 8367SOL     OW36733   1.471   2.877   4.864  0.9469 -0.4291  0.2118
 8367SOL    HW136734   1.424   2.866   4.946 -2.4817  1.7932 -1.4630
 8367SOL    HW236735   1.492   2.970   4.866 -1.7965  0.1805  1.0219
 8368SOL     OW36736   2.309   2.327   5.227 -0.1992  0.3685 -0.2153
 8368SOL    HW136737   2.294   2.421   5.232  1.8943  0.7276 -0.6933
 8368SOL    HW236738   2.233   2.292   5.180  1.1274 -0.3271 -1.8570
 8369SOL     OW36739   3.832   1.555   6.548 -0.2093  0.3017 -0.4377
 8369SOL    HW136740   3.814   1.475   6.499 -1.4621  1.2524 -1.5251
 8369SOL    HW236741   3.890   1.614   6.500  0.2353 -1.4642 -2.0656
 8370SOL     OW36742   0.383   3.040  15.871 -0.0455 -0.6231 -0.0842
 8370SOL    HW136743   0.348   2.973  15.812 -0.1967 -2.0234  1.6265
 8370SOL    HW236744   0.396   3.104  15.800  2.2124  2.9914  3.6123
 8371SOL     OW36745   0.980   2.030   4.213 -0.5214  0.2571  0.4747
 8371SOL    HW136746   1.039   1.967   4.173 -1.7386 -0.6702  0.1253
 8371SOL    HW236747   0.928   1.976   4.273  0.0578 -2.0182 -1.0997
 8372SOL     OW36748   2.318   1.262  16.966 -0.4474  0.7335 -0.4524
 8372SOL    HW136749   2.364   1.233  16.888  0.3024  1.5835 -0.3304
 8372SOL    HW236750   2.272   1.335  16.924 -0.9043  1.0132  0.5181
 8373SOL     OW36751   4.624   3.879   9.326 -0.2016 -0.2977  0.0689
 8373SOL    HW136752   4.699   3.874   9.267 -0.9071  0.8186 -0.9253
 8373SOL    HW236753   4.564   3.818   9.283 -1.1193  0.6166  0.0489
 8374SOL     OW36754   2.164   2.376   5.890  0.2721 -0.4198  0.3531
 8374SOL    HW136755   2.241   2.322   5.908 -0.3981 -0.5391  2.8237
 8374SOL    HW236756   2.107   2.355   5.963  0.7716  0.2808  0.9411
 8375SOL     OW36757   3.082   3.905   5.804  0.3165  0.3271 -0.1907
 8375SOL    HW136758   3.009   3.965   5.818  0.1153  0.3017 -1.1778
 8375SOL    HW236759   3.047   3.833   5.856  2.4731 -0.5935  0.0028
 8376SOL     OW36760   0.196   3.417   9.844  0.2595  0.2071 -0.0891
 8376SOL    HW136761   0.116   3.463   9.869  0.7330 -0.3553  2.5060
 8376SOL    HW236762   0.257   3.462   9.901  0.2161  1.1149 -0.7563
 8377SOL     OW36763   0.049   1.072   6.350 -0.1559 -0.1342 -0.1651
 8377SOL    HW136764   4.716   1.137   6.366 -0.5525 -0.5425 -0.1759
 8377SOL    HW236765   0.030   1.003   6.413 -0.0354 -1.5529 -1.6761
 8378SOL     OW36766   2.795   1.243  15.441  0.1527 -0.1016 -0.0720
 8378SOL    HW136767   2.867   1.284  15.488  0.1073 -0.6213  0.4534
 8378SOL    HW236768   2.761   1.183  15.508 -1.0020  1.6607  0.9191
 8379SOL     OW36769   3.344   1.528   2.104  0.2334  0.8650 -0.1916
 8379SOL    HW136770   3.317   1.592   2.038 -3.2836  1.5770  1.9277
 8379SOL    HW236771   3.339   1.587   2.179 -0.2828  0.8895 -0.2456
 8380SOL     OW36772   3.844   4.251  16.662 -0.7296 -0.5720  0.5024
 8380SOL    HW136773   3.800   4.167  16.670  0.4309 -1.4780 -2.6539
 8380SOL    HW236774   3.916   4.230  16.602 -0.9245  0.2012 -0.0103
 8381SOL     OW36775   1.539   3.863   5.092 -0.3513  0.3016  0.0895
 8381SOL    HW136776   1.603   3.931   5.071  0.7139 -1.4565 -2.2680
 8381SOL    HW236777   1.538   3.869   5.188  0.1715  3.4244 -0.0901
 8382SOL     OW36778   2.279   1.182   6.681  0.1125 -0.2406 -0.2756
 8382SOL    HW136779   2.373   1.173   6.664  0.6848  1.5301  1.8784
 8382SOL    HW236780   2.255   1.090   6.671  1.4119 -0.7514  1.3001
 8383SOL     OW36781   1.539   4.189   9.947 -0.3225  0.1581 -0.2542
 8383SOL    HW136782   1.518   4.270   9.994 -1.8916 -0.0077 -0.6666
 8383SOL    HW236783   1.490   4.126  10.001 -1.2133  0.7115 -0.4131
 8384SOL     OW36784   0.413   2.338  11.434  0.0676  0.0017 -0.4260
 8384SOL    HW136785   0.351   2.315  11.503  1.1939 -2.1850 -0.1543
 8384SOL    HW236786   0.487   2.364  11.489 -1.4342  1.5327  0.8699
 8385SOL     OW36787   2.786   3.570   3.532 -0.3972  0.1138  0.1173
 8385SOL    HW136788   2.692   3.585   3.522 -0.2095  0.8912 -0.4532
 8385SOL    HW236789   2.824   3.599   3.449  0.2816 -1.1622 -0.0205
 8386SOL     OW36790   3.251   0.471   5.330  0.1913 -0.3914 -0.1800
 8386SOL    HW136791   3.238   0.537   5.397 -2.5832  1.8357 -2.9199
 8386SOL    HW236792   3.308   0.515   5.267 -0.3226  1.2159  0.4887
 8387SOL     OW36793   4.599   1.621   6.894  0.0856  0.0777 -0.3158
 8387SOL    HW136794   4.659   1.673   6.948  0.3234 -0.6599  0.1325
 8387SOL    HW236795   4.513   1.652   6.924  0.1980  0.8403 -0.7789
 8388SOL     OW36796   1.836   4.528   4.162 -0.1587 -0.3117  0.5273
 8388SOL    HW136797   1.835   4.531   4.066  0.1364 -2.6773  0.4434
 8388SOL    HW236798   1.929   4.541   4.178 -0.2346  0.9246 -0.0370
 8389SOL     OW36799   1.075   2.335   8.027 -0.6603  0.1425  0.1003
 8389SOL    HW136800   1.115   2.276   8.091 -3.2556  1.3266  2.7989
 8389SOL    HW236801   1.106   2.299   7.944  1.0638 -0.7159  1.1070
 8390SOL     OW36802   4.091   0.933   5.606 -1.5884  0.1778  0.3984
 8390SOL    HW136803   4.012   0.894   5.642 -1.6885 -0.6959 -0.7755
 8390SOL    HW236804   4.156   0.885   5.658  1.4827  1.9227 -1.8424
 8391SOL     OW36805   0.190   0.489   7.393  0.0344  0.5819  0.5464
 8391SOL    HW136806   0.134   0.475   7.316  1.4046  0.4775 -0.4248
 8391SOL    HW236807   0.119   0.486   7.457 -1.4270  3.7765 -0.9518
 8392SOL     OW36808   1.978   0.447   4.257 -0.0135 -0.1702  0.4758
 8392SOL    HW136809   1.993   0.403   4.340 -0.3711  1.1116  1.2316
 8392SOL    HW236810   2.050   0.510   4.253 -1.7449  1.8239  0.6977
 8393SOL     OW36811   2.771   1.528  13.388  0.2094 -0.1443  0.1823
 8393SOL    HW136812   2.847   1.487  13.429  0.1606  1.4572  1.8858
 8393SOL    HW236813   2.808   1.609  13.353  0.3848 -0.9966 -1.5924
 8394SOL     OW36814   0.558   2.636   8.997  0.0395  0.3524 -0.0718
 8394SOL    HW136815   0.639   2.671   8.962 -0.1935  1.3060  0.3539
 8394SOL    HW236816   0.530   2.580   8.925 -1.4704  1.1733 -0.1316
 8395SOL     OW36817   0.584   2.268   5.811  0.2058 -0.3572  0.6287
 8395SOL    HW136818   0.642   2.268   5.887  1.4269  1.6389 -0.2985
 8395SOL    HW236819   0.635   2.210   5.754  2.9172  1.7971  0.8605
 8396SOL     OW36820   4.389   1.404   0.795  0.2178 -0.6967  0.2224
 8396SOL    HW136821   4.404   1.498   0.789  2.0761 -0.8638  2.2499
 8396SOL    HW236822   4.390   1.394   0.890 -4.1366  1.3540  0.4621
 8397SOL     OW36823   1.480   1.340   4.495 -0.1720 -0.1412  0.3642
 8397SOL    HW136824   1.415   1.361   4.562 -2.4936 -0.6986 -1.7186
 8397SOL    HW236825   1.434   1.367   4.416  2.3151 -0.3406 -1.1603
 8398SOL     OW36826   4.629   4.319  11.459 -0.2149 -0.0957 -0.1337
 8398SOL    HW136827   4.710   4.279  11.488 -0.7594 -0.7785  0.4437
 8398SOL    HW236828   4.635   4.319  11.363 -1.0296 -1.1952 -0.1879
 8399SOL     OW36829   2.936   3.750   6.568 -0.1960  0.1046 -0.1057
 8399SOL    HW136830   3.031   3.754   6.565 -0.3115  2.7986 -0.4685
 8399SOL    HW236831   2.921   3.840   6.539  0.1019 -0.6264 -2.5669
 8400SOL     OW36832   3.412   1.496  11.555  0.0700  0.4858  0.3250
 8400SOL    HW136833   3.464   1.576  11.564  0.9178  0.0459 -0.7760
 8400SOL    HW236834   3.438   1.483  11.464  1.4962 -1.6268  1.0590
 8401SOL     OW36835   1.599   4.439   2.821  0.8096 -0.2630 -0.1410
 8401SOL    HW136836   1.693   4.431   2.836  1.1952  0.2083 -2.3260
 8401SOL    HW236837   1.596   4.484   2.737  1.0337 -2.3288 -1.2570
 8402SOL     OW36838   0.661   0.328   7.485  0.0688 -1.0327  0.1453
 8402SOL    HW136839   0.572   0.338   7.518  0.7039 -1.8480  2.1248
 8402SOL    HW236840   0.653   0.234   7.466  2.8517 -2.2286  5.0716
 8403SOL     OW36841   1.894   0.916  17.100 -0.7008 -0.2112 -0.6995
 8403SOL    HW136842   1.983   0.912  17.063 -0.8077  0.4201 -1.0132
 8403SOL    HW236843   1.908   0.991  17.158  0.5373  0.0820 -1.3766
 8404SOL     OW36844   3.320   3.197   4.014  0.3486  0.0012 -0.1093
 8404SOL    HW136845   3.274   3.233   4.090 -1.7491  0.1596 -1.4718
 8404SOL    HW236846   3.389   3.149   4.061  1.0817  0.3093 -0.8742
 8405SOL     OW36847   3.576   2.629   4.239 -0.1225 -0.6179  0.1269
 8405SOL    HW136848   3.637   2.616   4.311 -0.0448 -0.5022  0.0816
 8405SOL    HW236849   3.552   2.721   4.240 -0.4718 -0.7269  1.4575
 8406SOL     OW36850   4.640   2.794   0.607  0.4048  0.1720 -0.4027
 8406SOL    HW136851   4.573   2.753   0.661  0.8983 -0.6717 -0.4221
 8406SOL    HW236852   4.694   2.718   0.582 -0.2991  1.0776 -4.6292
 8407SOL     OW36853   0.193   2.334   2.757  0.6994 -0.4393 -0.8181
 8407SOL    HW136854   0.197   2.297   2.669  0.7596 -1.4316 -0.4054
 8407SOL    HW236855   0.282   2.365   2.773 -0.3136  1.0365  1.9342
 8408SOL     OW36856   3.763   3.837   1.558  0.6638 -0.0537  0.3188
 8408SOL    HW136857   3.701   3.829   1.632  0.4033  1.3314  0.2477
 8408SOL    HW236858   3.836   3.891   1.590  2.3722 -2.3282  0.2284
 8409SOL     OW36859   1.195   2.545   6.290 -0.3948  0.1921 -0.5436
 8409SOL    HW136860   1.105   2.524   6.263 -0.9147  0.0035  1.3410
 8409SOL    HW236861   1.193   2.525   6.384 -3.2756  4.0655  0.2595
 8410SOL     OW36862   4.506   4.309  10.953 -0.8546  0.1583  0.1862
 8410SOL    HW136863   4.435   4.307  10.890 -1.6405  3.3608  0.9654
 8410SOL    HW236864   4.565   4.372  10.911 -0.6545  0.9931  1.6803
 8411SOL     OW36865   2.648   1.908   6.461 -0.1747  0.6561  0.2801
 8411SOL    HW136866   2.717   1.876   6.519 -0.6001 -1.6729 -0.4740
 8411SOL    HW236867   2.698   1.912   6.379  1.0494  0.0178  0.9850
 8412SOL     OW36868   1.119   4.242   8.327  0.2851 -0.7734  0.7557
 8412SOL    HW136869   1.144   4.334   8.340  1.4513 -0.9119 -0.4796
 8412SOL    HW236870   1.027   4.244   8.356 -0.2477 -0.3487 -0.9708
 8413SOL     OW36871   3.890   3.524  12.846 -0.6025  0.1022 -0.0325
 8413SOL    HW136872   3.975   3.564  12.868  0.9326 -1.9819 -2.1721
 8413SOL    HW236873   3.876   3.567  12.762 -0.8659 -0.2706 -0.1792
 8414SOL     OW36874   4.376   2.365   5.636  0.3464  0.0212  0.2768
 8414SOL    HW136875   4.341   2.376   5.725 -1.5978  2.0645 -0.7397
 8414SOL    HW236876   4.452   2.422   5.648  1.1465 -1.0115  0.1178
 8415SOL     OW36877   0.337   2.055   4.370 -0.3638  0.7782 -0.0479
 8415SOL    HW136878   0.395   2.049   4.293 -1.1014 -1.8322 -0.4079
 8415SOL    HW236879   0.275   1.984   4.358 -0.3805  0.6206  1.0059
 8416SOL     OW36880   1.897   2.235  13.247 -0.7722 -0.6602  0.4757
 8416SOL    HW136881   1.865   2.321  13.222 -2.0443 -0.8822  1.2959
 8416SOL    HW236882   1.960   2.211  13.179 -0.6802  0.2330  0.2505
 8417SOL     OW36883   4.303   3.508   6.006 -0.2411 -0.1317  0.2829
 8417SOL    HW136884   4.339   3.510   5.917 -0.4007 -1.9932  0.1650
 8417SOL    HW236885   4.270   3.596   6.023  3.0583  1.0878  0.3202
 8418SOL     OW36886   4.118   1.852   6.837 -0.2411 -0.3898  0.4213
 8418SOL    HW136887   4.132   1.934   6.884 -1.1368  0.5415 -0.9029
 8418SOL    HW236888   4.033   1.831   6.875 -0.6135 -0.0958 -0.2459
 8419SOL     OW36889   1.072   3.593  14.958  0.5058 -0.4821 -0.8065
 8419SOL    HW136890   1.110   3.679  14.940 -1.1485  0.8866  2.3570
 8419SOL    HW236891   1.032   3.576  14.873 -1.1160 -0.5288 -0.0209
 8420SOL     OW36892   3.147   1.506   0.002 -0.0144 -1.0471  0.4470
 8420SOL    HW136893   3.214   1.547   0.056  0.0070 -2.3070  1.3652
 8420SOL    HW236894   3.120   1.575  17.680 -2.3910 -0.4513  2.1816
 8421SOL     OW36895   3.650   1.990   5.483 -0.0396  0.1184  1.0163
 8421SOL    HW136896   3.639   2.060   5.548  2.0160  0.8543  0.5707
 8421SOL    HW236897   3.558   1.971   5.464  0.3673  0.6785 -1.4366
 8422SOL     OW36898   1.841   0.014   5.165 -0.4725  0.0799  0.0507
 8422SOL    HW136899   1.868   4.680   5.104 -0.6706  2.4093 -2.6796
 8422SOL    HW236900   1.804   4.694   5.234 -2.4547  0.0930 -1.0164
 8423SOL     OW36901   2.105   4.591  16.168 -0.0829  0.0165 -0.0085
 8423SOL    HW136902   2.092   4.502  16.201  0.4291 -0.1456 -0.2412
 8423SOL    HW236903   2.039   4.646  16.211 -0.3573 -0.0944 -0.2867
 8424SOL     OW36904   0.675   3.735   5.954  0.2301 -0.0133 -0.0474
 8424SOL    HW136905   0.598   3.712   5.902 -0.9924  1.7117  0.9471
 8424SOL    HW236906   0.685   3.828   5.933 -0.2345  0.2228  0.7747
 8425SOL     OW36907   0.859   0.579  15.554  0.4022 -0.1785  0.4215
 8425SOL    HW136908   0.855   0.675  15.550  0.3389 -0.2455 -1.1166
 8425SOL    HW236909   0.775   0.554  15.515  0.7382 -0.2398 -0.2667
 8426SOL     OW36910   0.130   3.837  10.344  0.0010  0.1649 -0.3396
 8426SOL    HW136911   0.199   3.865  10.285 -1.0459  2.7447 -0.3479
 8426SOL    HW236912   0.176   3.782  10.407 -0.6839 -1.1030 -0.9598
 8427SOL     OW36913   3.856   2.014   7.613  0.0390 -0.0717  0.1084
 8427SOL    HW136914   3.898   2.055   7.688 -0.1882  0.7577 -0.2177
 8427SOL    HW236915   3.785   1.958   7.645 -0.4538  0.5646  0.1342
 8428SOL     OW36916   0.411   3.892   5.463  0.1484 -0.0700 -0.0887
 8428SOL    HW136917   0.384   3.863   5.550 -1.3909 -1.2411 -0.9530
 8428SOL    HW236918   0.390   3.817   5.407 -0.8725  2.2540 -2.7745
 8429SOL     OW36919   0.227   1.989   6.565  0.4628  0.2758  0.2854
 8429SOL    HW136920   0.257   1.962   6.478  1.6666 -0.7564  1.0199
 8429SOL    HW236921   0.214   2.084   6.564 -0.9766  0.0968  1.4492
 8430SOL     OW36922   0.167   1.509   4.158  0.3755 -0.7522  0.5057
 8430SOL    HW136923   0.166   1.546   4.070  1.0294 -0.2166  0.7270
 8430SOL    HW236924   0.092   1.560   4.191 -0.1021 -0.0649 -1.6714
 8431SOL     OW36925   4.247   4.508  13.007 -0.1580 -0.1046 -0.4377
 8431SOL    HW136926   4.245   4.506  13.103  3.4456 -0.6624 -0.3702
 8431SOL    HW236927   4.157   4.484  12.985 -0.5908  1.1906 -0.0983
 8432SOL     OW36928   4.223   3.111   0.116  0.2410 -0.4411  0.2188
 8432SOL    HW136929   4.189   3.200   0.108  1.7326 -0.0961 -2.1538
 8432SOL    HW236930   4.181   3.075   0.194  0.8288  0.2889  0.8679
 8433SOL     OW36931   2.281   1.706   8.161  0.0710  0.1203  0.4678
 8433SOL    HW136932   2.235   1.748   8.233 -1.4783  0.4224 -0.6872
 8433SOL    HW236933   2.223   1.694   8.085 -0.8618  1.0797  1.0244
 8434SOL     OW36934   0.601   3.900   2.817 -0.6249 -0.2918  0.0186
 8434SOL    HW136935   0.693   3.874   2.823 -0.6909 -0.1580  1.5413
 8434SOL    HW236936   0.550   3.824   2.844  0.2239 -0.6705  0.5643
 8435SOL     OW36937   0.456   0.011  12.290 -0.0804  0.2458  0.2125
 8435SOL    HW136938   0.507   0.028  12.369  1.3785 -0.3947 -0.5944
 8435SOL    HW236939   0.513   0.030  12.216 -0.6061 -1.9395 -0.7825
 8436SOL     OW36940   0.229   2.867   4.119  0.0594 -0.2680  0.5292
 8436SOL    HW136941   0.305   2.833   4.072 -0.7154 -0.6038 -0.4953
 8436SOL    HW236942   0.185   2.913   4.047  1.2430  1.7530  1.1291
 8437SOL     OW36943   1.920   2.274  12.304 -0.4082  0.0515  0.1864
 8437SOL    HW136944   1.998   2.299  12.255  0.5757  1.0131  2.2509
 8437SOL    HW236945   1.871   2.237  12.231 -0.0049  0.0176 -0.0697
 8438SOL     OW36946   3.677   1.562   6.106 -0.1670  0.4823  0.0101
 8438SOL    HW136947   3.751   1.501   6.106 -0.3725  0.2312  2.0038
 8438SOL    HW236948   3.725   1.642   6.085  1.0728  0.0924  1.3874
 8439SOL     OW36949   0.014   1.713  12.965  0.5148 -0.0536 -0.2781
 8439SOL    HW136950   0.056   1.776  12.907 -0.8512  0.1721 -1.0381
 8439SOL    HW236951   0.045   1.635  12.918 -0.2890 -1.0184  0.7768
 8440SOL     OW36952   2.849   0.572  10.040 -0.1405  0.3951 -0.2255
 8440SOL    HW136953   2.936   0.588  10.078  1.0316 -0.1838 -2.6864
 8440SOL    HW236954   2.837   0.653   9.991 -0.0560  0.1473 -0.6564
 8441SOL     OW36955   1.297   3.212   5.862 -0.0214  0.0400 -0.5766
 8441SOL    HW136956   1.206   3.214   5.831 -0.4580  0.0986  0.7089
 8441SOL    HW236957   1.294   3.137   5.922 -0.2509 -0.5461 -1.3309
 8442SOL     OW36958   1.939   4.678  17.449 -0.2036 -0.1754  0.0785
 8442SOL    HW136959   1.941   4.625  17.529 -2.3145  0.4413  0.5531
 8442SOL    HW236960   1.872   4.629  17.401  0.9137 -0.2272 -1.4363
 8443SOL     OW36961   3.020   3.247   3.702 -0.0424 -0.2887  0.1219
 8443SOL    HW136962   2.998   3.256   3.609 -0.4997 -0.3712  0.2213
 8443SOL    HW236963   3.017   3.152   3.714  3.6176 -0.3481  0.6869
 8444SOL     OW36964   1.732   1.320   8.135 -0.1088 -0.4193  0.0321
 8444SOL    HW136965   1.709   1.302   8.226 -0.6344  1.9466  0.3598
 8444SOL    HW236966   1.677   1.250   8.097  0.1930 -0.0788 -1.0244
 8445SOL     OW36967   2.398   3.148   8.910 -0.1079  0.0273  0.2785
 8445SOL    HW136968   2.325   3.089   8.930 -0.1671 -0.0235 -0.0959
 8445SOL    HW236969   2.354   3.228   8.940  1.8329  0.8535  0.8859
 8446SOL     OW36970   3.204   3.912  16.272  0.0289 -0.2383  0.7316
 8446SOL    HW136971   3.257   3.974  16.223 -2.5256  0.7520 -0.7544
 8446SOL    HW236972   3.160   3.855  16.209  1.3156  0.1763 -0.5280
 8447SOL     OW36973   4.618   3.589   6.614  0.7008 -0.3738  0.1695
 8447SOL    HW136974   4.664   3.556   6.537  0.4242  1.4023 -0.7592
 8447SOL    HW236975   4.641   3.522   6.678  1.4033 -0.7170 -0.4526
 8448SOL     OW36976   4.053   1.366   2.629 -0.8577  0.0733 -0.3428
 8448SOL    HW136977   3.957   1.367   2.633 -0.7497 -1.5867  2.8954
 8448SOL    HW236978   4.054   1.291   2.569 -1.3597 -0.7341  0.6476
 8449SOL     OW36979   2.420   1.081   3.164 -0.3215 -0.0933  0.4248
 8449SOL    HW136980   2.338   1.123   3.138  1.1753  1.6035 -1.5054
 8449SOL    HW236981   2.459   1.136   3.232 -0.2366 -0.9700  1.1001
 8450SOL     OW36982   3.203   1.734   5.490 -0.2452  0.4156  0.1349
 8450SOL    HW136983   3.209   1.689   5.574  0.9582 -0.4370 -0.3947
 8450SOL    HW236984   3.117   1.712   5.453  0.2142  0.9560 -1.2644
 8451SOL     OW36985   2.945   2.921   8.329  0.5016 -0.2398  0.1594
 8451SOL    HW136986   2.950   2.848   8.390 -2.0089  0.3948  1.1244
 8451SOL    HW236987   2.956   2.866   8.252  0.3677  1.3897 -1.0341
 8452SOL     OW36988   0.830   1.897   9.060  0.2563  0.0217 -0.7645
 8452SOL    HW136989   0.875   1.881   9.143  0.9922 -0.5514 -1.2706
 8452SOL    HW236990   0.888   1.972   9.044 -1.4164  1.2715 -1.0145
 8453SOL     OW36991   0.649   1.001  17.366  0.0018  0.1313 -0.6329
 8453SOL    HW136992   0.573   0.978  17.419  0.3368 -1.0314 -0.6587
 8453SOL    HW236993   0.652   1.096  17.369  0.3345  0.0794  0.4166
 8454SOL     OW36994   3.961   3.245   9.618 -0.6386 -0.7475  0.1661
 8454SOL    HW136995   3.951   3.185   9.691  0.5456 -1.0973  0.0506
 8454SOL    HW236996   4.030   3.213   9.560  0.1403  0.5262  0.3800
 8455SOL     OW36997   1.806   2.152  11.116 -0.1711  0.1504  0.0887
 8455SOL    HW136998   1.832   2.063  11.094  1.1557 -0.3430  3.6593
 8455SOL    HW236999   1.885   2.182  11.160 -0.3199  0.6868 -0.0142
 8456SOL     OW37000   3.665   2.025  16.091  0.0329 -0.6529  0.4597
 8456SOL    HW137001   3.585   1.998  16.047  0.6005  0.6821 -1.3991
 8456SOL    HW237002   3.725   1.970  16.042  1.5578  0.6474  0.8448
 8457SOL     OW37003   1.953   2.951  11.506 -0.3609  0.0059 -0.2907
 8457SOL    HW137004   1.912   3.031  11.540 -0.8041 -0.1493 -0.4672
 8457SOL    HW237005   1.959   2.907  11.591  0.3853 -0.8634 -0.7927
 8458SOL     OW37006   1.076   1.637   2.935  0.4624 -0.6347 -0.2340
 8458SOL    HW137007   1.157   1.626   2.986 -0.0546 -0.4001  0.6395
 8458SOL    HW237008   1.094   1.596   2.850  0.2264 -1.2933  0.0296
 8459SOL     OW37009   0.694   3.722  14.863 -0.4879  0.1271  0.2658
 8459SOL    HW137010   0.744   3.790  14.817 -1.2232  0.1042 -0.5828
 8459SOL    HW237011   0.621   3.776  14.893 -0.5875  1.0122 -1.5679
 8460SOL     OW37012   2.079   2.115  13.064  0.0190  0.1828 -0.5178
 8460SOL    HW137013   2.037   2.093  12.981 -0.4954  2.7200 -0.9170
 8460SOL    HW237014   2.172   2.123  13.043  0.5957 -1.7362  1.3246
 8461SOL     OW37015   2.599   1.689   9.061  0.3289 -0.0745 -0.0049
 8461SOL    HW137016   2.567   1.696   9.151  1.6299 -0.3136  0.4738
 8461SOL    HW237017   2.686   1.728   9.068 -0.1851  0.9265  0.7273
 8462SOL     OW37018   1.217   3.292   3.463  0.3652 -0.4007  0.0650
 8462SOL    HW137019   1.139   3.264   3.414  2.0983 -1.1879 -2.2110
 8462SOL    HW237020   1.206   3.387   3.452 -0.5498 -0.5114 -0.0053
 8463SOL     OW37021   2.828   1.154   7.335 -0.7532 -0.1329 -0.1155
 8463SOL    HW137022   2.772   1.184   7.263 -2.7682 -1.8676  0.7291
 8463SOL    HW237023   2.762   1.171   7.402  0.0775 -0.7070  0.8490
 8464SOL     OW37024   2.682   2.650   5.359  0.3945  0.3379  0.0616
 8464SOL    HW137025   2.606   2.701   5.388 -0.3477 -0.0937 -1.1074
 8464SOL    HW237026   2.641   2.570   5.325 -0.9905  0.8438  0.5358
 8465SOL     OW37027   1.857   3.425   4.235 -0.0127  0.4201  0.0410
 8465SOL    HW137028   1.913   3.502   4.224  2.0890 -1.1253 -0.1982
 8465SOL    HW237029   1.788   3.471   4.281 -0.2123  0.5150 -0.3517
 8466SOL     OW37030   3.533   2.771   9.196 -0.4826  0.3603  0.0139
 8466SOL    HW137031   3.458   2.717   9.220 -0.5707  0.6780  0.4417
 8466SOL    HW237032   3.596   2.701   9.178  0.0917  0.6306  0.9614
 8467SOL     OW37033   4.587   3.354   4.455  1.2168  0.3065 -0.1111
 8467SOL    HW137034   4.507   3.388   4.414  1.5642 -1.0435 -1.8842
 8467SOL    HW237035   4.654   3.364   4.387  0.3943 -0.9542 -1.0990
 8468SOL     OW37036   0.424   0.786   2.822 -0.8929  0.0355  0.2638
 8468SOL    HW137037   0.425   0.771   2.916  0.9413 -0.0835  0.2177
 8468SOL    HW237038   0.477   0.865   2.811 -2.2884  1.0187  0.7170
 8469SOL     OW37039   3.638   2.269   8.578  0.0940  0.5741 -0.3906
 8469SOL    HW137040   3.720   2.319   8.579  0.9926 -0.9315  2.2286
 8469SOL    HW237041   3.647   2.225   8.493 -4.3398  0.9410 -1.0592
 8470SOL     OW37042   4.427   1.052   8.408  0.0663  0.3548 -0.0152
 8470SOL    HW137043   4.433   0.985   8.340  1.3130  0.2465  0.2118
 8470SOL    HW237044   4.436   1.130   8.352  1.5355 -1.7990 -2.7591
 8471SOL     OW37045   0.583   4.273  15.734 -0.1861  0.1966  0.7095
 8471SOL    HW137046   0.639   4.220  15.790 -0.0375 -0.4873 -0.0917
 8471SOL    HW237047   0.646   4.335  15.698  0.3144 -1.8778 -2.0140
 8472SOL     OW37048   1.262   3.734   9.779  0.2233  0.4971 -0.3293
 8472SOL    HW137049   1.174   3.704   9.799  1.0844 -0.8848  1.4385
 8472SOL    HW237050   1.279   3.659   9.723 -1.7014  1.2094 -1.8290
 8473SOL     OW37051   3.730   2.651   0.148  0.0766  0.3884 -0.2476
 8473SOL    HW137052   3.673   2.728   0.144 -1.9658 -1.0088  1.9151
 8473SOL    HW237053   3.690   2.604   0.075 -2.6009  1.2530  0.6407
 8474SOL     OW37054   0.614   3.619   5.465 -0.5781  0.4404  0.1063
 8474SOL    HW137055   0.647   3.536   5.431 -2.1346  1.1700 -3.2088
 8474SOL    HW237056   0.524   3.625   5.433 -1.0583 -2.7611  0.8884
 8475SOL     OW37057   2.266   4.018  12.619  0.0382  0.0854 -0.0347
 8475SOL    HW137058   2.291   3.982  12.705  2.6401  3.0363  0.4537
 8475SOL    HW237059   2.341   3.992  12.567 -1.1921 -1.0497 -1.2359
 8476SOL     OW37060   4.557   4.363   8.042 -0.1683  0.0543 -0.1748
 8476SOL    HW137061   4.573   4.426   8.112 -2.9304 -0.2147  0.6787
 8476SOL    HW237062   4.595   4.281   8.076 -1.3195 -0.1865  0.5148
 8477SOL     OW37063   0.237   1.463  11.041 -0.4006 -0.0293  0.6142
 8477SOL    HW137064   0.159   1.502  11.079 -0.6458  1.5821 -1.5382
 8477SOL    HW237065   0.247   1.402  11.114  2.8662 -0.6962 -0.4015
 8478SOL     OW37066   4.440   1.623   4.858  0.1458 -0.2377  0.1130
 8478SOL    HW137067   4.507   1.579   4.910 -0.4108 -0.6646  0.4612
 8478SOL    HW237068   4.492   1.688   4.809  0.7485 -0.3417  0.6145
 8479SOL     OW37069   3.044   1.971  10.225 -0.8222 -0.4287  0.1645
 8479SOL    HW137070   3.131   1.930  10.228 -0.0036  1.4227  2.4389
 8479SOL    HW237071   3.006   1.964  10.313 -1.2973  0.7935  0.0573
 8480SOL     OW37072   1.125   2.462   6.534 -0.0030  0.3103 -0.2218
 8480SOL    HW137073   1.042   2.424   6.562  0.8351 -2.8026 -1.8903
 8480SOL    HW237074   1.183   2.415   6.595  0.4287 -0.8219 -1.4999
 8481SOL     OW37075   2.433   0.281   9.914 -0.2298  0.0728  0.2587
 8481SOL    HW137076   2.444   0.232   9.995 -0.1014 -0.3229  0.0007
 8481SOL    HW237077   2.516   0.327   9.920  0.2774 -0.5359 -2.2046
 8482SOL     OW37078   3.448   4.360   4.930  0.6390  0.6043 -0.2336
 8482SOL    HW137079   3.440   4.349   5.025  2.2679  0.1574 -0.1456
 8482SOL    HW237080   3.355   4.362   4.909  1.0109  1.3429 -1.8013
 8483SOL     OW37081   2.875   1.663   0.667 -0.4118 -0.2855 -0.0863
 8483SOL    HW137082   2.798   1.614   0.637  1.2900 -1.2892 -2.9131
 8483SOL    HW237083   2.942   1.650   0.599  2.3913 -0.7296  2.7841
 8484SOL     OW37084   0.429   1.890  10.922  0.7278  0.0625  0.4221
 8484SOL    HW137085   0.409   1.888  11.015  2.1018  0.8072  0.7360
 8484SOL    HW237086   0.376   1.959  10.882  0.7796 -1.6996 -2.6893
 8485SOL     OW37087   0.540   1.598   5.190 -0.5153  0.0926 -0.2633
 8485SOL    HW137088   0.489   1.654   5.249 -0.3629 -1.3069  1.1841
 8485SOL    HW237089   0.469   1.579   5.129 -0.9609  1.9479 -0.3388
 8486SOL     OW37090   0.938   4.697   0.907 -0.1656  0.8623 -0.5349
 8486SOL    HW137091   0.957   4.619   0.960 -0.2213  0.6800 -0.7842
 8486SOL    HW237092   0.970   0.034   0.961  0.2998  0.7040 -0.5988
 8487SOL     OW37093   1.170   0.954   1.691  0.0366  0.1826 -0.2363
 8487SOL    HW137094   1.196   1.045   1.705  0.9057 -0.3217  1.3297
 8487SOL    HW237095   1.097   0.955   1.753 -0.6292 -0.4142 -1.0108
 8488SOL     OW37096   0.740   3.920   0.039  0.5397 -0.1763  0.0769
 8488SOL    HW137097   0.777   4.001   0.073 -0.0676 -0.3134  1.0724
 8488SOL    HW237098   0.807   3.860   0.072 -0.2354  0.5117  2.8699
 8489SOL     OW37099   1.296   0.043   3.294  0.3450 -0.2321  0.1012
 8489SOL    HW137100   1.207   0.061   3.264  0.7099 -0.3884 -1.0900
 8489SOL    HW237101   1.282   4.700   3.348  1.0998  0.0636  0.7283
 8490SOL     OW37102   4.338   4.520   3.067  0.5116  0.0320  0.0458
 8490SOL    HW137103   4.411   4.458   3.065  0.7115  0.2605  0.1623
 8490SOL    HW237104   4.352   4.558   3.154  3.1076  1.2700 -0.8840
 8491SOL     OW37105   1.615   4.037   5.325 -0.5363  0.3817 -0.1379
 8491SOL    HW137106   1.661   4.052   5.408 -0.4054 -0.8733  0.0178
 8491SOL    HW237107   1.685   4.030   5.261  0.1044  1.0363  0.5006
 8492SOL     OW37108   0.541   0.678  17.405  1.2024 -0.2121 -0.1597
 8492SOL    HW137109   0.447   0.683  17.424  0.5966 -0.6045 -3.1254
 8492SOL    HW237110   0.575   0.766  17.393 -0.0703  0.3908  0.6309
 8493SOL     OW37111   1.522   0.139   5.368  0.2867  0.3285  0.1816
 8493SOL    HW137112   1.504   0.145   5.274  2.2261  1.3586 -0.1250
 8493SOL    HW237113   1.563   0.224   5.380 -1.0417  1.0860 -0.6699
 8494SOL     OW37114   0.584   2.505   9.486  0.0027 -0.6563 -0.3702
 8494SOL    HW137115   0.569   2.477   9.396 -1.0286  1.7820 -0.9831
 8494SOL    HW237116   0.650   2.442   9.513 -0.2684  0.2370  2.3821
 8495SOL     OW37117   3.253   3.610   6.000  0.4199 -0.3809 -0.1834
 8495SOL    HW137118   3.223   3.596   6.090  1.6303  0.5910  0.3656
 8495SOL    HW237119   3.177   3.629   5.945  0.5145 -1.2029 -0.5958
 8496SOL     OW37120   0.818   3.287   3.949  0.2626 -0.0942 -0.9825
 8496SOL    HW137121   0.735   3.299   3.995 -0.2575  0.7104 -2.1160
 8496SOL    HW237122   0.870   3.361   3.979  0.9653 -0.5944 -0.9831
 8497SOL     OW37123   0.962   1.076   6.471 -0.1433  0.3148 -0.4370
 8497SOL    HW137124   0.922   1.127   6.542 -1.1216 -1.6327  0.3897
 8497SOL    HW237125   0.994   1.146   6.414  1.9348 -0.0686  0.2614
 8498SOL     OW37126   0.682   0.795   2.137  1.0047 -0.3594  0.2139
 8498SOL    HW137127   0.686   0.699   2.141 -0.6778 -0.4982 -1.2590
 8498SOL    HW237128   0.625   0.805   2.060 -0.8306 -1.2883  1.4272
 8499SOL     OW37129   3.777   0.281   7.572 -0.0234 -0.3289  0.4469
 8499SOL    HW137130   3.702   0.332   7.602 -0.4088 -1.1470  0.8603
 8499SOL    HW237131   3.758   0.279   7.478 -1.4033 -0.9404  0.7484
 8500SOL     OW37132   2.991   2.503   6.329 -0.5088 -0.5090  0.2410
 8500SOL    HW137133   2.939   2.581   6.344 -0.0322 -0.0330 -0.5853
 8500SOL    HW237134   3.056   2.544   6.272 -1.7683  0.9821 -0.1009
 8501SOL     OW37135   0.995   3.775  17.155  0.1268 -0.8251  0.3082
 8501SOL    HW137136   1.028   3.751  17.241  2.2106 -1.2917 -0.6229
 8501SOL    HW237137   0.917   3.824  17.180 -2.7410 -3.7426 -2.8985
 8502SOL     OW37138   3.082   4.342   5.190 -0.1875 -0.0752 -0.8446
 8502SOL    HW137139   3.053   4.390   5.267  1.6058  2.1711 -1.5968
 8502SOL    HW237140   3.119   4.263   5.230  0.4266  0.2526 -0.7672
 8503SOL     OW37141   3.516   3.743   5.487  0.2632 -0.0594 -0.1641
 8503SOL    HW137142   3.491   3.664   5.535 -1.2263  2.0006  2.4088
 8503SOL    HW237143   3.612   3.735   5.485  0.2378 -0.4919  0.4402
 8504SOL     OW37144   3.797   1.183   9.260 -0.7073 -0.0628 -0.4282
 8504SOL    HW137145   3.745   1.106   9.238 -1.0551  0.0316  0.0707
 8504SOL    HW237146   3.883   1.148   9.238  0.6940  2.0834  1.6308
 8505SOL     OW37147   4.481   3.152   9.271 -0.8193 -0.2630 -0.3280
 8505SOL    HW137148   4.559   3.141   9.217 -0.4099 -1.4749  0.5104
 8505SOL    HW237149   4.451   3.062   9.280 -1.0556 -0.2141 -0.6248
 8506SOL     OW37150   2.455   2.284  12.608  0.4674 -0.4123 -0.5988
 8506SOL    HW137151   2.468   2.190  12.618 -0.3112 -0.8168 -3.5603
 8506SOL    HW237152   2.400   2.286  12.530 -0.0482 -1.3195 -0.2621
 8507SOL     OW37153   2.374   4.419   3.121  0.3764 -0.5540  0.1136
 8507SOL    HW137154   2.333   4.375   3.046  0.3221 -0.3259  0.0065
 8507SOL    HW237155   2.360   4.354   3.189  2.3991 -0.4805  0.5835
 8508SOL     OW37156   4.526   2.559   4.570  0.9323  0.1542 -0.1525
 8508SOL    HW137157   4.512   2.481   4.516  1.2113 -0.5722  0.8225
 8508SOL    HW237158   4.619   2.557   4.590  0.9597 -2.0917 -0.5166
 8509SOL     OW37159   0.010   1.159   8.363  0.0462 -0.2955  0.6182
 8509SOL    HW137160   0.009   1.072   8.402  0.4739 -0.9580 -0.8118
 8509SOL    HW237161   4.683   1.155   8.290  0.8284  0.3018 -0.0934
 8510SOL     OW37162   1.972   1.167   0.172 -0.1007 -0.0430 -0.2620
 8510SOL    HW137163   2.035   1.096   0.185 -0.6063 -0.7556 -1.6521
 8510SOL    HW237164   1.893   1.114   0.182  0.2642 -0.3260  1.0938
 8511SOL     OW37165   1.683   1.596   3.713 -0.2491  0.0774 -0.0887
 8511SOL    HW137166   1.700   1.685   3.745  0.6057  0.2998 -1.1388
 8511SOL    HW237167   1.740   1.551   3.776  1.6519 -1.7960 -3.1221
 8512SOL     OW37168   4.013   3.791   9.396 -0.1614  1.0922 -0.0380
 8512SOL    HW137169   4.029   3.700   9.373 -2.5269  0.8442 -0.7701
 8512SOL    HW237170   4.100   3.828   9.409  0.8056 -0.9343 -0.7022
 8513SOL     OW37171   1.836   4.107  10.362 -0.1965  0.2436 -1.0221
 8513SOL    HW137172   1.796   4.132  10.279  0.1585  1.5719 -0.7863
 8513SOL    HW237173   1.925   4.087  10.333 -0.1658 -1.4971  0.2186
 8514SOL     OW37174   1.594   0.337   6.498  0.2326 -0.2808  0.0849
 8514SOL    HW137175   1.658   0.349   6.428 -0.8786 -0.5172 -0.9759
 8514SOL    HW237176   1.530   0.407   6.483 -0.2803 -0.4270  1.6995
 8515SOL     OW37177   1.615   0.430   5.787  0.0173  0.4427 -0.1868
 8515SOL    HW137178   1.550   0.444   5.856 -0.0014 -0.3727 -0.0415
 8515SOL    HW237179   1.569   0.463   5.709  2.3144  1.0854 -1.2534
 8516SOL     OW37180   1.516   1.131   9.561 -0.4305 -0.1718  0.5142
 8516SOL    HW137181   1.436   1.077   9.567 -0.5003 -0.0823  0.3715
 8516SOL    HW237182   1.568   1.089   9.493  0.0982  2.1366 -0.4969
 8517SOL     OW37183   1.732   2.887   9.151  0.1201  0.2140  0.2503
 8517SOL    HW137184   1.755   2.974   9.183 -0.1389 -0.0263  1.1020
 8517SOL    HW237185   1.679   2.846   9.220  1.2210  0.0953  1.0170
 8518SOL     OW37186   2.038   1.047   8.128  0.5844  0.0202  0.1657
 8518SOL    HW137187   2.018   0.960   8.161 -1.6620  0.4233 -0.1759
 8518SOL    HW237188   2.083   1.094   8.199 -0.6074 -2.2846  2.4041
 8519SOL     OW37189   3.436   3.430  17.281  0.1897  0.0497 -0.5506
 8519SOL    HW137190   3.449   3.346  17.237  1.0138  0.3499 -0.8866
 8519SOL    HW237191   3.524   3.467  17.274 -0.1449  0.9160 -0.1942
 8520SOL     OW37192   3.568   1.493   8.080  0.2051 -0.0886 -0.0789
 8520SOL    HW137193   3.611   1.416   8.117 -1.9988 -0.8865  0.8164
 8520SOL    HW237194   3.479   1.482   8.113  0.6405 -1.2840  0.7089
 8521SOL     OW37195   0.567   3.579   5.724  0.1766 -0.0529  0.5951
 8521SOL    HW137196   0.488   3.561   5.674  0.4152  3.0851 -0.9357
 8521SOL    HW237197   0.616   3.617   5.651  0.1122  2.0718  1.6438
 8522SOL     OW37198   2.498   1.391   9.454  0.3900  0.7093 -0.3087
 8522SOL    HW137199   2.429   1.415   9.517  0.7163  0.0428  0.2999
 8522SOL    HW237200   2.555   1.452   9.500  0.3753 -0.1622  0.8576
 8523SOL     OW37201   0.268   0.030   7.390 -1.0259 -0.0747 -0.4001
 8523SOL    HW137202   0.277   0.040   7.485  2.0481  1.9032 -0.9096
 8523SOL    HW237203   0.178   0.062   7.380 -0.9708  0.7683  1.8867
 8524SOL     OW37204   1.588   2.659   5.552 -0.5119 -0.2193 -0.4801
 8524SOL    HW137205   1.521   2.726   5.540 -1.4630 -1.2895 -1.1128
 8524SOL    HW237206   1.601   2.685   5.643  0.7196 -1.4471 -0.2964
 8525SOL     OW37207   1.275   1.421   2.249  0.0493  0.4565  1.2683
 8525SOL    HW137208   1.247   1.339   2.209 -0.4854  0.3971  1.7678
 8525SOL    HW237209   1.370   1.408   2.247  0.3537  3.3193 -1.6603
 8526SOL     OW37210   0.874   0.673  17.509  0.2830  0.2024  0.0052
 8526SOL    HW137211   0.882   0.688  17.414 -2.0723  2.1553  0.1146
 8526SOL    HW237212   0.967   0.680  17.529  0.6972 -0.7325 -1.5999
 8527SOL     OW37213   0.762   1.524   7.788 -0.5222  0.1802 -0.1665
 8527SOL    HW137214   0.857   1.509   7.784 -0.5616 -0.5479  1.6503
 8527SOL    HW237215   0.740   1.512   7.880  2.0969 -2.2229  0.1445
 8528SOL     OW37216   1.947   4.054   8.363  0.6543 -0.2631 -0.1585
 8528SOL    HW137217   1.876   4.118   8.360  1.9561  1.1663 -0.3745
 8528SOL    HW237218   1.986   4.057   8.276  1.8581  0.0725  0.3782
 8529SOL     OW37219   4.578   4.078   4.237  0.1049 -0.0828  0.6670
 8529SOL    HW137220   4.618   4.009   4.290  0.5989 -0.7518 -0.5885
 8529SOL    HW237221   4.650   4.134   4.208 -1.4418  1.3438 -0.3639
 8530SOL     OW37222   0.499   3.095   4.137 -0.3888 -0.2891  0.6470
 8530SOL    HW137223   0.543   3.170   4.177  1.1645 -0.8699  0.0487
 8530SOL    HW237224   0.574   3.035   4.133  0.5352  0.8598  0.6473
 8531SOL     OW37225   0.823   2.230  14.839  0.2333 -0.3299  0.4325
 8531SOL    HW137226   0.771   2.291  14.893  1.2550  0.2790  0.7265
 8531SOL    HW237227   0.753   2.190  14.788 -0.3499 -1.1683  1.8904
 8532SOL     OW37228   1.414   2.637   6.196  0.5563  0.1080 -0.0700
 8532SOL    HW137229   1.335   2.610   6.243  1.3474  0.0847  1.2706
 8532SOL    HW237230   1.378   2.724   6.179 -2.0515 -1.3114 -1.6328
 8533SOL     OW37231   0.593   3.201   0.644 -0.6095  0.3599 -0.1481
 8533SOL    HW137232   0.646   3.171   0.570 -1.7439 -0.0990 -0.7685
 8533SOL    HW237233   0.512   3.233   0.605 -0.1900  0.1595 -1.1857
 8534SOL     OW37234   4.547   1.198  16.954 -0.0281 -0.0002 -0.7083
 8534SOL    HW137235   4.549   1.104  16.933  2.3410 -0.0204 -0.4294
 8534SOL    HW237236   4.464   1.235  16.925 -0.4642 -0.5259 -0.1272
 8535SOL     OW37237   2.249   2.001   9.685  0.0671  0.2506  0.2715
 8535SOL    HW137238   2.307   1.967   9.617 -0.5472 -1.1031  0.4284
 8535SOL    HW237239   2.307   2.072   9.714  0.2378  0.0654  0.3850
 8536SOL     OW37240   2.122   2.833   7.737 -0.0599 -0.3479 -0.0826
 8536SOL    HW137241   2.100   2.925   7.719 -1.6634 -1.0046 -1.4771
 8536SOL    HW237242   2.216   2.838   7.756 -0.3501 -2.0472  1.6732
 8537SOL     OW37243   3.703   2.604  13.125  0.2402  0.4373  0.7773
 8537SOL    HW137244   3.688   2.677  13.065 -0.0806 -0.1147  0.1923
 8537SOL    HW237245   3.699   2.537  13.057 -0.5420  0.5241  0.7467
 8538SOL     OW37246   4.018   2.632   4.094  0.1646 -0.3468  0.6146
 8538SOL    HW137247   3.930   2.664   4.077  0.6379  0.7617  0.2377
 8538SOL    HW237248   4.000   2.555   4.148 -2.8282 -0.6880 -0.9037
 8539SOL     OW37249   4.154   4.361   1.018 -0.0468  0.0720  0.2921
 8539SOL    HW137250   4.201   4.363   0.934 -0.9884  0.7572 -0.2199
 8539SOL    HW237251   4.158   4.267   1.033 -0.9987  0.2110  1.3968
 8540SOL     OW37252   3.039   4.144   2.474  0.2185 -0.6232 -0.8146
 8540SOL    HW137253   2.961   4.199   2.477  1.8922  1.7547 -0.2989
 8540SOL    HW237254   3.079   4.146   2.560 -2.8424  0.5351  0.5721
 8541SOL     OW37255   1.181   1.487   3.851  0.8386  0.1738 -0.2167
 8541SOL    HW137256   1.249   1.518   3.791 -1.1908  0.4259 -2.3854
 8541SOL    HW237257   1.206   1.531   3.933 -0.3886 -1.0607  0.8205
 8542SOL     OW37258   0.353   0.548   4.411  0.7939  0.0776 -0.3702
 8542SOL    HW137259   0.410   0.593   4.474 -0.2637 -0.9799  1.3489
 8542SOL    HW237260   0.358   0.458   4.445 -1.2188 -0.3780 -1.3059
 8543SOL     OW37261   1.618   1.862   4.811  0.4288 -0.0301 -0.1581
 8543SOL    HW137262   1.639   1.944   4.854 -2.2894 -0.0400  1.2286
 8543SOL    HW237263   1.617   1.802   4.885 -1.9646  1.1879  0.8094
 8544SOL     OW37264   0.903   1.858   5.358  0.0723  0.7865 -0.3993
 8544SOL    HW137265   0.899   1.883   5.451  1.1988 -0.2497 -0.0682
 8544SOL    HW237266   0.841   1.785   5.360 -0.3923  1.1729 -0.8668
 8545SOL     OW37267   0.394   1.537  17.404  0.3310 -0.3798  0.1907
 8545SOL    HW137268   0.465   1.535  17.340  1.1207  0.6781  1.0430
 8545SOL    HW237269   0.315   1.569  17.360  0.6621 -0.8240 -0.7395
 8546SOL     OW37270   3.690   1.231   8.161 -0.6060  0.3543 -0.2191
 8546SOL    HW137271   3.618   1.169   8.173 -0.2941 -0.3789 -2.0793
 8546SOL    HW237272   3.762   1.168   8.164  0.2152  1.3198 -0.1322
 8547SOL     OW37273   4.238   4.184   1.579  0.5932 -0.6224 -0.1137
 8547SOL    HW137274   4.270   4.272   1.558 -1.8138 -0.1982 -1.9398
 8547SOL    HW237275   4.318   4.145   1.616  1.1254  1.0229  0.4465
 8548SOL     OW37276   0.295   0.956   0.249 -0.6108 -0.2856  0.6183
 8548SOL    HW137277   0.290   1.013   0.173  0.4631 -0.4465  0.4292
 8548SOL    HW237278   0.360   0.890   0.223  0.4689 -0.2043  3.0965
 8549SOL     OW37279   3.285   1.348  15.514 -0.0238  0.1464 -0.3504
 8549SOL    HW137280   3.328   1.300  15.584  0.7885 -1.7703 -2.1531
 8549SOL    HW237281   3.329   1.430  15.533 -2.6220  1.6399 -0.7548
 8550SOL     OW37282   2.008   0.671  14.061  0.0886 -0.0798  0.3825
 8550SOL    HW137283   1.943   0.729  14.022 -0.9019 -0.4081  1.5308
 8550SOL    HW237284   2.080   0.732  14.078  0.2438  0.2858 -1.6556
 8551SOL     OW37285   3.516   3.609   2.723 -0.0242 -0.5024  0.2752
 8551SOL    HW137286   3.485   3.591   2.811  0.6208  1.5440  0.9270
 8551SOL    HW237287   3.473   3.543   2.668 -2.3482  0.7724  0.5496
 8552SOL     OW37288   0.495   4.581   5.386  0.2498  0.4007 -0.1408
 8552SOL    HW137289   0.530   4.668   5.370 -0.8058  1.1250  1.5112
 8552SOL    HW237290   0.470   4.598   5.476 -0.0636 -1.6960  0.1733
 8553SOL     OW37291   4.650   4.296  11.172  0.2582  0.0645 -0.5651
 8553SOL    HW137292   0.002   4.276  11.137  1.9640  2.3966  2.3256
 8553SOL    HW237293   4.605   4.294  11.088  1.1096  0.5258 -1.0309
 8554SOL     OW37294   3.771   0.300   6.391  0.3823 -0.5934 -0.0361
 8554SOL    HW137295   3.691   0.318   6.440  0.3765  0.1267 -0.3059
 8554SOL    HW237296   3.823   0.235   6.438  1.9395 -1.4859 -2.9447
 8555SOL     OW37297   4.728   4.153   3.131  0.3852  0.9088 -0.2496
 8555SOL    HW137298   0.084   4.126   3.118 -0.3294 -1.4676 -0.3716
 8555SOL    HW237299   0.018   4.206   3.207  0.4441  1.0699 -0.3841
 8556SOL     OW37300   4.037   0.529   5.487  0.2932 -0.3741 -0.1310
 8556SOL    HW137301   4.016   0.615   5.448 -1.3290 -0.1003  1.3998
 8556SOL    HW237302   4.031   0.469   5.413  1.6668  1.8069 -2.0458
 8557SOL     OW37303   2.739   4.630   3.722 -0.2241 -0.6653 -0.0736
 8557SOL    HW137304   2.697   4.555   3.680 -0.0874 -1.8984  2.0250
 8557SOL    HW237305   2.668   4.681   3.761 -0.3896 -1.0015  0.0650
 8558SOL     OW37306   4.520   0.483   1.517  0.1690  0.0532 -0.5808
 8558SOL    HW137307   4.521   0.527   1.432 -0.7270  1.2909  0.0632
 8558SOL    HW237308   4.529   0.558   1.576  2.3271  2.8649 -4.4958
 8559SOL     OW37309   2.682   1.586  17.119 -0.3011 -0.2240  0.0260
 8559SOL    HW137310   2.612   1.528  17.092 -0.8794  0.3621  0.2640
 8559SOL    HW237311   2.754   1.550  17.066 -0.3704  1.6885 -1.3869
 8560SOL     OW37312   3.093   4.395   3.150 -0.7551  0.6016 -0.6424
 8560SOL    HW137313   3.079   4.472   3.205 -1.4082 -0.5584  0.8315
 8560SOL    HW237314   3.079   4.321   3.210  1.0074 -0.1098 -1.0934
 8561SOL     OW37315   2.014   1.450   8.121  0.1800  0.1012  0.4443
 8561SOL    HW137316   1.949   1.380   8.121  1.7510 -1.3766 -1.6087
 8561SOL    HW237317   2.090   1.407   8.081 -0.3722 -0.4609  0.0067
 8562SOL     OW37318   1.542   2.761  15.656 -0.1220 -0.3667  0.3592
 8562SOL    HW137319   1.545   2.693  15.589  0.0507 -0.3362  0.3382
 8562SOL    HW237320   1.593   2.838  15.633 -1.9869  1.0707  0.9872
 8563SOL     OW37321   1.539   1.034  11.649 -0.1646 -0.3755  0.3453
 8563SOL    HW137322   1.558   1.058  11.558 -0.3913 -1.1859  0.0844
 8563SOL    HW237323   1.620   1.054  11.696  0.7420 -2.3228 -0.3949
 8564SOL     OW37324   1.248   1.585   7.653  0.3651 -0.7643 -0.3306
 8564SOL    HW137325   1.255   1.677   7.676  0.4946 -0.4764 -1.5545
 8564SOL    HW237326   1.342   1.568   7.643  0.2951 -1.1031 -0.4404
 8565SOL     OW37327   0.387   3.559   4.029  0.0702 -0.5372 -0.1691
 8565SOL    HW137328   0.304   3.605   4.041  0.6527  0.6654 -0.7749
 8565SOL    HW237329   0.359   3.477   4.070  0.4134  1.3014  3.7059
 8566SOL     OW37330   1.498   0.622   1.837  0.4307 -0.5973 -0.4544
 8566SOL    HW137331   1.442   0.559   1.792 -1.9223  0.2698  1.2403
 8566SOL    HW237332   1.448   0.636   1.917 -0.1677 -1.6041 -0.6560
 8567SOL     OW37333   3.995   0.551   2.105 -0.1042  0.2570 -0.1682
 8567SOL    HW137334   4.017   0.569   2.197  0.0613  1.0516 -0.3604
 8567SOL    HW237335   3.907   0.586   2.095 -1.1206 -1.6673  2.1564
 8568SOL     OW37336   4.355   0.110   4.854 -0.7275 -0.2749  1.1128
 8568SOL    HW137337   4.290   0.119   4.924 -0.0736 -0.9719  1.8035
 8568SOL    HW237338   4.312   0.165   4.788 -2.3807 -3.3616 -0.3814
 8569SOL     OW37339   1.623   3.458   6.745  0.4614  0.0642  0.1695
 8569SOL    HW137340   1.635   3.530   6.684 -1.2017  0.2396  0.0562
 8569SOL    HW237341   1.709   3.418   6.731  1.5559  2.0624  1.2241
 8570SOL     OW37342   0.128   4.629   1.023  0.5396 -0.2249  0.0924
 8570SOL    HW137343   0.218   4.644   1.051  0.3612 -3.2259  2.2929
 8570SOL    HW237344   0.086   4.632   1.109  2.2669  0.2438  0.9206
 8571SOL     OW37345   3.104   0.406   4.191 -0.5651  0.1499 -0.3328
 8571SOL    HW137346   3.026   0.389   4.245 -2.0251  0.4086 -2.3846
 8571SOL    HW237347   3.087   0.369   4.105  0.2982 -0.9886 -0.0195
 8572SOL     OW37348   0.215   0.932   0.888 -0.5924  0.1986 -0.4245
 8572SOL    HW137349   0.282   0.868   0.911 -1.2849  0.1852  1.5325
 8572SOL    HW237350   0.249   1.003   0.834 -1.6307  0.7055 -0.4084
 8573SOL     OW37351   2.170   3.232   5.156  0.5992  0.0292  0.3658
 8573SOL    HW137352   2.131   3.319   5.161  0.1244  0.0243 -2.8819
 8573SOL    HW237353   2.137   3.212   5.068 -2.1638 -1.2487  1.6768
 8574SOL     OW37354   0.130   0.099   7.889 -0.7758 -0.1080  0.4420
 8574SOL    HW137355   0.067   0.072   7.821 -0.0304 -1.5769  0.3338
 8574SOL    HW237356   0.104   0.188   7.913 -0.3953  0.4394 -1.1787
 8575SOL     OW37357   4.558   4.699   6.683  0.0880 -0.1148 -0.4202
 8575SOL    HW137358   4.567   0.020   6.606  0.2750  1.2908  0.6279
 8575SOL    HW237359   4.592   4.616   6.649 -1.6619 -0.2752 -1.7888
 8576SOL     OW37360   1.826   1.768   8.725 -0.1324  0.3736 -0.3553
 8576SOL    HW137361   1.903   1.772   8.668  0.0794 -0.0687 -0.0985
 8576SOL    HW237362   1.786   1.848   8.690 -0.8766  0.0016 -0.3400
 8577SOL     OW37363   0.349   2.715  10.084 -0.1228 -0.2984 -0.3307
 8577SOL    HW137364   0.440   2.689  10.070 -0.3050 -0.1997 -1.6915
 8577SOL    HW237365   0.321   2.730   9.994  1.2871 -2.0412 -1.0504
 8578SOL     OW37366   3.009   1.184  17.248 -0.2073  0.1186  0.2249
 8578SOL    HW137367   2.929   1.217  17.289  0.0922  0.0827  0.8384
 8578SOL    HW237368   2.990   1.168  17.156 -0.0374  0.3054  0.1569
 8579SOL     OW37369   2.880   2.822   4.970 -0.0020 -0.0771  0.4566
 8579SOL    HW137370   2.939   2.896   4.956  0.5724 -0.4570  0.8781
 8579SOL    HW237371   2.882   2.819   5.066 -2.5300  1.2482  0.5610
 8580SOL     OW37372   0.366   3.425   9.146  0.0371 -0.2476  0.3256
 8580SOL    HW137373   0.387   3.492   9.211 -2.2217 -0.2041  0.9905
 8580SOL    HW237374   0.401   3.357   9.202  0.7729 -0.1044  0.0504
 8581SOL     OW37375   0.957   4.141   5.188  0.3784 -0.7789 -0.4810
 8581SOL    HW137376   0.907   4.184   5.258 -0.7235 -0.2734 -1.5760
 8581SOL    HW237377   1.025   4.205   5.167 -0.0324  0.0279  0.6254
 8582SOL     OW37378   2.670   3.279  10.884  0.3986  0.3141  0.0437
 8582SOL    HW137379   2.656   3.278  10.979 -0.2429 -0.9788 -0.0736
 8582SOL    HW237380   2.766   3.281  10.885  0.4664 -1.9919 -2.5540
 8583SOL     OW37381   1.464   1.871   5.343 -0.1427 -0.0472 -0.3925
 8583SOL    HW137382   1.474   1.859   5.438  1.6471 -0.7292 -0.6628
 8583SOL    HW237383   1.557   1.854   5.325 -0.5468  0.5476 -2.9923
 8584SOL     OW37384   3.170   3.870   1.749 -0.5832  0.0470  0.0477
 8584SOL    HW137385   3.127   3.939   1.800 -0.4266  0.6983 -0.6985
 8584SOL    HW237386   3.172   3.913   1.664  1.6139  0.4370  0.3031
 8585SOL     OW37387   4.513   3.941  12.647 -0.1287 -0.2561 -0.2310
 8585SOL    HW137388   4.576   3.910  12.711 -0.6526  0.8946  0.8277
 8585SOL    HW237389   4.537   4.034  12.649  0.5216 -0.4321  0.0937
 8586SOL     OW37390   4.502   2.892   9.706  0.3579  0.1742 -0.0566
 8586SOL    HW137391   4.574   2.955   9.700 -0.7144  1.6950  2.8885
 8586SOL    HW237392   4.463   2.937   9.781  2.0798  0.6726  0.5461
 8587SOL     OW37393   1.886   2.398   3.275 -0.0745  0.4371  0.2569
 8587SOL    HW137394   1.949   2.430   3.210 -0.4446  0.4945 -0.0719
 8587SOL    HW237395   1.913   2.308   3.295 -0.1799  0.6937  1.5494
 8588SOL     OW37396   0.075   3.221   3.985  0.5055 -0.5090 -0.7173
 8588SOL    HW137397   0.046   3.312   3.989 -2.7022 -1.6878  3.2869
 8588SOL    HW237398   0.110   3.212   3.897  0.4154  1.5364 -0.9471
 8589SOL     OW37399   0.614   2.693  16.036 -0.2263  0.2755  0.6348
 8589SOL    HW137400   0.519   2.694  16.022 -0.2879 -0.6967  0.9879
 8589SOL    HW237401   0.627   2.752  16.111  0.1395 -0.9787  1.5613
 8590SOL     OW37402   1.281   0.355   1.215  0.3466 -1.0165  0.8051
 8590SOL    HW137403   1.186   0.354   1.230 -0.1493  0.4764 -2.2539
 8590SOL    HW237404   1.308   0.316   1.298  1.3104 -0.0959  0.9235
 8591SOL     OW37405   4.038   1.577  13.332 -0.0831 -0.7690 -0.0980
 8591SOL    HW137406   4.070   1.488  13.322  2.1695 -0.0735  0.9213
 8591SOL    HW237407   3.947   1.570  13.303 -0.1244  1.1320 -0.4443
 8592SOL     OW37408   2.985   2.145   5.591 -0.0889 -0.4345  0.6610
 8592SOL    HW137409   2.959   2.105   5.508 -0.3707  0.2149  0.4351
 8592SOL    HW237410   3.072   2.175   5.566  0.0890 -0.7248  0.9238
 8593SOL     OW37411   4.101   0.923   7.869 -0.1616 -0.0593  0.1751
 8593SOL    HW137412   4.039   0.991   7.844 -0.4043 -0.5009 -0.4065
 8593SOL    HW237413   4.169   0.936   7.804 -1.4082  1.7764 -0.7587
 8594SOL     OW37414   3.243   2.350   0.252  0.0454  0.0082 -0.4779
 8594SOL    HW137415   3.159   2.355   0.206 -1.9558  0.9708  3.2466
 8594SOL    HW237416   3.258   2.438   0.286 -0.8482 -0.6465  1.6558
 8595SOL     OW37417   3.807   0.628   2.838  0.1104  0.2287  0.0094
 8595SOL    HW137418   3.742   0.676   2.890  1.3580  0.8063  1.0113
 8595SOL    HW237419   3.826   0.690   2.768 -0.9979  0.6527  0.0787
 8596SOL     OW37420   3.511   3.799   7.196  0.2923  0.1298  0.5691
 8596SOL    HW137421   3.597   3.757   7.189  1.1172  1.9137  0.1134
 8596SOL    HW237422   3.446   3.731   7.176 -0.2841  0.5378  1.0889
 8597SOL     OW37423   0.307   1.576   5.045  0.0675 -0.3869 -0.0568
 8597SOL    HW137424   0.272   1.558   5.132 -1.7705 -0.7976 -0.8849
 8597SOL    HW237425   0.241   1.638   5.013  2.0018  1.7775  0.2078
 8598SOL     OW37426   3.060   2.404   6.659  0.3514  0.0556 -0.4280
 8598SOL    HW137427   3.112   2.340   6.611 -2.5630  0.4211 -4.0616
 8598SOL    HW237428   3.130   2.436   6.717  1.9386 -2.1290 -1.1452
 8599SOL     OW37429   1.543   2.118  12.210 -0.0203 -0.5228  0.5718
 8599SOL    HW137430   1.541   2.030  12.249 -1.0299 -0.8452 -0.1704
 8599SOL    HW237431   1.554   2.172  12.287 -0.8554 -1.2703  1.2180
 8600SOL     OW37432   0.583   0.068   6.098  0.1268 -1.0316 -0.1902
 8600SOL    HW137433   0.554   0.156   6.074  1.0956 -0.4185  0.8849
 8600SOL    HW237434   0.541   0.021   6.027 -0.1356  1.0191 -1.3905
 8601SOL     OW37435   0.033   3.311   3.027  0.2817 -0.0979  0.0541
 8601SOL    HW137436   0.081   3.368   3.086  0.2445 -2.6075  2.4916
 8601SOL    HW237437   4.692   3.366   3.006  0.2631 -0.1372  0.0185
 8602SOL     OW37438   0.640   0.574   9.669  0.3076 -0.0380  0.0471
 8602SOL    HW137439   0.662   0.490   9.709  0.9752  1.1709  2.2053
 8602SOL    HW237440   0.565   0.599   9.723 -0.9848  0.5447 -2.0243
 8603SOL     OW37441   2.662   3.221  13.857  0.0088  0.7130  0.1403
 8603SOL    HW137442   2.592   3.161  13.833 -0.8095  0.8092  2.2787
 8603SOL    HW237443   2.742   3.171  13.838  0.7050  1.4240  1.1302
 8604SOL     OW37444   2.870   3.077  13.745  0.4744  0.7733 -0.3300
 8604SOL    HW137445   2.874   3.030  13.662 -2.0228  0.3683 -0.2210
 8604SOL    HW237446   2.918   3.023  13.808 -0.5042  1.1895  0.7794
 8605SOL     OW37447   2.624   3.116   5.855 -0.5789  0.0411  0.4158
 8605SOL    HW137448   2.617   3.021   5.862 -0.1543 -0.0672 -0.6687
 8605SOL    HW237449   2.550   3.146   5.907 -1.6478  2.2881 -2.3837
 8606SOL     OW37450   4.152   1.832  14.264 -0.4667  0.7490 -0.0688
 8606SOL    HW137451   4.226   1.773  14.268 -1.2946 -0.2075  1.3532
 8606SOL    HW237452   4.193   1.910  14.227  0.1742 -0.2382 -1.4389
 8607SOL     OW37453   1.001   3.967   4.129 -0.4146  0.4771 -0.4089
 8607SOL    HW137454   0.959   3.890   4.167  2.0182  0.5051  2.3255
 8607SOL    HW237455   0.945   4.036   4.165 -2.1728 -0.5349 -1.1987
 8608SOL     OW37456   3.138   4.337   3.840  0.3608  0.0309 -0.0673
 8608SOL    HW137457   3.101   4.417   3.803 -0.0784 -0.5418 -0.8608
 8608SOL    HW237458   3.166   4.371   3.925  0.8478 -1.2079  0.2671
 8609SOL     OW37459   1.771   0.151   2.216 -0.7888 -0.6702  0.3066
 8609SOL    HW137460   1.764   0.234   2.263  0.0213  0.3034 -1.3311
 8609SOL    HW237461   1.817   0.174   2.136 -0.0533 -2.3322  0.2376
 8610SOL     OW37462   4.611   4.442   6.571 -0.4956  0.8828 -0.1234
 8610SOL    HW137463   4.544   4.400   6.625 -0.8410  1.1309 -0.3520
 8610SOL    HW237464   4.558   4.473   6.497  1.2800  1.9307 -0.9626
 8611SOL     OW37465   3.986   2.672   5.977 -0.3168  0.0687  0.0179
 8611SOL    HW137466   4.041   2.618   5.919  0.6757 -0.8982  1.8376
 8611SOL    HW237467   3.931   2.606   6.019  0.8753 -0.8823  0.0904
 8612SOL     OW37468   3.817   4.322   5.170  0.4172 -0.1233 -0.1835
 8612SOL    HW137469   3.868   4.278   5.238  0.7106  0.7187  0.1352
 8612SOL    HW237470   3.759   4.252   5.138 -1.0765  1.1245 -0.2377
 8613SOL     OW37471   4.473   4.231   5.055  0.1524  0.2396 -0.1542
 8613SOL    HW137472   4.404   4.285   5.017  0.4046 -0.3350 -1.4141
 8613SOL    HW237473   4.515   4.300   5.107 -0.0777  1.5040 -1.6317
 8614SOL     OW37474   3.862   2.889   8.696 -0.2003 -0.6175 -0.2738
 8614SOL    HW137475   3.928   2.959   8.692 -1.3146  0.4454  0.0077
 8614SOL    HW237476   3.841   2.885   8.789 -0.5824  1.3514 -0.2756
 8615SOL     OW37477   1.216   4.186   1.005  0.1474 -0.2456  0.2133
 8615SOL    HW137478   1.214   4.159   1.097  1.7579 -1.6123 -0.1741
 8615SOL    HW237479   1.306   4.172   0.977  0.5158  2.4915 -0.0361
 8616SOL     OW37480   0.745   3.112   5.460  0.0578 -0.1391 -0.6180
 8616SOL    HW137481   0.662   3.159   5.469  0.1106  0.0440 -1.0908
 8616SOL    HW237482   0.791   3.156   5.532 -1.8816  1.5560 -0.4324
 8617SOL     OW37483   1.692   3.974   2.455 -0.5830 -0.1131 -0.0105
 8617SOL    HW137484   1.690   4.006   2.545  0.3043  0.2318 -0.1214
 8617SOL    HW237485   1.771   4.023   2.434  0.1250  0.0945  3.1774
 8618SOL     OW37486   2.122   3.407   7.167 -0.0299 -0.8583  0.0227
 8618SOL    HW137487   2.159   3.452   7.243 -1.3842  0.5528 -0.1384
 8618SOL    HW237488   2.184   3.335   7.154  0.4433 -0.5504  0.5876
 8619SOL     OW37489   2.383   4.154   5.400 -0.2264 -0.3848  0.3602
 8619SOL    HW137490   2.375   4.146   5.495 -2.7047  0.2763  0.2002
 8619SOL    HW237491   2.300   4.196   5.377  0.2686  1.1753  1.4132
 8620SOL     OW37492   3.725   4.132  11.311  0.7525 -0.4296 -0.2851
 8620SOL    HW137493   3.653   4.169  11.260  0.0538 -1.0618  0.2369
 8620SOL    HW237494   3.780   4.210  11.316 -0.4380  0.4359 -0.4101
 8621SOL     OW37495   2.146   0.581   7.307 -0.9372 -0.0943  0.3171
 8621SOL    HW137496   2.127   0.672   7.329 -0.1498  0.1893 -0.1877
 8621SOL    HW237497   2.065   0.539   7.337  0.1539 -1.1485  1.8203
 8622SOL     OW37498   3.768   3.502  10.087  0.2757  0.5352  0.6106
 8622SOL    HW137499   3.698   3.457  10.135  0.6783 -0.8563 -0.1409
 8622SOL    HW237500   3.841   3.451  10.122 -0.3161 -0.9433 -0.3042
 8623SOL     OW37501   2.255   1.421   9.211 -0.2804 -0.8103 -0.7289
 8623SOL    HW137502   2.263   1.326   9.224 -0.6002 -0.6868  0.3244
 8623SOL    HW237503   2.170   1.440   9.250 -0.9722 -3.6060 -0.8490
 8624SOL     OW37504   2.709   1.290   4.137  0.3288  0.0464  0.4248
 8624SOL    HW137505   2.742   1.377   4.160 -2.8032  0.8570  1.8861
 8624SOL    HW237506   2.745   1.242   4.212  1.2433  0.7029  0.4079
 8625SOL     OW37507   3.903   2.456   4.631 -0.4035 -0.1747 -0.1580
 8625SOL    HW137508   3.890   2.365   4.657  1.1288 -0.7924 -1.6403
 8625SOL    HW237509   3.923   2.490   4.719 -0.7952  0.9462 -0.5020
 8626SOL     OW37510   1.475   3.375   6.484  0.1337 -0.4837 -0.1089
 8626SOL    HW137511   1.487   3.300   6.426 -0.5469 -1.4434  0.9794
 8626SOL    HW237512   1.538   3.350   6.551  0.1729  1.4263  0.5583
 8627SOL     OW37513   2.735   2.772   6.168  0.3151 -0.8419 -0.7455
 8627SOL    HW137514   2.690   2.688   6.172 -3.2202  0.9875 -1.9575
 8627SOL    HW237515   2.785   2.761   6.250  0.8330 -2.5119 -1.2875
 8628SOL     OW37516   1.723   3.398  15.003 -0.3508  0.0597  0.1904
 8628SOL    HW137517   1.789   3.334  15.032  1.6651  1.7567 -0.6105
 8628SOL    HW237518   1.780   3.475  15.002  2.6725 -2.1818 -0.7882
 8629SOL     OW37519   4.677   1.764   9.372  0.6739 -0.1806 -0.0525
 8629SOL    HW137520   0.019   1.814   9.402 -0.8149  1.6948  0.6398
 8629SOL    HW237521   4.618   1.773   9.447  0.8464 -1.8383  0.2738
 8630SOL     OW37522   0.078   2.505   0.659 -0.3731  0.0276  0.3866
 8630SOL    HW137523   0.102   2.413   0.652 -0.5766 -0.0609  0.9030
 8630SOL    HW237524   0.155   2.541   0.614  0.1260  0.0172  1.2310
 8631SOL     OW37525   4.428   0.932   7.535  0.1425  0.4591 -0.0260
 8631SOL    HW137526   4.401   0.873   7.464 -1.3314 -0.6012  1.4090
 8631SOL    HW237527   4.404   1.020   7.507 -2.2701 -0.6699 -1.4929
 8632SOL     OW37528   0.043   3.087   1.208 -0.3232  0.0252 -0.2998
 8632SOL    HW137529   0.103   3.077   1.282  1.5362 -1.5926 -2.0042
 8632SOL    HW237530   4.709   3.026   1.233 -1.7359  2.7893  2.5438
 8633SOL     OW37531   2.106   4.554   2.920 -0.4865  0.0058  0.8300
 8633SOL    HW137532   2.026   4.523   2.878  0.1296 -0.3615 -0.0798
 8633SOL    HW237533   2.176   4.525   2.862 -2.0312 -2.1953  0.0716
 8634SOL     OW37534   4.514   1.978   3.222  0.2087 -0.4041  0.5445
 8634SOL    HW137535   4.493   2.066   3.191 -1.4115 -1.4204 -1.2476
 8634SOL    HW237536   4.458   1.932   3.160 -0.8351 -0.3389  1.4524
 8635SOL     OW37537   4.065   0.494   8.561  0.2442  0.2015  0.4006
 8635SOL    HW137538   4.101   0.452   8.639  2.7254  0.4983 -0.5833
 8635SOL    HW237539   3.986   0.443   8.543  0.5822 -0.1092 -0.1768
 8636SOL     OW37540   1.093   0.112  15.786 -0.0533 -0.0890  0.0514
 8636SOL    HW137541   1.095   0.169  15.863  0.7676 -0.1404  0.0709
 8636SOL    HW237542   1.091   0.028  15.832  0.4392  0.0741  0.3738
 8637SOL     OW37543   0.704   0.423   5.750  0.1802  0.4377 -0.2200
 8637SOL    HW137544   0.681   0.516   5.752  0.5093  0.5316 -0.7196
 8637SOL    HW237545   0.731   0.419   5.842  1.3547 -0.3294 -0.5950
 8638SOL     OW37546   4.595   1.274   5.998 -0.4852  0.8533 -0.3932
 8638SOL    HW137547   4.563   1.314   5.917 -3.3488 -0.5801  0.0010
 8638SOL    HW237548   4.542   1.329   6.056  0.3576  2.3911 -1.0770
 8639SOL     OW37549   3.505   0.193  16.180  0.5234 -0.6522  0.2276
 8639SOL    HW137550   3.561   0.117  16.189  1.9936  0.2776 -1.0547
 8639SOL    HW237551   3.424   0.176  16.228  0.2948 -0.3484 -0.0408
 8640SOL     OW37552   1.409   2.645   3.884  0.2468  0.7933 -0.4264
 8640SOL    HW137553   1.409   2.551   3.868 -2.1392  0.5296  1.0723
 8640SOL    HW237554   1.467   2.655   3.960  0.3459 -1.1243 -0.2584
 8641SOL     OW37555   1.659   4.253   8.885  0.2168 -0.6271 -0.2539
 8641SOL    HW137556   1.688   4.334   8.927  0.1779 -0.3450 -0.7697
 8641SOL    HW237557   1.722   4.191   8.921  1.5842  1.7022  1.3218
 8642SOL     OW37558   3.892   0.510  12.097 -0.3557  0.1226 -0.3269
 8642SOL    HW137559   3.818   0.471  12.143 -1.6407  1.5201 -1.1895
 8642SOL    HW237560   3.876   0.605  12.094 -1.5995 -0.0880 -0.4753
 8643SOL     OW37561   2.120   3.262   1.231  0.2190 -0.2977 -0.2861
 8643SOL    HW137562   2.160   3.336   1.277 -1.7308  0.1132  0.7768
 8643SOL    HW237563   2.070   3.220   1.301 -2.2062  1.2524 -1.1010
 8644SOL     OW37564   0.019   4.532   4.590  0.0014 -0.0787  0.4133
 8644SOL    HW137565   0.030   4.479   4.668  2.4582 -0.9995 -0.5706
 8644SOL    HW237566   4.688   4.594   4.621  0.4618  1.6740 -2.1541
 8645SOL     OW37567   2.472   3.842  16.767 -0.1637 -0.2394 -0.0347
 8645SOL    HW137568   2.377   3.853  16.766 -0.3032 -1.1401  1.8464
 8645SOL    HW237569   2.496   3.864  16.677  0.3324  0.5060  0.2844
 8646SOL     OW37570   4.672   2.804  13.275 -0.3152 -0.5298  0.4436
 8646SOL    HW137571   4.588   2.845  13.296 -0.4761 -0.1931 -0.8658
 8646SOL    HW237572   4.670   2.714  13.308  1.9212 -0.1337  1.6239
 8647SOL     OW37573   3.479   1.900   8.525 -0.0637  0.0942  0.3844
 8647SOL    HW137574   3.472   1.818   8.476 -1.1818  1.0897 -1.1353
 8647SOL    HW237575   3.550   1.870   8.582 -0.3586 -1.1461  0.0988
 8648SOL     OW37576   3.524   1.349   7.211 -0.2787  0.3009 -0.7429
 8648SOL    HW137577   3.558   1.273   7.259  2.3255  1.6739 -0.4011
 8648SOL    HW237578   3.506   1.306   7.127 -0.5599  0.5160 -0.7942
 8649SOL     OW37579   2.631   1.713   7.284 -0.1007 -0.2686  0.3244
 8649SOL    HW137580   2.715   1.669   7.300  0.5382  1.4790  1.6938
 8649SOL    HW237581   2.660   1.783   7.225  1.1158  0.9042  2.3467
 8650SOL     OW37582   1.942   3.466   2.048 -0.5221 -0.2809 -0.4586
 8650SOL    HW137583   1.920   3.374   2.038  0.8600 -0.5848 -0.7012
 8650SOL    HW237584   1.854   3.501   2.061 -0.5139  0.7396 -3.1682
 8651SOL     OW37585   0.611   3.366   5.928 -0.6346  0.1314 -0.2112
 8651SOL    HW137586   0.519   3.390   5.936 -0.7201  0.1538 -1.2088
 8651SOL    HW237587   0.641   3.436   5.871 -2.2497  0.6081 -0.4812
 8652SOL     OW37588   0.554   2.419   7.031  0.0762  0.4009 -0.4320
 8652SOL    HW137589   0.543   2.325   7.046 -0.5225  0.4246 -0.7186
 8652SOL    HW237590   0.615   2.436   7.103 -0.7299 -0.6638  0.5033
 8653SOL     OW37591   3.648   0.551   4.101 -0.5367 -0.5555 -0.0574
 8653SOL    HW137592   3.661   0.618   4.168  0.7090 -1.8735  1.0165
 8653SOL    HW237593   3.569   0.580   4.055 -0.0994 -0.0201 -0.4705
 8654SOL     OW37594   1.589   2.608  15.447  0.0476 -0.0430 -0.4517
 8654SOL    HW137595   1.637   2.528  15.429 -0.9013  0.1215 -3.6097
 8654SOL    HW237596   1.630   2.668  15.385 -0.5432  0.3986 -0.4108
 8655SOL     OW37597   2.151   2.465   0.253  0.3923  0.1354 -0.2475
 8655SOL    HW137598   2.104   2.392   0.293 -0.9359  0.8916 -0.4377
 8655SOL    HW237599   2.078   2.525   0.237  0.6688  0.2045 -1.2573
 8656SOL     OW37600   1.727   0.313  16.956 -1.2205  0.1975 -0.2414
 8656SOL    HW137601   1.639   0.351  16.960 -1.6372 -0.9998  2.4913
 8656SOL    HW237602   1.757   0.357  17.036 -0.1049  1.4765 -1.3720
 8657SOL     OW37603   2.944   3.517  16.641  0.0920  0.2003  0.3482
 8657SOL    HW137604   2.917   3.428  16.619  1.3920 -0.4545  1.3555
 8657SOL    HW237605   2.975   3.562  16.563  1.6009  0.3697  1.0523
 8658SOL     OW37606   2.457   2.931   4.214  0.1595  0.0609  0.2201
 8658SOL    HW137607   2.377   2.905   4.260  1.1854  0.4577  2.2083
 8658SOL    HW237608   2.511   2.857   4.242  2.6157  1.3560 -1.0582
 8659SOL     OW37609   1.289   1.088   5.141  0.5752 -0.2670 -0.4600
 8659SOL    HW137610   1.310   1.146   5.213  1.8038  0.9520 -1.8026
 8659SOL    HW237611   1.194   1.078   5.147  0.5185 -0.1657 -1.1729
 8660SOL     OW37612   3.984   3.573   8.553  0.0875 -0.1347  0.3121
 8660SOL    HW137613   3.940   3.490   8.568  1.4910 -1.0141 -0.4176
 8660SOL    HW237614   3.908   3.630   8.559  0.8931  0.8955  0.7333
 8661SOL     OW37615   1.592   2.978   4.564  0.1977  0.5354 -0.1611
 8661SOL    HW137616   1.685   2.970   4.582 -0.2055 -0.2684  1.5931
 8661SOL    HW237617   1.564   2.901   4.613 -0.9108  1.0798  0.0772
 8662SOL     OW37618   0.476   1.312   4.993  0.1816 -0.3491  0.1765
 8662SOL    HW137619   0.400   1.256   4.983 -0.0830  0.2561 -1.1738
 8662SOL    HW237620   0.447   1.402   5.003 -0.7599 -0.7422  1.0225
 8663SOL     OW37621   4.508   2.054   2.282  0.1020  0.5691  0.3838
 8663SOL    HW137622   4.449   2.125   2.305  0.6144  0.8141  0.9671
 8663SOL    HW237623   4.451   1.978   2.278  1.1311 -0.2196  0.7316
 8664SOL     OW37624   0.564   0.590  12.922 -0.2724  0.1195 -0.3505
 8664SOL    HW137625   0.631   0.581  12.855  0.4077  0.1876  0.3310
 8664SOL    HW237626   0.564   0.686  12.921 -1.8905  0.1453  0.9515
 8665SOL     OW37627   0.129   0.319   4.841  0.1566  0.2444 -0.2238
 8665SOL    HW137628   0.169   0.264   4.773  2.1298  0.0493  1.1052
 8665SOL    HW237629   0.048   0.267   4.846  0.2200  0.3149  1.3463
 8666SOL     OW37630   4.381   1.734   5.370 -0.1343 -0.1910  0.0678
 8666SOL    HW137631   4.402   1.822   5.338 -2.8914 -0.2366 -1.8931
 8666SOL    HW237632   4.461   1.710   5.416  0.7623  2.0513 -0.2865
 8667SOL     OW37633   0.674   3.762   6.963 -0.1249 -0.8759 -0.6195
 8667SOL    HW137634   0.667   3.778   6.869  0.2899  0.3137 -0.4451
 8667SOL    HW237635   0.708   3.673   6.967  0.5636 -0.5423  1.1685
 8668SOL     OW37636   0.661   3.268   4.273  0.7274  0.0415 -0.4051
 8668SOL    HW137637   0.683   3.190   4.323  0.9180  0.8013  0.7078
 8668SOL    HW237638   0.737   3.322   4.296  0.9602 -0.9344  1.1059
 8669SOL     OW37639   0.208   2.414   6.196  0.1898  0.1097 -0.6342
 8669SOL    HW137640   0.264   2.405   6.273 -0.4756  0.0806 -0.1578
 8669SOL    HW237641   0.199   2.320   6.178  1.3331 -0.0723 -0.2822
 8670SOL     OW37642   4.651   1.789   5.530 -0.2805 -1.0362  0.6365
 8670SOL    HW137643   4.584   1.786   5.598  0.4437  3.2208  1.5348
 8670SOL    HW237644   4.678   1.697   5.536  2.3462 -0.2696  0.8692
 8671SOL     OW37645   0.146   4.199   7.028  0.7189  0.2771 -0.0564
 8671SOL    HW137646   0.220   4.151   7.064 -0.0977 -1.3966 -0.6313
 8671SOL    HW237647   0.184   4.236   6.948  0.5682  0.0340 -0.2394
 8672SOL     OW37648   4.627   1.458   7.361 -0.0661 -0.3245 -0.0936
 8672SOL    HW137649   4.628   1.362   7.363  0.2541 -0.2576  4.0317
 8672SOL    HW237650   4.597   1.475   7.450 -1.2410 -1.8408 -0.1885
 8673SOL     OW37651   1.188   1.584  10.254 -0.0722 -0.3086  0.1936
 8673SOL    HW137652   1.274   1.575  10.295 -0.1300  1.1681  0.6716
 8673SOL    HW237653   1.205   1.526  10.180 -0.1415  0.2752 -0.2797
 8674SOL     OW37654   4.011   1.806   6.503  0.0143  0.4524  0.2966
 8674SOL    HW137655   3.971   1.875   6.555 -0.3191  0.4772  0.0103
 8674SOL    HW237656   4.082   1.790   6.565  1.0373  0.3742 -0.8938
 8675SOL     OW37657   0.122   0.996   5.453  0.2103 -0.3351 -0.5538
 8675SOL    HW137658   0.201   0.978   5.505 -0.9649 -0.0074  1.3345
 8675SOL    HW237659   0.088   0.911   5.426 -1.0402  0.3532 -1.1595
 8676SOL     OW37660   3.323   3.966   6.142 -0.0300 -0.3337 -0.0357
 8676SOL    HW137661   3.385   3.898   6.116 -0.2016 -0.8381  0.8537
 8676SOL    HW237662   3.305   4.010   6.059 -1.3323  0.5421  0.7077
 8677SOL     OW37663   2.829   2.294   6.948  0.0634  0.5582 -0.0172
 8677SOL    HW137664   2.749   2.261   6.907 -0.3109  0.4241  0.8099
 8677SOL    HW237665   2.828   2.267   7.040 -1.2517  1.0410  0.1161
 8678SOL     OW37666   2.544   3.920  15.439 -0.1081  0.4862 -0.5610
 8678SOL    HW137667   2.525   3.830  15.415  0.6243  0.0636  0.4212
 8678SOL    HW237668   2.634   3.928  15.406 -0.4814  0.7446 -1.4957
 8679SOL     OW37669   2.400   2.357  10.203  0.4160 -0.1261  0.7464
 8679SOL    HW137670   2.409   2.264  10.223 -0.4928 -0.3560  0.0417
 8679SOL    HW237671   2.329   2.361  10.139  0.3506  2.1435  0.9439
 8680SOL     OW37672   2.434   1.722   6.518  0.8186  1.1651  0.2797
 8680SOL    HW137673   2.491   1.691   6.589  1.1289  0.5746 -0.2328
 8680SOL    HW237674   2.479   1.804   6.495  0.4603  0.7653 -1.8065
 8681SOL     OW37675   0.981   3.400   8.314 -0.7858 -0.1873  0.6326
 8681SOL    HW137676   1.009   3.491   8.324  1.1542 -0.9294  1.9868
 8681SOL    HW237677   0.997   3.384   8.221  1.8140  1.7967  0.7344
 8682SOL     OW37678   3.276   1.938  16.138 -0.0868  0.0011 -0.8916
 8682SOL    HW137679   3.349   1.942  16.200 -0.1025 -1.1283 -0.7887
 8682SOL    HW237680   3.233   2.019  16.164 -0.0694 -0.1945 -0.2464
 8683SOL     OW37681   1.675   0.841  17.300 -0.3326 -0.0927 -0.5596
 8683SOL    HW137682   1.657   0.929  17.331  0.6901 -0.2763  0.5672
 8683SOL    HW237683   1.756   0.861  17.252  0.3523 -0.2835  0.4986
 8684SOL     OW37684   4.340   0.954   5.033 -0.2536 -0.2332  0.6984
 8684SOL    HW137685   4.334   0.858   5.026 -1.1344 -0.2791  2.1518
 8684SOL    HW237686   4.403   0.957   5.105 -1.1911 -3.0161  1.6479
 8685SOL     OW37687   1.599   2.438   6.137 -0.4086 -0.0247 -0.6811
 8685SOL    HW137688   1.556   2.515   6.173  1.7470  0.3207  1.1352
 8685SOL    HW237689   1.642   2.406   6.216  1.4325  1.6354 -1.0099
 8686SOL     OW37690   3.969   1.020  10.910 -0.2721 -0.0767 -0.0208
 8686SOL    HW137691   3.963   0.964  10.832 -0.1577  3.2313 -2.3993
 8686SOL    HW237692   4.018   1.096  10.879 -1.3960  0.4001 -0.6439
 8687SOL     OW37693   1.446   0.814   0.120  0.1543  0.1210  0.4978
 8687SOL    HW137694   1.350   0.815   0.122  0.1417  1.1943 -0.5073
 8687SOL    HW237695   1.452   0.774   0.207  1.0196  0.2731  0.5048
 8688SOL     OW37696   2.531   1.839   7.507  0.5216  0.9549 -0.0262
 8688SOL    HW137697   2.565   1.795   7.430  2.8452  1.9139  0.4600
 8688SOL    HW237698   2.502   1.916   7.457 -2.4285 -0.7870 -1.0302
 8689SOL     OW37699   4.063   1.482   1.833  0.3522  0.2764 -0.3101
 8689SOL    HW137700   4.041   1.568   1.869  1.7718  0.8273 -0.7899
 8689SOL    HW237701   3.981   1.436   1.853  0.1341  0.8069  0.0082
 8690SOL     OW37702   3.456   4.349   2.249 -0.1066  0.2876  0.7413
 8690SOL    HW137703   3.389   4.330   2.315  0.8629 -4.0446  0.4702
 8690SOL    HW237704   3.410   4.418   2.200 -1.4182 -3.9153 -4.0083
 8691SOL     OW37705   1.043   3.510   7.248 -0.6769  0.1089 -0.1666
 8691SOL    HW137706   1.071   3.429   7.205  1.2212  0.0225  1.2251
 8691SOL    HW237707   0.981   3.483   7.315  1.2778  1.7510  2.3111
 8692SOL     OW37708   3.989   0.471   2.963 -1.0046 -0.9984 -0.3518
 8692SOL    HW137709   3.927   0.525   2.915  1.5763  0.8698 -1.6196
 8692SOL    HW237710   3.930   0.406   3.002 -0.3588 -0.5840  1.3052
 8693SOL     OW37711   3.350   4.573  16.367 -0.5275 -0.3469  0.0367
 8693SOL    HW137712   3.259   4.601  16.360 -1.1197 -2.4022 -0.4746
 8693SOL    HW237713   3.366   4.586  16.460 -0.0136 -1.5545  0.1185
 8694SOL     OW37714   0.725   3.290   4.680  0.8212  0.3866  0.6196
 8694SOL    HW137715   0.656   3.352   4.702  0.1489  0.6293 -2.1544
 8694SOL    HW237716   0.783   3.341   4.622  0.7872 -0.9175 -0.5680
 8695SOL     OW37717   2.540   2.937   3.931 -0.6116  0.3348  0.2687
 8695SOL    HW137718   2.521   2.845   3.909 -0.2061 -0.1207  1.8290
 8695SOL    HW237719   2.513   2.946   4.022 -0.7620 -0.0113  0.2588
 8696SOL     OW37720   3.195   2.876   0.308  0.2331  0.8104  0.3968
 8696SOL    HW137721   3.220   2.784   0.318 -0.4827  0.5205 -0.4339
 8696SOL    HW237722   3.129   2.888   0.376  1.5696  1.3087  1.5855
 8697SOL     OW37723   3.789   3.090   6.877 -0.2196 -0.1932 -0.1300
 8697SOL    HW137724   3.779   3.184   6.895 -0.0312 -0.5670  1.9005
 8697SOL    HW237725   3.881   3.082   6.903 -0.5588  1.2942  1.5797
 8698SOL     OW37726   1.787   2.273  14.364  0.6554  0.0866  0.1838
 8698SOL    HW137727   1.858   2.292  14.303  2.4211  1.8390  2.8473
 8698SOL    HW237728   1.814   2.182  14.378  0.7450 -0.1314 -1.3399
 8699SOL     OW37729   3.023   4.159   4.237 -0.5837  0.0365  0.1292
 8699SOL    HW137730   3.102   4.200   4.274 -0.4885  1.1923 -1.3927
 8699SOL    HW237731   3.004   4.098   4.309  2.1320  0.6397  1.3854
 8700SOL     OW37732   1.223   2.035  10.891  0.5365  0.4037  0.0858
 8700SOL    HW137733   1.156   1.986  10.939 -0.8591  2.3721  0.1453
 8700SOL    HW237734   1.294   2.022  10.955  0.8312 -0.1485 -0.3516
 8701SOL     OW37735   1.570   1.273   9.233 -0.6521  0.2276  0.3676
 8701SOL    HW137736   1.487   1.267   9.280 -0.4162 -1.6790  0.5456
 8701SOL    HW237737   1.571   1.368   9.222  0.9459 -0.0318 -1.8465
 8702SOL     OW37738   0.626   4.582   9.482  0.7110  0.1774  0.4367
 8702SOL    HW137739   0.681   4.522   9.432 -0.4713 -1.6161  1.2830
 8702SOL    HW237740   0.668   4.588   9.568 -1.9058 -2.9701  1.9633
 8703SOL     OW37741   0.092   0.607  10.802  0.0187  0.3618 -0.0844
 8703SOL    HW137742   0.128   0.598  10.891 -0.0554  2.4911  0.1651
 8703SOL    HW237743   0.163   0.560  10.759 -0.7749 -0.9223  0.0102
 8704SOL     OW37744   4.148   1.647   3.691  0.1488  0.3765  0.3719
 8704SOL    HW137745   4.207   1.572   3.698 -2.1985 -1.2852  2.0407
 8704SOL    HW237746   4.145   1.660   3.597  0.9352 -1.8244  0.0586
 8705SOL     OW37747   4.327   3.263  16.640 -0.3459 -0.0030 -0.1225
 8705SOL    HW137748   4.406   3.244  16.690 -1.0324  0.9983  1.3319
 8705SOL    HW237749   4.259   3.203  16.670  0.3916 -0.4940  0.5748
 8706SOL     OW37750   0.775   2.714  15.572  0.1142  0.6174  1.0159
 8706SOL    HW137751   0.846   2.665  15.530  0.3673  1.2586  0.6866
 8706SOL    HW237752   0.778   2.692  15.665  1.6972 -0.5722  0.6729
 8707SOL     OW37753   2.161   4.167  17.675  0.6716 -0.1533  0.2779
 8707SOL    HW137754   2.094   4.112  17.715  1.0024 -0.7439  0.0243
 8707SOL    HW237755   2.159   4.232   0.005  0.0157 -1.1983  1.2373
 8708SOL     OW37756   3.148   0.756   9.988  0.0251  0.0478 -0.6832
 8708SOL    HW137757   3.157   0.711  10.072  0.8949  0.0637 -0.7686
 8708SOL    HW237758   3.059   0.736   9.962 -0.6647  1.6400  0.4505
 8709SOL     OW37759   2.746   0.097   7.652  0.6336 -0.3375  0.0154
 8709SOL    HW137760   2.704   0.016   7.679  0.0833 -0.2571 -0.6142
 8709SOL    HW237761   2.828   0.089   7.701  0.9752 -2.4847 -0.9114
 8710SOL     OW37762   1.652   2.779   5.784 -0.5511  0.8161  0.2814
 8710SOL    HW137763   1.624   2.871   5.788  1.2274  1.4406 -1.5111
 8710SOL    HW237764   1.673   2.767   5.876  2.2668  0.8883 -0.3473
 8711SOL     OW37765   0.621   3.005   6.158  0.0224  0.2111 -0.3496
 8711SOL    HW137766   0.685   2.948   6.115 -0.8684 -0.5907 -0.6161
 8711SOL    HW237767   0.588   3.060   6.087 -1.8500  0.1557  0.4780
 8712SOL     OW37768   0.280   3.313   3.552 -0.3117  0.5339  0.0507
 8712SOL    HW137769   0.233   3.287   3.631  0.7219 -0.3020  0.3828
 8712SOL    HW237770   0.201   3.297   3.499  0.6273 -0.8995 -0.9282
 8713SOL     OW37771   4.248   2.303   3.886 -0.0701 -0.3405 -0.0421
 8713SOL    HW137772   4.166   2.281   3.928 -0.4694  0.9237 -0.1591
 8713SOL    HW237773   4.256   2.398   3.878 -0.0196 -0.1042  3.1041
 8714SOL     OW37774   4.594   0.685   8.390  0.2040 -0.8891 -0.1312
 8714SOL    HW137775   4.570   0.648   8.476 -0.7413 -1.1846 -0.5226
 8714SOL    HW237776   4.653   0.758   8.408 -2.6439  0.8769  1.9262
 8715SOL     OW37777   0.264   4.423   5.304  0.0233 -0.2373 -0.1490
 8715SOL    HW137778   0.296   4.373   5.230 -0.4822 -0.2913 -0.3330
 8715SOL    HW237779   0.340   4.481   5.312 -0.1325 -0.1861  0.9702
 8716SOL     OW37780   1.715   0.952   7.766 -0.6283 -0.3326 -0.7382
 8716SOL    HW137781   1.760   1.008   7.702  0.0019 -0.8314 -0.7251
 8716SOL    HW237782   1.674   0.886   7.711  0.5578 -0.8434 -1.0104
 8717SOL     OW37783   1.856   1.671   7.357  0.0942  0.9208 -0.4932
 8717SOL    HW137784   1.941   1.686   7.316 -0.4692  2.4215 -1.1270
 8717SOL    HW237785   1.889   1.638   7.440  1.3995 -0.4771 -1.5581
 8718SOL     OW37786   0.788   1.430   6.433  0.5086  0.1349 -0.2739
 8718SOL    HW137787   0.877   1.465   6.437 -0.5142  2.6187  0.6203
 8718SOL    HW237788   0.802   1.357   6.494  1.2157  2.8773  2.7945
 8719SOL     OW37789   0.660   4.380  15.044 -0.0735 -0.0039  0.2659
 8719SOL    HW137790   0.577   4.427  15.034 -1.0241 -1.5735  0.6496
 8719SOL    HW237791   0.703   4.404  14.962 -0.5093  0.2961  0.1228
 8720SOL     OW37792   0.940   1.311   8.716 -0.6745 -0.6496  0.3889
 8720SOL    HW137793   0.849   1.339   8.714 -0.7941 -1.1174 -0.4393
 8720SOL    HW237794   0.971   1.345   8.632 -0.9809 -0.3510  0.3959
 8721SOL     OW37795   3.794   0.376   5.574 -0.3807 -0.1025 -0.2718
 8721SOL    HW137796   3.870   0.429   5.549 -0.3130  0.3093  0.7965
 8721SOL    HW237797   3.736   0.394   5.500  0.0576  0.0067 -0.5902
 8722SOL     OW37798   1.715   1.381  12.370  0.2478  0.3340  0.0187
 8722SOL    HW137799   1.781   1.340  12.314  1.0380  1.3876  0.1850
 8722SOL    HW237800   1.633   1.363  12.324 -0.6075 -0.5430  1.8883
 8723SOL     OW37801   0.469   2.583   5.143 -0.2163 -0.2090 -0.3377
 8723SOL    HW137802   0.511   2.591   5.058 -0.9738 -1.9419 -0.8768
 8723SOL    HW237803   0.378   2.572   5.115 -0.7101 -1.2848  1.6514
 8724SOL     OW37804   0.114   1.671   2.181 -0.2314 -0.2038 -0.7386
 8724SOL    HW137805   0.096   1.611   2.109  0.3554  0.4267 -1.4046
 8724SOL    HW237806   0.081   1.617   2.253  1.4000 -0.0107  0.1416
 8725SOL     OW37807   4.612   0.846   7.909 -0.2328  0.3424 -0.3001
 8725SOL    HW137808   4.519   0.858   7.891 -0.0320  2.7974  0.1891
 8725SOL    HW237809   4.619   0.782   7.838 -1.9230  0.3337 -0.4485
 8726SOL     OW37810   2.811   2.474   8.006 -0.6521  0.1227 -0.0627
 8726SOL    HW137811   2.865   2.458   7.929 -0.4748 -0.9025  0.2743
 8726SOL    HW237812   2.768   2.391   8.027 -0.8782  0.1915 -0.2580
 8727SOL     OW37813   4.413   2.684   5.501  0.4805 -0.4817 -0.0552
 8727SOL    HW137814   4.472   2.750   5.537 -1.3305  0.1512  1.8273
 8727SOL    HW237815   4.463   2.621   5.449  0.6269  1.1042 -1.8269
 8728SOL     OW37816   3.272   2.089   0.034  0.2093  0.0653  0.4369
 8728SOL    HW137817   3.182   2.109   0.060  0.5513  0.3599  1.4006
 8728SOL    HW237818   3.321   2.169   0.022  0.4436 -0.0121  0.8546
 8729SOL     OW37819   2.832   4.250   1.932  0.1029 -0.2433  0.1021
 8729SOL    HW137820   2.776   4.185   1.890  0.1937  0.8684 -1.7710
 8729SOL    HW237821   2.778   4.275   2.007  0.6885 -1.2195  0.8388
 8730SOL     OW37822   4.727   0.418   2.269  0.1435 -0.0545 -0.2297
 8730SOL    HW137823   4.655   0.433   2.330  2.0736 -0.1371  2.0663
 8730SOL    HW237824   0.027   0.331   2.291 -0.1363 -0.1350 -0.0983
 8731SOL     OW37825   3.948   1.610  12.087 -0.1768  0.3284  0.2142
 8731SOL    HW137826   3.887   1.648  12.024 -1.7016  0.2831  1.6688
 8731SOL    HW237827   3.889   1.573  12.152 -1.2681  3.0692  0.7593
 8732SOL     OW37828   3.469   0.500   2.839  0.0203  0.3203 -0.0825
 8732SOL    HW137829   3.510   0.455   2.913 -1.1606  0.6400  0.7668
 8732SOL    HW237830   3.406   0.434   2.811 -0.0498 -0.0862  1.0131
 8733SOL     OW37831   1.423   3.705   5.839 -0.1809 -0.2551 -0.5591
 8733SOL    HW137832   1.362   3.715   5.912  0.3481  0.0824 -0.1599
 8733SOL    HW237833   1.406   3.771   5.772  0.4990 -0.3502 -0.8232
 8734SOL     OW37834   3.167   1.082   3.848  0.2873 -0.6227 -0.2585
 8734SOL    HW137835   3.173   1.154   3.786  1.0939 -0.6418 -0.1973
 8734SOL    HW237836   3.073   1.092   3.860  0.6056 -0.2919  1.9148
 8735SOL     OW37837   1.781   1.798   8.350 -0.0698 -0.2492  0.3284
 8735SOL    HW137838   1.760   1.735   8.281  0.8008 -1.5861  1.2746
 8735SOL    HW237839   1.752   1.751   8.429  0.9095 -0.2455  0.6899
 8736SOL     OW37840   0.378   0.832  10.931 -0.1650  0.2288 -0.4829
 8736SOL    HW137841   0.381   0.768  11.003  0.1442 -0.6112 -1.2406
 8736SOL    HW237842   0.453   0.886  10.957 -0.9710  1.3618 -0.5379
 8737SOL     OW37843   0.692   3.023   2.469 -0.1532 -0.1645  0.0954
 8737SOL    HW137844   0.762   2.958   2.461 -1.2657 -1.1135 -1.9819
 8737SOL    HW237845   0.742   3.100   2.495  0.2351 -0.7780  1.1747
 8738SOL     OW37846   3.181   3.413   3.843  0.0422 -0.2026 -0.1533
 8738SOL    HW137847   3.211   3.361   3.917 -0.4475  0.8656  0.7941
 8738SOL    HW237848   3.119   3.359   3.794  0.5523 -0.9871  0.0768
 8739SOL     OW37849   3.275   4.551   2.132 -0.2332  0.2659  0.4877
 8739SOL    HW137850   3.325   4.622   2.093 -0.5635  1.0256  1.4294
 8739SOL    HW237851   3.196   4.552   2.077 -0.0694 -0.5272  0.2470
 8740SOL     OW37852   1.156   1.085   2.040 -0.0719  0.7232  0.2449
 8740SOL    HW137853   1.204   1.037   2.107 -1.7064 -1.5722 -0.2298
 8740SOL    HW237854   1.223   1.121   1.982 -0.2112  2.3154  1.0591
 8741SOL     OW37855   3.729   2.921   0.613  0.3215 -0.0607  0.2293
 8741SOL    HW137856   3.719   3.000   0.560  1.7421  2.0689  3.1210
 8741SOL    HW237857   3.823   2.903   0.606  0.1157 -1.6808  1.4645
 8742SOL     OW37858   0.797   3.484   6.939 -0.3902 -0.4311  0.0874
 8742SOL    HW137859   0.744   3.424   6.992  1.5586 -1.9087  0.3678
 8742SOL    HW237860   0.819   3.434   6.860  0.1579 -0.0959  0.0297
 8743SOL     OW37861   4.339   0.259   3.586 -0.0844 -0.7054  0.2499
 8743SOL    HW137862   4.308   0.170   3.577  1.1057 -1.3154  2.1131
 8743SOL    HW237863   4.256   0.306   3.591 -1.1399 -2.7494  2.1459
 8744SOL     OW37864   1.221   0.622   4.258 -0.0885  0.6244  0.2099
 8744SOL    HW137865   1.152   0.682   4.230 -0.2372 -0.1383 -1.0362
 8744SOL    HW237866   1.298   0.678   4.251  0.0844  0.6344  2.0498
 8745SOL     OW37867   4.357   4.345   5.974  0.0273  0.2026  0.0552
 8745SOL    HW137868   4.273   4.391   5.984  0.9482  1.3647  2.4886
 8745SOL    HW237869   4.410   4.420   6.001 -0.4056  1.1679 -1.8444
 8746SOL     OW37870   0.911   4.134  13.759 -0.1369 -0.0651  0.0355
 8746SOL    HW137871   0.865   4.092  13.832 -0.7849  2.9163  1.3312
 8746SOL    HW237872   1.000   4.099  13.754 -0.3748 -0.4370 -1.5817
 8747SOL     OW37873   0.402   0.234   0.602 -0.4934  0.2918 -0.1778
 8747SOL    HW137874   0.308   0.215   0.613 -0.0573 -0.5067  2.2882
 8747SOL    HW237875   0.432   0.230   0.693  1.1721 -0.8209 -0.7882
 8748SOL     OW37876   0.947   2.868   4.004  0.9997  0.2504  0.2520
 8748SOL    HW137877   0.979   2.958   3.993 -0.5869  0.8054  0.1756
 8748SOL    HW237878   1.017   2.827   4.054 -0.3098 -1.0110  1.0369
 8749SOL     OW37879   4.345   1.730   6.967  0.0344  0.3961  0.0470
 8749SOL    HW137880   4.263   1.777   6.950 -1.4134 -1.5380  1.5855
 8749SOL    HW237881   4.301   1.660   7.017 -0.1954  0.9281  0.5915
 8750SOL     OW37882   0.054   2.038   8.681  0.3215  0.2995 -0.3234
 8750SOL    HW137883   0.119   2.096   8.640 -0.4581  0.0758 -1.8970
 8750SOL    HW237884   4.714   2.051   8.623 -0.3020  0.8272  0.6112
 8751SOL     OW37885   2.883   3.657  10.153  0.0710  0.6007  0.4567
 8751SOL    HW137886   2.793   3.638  10.129  0.7011  0.0842 -1.4430
 8751SOL    HW237887   2.888   3.604  10.233  1.8026 -1.8344 -1.2752
 8752SOL     OW37888   3.605   2.881   2.847  0.4134 -0.4767 -0.3840
 8752SOL    HW137889   3.558   2.959   2.819  0.5479 -0.2149  0.1211
 8752SOL    HW237890   3.604   2.832   2.765 -3.1690 -0.1527 -0.5132
 8753SOL     OW37891   4.728   4.308  17.086 -0.2204  0.2088 -0.0464
 8753SOL    HW137892   4.714   4.315  17.180 -0.1727 -0.8736  0.0377
 8753SOL    HW237893   4.649   4.259  17.062 -0.9731  1.4706 -0.1741
 8754SOL     OW37894   1.617   4.042   3.600 -0.1809 -0.1566  0.3531
 8754SOL    HW137895   1.581   3.955   3.583 -1.6152  0.3942  0.5547
 8754SOL    HW237896   1.590   4.057   3.691  0.2237  0.1492  0.4216
 8755SOL     OW37897   2.359   4.139   8.678 -0.5908 -0.1776  0.2142
 8755SOL    HW137898   2.298   4.125   8.606 -1.2537  1.4711  0.4294
 8755SOL    HW237899   2.443   4.148   8.635 -1.0923 -0.5027 -0.8299
 8756SOL     OW37900   0.516   0.288  11.079 -0.1780 -0.4834 -0.3367
 8756SOL    HW137901   0.556   0.375  11.086  0.0995 -0.8276  2.3728
 8756SOL    HW237902   0.472   0.274  11.163  0.2407 -1.2598 -0.2522
 8757SOL     OW37903   3.164   2.143   0.593 -0.1764 -0.2479  0.2307
 8757SOL    HW137904   3.115   2.222   0.571  2.4698  1.3813  0.2692
 8757SOL    HW237905   3.237   2.151   0.532  0.6730 -1.5135  1.0869
 8758SOL     OW37906   2.082   2.751  14.594 -0.0427  0.4587 -0.3923
 8758SOL    HW137907   2.118   2.713  14.514  0.0001 -1.8110  0.7051
 8758SOL    HW237908   2.091   2.674  14.650 -1.3393  0.0445 -0.7449
 8759SOL     OW37909   1.073   2.886   6.260 -0.1526  0.1835  0.8497
 8759SOL    HW137910   1.115   2.852   6.339 -1.4834 -3.3118  0.0681
 8759SOL    HW237911   0.991   2.916   6.299 -1.6239 -1.9370 -0.6131
 8760SOL     OW37912   4.391   4.122   2.280  0.6800  0.2050  0.5836
 8760SOL    HW137913   4.376   4.197   2.223 -0.3767  1.6507  2.7492
 8760SOL    HW237914   4.483   4.136   2.304  0.3114  0.0067  2.1445
 8761SOL     OW37915   3.733   1.019   4.051 -0.3730 -0.9640  0.2256
 8761SOL    HW137916   3.793   0.947   4.070 -2.0609 -2.4372 -0.0683
 8761SOL    HW237917   3.674   0.975   3.990 -0.7026  0.2884 -0.3562
 8762SOL     OW37918   3.999   4.440  17.009  0.3196 -0.0741 -0.6781
 8762SOL    HW137919   4.090   4.416  16.992  0.4822  0.7071 -0.9130
 8762SOL    HW237920   3.990   4.398  17.094  0.5697 -0.6981 -0.9670
 8763SOL     OW37921   2.590   3.246  15.394  0.1695 -0.0672  0.6598
 8763SOL    HW137922   2.565   3.189  15.466 -1.4549  3.5222  2.9704
 8763SOL    HW237923   2.618   3.321  15.448  1.8703 -0.3641  0.1783
 8764SOL     OW37924   3.886   0.125   4.787 -0.2542  0.0361  0.1784
 8764SOL    HW137925   3.810   0.180   4.809 -1.3232 -0.9389 -1.0626
 8764SOL    HW237926   3.863   0.068   4.714 -2.1127 -2.2962  2.5654
 8765SOL     OW37927   2.642   2.833   5.907  0.2452  0.0179  0.0001
 8765SOL    HW137928   2.641   2.818   6.001 -0.2342  0.8833  0.1415
 8765SOL    HW237929   2.587   2.760   5.879  1.9192 -0.7122 -1.3321
 8766SOL     OW37930   2.206   3.557   5.454 -0.7030 -0.0084 -0.2131
 8766SOL    HW137931   2.196   3.652   5.453 -0.0942  0.0435 -1.7163
 8766SOL    HW237932   2.252   3.541   5.536 -0.5043 -2.9048 -0.9037
 8767SOL     OW37933   3.615   4.119   6.234  0.1533 -0.5893  0.0285
 8767SOL    HW137934   3.652   4.064   6.164  0.2473 -2.2498  1.3771
 8767SOL    HW237935   3.667   4.200   6.234  0.2902 -0.6692 -0.8370
 8768SOL     OW37936   2.919   1.239  16.964  0.6062 -0.0489 -0.0282
 8768SOL    HW137937   2.988   1.182  16.931  1.5547  0.6774  0.7057
 8768SOL    HW237938   2.853   1.229  16.895  2.4013 -3.7933 -1.1704
 8769SOL     OW37939   1.474   3.513  14.974 -0.0592  0.2910 -0.3764
 8769SOL    HW137940   1.551   3.458  14.985 -0.1976  0.6327  2.2305
 8769SOL    HW237941   1.510   3.595  15.006 -1.4964  0.4803  0.7739
 8770SOL     OW37942   3.988   0.515   7.959 -0.9608  0.2118  0.1151
 8770SOL    HW137943   3.938   0.516   8.041  1.6283  0.1502  1.7195
 8770SOL    HW237944   4.054   0.445   7.967 -1.7112 -0.7257 -1.7945
 8771SOL     OW37945   0.525   1.827   7.024  0.0924 -0.1350  0.5442
 8771SOL    HW137946   0.595   1.784   6.974 -0.4229  0.5767 -0.7770
 8771SOL    HW237947   0.447   1.791   6.982 -0.5975  3.2621 -1.0738
 8772SOL     OW37948   3.792   4.155  12.645  0.0338 -0.2722 -0.1465
 8772SOL    HW137949   3.836   4.207  12.578 -0.9714  2.0598  1.0098
 8772SOL    HW237950   3.720   4.109  12.600 -0.1480 -0.9682  0.8514
 8773SOL     OW37951   0.956   3.196   3.360 -0.3657  0.6029 -0.2125
 8773SOL    HW137952   0.911   3.260   3.306 -1.5201  0.6048  0.7385
 8773SOL    HW237953   0.899   3.172   3.433 -0.1191 -2.5165 -1.0356
 8774SOL     OW37954   4.662   2.560  13.393  0.0035  0.3942  0.2094
 8774SOL    HW137955   4.571   2.530  13.384 -0.3216  0.6883  2.4225
 8774SOL    HW237956   4.709   2.483  13.363  0.5015  0.0230  1.9421
 8775SOL     OW37957   1.334   3.742   2.532 -0.6816 -0.7812  0.5380
 8775SOL    HW137958   1.382   3.662   2.511  2.0078  0.5724  1.4469
 8775SOL    HW237959   1.337   3.792   2.451  1.5653 -1.0490  0.4494
 8776SOL     OW37960   4.695   3.075   9.655  0.0441  0.0471 -0.3565
 8776SOL    HW137961   4.722   3.095   9.744 -2.1626  0.0704  0.3053
 8776SOL    HW237962   4.615   3.127   9.644  2.1021  3.0479 -1.2382
 8777SOL     OW37963   2.360   2.734   2.146  0.4582  0.0959  0.0172
 8777SOL    HW137964   2.456   2.739   2.151  0.3050  1.4827  1.3109
 8777SOL    HW237965   2.341   2.743   2.239  2.0188 -0.7057  0.4130
 8778SOL     OW37966   2.075   2.873  11.725  0.3080 -0.1412  0.2231
 8778SOL    HW137967   2.142   2.938  11.743  2.9224 -2.3047 -1.6429
 8778SOL    HW237968   2.015   2.879  11.800 -0.4191  1.6114 -0.5164
 8779SOL     OW37969   0.722   2.637  13.098  0.1973 -0.4166 -0.1624
 8779SOL    HW137970   0.710   2.558  13.045 -0.7297 -1.4241  1.5407
 8779SOL    HW237971   0.775   2.595  13.166  0.5154  0.8366  0.3716
 8780SOL     OW37972   1.178   2.074   4.517  0.4387 -0.2193 -0.2992
 8780SOL    HW137973   1.272   2.070   4.497  0.6757  0.5551  0.6708
 8780SOL    HW237974   1.149   2.145   4.460  0.7402  0.1405 -0.0039
 8781SOL     OW37975   2.089   2.247   5.098 -0.4543  0.2052 -0.2496
 8781SOL    HW137976   2.108   2.244   5.004 -2.5552  0.5793 -0.6762
 8781SOL    HW237977   2.002   2.208   5.094 -0.8457  1.3412 -2.9477
 8782SOL     OW37978   0.094   0.186   5.485  0.2627 -0.3923  0.3279
 8782SOL    HW137979   0.107   0.281   5.480  1.3432 -0.5705 -0.1309
 8782SOL    HW237980   0.175   0.153   5.524  0.4273  1.0831  1.2699
 8783SOL     OW37981   0.072   0.391   3.872  0.3242 -0.0640 -0.1492
 8783SOL    HW137982   0.019   0.449   3.818  1.7244 -0.9781 -2.5285
 8783SOL    HW237983   0.002   0.361   3.930 -0.2430  2.0804  0.2374
 8784SOL     OW37984   0.632   2.528   4.917  0.0839 -0.5581 -0.4437
 8784SOL    HW137985   0.566   2.462   4.893 -0.5953  0.1745 -0.6051
 8784SOL    HW237986   0.603   2.598   4.858  1.2898  0.0395 -0.3186
 8785SOL     OW37987   4.155   3.111   9.482  0.3658  0.2598 -0.4357
 8785SOL    HW137988   4.101   3.034   9.466  3.1981 -2.1003  1.4893
 8785SOL    HW237989   4.238   3.065   9.473  1.0824  0.9546  2.3777
 8786SOL     OW37990   3.259   0.150  16.340 -0.3667 -0.3629 -0.1046
 8786SOL    HW137991   3.197   0.086  16.305 -1.6905 -0.2142  1.9686
 8786SOL    HW237992   3.266   0.122  16.431 -2.9031  0.4145  0.3133
 8787SOL     OW37993   0.859   1.282  13.565  0.0519  0.0996  0.1372
 8787SOL    HW137994   0.895   1.289  13.653 -2.7118 -2.5415  1.4897
 8787SOL    HW237995   0.888   1.191  13.554  2.1867  0.6344  1.3206
 8788SOL     OW37996   1.741   1.754  17.513 -0.3550 -0.3995 -0.4039
 8788SOL    HW137997   1.828   1.794  17.522 -1.1689  1.2299  0.2287
 8788SOL    HW237998   1.754   1.707  17.431  0.6780 -2.8289  1.1885
 8789SOL     OW37999   2.716   4.420   9.988  0.0470  0.2953  0.1656
 8789SOL    HW138000   2.642   4.403  10.047 -0.7804  2.1504 -0.3499
 8789SOL    HW238001   2.691   4.495   9.934 -1.2903 -1.3627 -1.4998
 8790SOL     OW38002   1.817   2.936   7.885 -0.2600  0.1853  0.3395
 8790SOL    HW138003   1.887   2.981   7.838  1.9626 -1.8219  1.6896
 8790SOL    HW238004   1.831   2.966   7.974  0.0969  0.3792  0.2168
 8791SOL     OW38005   2.178   1.728   5.137 -0.2897  0.1092  0.3201
 8791SOL    HW138006   2.225   1.771   5.208  0.2128  1.1722 -0.6657
 8791SOL    HW238007   2.091   1.762   5.158  0.6064  1.7566  1.2685
 8792SOL     OW38008   4.123   4.470   5.574 -0.4598  0.1399  0.3298
 8792SOL    HW138009   4.085   4.497   5.657 -0.9841  2.5112 -0.6830
 8792SOL    HW238010   4.206   4.434   5.606  0.9339  3.3454  0.3878
 8793SOL     OW38011   2.545   1.521   6.323 -0.3242 -0.6058 -0.3893
 8793SOL    HW138012   2.479   1.506   6.256 -0.6423 -1.1009  0.0329
 8793SOL    HW238013   2.503   1.579   6.387  1.8058 -0.6238  1.0395
 8794SOL     OW38014   1.750   2.076  15.038 -0.2603 -0.3303  0.2282
 8794SOL    HW138015   1.675   2.082  15.097 -1.4317  0.6079 -1.3560
 8794SOL    HW238016   1.824   2.084  15.098 -0.3735 -3.2866  0.7758
 8795SOL     OW38017   1.560   0.450  16.275 -0.6570 -0.5645  0.2960
 8795SOL    HW138018   1.646   0.421  16.305 -0.6601  0.5838  1.4222
 8795SOL    HW238019   1.547   0.532  16.322 -2.4429  0.2517 -1.6154
 8796SOL     OW38020   1.890   0.601   4.575  0.1126 -0.7699  0.3564
 8796SOL    HW138021   1.831   0.532   4.547  1.4291 -1.6096 -0.3120
 8796SOL    HW238022   1.977   0.564   4.561  0.1787 -0.7556  0.7318
 8797SOL     OW38023   3.612   1.703  13.756  0.4731  0.5031 -0.1939
 8797SOL    HW138024   3.685   1.723  13.697  1.2369 -1.6675  0.0342
 8797SOL    HW238025   3.657   1.734  13.834  2.9157  0.1465 -1.4621
 8798SOL     OW38026   2.219   4.422   6.942 -0.3311 -0.0802  0.0182
 8798SOL    HW138027   2.267   4.399   6.862  0.1357  0.2495  0.2031
 8798SOL    HW238028   2.218   4.518   6.933 -2.5953 -0.0102  1.0121
 8799SOL     OW38029   0.021   3.726   8.295 -0.1171 -0.2640  0.4889
 8799SOL    HW138030   0.047   3.687   8.378  1.4503 -1.5215 -0.5844
 8799SOL    HW238031   4.730   3.645   8.251 -0.4938 -0.4442  1.0458
 8800SOL     OW38032   0.963   0.446  13.635  0.0533 -0.9733 -0.9974
 8800SOL    HW138033   0.991   0.389  13.707 -1.9177 -2.0557 -1.0810
 8800SOL    HW238034   0.975   0.533  13.674 -0.0229 -1.4281  0.0544
 8801SOL     OW38035   1.700   2.839   9.620  0.3647  0.3237 -0.1905
 8801SOL    HW138036   1.641   2.877   9.685 -0.3371 -0.2930 -0.4635
 8801SOL    HW238037   1.673   2.870   9.533  0.1116  0.8085  0.0560
 8802SOL     OW38038   0.185   2.000   3.553  0.0521 -0.6405 -0.5239
 8802SOL    HW138039   0.224   2.024   3.469  0.5575  1.0263  0.1799
 8802SOL    HW238040   0.094   1.984   3.527 -0.8173  1.5749  1.1306
 8803SOL     OW38041   1.172   2.782   4.151 -0.5034 -0.2006 -0.4242
 8803SOL    HW138042   1.134   2.784   4.238 -1.6386  1.9130 -0.9783
 8803SOL    HW238043   1.222   2.702   4.165 -1.2579 -0.8738 -1.5515
 8804SOL     OW38044   4.506   1.723  12.546 -0.1769  0.6057  0.1443
 8804SOL    HW138045   4.456   1.671  12.482  0.5915 -1.6748  1.4024
 8804SOL    HW238046   4.596   1.730  12.513 -0.2962  2.2552  0.2000
 8805SOL     OW38047   4.327   3.356  16.379  0.2498 -0.3505 -0.4994
 8805SOL    HW138048   4.322   3.350  16.474 -0.0010 -3.6028 -0.7366
 8805SOL    HW238049   4.241   3.385  16.347 -1.2179 -1.6813  2.2370
 8806SOL     OW38050   0.653   3.371   6.219  0.8215 -0.4031 -0.0655
 8806SOL    HW138051   0.732   3.371   6.273  1.9315  1.6405 -1.6793
 8806SOL    HW238052   0.686   3.340   6.135 -0.0700 -0.8059 -0.2587
 8807SOL     OW38053   1.471   0.509   9.130 -0.1495 -0.1193 -0.2352
 8807SOL    HW138054   1.434   0.479   9.212 -0.5829  2.8438  0.6416
 8807SOL    HW238055   1.564   0.483   9.132 -0.3533 -0.5309  2.8283
 8808SOL     OW38056   0.549   2.799   6.718 -0.3674 -0.1998 -0.2441
 8808SOL    HW138057   0.535   2.758   6.632 -2.7472 -2.9679  1.4380
 8808SOL    HW238058   0.489   2.740   6.763 -0.0045  1.3868  2.2778
 8809SOL     OW38059   4.318   1.804   7.661 -0.3875 -0.2792 -0.2787
 8809SOL    HW138060   4.283   1.717   7.679 -0.2235 -0.6621 -1.8336
 8809SOL    HW238061   4.270   1.829   7.582 -0.1986  0.3353 -0.2018
 8810SOL     OW38062   4.399   2.902   4.736 -0.6720 -0.0497  0.2167
 8810SOL    HW138063   4.467   2.970   4.734 -1.9535  1.1998 -0.7096
 8810SOL    HW238064   4.372   2.892   4.645  0.2449 -1.2225  0.0755
 8811SOL     OW38065   0.796   2.025   0.220 -0.6162  0.3107 -0.0900
 8811SOL    HW138066   0.883   1.997   0.191 -0.7403 -0.1256 -0.0474
 8811SOL    HW238067   0.760   2.054   0.136 -1.7626  1.2539  0.7346
 8812SOL     OW38068   0.577   1.059   1.066 -0.3325  0.4393 -0.0655
 8812SOL    HW138069   0.637   1.107   1.010 -0.9625  0.4876 -0.6970
 8812SOL    HW238070   0.622   0.977   1.088 -0.9574 -0.1626 -0.9917
 8813SOL     OW38071   0.930   4.398   8.751  0.1161  0.4199 -0.8008
 8813SOL    HW138072   0.995   4.390   8.821  0.1998 -1.3389 -1.0929
 8813SOL    HW238073   0.915   4.304   8.742  1.2198  0.2000 -0.3030
 8814SOL     OW38074   2.130   2.917   4.317  0.4630 -0.1965 -0.0108
 8814SOL    HW138075   2.120   2.827   4.348  1.6386 -0.1711  0.4510
 8814SOL    HW238076   2.192   2.949   4.383  0.4853 -0.4300  0.0805
 8815SOL     OW38077   3.522   2.101   7.482 -0.5992  0.3180  0.6606
 8815SOL    HW138078   3.546   2.132   7.394  1.4923 -0.5628  0.9383
 8815SOL    HW238079   3.592   2.149   7.527 -0.8496  0.0624  1.3165
 8816SOL     OW38080   1.534   1.434  15.602 -0.2988  0.2691  0.4639
 8816SOL    HW138081   1.602   1.458  15.540 -2.1897  0.5200 -1.5316
 8816SOL    HW238082   1.572   1.358  15.645  0.8911  2.2087  2.8145
 8817SOL     OW38083   2.471   3.121  10.747 -0.1208  0.1353 -0.3031
 8817SOL    HW138084   2.537   3.160  10.803 -0.4598  2.2655 -1.3806
 8817SOL    HW238085   2.428   3.073  10.818  0.1291 -0.6424 -0.6800
 8818SOL     OW38086   3.074   2.077   8.812  0.7554 -0.3557 -0.2893
 8818SOL    HW138087   3.003   2.016   8.793  0.0448 -0.4569  2.7590
 8818SOL    HW238088   3.061   2.157   8.762 -0.3869  0.2580  1.0171
 8819SOL     OW38089   2.894   3.057  15.784  0.4408 -0.3333 -0.5352
 8819SOL    HW138090   2.853   3.143  15.783  0.1314 -0.4191  5.1300
 8819SOL    HW238091   2.919   3.044  15.693 -0.4189  1.3622 -1.0055
 8820SOL     OW38092   0.845   2.911   9.968 -0.8344 -0.0874  0.3327
 8820SOL    HW138093   0.917   2.857   9.935 -2.2850 -2.3646  0.8928
 8820SOL    HW238094   0.841   2.882  10.059 -0.5414  0.9864  0.6796
 8821SOL     OW38095   1.148   3.726   1.654 -0.0079  0.1697 -0.1568
 8821SOL    HW138096   1.235   3.764   1.659  1.0464 -2.5968  2.4596
 8821SOL    HW238097   1.089   3.792   1.618 -0.4530 -0.6527 -0.9174
 8822SOL     OW38098   3.769   2.241   2.609  0.0114  0.1126  0.5186
 8822SOL    HW138099   3.713   2.166   2.631 -1.5224  0.5901 -1.6920
 8822SOL    HW238100   3.720   2.282   2.537  0.5937 -0.2413 -0.0768
 8823SOL     OW38101   0.146   2.142   9.770 -0.2225  0.0454  0.0584
 8823SOL    HW138102   0.105   2.144   9.856 -1.7108 -0.1819 -0.6515
 8823SOL    HW238103   0.156   2.048   9.754  0.2846  0.3154 -1.1891
 8824SOL     OW38104   3.485   2.560   4.623  0.2652  0.4501 -0.1441
 8824SOL    HW138105   3.475   2.473   4.584  1.4024  1.2796 -2.2738
 8824SOL    HW238106   3.477   2.546   4.718  1.8075  3.0025  0.3511
 8825SOL     OW38107   3.809   1.282   6.121 -0.4349 -0.2730  0.6268
 8825SOL    HW138108   3.875   1.218   6.147  0.6904 -0.1579 -1.9327
 8825SOL    HW238109   3.729   1.231   6.114 -0.7861  0.5178 -1.1548
 8826SOL     OW38110   1.344   1.901  10.687  0.0651  0.2537  0.7037
 8826SOL    HW138111   1.401   1.977  10.703  0.2795 -0.3642  2.8273
 8826SOL    HW238112   1.273   1.920  10.748 -0.3738  0.2288  0.2006
 8827SOL     OW38113   0.054   0.716   2.936 -0.3939 -0.1432 -0.7845
 8827SOL    HW138114   4.714   0.671   2.896 -2.3219  0.7921  1.8577
 8827SOL    HW238115   0.106   0.645   2.975  1.4599  1.1130 -0.9757
 8828SOL     OW38116   0.256   0.682   2.507  0.0489 -0.1796 -0.0136
 8828SOL    HW138117   0.269   0.709   2.598 -1.4607 -0.6451  0.3457
 8828SOL    HW238118   0.166   0.713   2.492 -0.2503 -1.9017 -1.7522
 8829SOL     OW38119   2.614   4.373   3.598 -0.1123  0.5104  0.0102
 8829SOL    HW138120   2.595   4.376   3.504  2.9206  0.7781 -0.5785
 8829SOL    HW238121   2.525   4.395   3.625  0.6026  1.3022  1.6967
 8830SOL     OW38122   3.135   0.076   2.438 -0.1639  0.7239 -0.3025
 8830SOL    HW138123   3.047   0.051   2.465  0.4076 -1.8311 -0.8038
 8830SOL    HW238124   3.098   0.102   2.354  1.2332  1.5190 -0.6833
 8831SOL     OW38125   0.647   2.330   6.212 -0.0910  0.1354  0.1964
 8831SOL    HW138126   0.653   2.423   6.192 -1.0385  0.1034 -0.2232
 8831SOL    HW238127   0.571   2.297   6.165 -0.0669  1.0294 -0.4557
 8832SOL     OW38128   3.584   3.885   8.393  0.1653  0.4970  0.1611
 8832SOL    HW138129   3.533   3.937   8.456 -1.6334  2.0881 -2.5943
 8832SOL    HW238130   3.576   3.941   8.315  0.9910 -0.8612 -0.8967
 8833SOL     OW38131   3.396   3.419   6.920  0.5242  0.0768  0.0740
 8833SOL    HW138132   3.370   3.459   7.003  2.2414 -0.0962  0.6998
 8833SOL    HW238133   3.455   3.486   6.884 -0.4309  0.4213 -0.8363
 8834SOL     OW38134   4.199   0.927  16.112  0.2261 -0.4249 -0.6168
 8834SOL    HW138135   4.108   0.954  16.102  0.3180 -0.0255 -0.3632
 8834SOL    HW238136   4.221   0.910  16.020  0.0910  0.1235 -0.7510
 8835SOL     OW38137   0.325   0.999   1.192 -0.2443 -0.1240  0.2673
 8835SOL    HW138138   0.350   0.908   1.177 -0.0387  0.0077 -0.1736
 8835SOL    HW238139   0.375   1.048   1.126  1.5351 -0.7331  1.1731
 8836SOL     OW38140   1.640   1.064   2.033 -0.3748  0.4468 -0.1929
 8836SOL    HW138141   1.575   1.104   1.975 -0.1232 -0.8896 -1.3938
 8836SOL    HW238142   1.715   1.042   1.978 -0.2353 -0.6207  0.4119
 8837SOL     OW38143   2.133   3.809  13.441  0.6284 -0.0292 -0.4396
 8837SOL    HW138144   2.127   3.713  13.437 -0.4798  0.1309 -2.3081
 8837SOL    HW238145   2.090   3.823  13.526 -0.0930 -0.2604 -0.7595
 8838SOL     OW38146   3.921   4.651   3.536  0.4456  0.4987 -0.6408
 8838SOL    HW138147   4.005   4.615   3.564  0.2933 -0.0351 -0.8774
 8838SOL    HW238148   3.865   4.573   3.530  5.0229 -2.6675 -2.1642
 8839SOL     OW38149   4.241   0.264   5.535  0.7388  0.0731 -0.5534
 8839SOL    HW138150   4.221   0.301   5.450 -0.8427 -2.1344 -1.1553
 8839SOL    HW238151   4.227   0.170   5.518  2.9336 -0.1153 -1.4188
 8840SOL     OW38152   0.013   4.323   0.053 -0.5029 -0.0688  0.1951
 8840SOL    HW138153   4.696   4.332   0.133 -0.8369  0.5862 -0.0893
 8840SOL    HW238154   0.101   4.302   0.083 -1.0571 -1.2464  0.9916
 8841SOL     OW38155   2.062   0.151   5.938  0.2420 -0.2245 -0.0038
 8841SOL    HW138156   2.030   0.238   5.961  1.3399 -0.3522  1.9987
 8841SOL    HW238157   2.153   0.176   5.925 -0.0188  1.1455  0.8294
 8842SOL     OW38158   0.582   2.690   6.398  0.2172 -0.3611 -0.4092
 8842SOL    HW138159   0.581   2.674   6.303 -2.1876 -2.9720  0.0617
 8842SOL    HW238160   0.660   2.641   6.426  0.2443 -1.0321 -1.6444
 8843SOL     OW38161   3.315   3.234   1.138  0.1766  0.2989  0.2048
 8843SOL    HW138162   3.391   3.238   1.196  1.6751  2.4259 -1.9284
 8843SOL    HW238163   3.348   3.185   1.062 -0.3018  0.0498  0.1527
 8844SOL     OW38164   0.726   0.851   3.129  0.1377  0.4336  0.3963
 8844SOL    HW138165   0.760   0.887   3.212  2.8100 -0.2506 -0.4260
 8844SOL    HW238166   0.632   0.840   3.146 -0.2943 -1.2191 -3.1701
 8845SOL     OW38167   2.635   1.367   7.453  0.6742  0.8368  0.0586
 8845SOL    HW138168   2.686   1.435   7.498  0.1299  1.5389 -0.3723
 8845SOL    HW238169   2.649   1.298   7.517  0.4555  0.3357 -0.4349
 8846SOL     OW38170   3.931   0.636   5.038 -0.2094  0.0407 -0.0245
 8846SOL    HW138171   3.892   0.654   5.123  0.8288 -1.5519  0.7929
 8846SOL    HW238172   3.868   0.676   4.979 -1.9825  1.4908  2.8675
 8847SOL     OW38173   1.485   3.402   4.128  0.7469 -0.2345 -0.5510
 8847SOL    HW138174   1.433   3.329   4.095  1.1319 -0.8151  0.1188
 8847SOL    HW238175   1.414   3.465   4.139  1.7756  0.9387 -0.5407
 8848SOL     OW38176   3.023   2.993   1.491 -0.6754  0.8883  0.7118
 8848SOL    HW138177   3.066   3.055   1.433  0.3011 -1.0927 -0.6971
 8848SOL    HW238178   3.089   2.928   1.518  0.8240  2.0334 -0.2222
 8849SOL     OW38179   2.601   1.808   9.751  0.2960 -0.1682  0.6897
 8849SOL    HW138180   2.536   1.799   9.681 -1.3420 -0.4006  2.2355
 8849SOL    HW238181   2.596   1.900   9.777  2.0247  0.3713 -0.8709
 8850SOL     OW38182   0.985   0.463   5.291  0.4752 -0.1399  0.3036
 8850SOL    HW138183   0.937   0.456   5.208 -0.2682 -2.5429  0.9375
 8850SOL    HW238184   1.054   0.397   5.283  1.0631  0.4057  0.8999
 8851SOL     OW38185   3.762   4.573   1.962  0.0102 -0.8403  0.3639
 8851SOL    HW138186   3.830   4.590   1.896  0.1501 -0.2459  0.6624
 8851SOL    HW238187   3.818   4.570   2.040  0.0297  1.4661  0.4470
 8852SOL     OW38188   0.974   2.179   6.850 -0.2788  0.2143 -0.2629
 8852SOL    HW138189   0.983   2.231   6.929 -0.9425  1.4608 -1.0091
 8852SOL    HW238190   0.889   2.144   6.877  0.2182  0.2234  1.3039
 8853SOL     OW38191   1.592   4.646   4.257  0.2740  0.3850 -0.1131
 8853SOL    HW138192   1.671   4.596   4.238 -1.2493 -1.5135 -1.3930
 8853SOL    HW238193   1.563   4.660   4.167 -0.5628 -0.7776 -0.0260
 8854SOL     OW38194   3.760   1.743   5.499  0.3126 -0.4693  0.2185
 8854SOL    HW138195   3.717   1.826   5.482 -0.5954 -0.3819  2.9470
 8854SOL    HW238196   3.770   1.742   5.594 -0.2282  0.7532  0.2905
 8855SOL     OW38197   0.779   0.357  16.332  0.4718  0.1440  0.2361
 8855SOL    HW138198   0.778   0.287  16.268  1.5792  0.2107  0.1599
 8855SOL    HW238199   0.849   0.418  16.308  0.8612  0.6056  2.4830
 8856SOL     OW38200   4.676   4.529   4.972  0.2844  0.1007 -0.0095
 8856SOL    HW138201   4.622   4.607   4.985 -0.4953 -0.3003 -0.7595
 8856SOL    HW238202   4.701   4.514   5.063 -1.7529  0.0535  0.5491
 8857SOL     OW38203   2.214   0.685   0.930  0.1988 -0.0084 -0.3538
 8857SOL    HW138204   2.169   0.684   1.014  1.0438 -0.8837  0.0807
 8857SOL    HW238205   2.178   0.759   0.880 -0.3049 -1.2291 -1.7859
 8858SOL     OW38206   1.003   1.980  17.359  0.6510 -0.7606  0.1617
 8858SOL    HW138207   1.001   1.994  17.453 -0.2130  5.6012 -0.8268
 8858SOL    HW238208   1.090   1.940  17.350  0.3283 -1.0231 -1.8931
 8859SOL     OW38209   1.591   3.454   8.881 -0.2067  0.5249  0.3130
 8859SOL    HW138210   1.579   3.429   8.790 -1.1582 -0.4195  0.6942
 8859SOL    HW238211   1.500   3.456   8.912  0.2994 -0.3509  1.8465
 8860SOL     OW38212   0.112   2.722   3.229 -0.4029 -0.1200 -0.0581
 8860SOL    HW138213   0.208   2.726   3.232 -0.4702  1.0274  0.5162
 8860SOL    HW238214   0.095   2.684   3.316  1.9317 -0.0306  0.4461
 8861SOL     OW38215   4.532   4.619   3.554 -0.0384 -1.1493 -0.2064
 8861SOL    HW138216   4.581   4.670   3.619 -0.1970 -1.6560  0.3231
 8861SOL    HW238217   4.513   4.544   3.611  0.6082  0.3607  1.9905
 8862SOL     OW38218   1.846   2.518  12.726  0.0576  0.5258 -0.5900
 8862SOL    HW138219   1.782   2.503  12.656 -0.6135  0.1579  0.0938
 8862SOL    HW238220   1.847   2.613  12.741  0.9499  0.3928  0.1941
 8863SOL     OW38221   2.094   1.922  10.490  0.1409 -0.5570  0.4500
 8863SOL    HW138222   2.000   1.910  10.505  0.5369 -0.0092  3.2831
 8863SOL    HW238223   2.110   1.855  10.424 -0.0515  0.4271 -0.6019
 8864SOL     OW38224   3.774   2.735   4.841  0.1320  0.2508 -0.5215
 8864SOL    HW138225   3.734   2.676   4.905 -1.3794  0.1255 -1.6058
 8864SOL    HW238226   3.715   2.809   4.850 -0.3118 -0.2624  0.7736
 8865SOL     OW38227   1.607   4.582   4.909 -0.7425 -0.4643 -0.2401
 8865SOL    HW138228   1.696   4.576   4.943 -0.7759 -1.6345 -0.3455
 8865SOL    HW238229   1.631   4.570   4.818 -0.8995  1.0155 -0.4816
 8866SOL     OW38230   0.495   1.812  13.007  0.1563 -0.4447  0.0083
 8866SOL    HW138231   0.455   1.726  13.017 -0.5707  0.1513  2.1571
 8866SOL    HW238232   0.486   1.837  13.099 -2.3983 -0.3313 -0.2732
 8867SOL     OW38233   3.947   2.459  13.212  0.9372  0.2837 -0.0696
 8867SOL    HW138234   3.902   2.426  13.135  0.4498  1.8262 -0.4350
 8867SOL    HW238235   3.888   2.529  13.241  0.6198  0.9330 -2.2836
 8868SOL     OW38236   2.453   4.308  16.710 -0.2574  0.4216  0.9356
 8868SOL    HW138237   2.515   4.336  16.777 -0.1829  0.4277  0.8644
 8868SOL    HW238238   2.431   4.392  16.671  1.0912 -0.0618 -0.8931
 8869SOL     OW38239   4.544   0.957   4.281  0.3601 -0.0720 -0.0052
 8869SOL    HW138240   4.477   0.978   4.346  1.3585  1.5403  0.5138
 8869SOL    HW238241   4.527   1.023   4.214  0.1155  0.5830  0.7039
 8870SOL     OW38242   2.267   4.292   4.490 -0.5498 -0.0148 -0.0470
 8870SOL    HW138243   2.288   4.384   4.475  3.3858 -0.3660  3.5885
 8870SOL    HW238244   2.306   4.255   4.411 -0.6953  3.0051 -1.5686
 8871SOL     OW38245   3.682   0.540   7.372  0.0743 -0.6438  0.3889
 8871SOL    HW138246   3.743   0.591   7.426 -2.8237  1.4711  1.7052
 8871SOL    HW238247   3.729   0.465   7.338  2.3959 -0.0099  2.2382
 8872SOL     OW38248   2.310   3.000   4.570 -0.1690 -0.0753 -0.6989
 8872SOL    HW138249   2.386   2.942   4.563  0.2629  0.7979 -3.0675
 8872SOL    HW238250   2.341   3.088   4.589 -2.0662  0.3405  0.5138
 8873SOL     OW38251   1.702   0.975   5.211 -0.1325 -0.1100  0.1544
 8873SOL    HW138252   1.730   1.028   5.136 -1.4100  2.5589  1.5452
 8873SOL    HW238253   1.784   0.934   5.237  0.3084  1.5599  1.3918
 8874SOL     OW38254   4.465   3.332   9.939 -0.4809  0.3130 -0.2827
 8874SOL    HW138255   4.468   3.410   9.884 -1.5746 -1.3488 -2.6798
 8874SOL    HW238256   4.474   3.379  10.023 -0.2708  0.9057 -0.6320
 8875SOL     OW38257   1.907   2.056   7.184 -0.4759  0.2342 -0.2635
 8875SOL    HW138258   1.820   2.096   7.193 -0.1739  0.0486  3.2202
 8875SOL    HW238259   1.893   1.973   7.138  3.3948  0.2321 -1.4482
 8876SOL     OW38260   3.828   3.918  13.125  0.0815 -0.3137  0.2081
 8876SOL    HW138261   3.792   4.006  13.137 -0.5020 -0.3743 -1.1745
 8876SOL    HW238262   3.785   3.885  13.046 -0.3475 -0.8457  0.6605
 8877SOL     OW38263   2.796   0.814   6.505 -0.0186 -0.0656  0.2453
 8877SOL    HW138264   2.867   0.772   6.555  0.7896  2.0919  0.8894
 8877SOL    HW238265   2.818   0.750   6.437  0.1170  0.2825 -0.0337
 8878SOL     OW38266   3.287   2.557  12.375 -0.2096 -0.3307 -0.4568
 8878SOL    HW138267   3.337   2.480  12.347  1.5918  1.7294 -2.9465
 8878SOL    HW238268   3.227   2.517  12.437  2.5619 -0.3616  2.1663
 8879SOL     OW38269   3.990   0.657  10.884 -0.5322 -0.2183 -0.6848
 8879SOL    HW138270   4.066   0.708  10.911 -0.9766 -1.5697  3.1222
 8879SOL    HW238271   4.037   0.584  10.844 -0.1001  0.5339 -1.5218
 8880SOL     OW38272   1.671   4.648   6.528  0.7337 -0.9938 -0.1275
 8880SOL    HW138273   1.658   4.706   6.452  1.3660  0.3281  0.7756
 8880SOL    HW238274   1.593   4.595   6.510 -0.7888  0.8047  1.1817
 8881SOL     OW38275   2.577   0.379   3.541 -0.1064  0.3293  0.1183
 8881SOL    HW138276   2.594   0.448   3.606 -0.1365 -0.0016  0.4780
 8881SOL    HW238277   2.510   0.326   3.584 -1.1456  2.3331  0.9962
 8882SOL     OW38278   3.527   2.450  13.978  0.0905 -0.1890  0.1778
 8882SOL    HW138279   3.492   2.517  13.918  3.2015 -0.0657 -1.5046
 8882SOL    HW238280   3.620   2.472  13.985 -0.6910  2.0327  3.2503
 8883SOL     OW38281   4.137   1.038   5.196 -0.2504 -0.3493  0.2471
 8883SOL    HW138282   4.206   1.036   5.129 -0.3853 -0.3200  0.1069
 8883SOL    HW238283   4.182   1.066   5.276 -0.1664  0.1654  0.0211
 8884SOL     OW38284   0.837   1.162  16.577  0.3110 -0.8954 -0.3278
 8884SOL    HW138285   0.784   1.240  16.559  1.1049  0.2105  2.0864
 8884SOL    HW238286   0.913   1.198  16.531  1.6340 -1.0727  1.7182
 8885SOL     OW38287   0.018   3.969   8.866 -0.5294  0.1509 -0.1248
 8885SOL    HW138288   0.051   3.954   8.955  1.0198 -1.0191 -0.9045
 8885SOL    HW238289   4.735   4.063   8.868  0.1694  0.2713  0.4956
 8886SOL     OW38290   2.409   3.743   7.367  0.1942  0.1708 -0.0360
 8886SOL    HW138291   2.338   3.679   7.358  0.5012 -0.1440 -0.2201
 8886SOL    HW238292   2.465   3.693   7.426  0.3485 -0.6799 -0.8934
 8887SOL     OW38293   4.543   1.717   8.128 -0.0857 -0.1873  0.6416
 8887SOL    HW138294   4.521   1.737   8.037  1.6076  0.3871  0.3709
 8887SOL    HW238295   4.536   1.806   8.161 -0.2331 -0.4128  1.2139
 8888SOL     OW38296   3.720   1.613   5.242 -0.1625  0.4325 -0.0196
 8888SOL    HW138297   3.795   1.670   5.254  1.8458 -2.2742  0.1602
 8888SOL    HW238298   3.680   1.608   5.329 -1.3272  0.3518 -0.5619
 8889SOL     OW38299   3.745   4.680   7.992  0.0048  0.0170  0.2510
 8889SOL    HW138300   3.743   4.657   7.899 -0.4396  0.4713  0.1493
 8889SOL    HW238301   3.658   4.657   8.026  0.0885 -0.5737  0.0698
 8890SOL     OW38302   2.922   2.627   2.183 -0.4248  0.1304 -0.1051
 8890SOL    HW138303   2.849   2.661   2.131 -0.3675  1.3198  0.5931
 8890SOL    HW238304   2.961   2.578   2.110 -1.2803 -1.9552  0.8354
 8891SOL     OW38305   2.436   0.256  10.723 -0.4825 -0.6206 -0.1144
 8891SOL    HW138306   2.413   0.297  10.640  2.7423  2.3103  0.4570
 8891SOL    HW238307   2.402   0.323  10.784  1.8139  1.4891 -1.1647
 8892SOL     OW38308   3.009   4.564  11.872  0.1282  0.3518  0.1986
 8892SOL    HW138309   3.041   4.509  11.800  1.8889  1.4374  0.1670
 8892SOL    HW238310   2.985   4.494  11.933  0.2149 -0.0558 -0.2320
 8893SOL     OW38311   3.454   0.254   6.345 -0.2433  0.5670  0.4357
 8893SOL    HW138312   3.443   0.161   6.364 -1.0372  0.5624 -0.0142
 8893SOL    HW238313   3.468   0.288   6.433  3.5808  1.7557 -0.6543
 8894SOL     OW38314   3.511   2.269  16.658 -0.1129 -0.6417  0.0075
 8894SOL    HW138315   3.528   2.205  16.589  3.0761  0.7727 -0.5167
 8894SOL    HW238316   3.416   2.274  16.647 -0.2613 -0.8839  1.1477
 8895SOL     OW38317   0.496   0.833   5.315  0.4212 -0.0959  0.0504
 8895SOL    HW138318   0.489   0.803   5.406  0.0211  0.7361  0.2990
 8895SOL    HW238319   0.425   0.795   5.263 -0.0186  0.1271  0.4806
 8896SOL     OW38320   3.339   0.829   2.856  0.0216 -1.0605 -0.4050
 8896SOL    HW138321   3.281   0.753   2.862 -0.4156 -0.5889  1.2541
 8896SOL    HW238322   3.331   0.871   2.942 -1.4558  0.3707 -1.2441
 8897SOL     OW38323   0.064   3.001   9.416 -0.3465  0.1879 -0.0391
 8897SOL    HW138324   0.148   3.042   9.437  0.6245 -1.8983  0.2341
 8897SOL    HW238325   0.019   3.023   9.497 -1.4781 -3.2125  0.2550
 8898SOL     OW38326   1.290   0.991   3.030  0.6069  0.4056 -0.3898
 8898SOL    HW138327   1.321   1.074   3.065 -2.0289  0.8667  0.8639
 8898SOL    HW238328   1.220   0.979   3.095 -0.2724 -0.3840 -1.4814
 8899SOL     OW38329   0.917   3.015   5.251 -0.0284  0.3827  0.1800
 8899SOL    HW138330   0.875   3.010   5.337 -0.0792  0.1224  0.1390
 8899SOL    HW238331   0.890   2.934   5.209 -2.4763  2.1663 -1.6818
 8900SOL     OW38332   1.333   4.073   3.384  0.2220 -0.2587  0.1014
 8900SOL    HW138333   1.285   4.093   3.464 -0.0426 -3.1015  0.6649
 8900SOL    HW238334   1.273   4.096   3.313  0.2454  0.1682  0.2224
 8901SOL     OW38335   2.219   1.963   5.707  0.6041  0.2952 -0.4035
 8901SOL    HW138336   2.197   1.878   5.669 -0.6307 -0.1607  1.3206
 8901SOL    HW238337   2.212   2.017   5.628 -0.2933  0.1335 -0.4422
 8902SOL     OW38338   0.191   1.129   2.832  0.2502 -0.0993 -0.0705
 8902SOL    HW138339   0.144   1.188   2.772  0.9809 -1.1471 -1.6594
 8902SOL    HW238340   0.228   1.198   2.887  2.8139 -0.8049 -0.9083
 8903SOL     OW38341   1.839   1.635  17.304 -0.7843 -0.0064 -0.1584
 8903SOL    HW138342   1.885   1.688  17.239 -0.9909 -2.0039 -1.9433
 8903SOL    HW238343   1.832   1.554  17.252  0.0862 -2.2262  3.1753
 8904SOL     OW38344   4.684   0.651  17.565  0.5892  0.5557  0.0721
 8904SOL    HW138345   4.731   0.629  17.484  0.3074  2.2009 -0.5355
 8904SOL    HW238346   4.732   0.720  17.610  0.2180 -0.1897  1.5971
 8905SOL     OW38347   2.126   1.742   7.336  0.4354 -0.6177  0.3247
 8905SOL    HW138348   2.187   1.705   7.399 -0.5223  1.2071  2.3439
 8905SOL    HW238349   2.134   1.837   7.344 -4.7024 -0.1816  0.5035
 8906SOL     OW38350   1.740   0.177   4.013  0.0709  0.0408  0.2441
 8906SOL    HW138351   1.784   0.195   3.929  0.3673  2.5690  0.9574
 8906SOL    HW238352   1.677   0.248   4.025  1.0696  1.0550 -0.4981
 8907SOL     OW38353   1.333   2.417   7.741 -0.3282  0.7043 -0.0965
 8907SOL    HW138354   1.411   2.413   7.686  1.9761 -0.6914  3.2392
 8907SOL    HW238355   1.346   2.508   7.766 -0.5698  0.5005  0.7960
 8908SOL     OW38356   2.775   2.266  10.124  0.0060 -0.0742 -0.0489
 8908SOL    HW138357   2.851   2.310  10.086  0.1255 -0.5338 -0.3453
 8908SOL    HW238358   2.816   2.179  10.122  0.7255  0.2040  2.1203
 8909SOL     OW38359   2.321   0.377  12.143  0.2640  0.2968 -1.0743
 8909SOL    HW138360   2.259   0.377  12.070  0.3728 -0.9214 -1.1657
 8909SOL    HW238361   2.391   0.433  12.109  2.0116 -1.8043 -0.9545
 8910SOL     OW38362   3.549   0.691   3.826  0.3497 -0.7451 -0.2679
 8910SOL    HW138363   3.556   0.783   3.851  0.8234 -0.1685 -2.5507
 8910SOL    HW238364   3.461   0.678   3.862 -0.0046 -2.3949 -1.7221
 8911SOL     OW38365   2.314   0.962  16.280  0.9907  0.4171 -0.8952
 8911SOL    HW138366   2.408   0.983  16.285  0.8260  1.2301 -1.1299
 8911SOL    HW238367   2.271   1.048  16.287 -1.0018 -0.6212 -0.5484
 8912SOL     OW38368   4.072   2.426   6.203  0.3022  0.3514  0.1621
 8912SOL    HW138369   4.006   2.489   6.233  0.5634 -0.7061  2.8995
 8912SOL    HW238370   4.019   2.356   6.165  1.3072 -0.1385 -0.3206
 8913SOL     OW38371   4.047   1.611  11.592 -0.0311  0.3551  0.3798
 8913SOL    HW138372   3.953   1.594  11.594  0.0743 -0.4245 -1.2540
 8913SOL    HW238373   4.076   1.606  11.683  0.8105  2.1785  0.2023
 8914SOL     OW38374   4.608   1.171   9.237 -0.2421 -0.1038 -0.3251
 8914SOL    HW138375   4.599   1.255   9.282  4.5590  0.3036 -0.1042
 8914SOL    HW238376   4.564   1.123   9.308 -1.5954 -0.4086 -1.3869
 8915SOL     OW38377   4.421   2.797   1.215 -0.1547  0.6355 -0.0096
 8915SOL    HW138378   4.408   2.716   1.264  0.0200 -0.0250 -1.0693
 8915SOL    HW238379   4.515   2.809   1.200  0.0630  0.2028  0.9964
 8916SOL     OW38380   2.519   1.024   8.648  0.4377  0.1320  0.2359
 8916SOL    HW138381   2.503   1.102   8.594 -0.0014 -0.1155  0.0061
 8916SOL    HW238382   2.516   1.063   8.735  0.2196  1.9199 -0.5605
 8917SOL     OW38383   3.485   1.371   5.750  1.1704  0.1483 -0.0688
 8917SOL    HW138384   3.414   1.327   5.796  0.3279  1.1945 -0.3812
 8917SOL    HW238385   3.516   1.434   5.815 -1.3655 -0.6337  1.9316
 8918SOL     OW38386   4.590   4.352   7.495  0.4776  0.0737  0.1122
 8918SOL    HW138387   4.555   4.342   7.406  0.7901  0.6367 -0.0696
 8918SOL    HW238388   4.530   4.304   7.553  1.9578 -2.0618 -0.1074
 8919SOL     OW38389   2.855   1.704   3.247 -0.2126 -0.3033  0.1755
 8919SOL    HW138390   2.914   1.632   3.223  1.9345  1.5808 -0.1990
 8919SOL    HW238391   2.897   1.747   3.322 -0.5986 -0.8553  0.7069
 8920SOL     OW38392   1.526   4.165  10.995  0.7032 -0.5895  0.3261
 8920SOL    HW138393   1.549   4.138  11.084 -2.4925  0.2771  1.4349
 8920SOL    HW238394   1.494   4.082  10.959 -2.2467  0.0020  1.5041
 8921SOL     OW38395   2.262   4.253   2.919 -0.7345 -0.6581  0.0177
 8921SOL    HW138396   2.243   4.301   2.838 -2.3324  1.1931  1.4938
 8921SOL    HW238397   2.174   4.257   2.956 -0.4983 -0.6882  0.5717
 8922SOL     OW38398   1.375   2.367   2.429 -0.1368  0.4143  0.2520
 8922SOL    HW138399   1.370   2.455   2.464  2.0902 -0.5866  3.0699
 8922SOL    HW238400   1.375   2.388   2.335  0.4053 -1.2223 -0.1237
 8923SOL     OW38401   3.480   2.223  14.493 -0.0062  0.0195 -0.9447
 8923SOL    HW138402   3.565   2.264  14.503 -1.1971  2.4326 -0.7194
 8923SOL    HW238403   3.443   2.236  14.581  2.0069 -0.9555  0.0299
 8924SOL     OW38404   1.126   3.238   8.756  0.2136  0.4266  0.1983
 8924SOL    HW138405   1.042   3.271   8.787  0.3821  1.8345 -0.8388
 8924SOL    HW238406   1.142   3.308   8.692 -1.3846  0.5372 -0.0681
 8925SOL     OW38407   1.289   0.782   7.982 -0.0333 -0.6735 -0.1247
 8925SOL    HW138408   1.294   0.775   7.887 -0.8047 -0.3405 -0.1869
 8925SOL    HW238409   1.230   0.713   8.012  1.6073 -2.0571 -0.0648
 8926SOL     OW38410   2.226   3.063   5.777 -0.0322 -0.0052 -0.4493
 8926SOL    HW138411   2.222   3.124   5.850  1.3532 -0.3529 -0.0648
 8926SOL    HW238412   2.237   2.979   5.823  0.4447 -0.2570 -1.0225
 8927SOL     OW38413   0.663   3.858  16.183 -0.3039 -0.0818 -0.0129
 8927SOL    HW138414   0.581   3.873  16.229 -0.9402 -0.3010 -1.0732
 8927SOL    HW238415   0.720   3.917  16.232 -1.6099  2.7398 -1.8754
 8928SOL     OW38416   2.292   0.807   1.980 -0.1498 -0.2141 -0.2503
 8928SOL    HW138417   2.302   0.856   1.899 -3.5076 -1.3999 -1.3659
 8928SOL    HW238418   2.381   0.772   1.989 -0.1444  0.0162  0.5456
 8929SOL     OW38419   2.869   1.123  13.569 -0.1709 -0.6727 -0.6211
 8929SOL    HW138420   2.949   1.078  13.542  0.3246 -1.0282  1.4843
 8929SOL    HW238421   2.864   1.100  13.661 -0.0767  0.9089 -0.2212
 8930SOL     OW38422   0.439   2.782   3.991 -0.1641  0.3755 -0.9897
 8930SOL    HW138423   0.519   2.808   4.036 -0.7227 -0.9311  0.7699
 8930SOL    HW238424   0.469   2.721   3.925 -2.6247 -1.8053 -0.0755
 8931SOL     OW38425   4.066   1.835  12.217  0.0909  0.5942 -0.1121
 8931SOL    HW138426   4.040   1.756  12.169 -1.8379  0.2508  1.4924
 8931SOL    HW238427   4.155   1.845  12.183  0.0602  0.7398 -0.1475
 8932SOL     OW38428   4.444   1.976   9.843 -0.0791  0.1122  0.0083
 8932SOL    HW138429   4.371   2.036   9.860  1.0217  1.3946  0.1715
 8932SOL    HW238430   4.393   1.896   9.852 -0.7683  0.3157 -2.1840
 8933SOL     OW38431   2.269   3.969   3.020  0.2636  0.2868  0.5693
 8933SOL    HW138432   2.177   3.956   2.997 -0.1867  3.2443  0.6873
 8933SOL    HW238433   2.295   4.048   2.973  4.3790 -0.4980  1.5176
 8934SOL     OW38434   0.629   4.606   4.588  0.5742 -0.8266 -0.3293
 8934SOL    HW138435   0.627   4.521   4.546  0.5646 -1.6541  1.3369
 8934SOL    HW238436   0.616   4.589   4.681  0.1566 -1.4499 -0.5027
 8935SOL     OW38437   3.364   0.603   8.051 -0.4947 -0.3046  0.4160
 8935SOL    HW138438   3.350   0.518   8.009 -1.1078  0.9297 -1.8930
 8935SOL    HW238439   3.450   0.588   8.089  0.4613 -0.1978 -1.6972
 8936SOL     OW38440   1.006   1.326   3.768  0.0607  0.0417 -0.1384
 8936SOL    HW138441   1.080   1.376   3.802 -0.2927  0.1848  0.4147
 8936SOL    HW238442   0.926   1.367   3.802  0.9035  0.6442  1.1253
 8937SOL     OW38443   0.846   2.588   3.618  0.2605  0.5391  0.1937
 8937SOL    HW138444   0.900   2.662   3.646 -0.6133  0.8403  1.1164
 8937SOL    HW238445   0.789   2.551   3.686  0.1330 -1.1069 -0.8082
 8938SOL     OW38446   1.726   3.698   2.446  0.7919 -0.0179 -0.0069
 8938SOL    HW138447   1.802   3.690   2.388  0.2342  1.1151 -0.8986
 8938SOL    HW238448   1.716   3.793   2.453  0.8372  0.0316 -0.6649
 8939SOL     OW38449   1.650   0.261   3.749 -0.1785 -0.2671 -0.2618
 8939SOL    HW138450   1.564   0.226   3.769 -0.7963 -0.1991 -2.8128
 8939SOL    HW238451   1.640   0.356   3.740  0.5621 -0.1644 -0.0400
 8940SOL     OW38452   4.076   1.199   4.035  0.2851  0.6995 -0.3724
 8940SOL    HW138453   4.156   1.232   3.993 -1.1456  3.4203 -0.9484
 8940SOL    HW238454   4.046   1.141   3.965 -0.3914 -1.1769  1.4638
 8941SOL     OW38455   2.757   4.683  16.560 -0.4617 -0.8992  0.0926
 8941SOL    HW138456   2.746   4.654  16.470 -1.0407 -0.5794  0.0621
 8941SOL    HW238457   2.675   4.667  16.607 -1.0513  0.5214 -0.4449
 8942SOL     OW38458   1.969   0.494   7.586 -0.0305  0.5596 -0.3672
 8942SOL    HW138459   1.899   0.536   7.534  0.5047 -0.9879 -2.3517
 8942SOL    HW238460   1.937   0.476   7.674 -1.0787 -0.2965 -0.9079
 8943SOL     OW38461   4.615   0.297  10.722  0.4305 -0.4651 -0.2586
 8943SOL    HW138462   4.547   0.281  10.787  1.7676  0.9491  1.4704
 8943SOL    HW238463   4.661   0.214  10.729 -0.8929 -1.1128  0.6850
 8944SOL     OW38464   0.798   4.692  12.605  0.4507 -0.0198  0.4045
 8944SOL    HW138465   0.859   4.626  12.636  3.3312  2.3890 -0.1386
 8944SOL    HW238466   0.778   4.733  12.689  2.4133 -2.0103  1.8391
 8945SOL     OW38467   2.085   4.603   4.276 -0.1507 -0.1638 -0.1806
 8945SOL    HW138468   2.082   4.698   4.264  0.2881  0.1257  2.1158
 8945SOL    HW238469   2.121   4.584   4.362 -1.3462  0.1147  0.3896
 8946SOL     OW38470   4.559   3.420   9.373 -0.7528  0.2142  0.3505
 8946SOL    HW138471   4.474   3.436   9.330  0.1299  0.1861 -1.4108
 8946SOL    HW238472   4.601   3.355   9.317  2.5793  0.1265  3.0130
 8947SOL     OW38473   1.565   2.611   2.404  0.0568  0.6327  0.2649
 8947SOL    HW138474   1.621   2.553   2.353 -0.1700 -0.8140  1.6710
 8947SOL    HW238475   1.529   2.662   2.332  0.7310  1.2776  0.3852
 8948SOL     OW38476   1.858   0.722   3.489 -0.6627  0.0157 -0.3026
 8948SOL    HW138477   1.881   0.684   3.574  0.0993 -1.3927 -1.1352
 8948SOL    HW238478   1.863   0.638   3.441  2.2506  1.7169 -3.0052
 8949SOL     OW38479   2.715   1.221   8.356  0.0244  0.2323  0.5185
 8949SOL    HW138480   2.727   1.313   8.334  0.1333 -0.0199 -0.4688
 8949SOL    HW238481   2.772   1.182   8.290 -0.2178 -1.2650  1.1813
 8950SOL     OW38482   1.417   1.916   2.207  0.3704 -0.5074  0.3888
 8950SOL    HW138483   1.434   1.953   2.294 -1.9637  1.8387 -0.1840
 8950SOL    HW238484   1.352   1.850   2.231  2.0985 -2.0993  0.7846
 8951SOL     OW38485   1.552   0.876   8.059 -0.4768 -0.6561  0.4591
 8951SOL    HW138486   1.458   0.866   8.042 -0.6568  1.6856  0.1652
 8951SOL    HW238487   1.566   0.822   8.137 -2.7557 -3.0884 -0.8058
 8952SOL     OW38488   3.824   2.614  17.309  0.3785  0.2363 -0.3602
 8952SOL    HW138489   3.757   2.618  17.241 -0.0819 -2.4159 -0.0879
 8952SOL    HW238490   3.827   2.518  17.308 -1.3173  0.1987 -1.1144
 8953SOL     OW38491   0.450   2.187   7.630  1.0652  0.8845  0.4575
 8953SOL    HW138492   0.370   2.227   7.596 -0.2225 -0.6861  1.6500
 8953SOL    HW238493   0.475   2.126   7.561 -0.4850  0.5412  0.2043
 8954SOL     OW38494   2.592   0.533   1.322 -0.1430  0.4359 -0.2468
 8954SOL    HW138495   2.666   0.541   1.383 -0.5197 -1.1265  0.3981
 8954SOL    HW238496   2.525   0.487   1.372 -0.8124  0.4664 -1.1300
 8955SOL     OW38497   3.629   4.128   5.096 -0.5423 -0.2942  0.2834
 8955SOL    HW138498   3.557   4.179   5.133  0.4323  1.0797  0.2679
 8955SOL    HW238499   3.614   4.047   5.144  2.9746 -1.7600 -1.1281
 8956SOL     OW38500   2.926   4.337   4.791  0.3986  0.6644 -0.6729
 8956SOL    HW138501   2.922   4.419   4.742 -0.2076  1.4423  0.6791
 8956SOL    HW238502   2.869   4.366   4.862  0.5832 -0.9385  0.1504
 8957SOL     OW38503   3.766   3.791   4.914 -0.2468 -0.1850 -0.4136
 8957SOL    HW138504   3.754   3.697   4.923 -1.0499 -0.1555 -1.0850
 8957SOL    HW238505   3.677   3.820   4.938  0.0692 -0.3623  0.9486
 8958SOL     OW38506   1.692   2.781  16.451 -0.0430 -0.1576 -0.0995
 8958SOL    HW138507   1.733   2.822  16.375  3.2195  0.8918  2.2619
 8958SOL    HW238508   1.604   2.821  16.449 -0.2426 -0.6473 -1.0980
 8959SOL     OW38509   0.186   2.251   6.569  0.4528 -0.3444  0.7620
 8959SOL    HW138510   0.269   2.266   6.525 -0.6755  2.6601 -0.3150
 8959SOL    HW238511   0.177   2.337   6.610 -1.6906 -0.3203  0.2578
 8960SOL     OW38512   0.144   4.463   9.380 -0.0806  0.2555  0.2319
 8960SOL    HW138513   0.148   4.535   9.444 -1.2574  0.7724 -0.2713
 8960SOL    HW238514   0.109   4.390   9.431 -0.0741 -0.1234 -0.3066
 8961SOL     OW38515   4.050   2.566  14.544 -0.2596  0.0870  0.2323
 8961SOL    HW138516   4.025   2.474  14.531 -0.6537  0.4863 -1.8397
 8961SOL    HW238517   4.140   2.555  14.576 -0.3000  0.9447  0.6565
 8962SOL     OW38518   3.542   1.628  17.661  0.0775  0.1708 -0.1415
 8962SOL    HW138519   3.468   1.598  17.608  1.1359 -2.8570  0.1290
 8962SOL    HW238520   3.550   1.720  17.632  1.2074 -0.0800 -0.6097
 8963SOL     OW38521   4.198   3.900   6.861 -0.0383  0.4429 -0.3546
 8963SOL    HW138522   4.108   3.931   6.867 -0.6033 -1.2052 -0.5501
 8963SOL    HW238523   4.177   3.807   6.866 -1.5650  0.8903  1.4290
 8964SOL     OW38524   3.200   2.274   7.088 -0.0918  0.8882  0.3596
 8964SOL    HW138525   3.275   2.331   7.104 -0.8861  2.3346 -1.1828
 8964SOL    HW238526   3.138   2.326   7.139 -1.0277 -1.8453  2.0064
 8965SOL     OW38527   2.733   0.149  12.845 -0.4441 -0.0873  0.0791
 8965SOL    HW138528   2.654   0.203  12.855  0.7428  1.6630 -0.2134
 8965SOL    HW238529   2.699   0.088  12.912  0.8698 -1.1705 -0.2431
 8966SOL     OW38530   3.148   0.480   6.022 -0.0025 -0.0754 -0.2613
 8966SOL    HW138531   3.092   0.557   6.012 -0.1975  0.1321  2.5839
 8966SOL    HW238532   3.202   0.498   6.099 -0.7826 -0.0101  0.2623
 8967SOL     OW38533   0.079   1.005   4.316  0.2727 -0.5267  0.2762
 8967SOL    HW138534   4.719   0.996   4.316  0.1419  0.9820 -1.3227
 8967SOL    HW238535   0.092   0.951   4.394 -2.3055 -0.5604  0.6941
 8968SOL     OW38536   3.547   0.045   6.103  0.6943  0.3318  0.1057
 8968SOL    HW138537   3.465   4.731   6.104 -0.5344  2.4010  0.2013
 8968SOL    HW238538   3.509   0.133   6.102  0.0886  0.0832  0.7435
 8969SOL     OW38539   0.743   4.199   2.070 -0.1280  0.8070 -0.0046
 8969SOL    HW138540   0.752   4.198   1.975  2.1061  1.0159  0.2009
 8969SOL    HW238541   0.750   4.106   2.092 -0.8535  0.6710 -0.3542
 8970SOL     OW38542   0.612   0.036   2.123  0.1645 -0.5042 -0.3823
 8970SOL    HW138543   0.540   0.099   2.115  1.7499  1.3014 -0.4396
 8970SOL    HW238544   0.632   0.049   2.216 -0.4189  1.6248 -0.5548
 8971SOL     OW38545   4.281   3.889  16.356  0.4509  0.5495  0.7842
 8971SOL    HW138546   4.294   3.937  16.438  0.9034  0.4461  0.7718
 8971SOL    HW238547   4.352   3.826  16.367  0.6883  0.7683  0.5135
 8972SOL     OW38548   4.653   0.931   8.841 -0.1343  0.3723 -0.6791
 8972SOL    HW138549   4.733   0.885   8.816  1.9588  3.1668  0.9076
 8972SOL    HW238550   4.675   1.022   8.823 -0.7549  0.4665 -0.9657
 8973SOL     OW38551   3.243   2.247  16.529  0.2248 -0.2836 -0.2103
 8973SOL    HW138552   3.206   2.311  16.468 -0.1029  1.0695  1.4187
 8973SOL    HW238553   3.179   2.177  16.519 -0.3026  0.2325 -0.4475
 8974SOL     OW38554   3.762   1.137   8.685  0.0131  0.0708  0.1923
 8974SOL    HW138555   3.769   1.187   8.604 -1.8822 -2.5327 -1.5461
 8974SOL    HW238556   3.667   1.134   8.683 -0.0276  0.9153  0.7570
 8975SOL     OW38557   3.945   4.175   2.577 -0.2411 -0.0410  0.3185
 8975SOL    HW138558   4.033   4.180   2.540  0.0893 -4.1184  0.5407
 8975SOL    HW238559   3.888   4.196   2.503 -0.8468  1.2124  1.1494
 8976SOL     OW38560   4.472   3.163   3.777 -0.5835 -0.4689  0.4191
 8976SOL    HW138561   4.451   3.130   3.864 -0.4716 -3.3005 -0.6358
 8976SOL    HW238562   4.443   3.087   3.727  1.0164 -0.4577 -0.5282
 8977SOL     OW38563   0.141   2.828   2.764 -0.1182 -0.6174  0.2419
 8977SOL    HW138564   0.107   2.754   2.814 -0.6318  0.1195  0.9900
 8977SOL    HW238565   0.229   2.791   2.754 -0.4341 -1.8750  2.1031
 8978SOL     OW38566   1.599   4.416   7.158  0.3808 -0.1198  0.5158
 8978SOL    HW138567   1.549   4.479   7.210 -0.6268 -0.4214 -0.0820
 8978SOL    HW238568   1.671   4.468   7.124  0.0270  0.1824  0.2194
 8979SOL     OW38569   2.024   0.978   4.609 -0.1935  0.2783  0.2396
 8979SOL    HW138570   1.983   1.064   4.601 -1.5920 -0.4932 -0.7791
 8979SOL    HW238571   1.952   0.927   4.645 -1.1695  0.0231 -2.1230
 8980SOL     OW38572   4.585   3.973   3.590  0.4092 -0.3545 -0.1642
 8980SOL    HW138573   4.547   3.915   3.656 -1.3909 -0.2650 -1.0977
 8980SOL    HW238574   4.508   3.993   3.536  1.4520  0.8532 -1.1929
 8981SOL     OW38575   0.777   3.805  11.409 -0.4295 -0.2532  0.1052
 8981SOL    HW138576   0.738   3.824  11.495  1.0802 -2.3936  1.2661
 8981SOL    HW238577   0.784   3.895  11.377 -0.7191  0.2994  1.5886
 8982SOL     OW38578   3.438   3.287  11.816 -0.3364 -0.0874 -0.6325
 8982SOL    HW138579   3.437   3.340  11.895 -0.6849  1.9060 -1.9549
 8982SOL    HW238580   3.346   3.293  11.791 -0.1418  1.7499 -0.9097
 8983SOL     OW38581   1.457   0.456  16.665 -0.3771  0.1729  0.3671
 8983SOL    HW138582   1.508   0.537  16.668 -0.9174  0.4416  2.6178
 8983SOL    HW238583   1.518   0.398  16.621  0.8091  2.3010 -0.7825
 8984SOL     OW38584   3.646   2.940   5.966  0.0664  0.6320 -0.4394
 8984SOL    HW138585   3.599   2.872   6.013  1.8172 -0.5326 -0.3707
 8984SOL    HW238586   3.697   2.886   5.905 -0.1131  1.7967 -1.6325
 8985SOL     OW38587   0.885   0.187  14.162 -0.0611 -0.1741 -0.1464
 8985SOL    HW138588   0.921   0.261  14.210 -1.5616  0.9137 -0.7138
 8985SOL    HW238589   0.943   0.176  14.086 -1.5362 -3.7061 -0.7535
 8986SOL     OW38590   0.758   0.779   4.931  0.1768 -0.0138  0.0074
 8986SOL    HW138591   0.749   0.843   5.002  1.2676 -3.1659  3.0001
 8986SOL    HW238592   0.714   0.823   4.858  0.9299  1.8744  0.6741
 8987SOL     OW38593   2.892   1.295  11.742  0.1215 -0.1687 -0.0501
 8987SOL    HW138594   2.958   1.313  11.675  0.7312  1.7365  1.0615
 8987SOL    HW238595   2.849   1.218  11.705 -0.6811 -0.0142  0.5704
 8988SOL     OW38596   3.921   4.087   6.061 -0.1512  0.0177  0.4004
 8988SOL    HW138597   4.004   4.132   6.046 -0.6522  1.0649  0.7008
 8988SOL    HW238598   3.915   4.020   5.994 -0.0336 -1.2503  1.6630
 8989SOL     OW38599   0.377   0.133  13.800  0.1993 -0.6711 -0.1665
 8989SOL    HW138600   0.377   0.168  13.889  1.9279 -1.1340  0.0207
 8989SOL    HW238601   0.423   0.051  13.818 -1.6238 -1.1880  2.1929
 8990SOL     OW38602   0.858   3.605  10.094 -0.3168  1.0111  0.1269
 8990SOL    HW138603   0.843   3.550  10.171 -0.4196  2.6913  1.3094
 8990SOL    HW238604   0.880   3.527  10.044  0.0308  1.2967 -0.1589
 8991SOL     OW38605   3.122   3.975   7.742  0.5256 -0.0143 -0.5569
 8991SOL    HW138606   3.101   3.881   7.746 -0.5721  0.1684 -1.9179
 8991SOL    HW238607   3.217   3.968   7.734  0.7658  1.8793  0.7174
 8992SOL     OW38608   1.646   1.776   1.782  0.4774 -0.0525  0.4492
 8992SOL    HW138609   1.596   1.821   1.714 -0.3663 -1.7999 -0.0884
 8992SOL    HW238610   1.738   1.802   1.771 -0.7516  3.1104 -2.4215
 8993SOL     OW38611   3.057   3.502   3.113 -0.1872 -0.2473  0.8953
 8993SOL    HW138612   3.059   3.511   3.208 -2.3342  0.1555  0.8883
 8993SOL    HW238613   3.140   3.455   3.117  0.0566  0.2576  1.7802
 8994SOL     OW38614   3.104   4.238   2.935  0.8466 -0.6227 -0.1395
 8994SOL    HW138615   3.086   4.309   2.997  0.6075  0.2630 -1.2324
 8994SOL    HW238616   3.036   4.177   2.965  0.2739  1.9521  3.8579
 8995SOL     OW38617   4.544   0.384   7.904  0.0585  0.1674 -0.2855
 8995SOL    HW138618   4.604   0.343   7.966  0.5207  1.8585  0.3737
 8995SOL    HW238619   4.566   0.476   7.915  0.4037  0.0415  0.0709
 8996SOL     OW38620   1.596   0.907  15.322 -0.1626 -0.3130 -0.4096
 8996SOL    HW138621   1.545   0.939  15.396 -1.6184 -0.1159 -1.4793
 8996SOL    HW238622   1.526   0.907  15.256 -0.7694  0.5009  0.2506
 8997SOL     OW38623   3.647   0.259  12.297  0.5749 -0.1441  0.0920
 8997SOL    HW138624   3.663   0.263  12.392 -0.6393 -1.9350  0.3720
 8997SOL    HW238625   3.570   0.202  12.296  0.3358  0.2013 -0.9304
 8998SOL     OW38626   3.204   2.644   6.211  0.0883 -0.5289  0.4143
 8998SOL    HW138627   3.174   2.652   6.120 -3.1418  2.2743  1.7511
 8998SOL    HW238628   3.300   2.642   6.203 -0.0680 -1.4901 -1.2297
 8999SOL     OW38629   2.560   0.553   7.456 -0.4502  0.0759 -0.2082
 8999SOL    HW138630   2.653   0.575   7.444 -0.8079  2.2884  1.0132
 8999SOL    HW238631   2.567   0.516   7.544 -1.4053 -0.8013 -0.5098
 9000SOL     OW38632   3.970   2.863  10.793 -0.6721 -0.0363  0.1258
 9000SOL    HW138633   3.941   2.776  10.767  0.7238 -0.1203 -1.0993
 9000SOL    HW238634   4.065   2.860  10.793 -0.6822 -0.9278  1.9835
 9001SOL     OW38635   1.016   1.155   5.088 -0.2813 -0.0273 -0.1858
 9001SOL    HW138636   0.940   1.108   5.124 -0.1876  1.3389  1.8198
 9001SOL    HW238637   1.025   1.226   5.152  0.9640 -1.1567  0.8898
 9002SOL     OW38638   3.705   4.001   2.330 -0.2354 -0.2860 -0.2824
 9002SOL    HW138639   3.617   3.979   2.300  0.2756 -0.5308 -1.6209
 9002SOL    HW238640   3.678   4.083   2.370  1.4352  0.6847 -1.1266
 9003SOL     OW38641   2.247   4.642   2.017 -0.1391 -0.1139 -0.0685
 9003SOL    HW138642   2.192   4.691   2.078 -1.3925 -0.4684 -0.9298
 9003SOL    HW238643   2.194   4.563   2.015 -0.4790  0.0053  3.7873
 9004SOL     OW38644   0.289   4.322   4.131  0.0595 -0.7047 -0.1914
 9004SOL    HW138645   0.280   4.329   4.226 -0.2973 -0.1316 -0.2666
 9004SOL    HW238646   0.330   4.407   4.115 -1.5209  0.0848 -0.0150
 9005SOL     OW38647   2.060   1.852   1.199  0.2836  0.2830 -0.1531
 9005SOL    HW138648   2.094   1.774   1.156 -0.0682 -0.9299  1.7367
 9005SOL    HW238649   1.966   1.853   1.179  0.0610 -1.8342  0.7973
 9006SOL     OW38650   4.127   3.858   8.981 -0.5314  0.2441  0.6200
 9006SOL    HW138651   4.113   3.896   8.894  0.9546  0.4543  0.4647
 9006SOL    HW238652   4.198   3.913   9.013  0.5232 -0.5429 -0.3477
 9007SOL     OW38653   3.728   1.151   1.287 -0.0966  0.0435  0.1907
 9007SOL    HW138654   3.751   1.229   1.337 -1.0873  0.4706 -0.0173
 9007SOL    HW238655   3.635   1.168   1.277 -0.6509 -1.9876  2.1564
 9008SOL     OW38656   3.866   0.563   6.342  0.2913 -0.3344  0.4084
 9008SOL    HW138657   3.798   0.586   6.405 -0.4651 -1.8666  0.1537
 9008SOL    HW238658   3.870   0.469   6.359  0.6672 -1.0338 -3.6669
 9009SOL     OW38659   1.648   3.642   1.523 -0.6182  0.0833 -0.3746
 9009SOL    HW138660   1.693   3.662   1.441  0.2466 -0.9029 -0.1390
 9009SOL    HW238661   1.624   3.550   1.524  0.0440 -0.0967 -1.4247
 9010SOL     OW38662   3.651   1.011  16.672  0.2585 -0.5114 -0.0766
 9010SOL    HW138663   3.692   0.940  16.723  1.5544  1.0669  1.0701
 9010SOL    HW238664   3.734   1.045  16.641 -0.2152  1.4236  0.7671
 9011SOL     OW38665   3.566   3.127   2.495  0.4176  0.6160  0.0343
 9011SOL    HW138666   3.547   3.092   2.582  0.4720  0.8297  0.1324
 9011SOL    HW238667   3.573   3.218   2.525 -0.6535 -0.0987  2.5179
 9012SOL     OW38668   2.658   1.570   9.563  0.7010  0.0189 -0.1166
 9012SOL    HW138669   2.752   1.560   9.573  0.8904  1.1120 -0.8204
 9012SOL    HW238670   2.629   1.609   9.646 -1.4699 -1.9813  0.0633
 9013SOL     OW38671   2.503   4.669   7.327 -0.0243 -0.7613  0.2410
 9013SOL    HW138672   2.495   0.026   7.353  2.7544 -0.3752 -0.2958
 9013SOL    HW238673   2.422   4.621   7.347 -0.0603 -0.9829 -0.4274
 9014SOL     OW38674   4.679   1.717   7.281  0.2284 -0.0755  0.0298
 9014SOL    HW138675   4.688   1.764   7.364 -0.9891 -1.4065  0.9279
 9014SOL    HW238676   4.665   1.624   7.301 -1.6253  0.4685  1.2739
 9015SOL     OW38677   2.480   0.532  15.952 -0.5960  0.5537  0.2892
 9015SOL    HW138678   2.566   0.497  15.928 -1.5204 -0.4951 -1.5132
 9015SOL    HW238679   2.476   0.483  16.034  0.4813 -1.3772 -0.7982
 9016SOL     OW38680   3.555   0.913   4.726 -0.4548  0.4235 -0.1820
 9016SOL    HW138681   3.603   0.990   4.696  0.6685 -0.2893 -0.2232
 9016SOL    HW238682   3.508   0.963   4.793 -1.0325  2.2213 -1.9097
 9017SOL     OW38683   2.229   3.018   9.141 -0.0671 -0.2250  0.7537
 9017SOL    HW138684   2.324   3.013   9.135  0.0309  0.9651  1.4185
 9017SOL    HW238685   2.224   3.037   9.235 -1.9167 -0.6031  0.7322
 9018SOL     OW38686   2.796   3.731  11.434 -0.1318  0.0604  0.0221
 9018SOL    HW138687   2.860   3.684  11.487  1.1033 -0.3100 -1.7966
 9018SOL    HW238688   2.856   3.764  11.367 -0.0466 -0.1116  0.0139
 9019SOL     OW38689   2.945   0.691   2.665 -0.0014  0.3007 -0.2337
 9019SOL    HW138690   2.906   0.609   2.635  1.0893 -0.1109 -0.5033
 9019SOL    HW238691   2.868   0.738   2.698 -0.5863 -0.6971 -0.1626
 9020SOL     OW38692   2.660   0.645   8.140  0.2573  0.6773 -0.5359
 9020SOL    HW138693   2.606   0.569   8.163  0.2431  1.4750  2.0874
 9020SOL    HW238694   2.679   0.668   8.231 -1.7175  0.0655  0.0246
 9021SOL     OW38695   3.856   2.589   8.063  0.2424 -0.1977 -0.1119
 9021SOL    HW138696   3.919   2.573   8.132  1.7181  2.9545 -0.7101
 9021SOL    HW238697   3.815   2.666   8.103 -1.7795  1.3842 -5.1594
 9022SOL     OW38698   0.838   2.764   2.459  0.5808  0.2747  0.0684
 9022SOL    HW138699   0.803   2.684   2.419  2.5683 -1.2783  1.4616
 9022SOL    HW238700   0.924   2.774   2.420 -0.1204 -1.0807 -1.8425
 9023SOL     OW38701   1.151   1.936  14.715  0.0591  0.2923 -0.0187
 9023SOL    HW138702   1.191   1.867  14.768 -0.6446  0.6401  0.9805
 9023SOL    HW238703   1.149   1.892  14.630  1.9158 -0.9715  0.6037
 9024SOL     OW38704   4.614   3.059   3.019 -0.3540  0.2262 -0.0657
 9024SOL    HW138705   4.672   3.047   3.094 -1.4104 -0.0144  0.7085
 9024SOL    HW238706   4.643   3.149   3.000  0.5707 -0.4832 -1.9795
 9025SOL     OW38707   3.647   0.570   9.346 -1.0871  0.5371  0.2538
 9025SOL    HW138708   3.613   0.556   9.257  1.4597  0.3014 -0.6720
 9025SOL    HW238709   3.719   0.632   9.336  1.2379 -2.3951 -1.2117
 9026SOL     OW38710   2.043   1.607   4.752 -0.0917  0.1483  0.2435
 9026SOL    HW138711   2.113   1.668   4.776  0.0624  0.0034  0.1596
 9026SOL    HW238712   1.999   1.658   4.684 -2.7306 -2.9579 -0.3777
 9027SOL     OW38713   1.910   2.037   8.794  0.1337  0.3209 -0.1596
 9027SOL    HW138714   1.880   2.051   8.884  0.4016  3.1679 -0.5048
 9027SOL    HW238715   1.994   1.992   8.799  2.2486  4.2334 -0.2752
 9028SOL     OW38716   0.352   1.121   5.269  0.0247 -0.5311 -0.0458
 9028SOL    HW138717   0.379   1.180   5.339 -0.0735  0.2493 -0.6708
 9028SOL    HW238718   0.386   1.038   5.302 -0.7562  0.0636  2.2913
 9029SOL     OW38719   2.084   2.673   4.098  0.1178  0.2581 -0.3556
 9029SOL    HW138720   2.003   2.629   4.072 -0.0344 -0.2632  0.9641
 9029SOL    HW238721   2.059   2.714   4.181  0.1585 -0.6027  0.0802
 9030SOL     OW38722   0.757   4.340   9.620  0.3027  0.4149 -0.0405
 9030SOL    HW138723   0.773   4.270   9.557 -0.5127  0.3799 -0.2067
 9030SOL    HW238724   0.662   4.331   9.627  0.5704 -0.4710  2.3998
 9031SOL     OW38725   2.151   0.547   0.517  0.1028 -0.0178 -0.6160
 9031SOL    HW138726   2.078   0.556   0.578  0.1988 -0.7603 -0.3898
 9031SOL    HW238727   2.220   0.553   0.583 -0.5606 -0.3592  0.1156
 9032SOL     OW38728   1.842   3.167   1.260  0.5026 -0.2096 -0.2988
 9032SOL    HW138729   1.765   3.154   1.205 -0.3579  1.2049  0.5466
 9032SOL    HW238730   1.817   3.122   1.341 -0.1038  2.8942  1.2486
 9033SOL     OW38731   4.507   1.273   0.594  0.1540  0.0441  0.4369
 9033SOL    HW138732   4.450   1.302   0.665 -2.9258 -2.7611 -0.8818
 9033SOL    HW238733   4.527   1.357   0.553 -0.1939 -1.0364 -1.9656
 9034SOL     OW38734   2.732   0.413  15.858 -0.5469 -0.4495  0.1577
 9034SOL    HW138735   2.785   0.378  15.929  0.3595 -0.6634 -0.6272
 9034SOL    HW238736   2.771   0.500  15.864 -0.6741 -0.3667 -0.1662
 9035SOL     OW38737   2.524   0.381  16.169  0.6220 -0.4761 -0.6120
 9035SOL    HW138738   2.618   0.361  16.172  0.2307 -2.3815 -1.1223
 9035SOL    HW238739   2.497   0.316  16.233  0.2902  0.6340  0.3612
 9036SOL     OW38740   3.485   1.268   6.454 -0.4289  0.0025  0.3975
 9036SOL    HW138741   3.580   1.272   6.442 -0.8440 -1.0587 -3.1477
 9036SOL    HW238742   3.475   1.199   6.519 -3.2286  1.2407  1.2497
 9037SOL     OW38743   3.897   4.289   7.777  0.3999  0.2818  0.5085
 9037SOL    HW138744   3.815   4.294   7.826 -0.3861 -1.8685 -0.6198
 9037SOL    HW238745   3.931   4.216   7.828 -0.1926 -0.2932  0.0808
 9038SOL     OW38746   1.706   0.858   1.762  0.0380  0.3540  0.4814
 9038SOL    HW138747   1.629   0.915   1.761 -0.2776 -0.0791  0.3421
 9038SOL    HW238748   1.659   0.776   1.748  1.8478 -0.7328  0.8260
 9039SOL     OW38749   3.975   4.011   5.728 -0.3258 -0.2558  0.0450
 9039SOL    HW138750   3.907   3.977   5.785  0.1351 -2.4435 -0.6947
 9039SOL    HW238751   4.044   3.947   5.747  0.1657  0.6648  1.3366
 9040SOL     OW38752   2.610   0.592   3.703 -0.4054  0.3500 -0.3802
 9040SOL    HW138753   2.647   0.675   3.676  2.3191 -1.4261 -2.0623
 9040SOL    HW238754   2.547   0.608   3.773  1.8544  2.6108  1.1140
 9041SOL     OW38755   2.434   3.997   4.959 -0.3484 -0.4262 -0.1510
 9041SOL    HW138756   2.376   4.036   5.025  2.6523 -0.5009  2.5300
 9041SOL    HW238757   2.520   4.000   5.001 -0.0593  0.0027 -0.7696
 9042SOL     OW38758   4.257   0.271  11.598  0.1695  0.7333  0.2574
 9042SOL    HW138759   4.290   0.195  11.647 -0.7000  2.0302  2.8767
 9042SOL    HW238760   4.299   0.342  11.646  2.1316 -1.4942  1.8298
 9043SOL     OW38761   4.225   0.120  13.426  0.1399 -0.9132  0.1270
 9043SOL    HW138762   4.169   0.045  13.448  1.2923 -1.8155  0.0016
 9043SOL    HW238763   4.230   0.174  13.504 -0.5024  2.3496 -2.0849
 9044SOL     OW38764   2.072   2.907  12.882 -0.0795 -0.4123 -0.1508
 9044SOL    HW138765   2.034   2.976  12.828  0.8462  0.6110  0.5010
 9044SOL    HW238766   2.141   2.884  12.820 -1.0576 -1.2451 -0.9260
 9045SOL     OW38767   3.394   0.018   6.481  0.1714 -0.1386  0.2308
 9045SOL    HW138768   3.454   0.019   6.556  0.2846 -1.6744  0.1610
 9045SOL    HW238769   3.368   4.662   6.472  0.9966 -0.2002 -1.3277
 9046SOL     OW38770   1.551   2.911   4.291  0.3232  0.3338 -0.1772
 9046SOL    HW138771   1.562   2.946   4.379  0.5308  0.7628 -0.3735
 9046SOL    HW238772   1.640   2.896   4.258  0.4000 -0.0760  0.2088
 9047SOL     OW38773   4.024   0.098  17.094  0.2526 -0.0591 -0.2797
 9047SOL    HW138774   4.073   0.068  17.016 -0.9402  0.0813 -1.0811
 9047SOL    HW238775   4.093   0.149  17.135  0.4118 -0.3184 -0.2206
 9048SOL     OW38776   1.522   0.371   5.051 -0.3395 -0.0428  0.7805
 9048SOL    HW138777   1.434   0.346   5.025  0.6570 -1.2415 -1.4473
 9048SOL    HW238778   1.499   0.438   5.115  0.5209 -0.8917  1.9725
 9049SOL     OW38779   4.493   1.201   1.008 -0.0445  0.1408  0.0104
 9049SOL    HW138780   4.565   1.181   0.947 -0.6257 -0.7529 -0.3767
 9049SOL    HW238781   4.529   1.263   1.071  1.1678  1.1189 -1.6312
 9050SOL     OW38782   3.221   1.556   9.120 -0.3443  0.6855  0.4528
 9050SOL    HW138783   3.201   1.513   9.036  0.4655  2.5144 -0.6768
 9050SOL    HW238784   3.315   1.557   9.106 -0.6942 -4.6842 -2.4843
 9051SOL     OW38785   4.541   4.120   9.187  0.3447  0.4260  0.0054
 9051SOL    HW138786   4.590   4.093   9.265 -2.0054 -2.5659  0.4638
 9051SOL    HW238787   4.458   4.147   9.226 -0.1060  0.9926 -1.3382
 9052SOL     OW38788   0.528   2.434   9.239  0.6517  0.2199 -0.2586
 9052SOL    HW138789   0.556   2.495   9.171 -0.9183  1.2696  0.0191
 9052SOL    HW238790   0.519   2.348   9.198 -1.6437 -0.7678  2.3025
 9053SOL     OW38791   3.006   0.099   5.654  0.1156  0.0324 -0.2943
 9053SOL    HW138792   2.983   0.137   5.570 -2.4180  1.2445  0.9416
 9053SOL    HW238793   2.924   0.113   5.701  1.6019 -0.3367  2.4447
 9054SOL     OW38794   4.180   3.831  13.453  0.5757  0.2988  0.6615
 9054SOL    HW138795   4.180   3.774  13.376 -0.3169  2.3517 -0.8333
 9054SOL    HW238796   4.087   3.844  13.434  0.5042 -2.2618 -0.7486
 9055SOL     OW38797   0.007   2.696   5.451 -0.6425 -0.4674  0.1647
 9055SOL    HW138798   0.033   2.613   5.410  0.0343 -0.8770  1.4112
 9055SOL    HW238799   4.705   2.744   5.377  0.0195 -0.9227 -0.4726
 9056SOL     OW38800   0.135   2.156   0.012  0.0095  0.2519  0.0049
 9056SOL    HW138801   0.117   2.244   0.045  0.0264  0.7309 -1.2665
 9056SOL    HW238802   0.105   2.184  17.664 -1.1228 -1.4084 -0.1264
 9057SOL     OW38803   4.328   3.360   1.652 -0.1150 -0.3292  0.2136
 9057SOL    HW138804   4.365   3.411   1.724  2.9607 -1.3995 -0.6250
 9057SOL    HW238805   4.237   3.349   1.680 -1.0569  0.3780 -2.5854
 9058SOL     OW38806   2.434   1.209  16.713  0.3662 -0.2311  0.2147
 9058SOL    HW138807   2.436   1.288  16.659 -1.2412  0.5423  1.2840
 9058SOL    HW238808   2.523   1.176  16.703 -1.1308 -3.5648 -2.0695
 9059SOL     OW38809   0.048   2.514  13.802 -0.1678 -0.3144  0.2685
 9059SOL    HW138810   0.067   2.598  13.845  4.1506 -2.4360  2.4588
 9059SOL    HW238811   0.130   2.465  13.796 -0.2146 -0.1250 -1.8983
 9060SOL     OW38812   2.913   1.235   6.262  0.0290 -0.0787  0.3212
 9060SOL    HW138813   2.851   1.163   6.254 -0.7200  0.5638  0.3561
 9060SOL    HW238814   2.859   1.299   6.217 -1.4240 -0.2359  1.8074
 9061SOL     OW38815   4.057   0.905   6.744 -0.0594  0.3347  0.5248
 9061SOL    HW138816   4.039   0.957   6.665  0.5446  1.2043  0.9612
 9061SOL    HW238817   4.149   0.919   6.766  0.4043 -2.2450  0.2550
 9062SOL     OW38818   4.632   0.820   9.090  0.4857  0.1489 -0.5501
 9062SOL    HW138819   4.693   0.887   9.121  2.0996 -1.6941  0.2764
 9062SOL    HW238820   4.612   0.852   9.002 -2.9230 -1.3985 -0.3512
 9063SOL     OW38821   2.388   3.637   7.851  0.2496  0.0345  0.4911
 9063SOL    HW138822   2.427   3.555   7.881 -2.3178 -0.9743  1.1138
 9063SOL    HW238823   2.468   3.680   7.821  0.4697  0.5694  1.8867
 9064SOL     OW38824   4.112   4.424  12.289 -0.2054  0.0320  0.1671
 9064SOL    HW138825   4.191   4.375  12.313 -1.5044 -2.2179 -0.1043
 9064SOL    HW238826   4.157   4.480  12.226  2.0284  0.6215  2.2731
 9065SOL     OW38827   1.837   2.234   8.617 -0.2262  0.1013 -0.3728
 9065SOL    HW138828   1.835   2.158   8.674  1.6967 -0.7909 -1.4575
 9065SOL    HW238829   1.835   2.202   8.527  2.9461  0.1381 -0.4585
 9066SOL     OW38830   3.662   1.111  14.522  0.0718 -0.5362 -0.3539
 9066SOL    HW138831   3.743   1.072  14.555 -0.2516 -0.3477  0.6573
 9066SOL    HW238832   3.688   1.119  14.430  0.0088 -2.0239 -0.5102
 9067SOL     OW38833   0.773   2.509   3.134  0.3123  0.5202 -0.3448
 9067SOL    HW138834   0.779   2.551   3.049  0.4092  3.0315  0.9176
 9067SOL    HW238835   0.821   2.426   3.126  0.7232  0.5871  1.3665
 9068SOL     OW38836   0.792   2.370   8.029 -0.7551 -0.3143 -0.9465
 9068SOL    HW138837   0.761   2.299   8.084  0.8208  0.2364  0.6565
 9068SOL    HW238838   0.886   2.355   8.036 -0.5396  1.2296 -0.3737
 9069SOL     OW38839   0.240   1.338   6.745 -0.3167 -0.0804 -0.0856
 9069SOL    HW138840   0.232   1.403   6.815 -0.1001 -0.9321  0.7178
 9069SOL    HW238841   0.315   1.292   6.782  0.2597  0.3487 -0.7126
 9070SOL     OW38842   3.980   1.979   8.036  0.1045  0.2452 -0.1439
 9070SOL    HW138843   4.039   2.049   8.007  2.7967 -1.8818  0.2594
 9070SOL    HW238844   3.896   2.024   8.023  0.5396  0.8523 -0.9075
 9071SOL     OW38845   4.475   4.230  17.732  0.5868  0.1912  0.3765
 9071SOL    HW138846   4.551   4.259   0.044 -0.4022  3.2101  0.1642
 9071SOL    HW238847   4.473   4.135   0.004 -1.8242  0.2588  0.4596
 9072SOL     OW38848   0.019   1.184   1.275 -0.6988 -0.1894 -0.3026
 9072SOL    HW138849   4.666   1.150   1.293 -1.5939 -0.2545 -4.7900
 9072SOL    HW238850   0.060   1.160   1.358 -1.5263 -1.1840 -0.1732
 9073SOL     OW38851   3.210   4.138   2.700  0.3611 -0.2643 -0.1624
 9073SOL    HW138852   3.160   4.156   2.779  0.2548  0.7053 -0.4583
 9073SOL    HW238853   3.276   4.206   2.713  1.2792 -0.9656 -1.0351
 9074SOL     OW38854   4.337   0.218   4.028  0.6890  0.1942 -0.3663
 9074SOL    HW138855   4.407   0.155   4.049  0.8407  0.3998 -0.2560
 9074SOL    HW238856   4.313   0.185   3.941 -1.8041 -2.9211  1.5055
 9075SOL     OW38857   4.419   3.506   1.429 -0.1265  0.1061  0.2890
 9075SOL    HW138858   4.381   3.495   1.516 -0.4589 -0.5499  0.0552
 9075SOL    HW238859   4.334   3.496   1.385 -0.2331 -1.1573  0.7893
 9076SOL     OW38860   1.578   4.633   7.325  0.0495 -0.1925  0.1345
 9076SOL    HW138861   1.671   4.628   7.348  0.1541 -0.1539 -0.2705
 9076SOL    HW238862   1.536   4.612   7.408  0.7132 -0.5438  0.3878
 9077SOL     OW38863   2.358   1.577  12.792  0.1432 -0.0030 -0.5090
 9077SOL    HW138864   2.451   1.559  12.802  0.2390  1.3334  1.0202
 9077SOL    HW238865   2.334   1.511  12.858  2.5663 -2.3873 -2.0405
 9078SOL     OW38866   2.004   2.370   7.402  0.0290 -0.0326  0.5399
 9078SOL    HW138867   1.923   2.319   7.409  0.3074 -0.4437  0.7842
 9078SOL    HW238868   1.980   2.453   7.442 -1.8698 -0.1206 -0.4073
 9079SOL     OW38869   3.783   3.707   5.534 -0.2362 -0.3342  0.1013
 9079SOL    HW138870   3.868   3.743   5.509  0.2584 -1.6010 -0.0665
 9079SOL    HW238871   3.807   3.632   5.589  0.1091 -2.3304 -2.7205
 9080SOL     OW38872   2.535   1.196  10.002  0.6418  0.1414  0.0451
 9080SOL    HW138873   2.485   1.220   9.924  0.7047 -0.1454 -0.0848
 9080SOL    HW238874   2.529   1.274  10.057  0.9299  0.3525 -0.2231
 9081SOL     OW38875   0.567   2.509   3.791 -0.3638 -0.0506  0.3115
 9081SOL    HW138876   0.640   2.557   3.829  0.1781  0.0847 -0.9127
 9081SOL    HW238877   0.573   2.425   3.837 -0.2169 -1.1462 -1.7209
 9082SOL     OW38878   4.129   1.789   9.033  0.0903 -0.0091 -0.4570
 9082SOL    HW138879   4.137   1.694   9.046 -2.2736 -0.1093  0.1597
 9082SOL    HW238880   4.189   1.824   9.099 -1.7948  0.6113  0.9045
 9083SOL     OW38881   4.553   0.051   9.083  0.5168 -0.2682 -0.2848
 9083SOL    HW138882   4.644   0.077   9.099  0.2963 -0.4690  1.2580
 9083SOL    HW238883   4.565   0.002   9.001  0.2290 -1.0304  0.1269
 9084SOL     OW38884   4.674   3.237   6.022 -0.0555  0.2958 -0.3408
 9084SOL    HW138885   0.016   3.181   6.025  0.2031  0.6103 -0.8883
 9084SOL    HW238886   4.609   3.196   5.965 -1.2143 -0.9791  1.9134
 9085SOL     OW38887   0.338   2.582   4.283 -0.4200 -0.1316 -0.0285
 9085SOL    HW138888   0.323   2.554   4.192  1.7798  0.9265 -0.7135
 9085SOL    HW238889   0.263   2.636   4.309  0.1936 -0.8536  3.1999
 9086SOL     OW38890   2.848   1.569   4.337 -0.4045 -0.0764  0.1005
 9086SOL    HW138891   2.877   1.582   4.247  1.2282  0.4043  0.6947
 9086SOL    HW238892   2.753   1.564   4.326 -0.2914 -1.5574 -0.2041
 9087SOL     OW38893   1.907   2.067   3.667 -0.4563  0.4496 -0.1292
 9087SOL    HW138894   1.999   2.076   3.692 -0.1541  1.3187 -1.5788
 9087SOL    HW238895   1.860   2.121   3.731 -0.3450 -0.1745  0.4775
 9088SOL     OW38896   3.924   2.753   4.403  0.1645  0.4525 -0.5511
 9088SOL    HW138897   3.845   2.699   4.409  0.1734  0.5317  0.2714
 9088SOL    HW238898   3.935   2.771   4.496  1.0031 -1.3485 -0.2921
 9089SOL     OW38899   4.066   2.317   7.321  0.5423  0.1858  0.0477
 9089SOL    HW138900   4.066   2.340   7.414 -0.7682  1.1150 -0.1881
 9089SOL    HW238901   4.139   2.367   7.284 -0.4413 -0.3888 -2.6656
 9090SOL     OW38902   1.259   0.052   7.666 -0.0768 -0.0001  0.0548
 9090SOL    HW138903   1.194   4.719   7.650 -0.6006  0.1360  1.6037
 9090SOL    HW238904   1.271   0.080   7.575  0.5585  0.6963  0.3470
 9091SOL     OW38905   4.157   3.056   5.730 -0.1987  0.4311 -0.3668
 9091SOL    HW138906   4.202   3.010   5.800 -0.7425 -2.1891 -1.7289
 9091SOL    HW238907   4.161   2.993   5.658  1.2455 -0.8297  0.8121
 9092SOL     OW38908   3.383   0.986   8.805 -0.2543  0.1825 -0.6810
 9092SOL    HW138909   3.439   0.915   8.775  1.3016  0.3739  1.7265
 9092SOL    HW238910   3.342   0.945   8.882 -0.6894  0.4927 -0.7456
 9093SOL     OW38911   2.383   1.659  15.555  0.8365  0.2446 -0.0730
 9093SOL    HW138912   2.409   1.686  15.643  1.2299  0.1769 -0.1685
 9093SOL    HW238913   2.435   1.581  15.537 -0.0581 -0.4922  0.5219
 9094SOL     OW38914   4.387   4.424  14.073 -0.1542  0.0917 -0.4876
 9094SOL    HW138915   4.397   4.389  14.161 -1.8570  0.4509 -0.1460
 9094SOL    HW238916   4.291   4.425  14.068 -0.1844  0.4671  0.2061
 9095SOL     OW38917   1.408   2.274   0.450 -0.1145  0.5193  0.1587
 9095SOL    HW138918   1.407   2.179   0.461  1.2711  0.4347 -0.3669
 9095SOL    HW238919   1.313   2.287   0.447 -0.1856 -0.0192  0.2458
 9096SOL     OW38920   2.171   2.505   5.623  0.0910 -0.0834  0.6357
 9096SOL    HW138921   2.181   2.442   5.695  0.0552  0.8558  1.4492
 9096SOL    HW238922   2.140   2.581   5.671  0.9498 -0.7700  2.2946
 9097SOL     OW38923   4.091   1.157   6.308 -0.7541  0.2904  0.0583
 9097SOL    HW138924   4.158   1.190   6.368  0.3762 -0.9082 -0.5412
 9097SOL    HW238925   4.135   1.089   6.257  1.2585  0.0755  2.0627
 9098SOL     OW38926   3.927   1.996   2.808  0.1589  0.3978  0.3276
 9098SOL    HW138927   3.861   2.065   2.804 -1.9463 -1.5785  0.8325
 9098SOL    HW238928   3.879   1.917   2.783 -0.5718  0.0288  2.8847
 9099SOL     OW38929   2.657   0.127   4.465  0.1951  0.4062 -0.0794
 9099SOL    HW138930   2.703   0.211   4.475 -0.5631  0.8919 -0.6717
 9099SOL    HW238931   2.667   0.116   4.370  1.2986  1.0346 -0.0395
 9100SOL     OW38932   1.119   2.498  13.150 -0.4132 -0.1087  0.7647
 9100SOL    HW138933   1.210   2.503  13.180 -0.6463 -1.3170  1.6698
 9100SOL    HW238934   1.107   2.407  13.124 -0.8906  0.4827 -1.1009
 9101SOL     OW38935   3.377   0.221   1.701  0.5985 -0.2911 -0.1703
 9101SOL    HW138936   3.457   0.181   1.666  0.9739 -0.1413  0.5229
 9101SOL    HW238937   3.309   0.164   1.665  1.6298 -0.4175 -1.9597
 9102SOL     OW38938   2.913   2.745   5.236 -0.2661  0.0627 -0.4992
 9102SOL    HW138939   2.859   2.689   5.292  0.8874 -0.3759  0.1737
 9102SOL    HW238940   2.888   2.824   5.283  4.0953  2.7827 -2.7816
 9103SOL     OW38941   2.793   0.166  14.775 -0.2142 -0.3881 -0.0343
 9103SOL    HW138942   2.714   0.118  14.799 -0.8863 -0.3650 -2.1378
 9103SOL    HW238943   2.750   0.235  14.724 -0.5444  0.3409  1.2503
 9104SOL     OW38944   2.347   1.967  11.343  0.0217  0.1452  0.0464
 9104SOL    HW138945   2.385   2.048  11.310 -0.8388  0.7475  0.5538
 9104SOL    HW238946   2.259   2.000  11.358 -0.7063 -0.6395 -2.3997
 9105SOL     OW38947   1.663   0.653   3.062  0.6033 -0.0186  0.1520
 9105SOL    HW138948   1.639   0.570   3.021  0.1121  1.0546 -1.7134
 9105SOL    HW238949   1.610   0.713   3.010  0.1142 -2.9798 -2.7420
 9106SOL     OW38950   3.176   0.591  15.146 -0.5593  0.5243 -0.0668
 9106SOL    HW138951   3.121   0.540  15.087  0.1222 -2.1071  1.6015
 9106SOL    HW238952   3.264   0.559  15.124  0.2108  1.6418  1.3849
 9107SOL     OW38953   1.686   4.026   4.860  0.0666  0.2504 -0.1329
 9107SOL    HW138954   1.716   3.954   4.804 -0.7080 -1.1168  1.2189
 9107SOL    HW238955   1.635   4.084   4.803 -0.4399 -2.3339 -2.2671
 9108SOL     OW38956   3.906   3.720  14.988 -0.3696  0.2757  0.4778
 9108SOL    HW138957   3.870   3.759  14.908 -2.1103 -1.1008  0.5836
 9108SOL    HW238958   3.963   3.793  15.011  0.5416 -0.4022  0.3473
 9109SOL     OW38959   1.407   3.226  15.520 -0.2232  0.0465  0.0212
 9109SOL    HW138960   1.333   3.192  15.470 -0.1826 -0.7854  0.5106
 9109SOL    HW238961   1.477   3.182  15.473 -0.4642  1.4329 -1.6110
 9110SOL     OW38962   2.404   0.490  17.075  0.0330  0.2508 -0.0146
 9110SOL    HW138963   2.329   0.439  17.106 -0.5494  0.9827 -0.2288
 9110SOL    HW238964   2.357   0.561  17.032  0.3074  0.8604  0.6948
 9111SOL     OW38965   0.251   0.200   3.509 -0.6651 -0.1500  0.2002
 9111SOL    HW138966   0.237   0.294   3.503 -0.5940 -0.1164  0.5731
 9111SOL    HW238967   0.194   0.177   3.436  1.3409 -3.0467 -0.4851
 9112SOL     OW38968   1.825   0.670  11.699  0.0219  0.2925  0.4691
 9112SOL    HW138969   1.776   0.692  11.620 -2.3386  0.0226  1.8790
 9112SOL    HW238970   1.888   0.741  11.689  1.3679 -1.1276 -1.2794
 9113SOL     OW38971   0.625   1.167   6.205  0.3176  0.1114 -1.0325
 9113SOL    HW138972   0.600   1.106   6.274  2.5716  2.1831  1.6103
 9113SOL    HW238973   0.589   1.250   6.236 -1.7459 -1.1891  0.0324
 9114SOL     OW38974   2.914   0.122   8.425  0.6514 -0.4764  0.3225
 9114SOL    HW138975   2.847   0.060   8.397 -0.5578  0.6023  0.8314
 9114SOL    HW238976   2.979   0.055   8.447 -0.2578 -1.3637  0.3309
 9115SOL     OW38977   0.953   0.955  16.762  0.2651 -0.2563  0.2187
 9115SOL    HW138978   1.013   0.923  16.695 -0.9273  0.6193 -1.2623
 9115SOL    HW238979   0.900   1.024  16.723 -1.9302 -0.8020  2.1949
 9116SOL     OW38980   1.771   3.460   7.902  0.2614 -0.0892  0.1670
 9116SOL    HW138981   1.800   3.370   7.917 -0.0672  0.0504  1.6114
 9116SOL    HW238982   1.855   3.501   7.883  2.0811 -3.8113  0.1606
 9117SOL     OW38983   3.122   3.034   8.069 -0.1461 -0.1333  0.0824
 9117SOL    HW138984   3.120   3.078   8.155  0.3593  0.7899 -0.3796
 9117SOL    HW238985   3.202   3.074   8.035  0.2804 -0.0139  1.1956
 9118SOL     OW38986   0.027   2.993   6.215  0.0158  0.6806 -0.6448
 9118SOL    HW138987   4.717   2.915   6.184 -0.2600  0.0943  1.2372
 9118SOL    HW238988   0.092   3.002   6.146  0.7377  0.4797  0.0213
 9119SOL     OW38989   2.415   1.931   2.430 -0.0902  0.0760  0.8121
 9119SOL    HW138990   2.400   1.951   2.522 -4.9257 -0.0800  0.0748
 9119SOL    HW238991   2.506   1.903   2.432 -0.5839 -1.7042 -0.4736
 9120SOL     OW38992   2.617   3.420   6.831 -0.0936 -0.5266 -0.3714
 9120SOL    HW138993   2.696   3.367   6.822 -0.3821 -1.0486  0.1545
 9120SOL    HW238994   2.646   3.506   6.800 -1.3263  0.0211  0.0090
 9121SOL     OW38995   1.383   0.547  17.486 -0.2196  0.7249  0.0056
 9121SOL    HW138996   1.469   0.524  17.450 -0.8509 -0.9009 -0.4664
 9121SOL    HW238997   1.411   0.541  17.577  1.1446 -2.1896 -0.6137
 9122SOL     OW38998   1.103   2.330   4.460  0.0461 -0.2824  0.2155
 9122SOL    HW138999   1.022   2.313   4.508  0.5247  0.5717  1.3375
 9122SOL    HW239000   1.091   2.424   4.447 -0.3486 -0.3745 -0.0859
 9123SOL     OW39001   4.232   4.151   8.376  0.2101 -0.5545  0.4066
 9123SOL    HW139002   4.289   4.193   8.441 -0.4714 -1.9601  1.9145
 9123SOL    HW239003   4.279   4.182   8.299 -0.0565 -0.2086  0.3789
 9124SOL     OW39004   4.397   4.032  16.563  0.0001 -0.5151 -0.0008
 9124SOL    HW139005   4.469   4.004  16.620  0.2568 -0.2080 -0.1780
 9124SOL    HW239006   4.386   4.118  16.603 -1.2105 -0.6650  0.0029
 9125SOL     OW39007   0.314   1.224   8.986 -0.1032 -0.1768 -0.1168
 9125SOL    HW139008   0.383   1.286   9.008 -2.4406  1.9789  1.0409
 9125SOL    HW239009   0.234   1.275   9.001 -1.3108 -2.3476  0.9233
 9126SOL     OW39010   3.987   1.817   3.817  0.4421 -0.0780  0.2163
 9126SOL    HW139011   4.054   1.764   3.774 -0.9768 -0.9645 -0.9028
 9126SOL    HW239012   3.925   1.757   3.858 -1.5282  3.1611  1.9442
 9127SOL     OW39013   4.583   4.287   3.609 -0.1608  0.3354  0.1305
 9127SOL    HW139014   4.617   4.303   3.697 -0.1260 -0.4413  0.2585
 9127SOL    HW239015   4.584   4.191   3.608 -1.2440  0.3413 -0.9666
 9128SOL     OW39016   4.167   3.600   3.184 -0.1993 -0.1590  0.3011
 9128SOL    HW139017   4.077   3.575   3.205 -0.3110 -0.0872 -0.0820
 9128SOL    HW239018   4.169   3.667   3.253 -0.8731  1.4941 -1.2864
 9129SOL     OW39019   4.448   0.330   5.048 -0.0157 -0.2240  0.0034
 9129SOL    HW139020   4.438   0.255   4.989 -1.2558 -1.1739  1.4268
 9129SOL    HW239021   4.412   0.401   4.994  0.3389 -0.5725 -0.6857
 9130SOL     OW39022   1.357   4.125   1.898 -0.3403  0.1629  0.4726
 9130SOL    HW139023   1.268   4.094   1.910 -1.1148  1.6801 -1.3556
 9130SOL    HW239024   1.364   4.210   1.942  1.3150  0.4171 -0.2609
 9131SOL     OW39025   4.129   3.810   2.988 -0.4357 -0.4018  0.1034
 9131SOL    HW139026   4.181   3.740   3.027  0.6810 -0.3488 -1.2911
 9131SOL    HW239027   4.110   3.766   2.905  1.8865 -0.1622 -0.5653
 9132SOL     OW39028   3.034   1.460   4.613 -0.1713 -0.1778 -0.8906
 9132SOL    HW139029   3.079   1.407   4.680 -0.4363  0.9014  0.1382
 9132SOL    HW239030   2.971   1.393   4.587 -2.1786  0.7701  1.5416
 9133SOL     OW39031   3.573   2.005  13.875  0.0066  0.1217 -0.2236
 9133SOL    HW139032   3.498   1.947  13.860  0.4702 -0.0490 -1.8937
 9133SOL    HW239033   3.641   1.946  13.907 -2.0009  0.0040  3.7855
 9134SOL     OW39034   0.501   2.836  11.793 -0.6251 -0.3783  0.3570
 9134SOL    HW139035   0.516   2.756  11.842  2.2559 -0.5513 -0.7755
 9134SOL    HW239036   0.468   2.801  11.710  2.0725  1.7161 -1.6041
 9135SOL     OW39037   3.030   3.779  15.148 -0.0221  0.9903 -0.3158
 9135SOL    HW139038   3.100   3.826  15.102 -0.8131  3.7410  1.2795
 9135SOL    HW239039   2.971   3.753  15.077  0.3514  2.3836 -1.1312
 9136SOL     OW39040   0.723   3.011   4.483  0.2353  0.0364  0.0172
 9136SOL    HW139041   0.741   3.067   4.558 -0.4281 -0.2619  0.3979
 9136SOL    HW239042   0.810   3.014   4.443 -0.7436 -1.0197 -2.2201
 9137SOL     OW39043   4.257   1.455   8.721  0.0337  0.0812 -0.3431
 9137SOL    HW139044   4.235   1.496   8.805 -0.7800  0.9466 -0.9802
 9137SOL    HW239045   4.177   1.407   8.701 -0.0926 -0.1512  0.6916
 9138SOL     OW39046   2.417   0.825   8.900 -0.1606 -0.0902 -0.3519
 9138SOL    HW139047   2.453   0.737   8.888  0.4997  0.2320 -0.7252
 9138SOL    HW239048   2.323   0.810   8.889  0.2104 -1.8759 -1.1328
 9139SOL     OW39049   2.618   2.602  16.633  0.1580 -0.7506  0.1710
 9139SOL    HW139050   2.690   2.567  16.581 -0.5103 -1.1570 -0.4925
 9139SOL    HW239051   2.549   2.587  16.568  0.7344  0.7722 -0.7944
 9140SOL     OW39052   4.518   1.141   9.502  0.5320  0.3379  0.0458
 9140SOL    HW139053   4.581   1.142   9.573  1.7069  2.4149 -1.0333
 9140SOL    HW239054   4.465   1.218   9.524  0.5622  0.1359  0.7980
 9141SOL     OW39055   1.011   0.063  17.214 -0.0534 -0.8476  0.4170
 9141SOL    HW139056   1.033   0.119  17.288 -0.2629 -0.3872  0.1361
 9141SOL    HW239057   0.992   4.711  17.249 -1.9029 -0.2213  0.9704
 9142SOL     OW39058   1.789   3.445   7.333 -0.2643  0.8120  0.5150
 9142SOL    HW139059   1.738   3.523   7.311 -3.0064 -1.4349 -1.0392
 9142SOL    HW239060   1.790   3.393   7.253 -1.7799 -0.3761  1.2738
 9143SOL     OW39061   1.017   4.322  10.259  0.1988 -0.3485  0.0062
 9143SOL    HW139062   0.999   4.415  10.268  2.6957  0.0419  0.8403
 9143SOL    HW239063   1.105   4.320  10.222  0.0460 -1.6589 -0.2951
 9144SOL     OW39064   2.786   2.579  15.913 -0.0368  0.7363 -0.0638
 9144SOL    HW139065   2.832   2.653  15.875  1.6518 -1.9196 -3.1514
 9144SOL    HW239066   2.870   2.538  15.931 -1.1020 -1.9283 -1.1087
 9145SOL     OW39067   3.830   1.851  12.840 -0.6054 -0.9679 -0.6592
 9145SOL    HW139068   3.839   1.929  12.894 -1.3213 -1.0295 -0.4620
 9145SOL    HW239069   3.868   1.786  12.899 -0.5618 -0.7497 -0.4475
 9146SOL     OW39070   1.624   4.501   8.320 -0.7241  0.5688 -0.1229
 9146SOL    HW139071   1.556   4.551   8.365  1.3862  1.9384  1.5779
 9146SOL    HW239072   1.587   4.487   8.233 -1.0184  1.6850 -0.1773
 9147SOL     OW39073   0.701   0.276   1.271  0.1465  0.1887 -0.1818
 9147SOL    HW139074   0.702   0.357   1.220 -0.6627  0.3927  0.1142
 9147SOL    HW239075   0.762   0.306   1.338  1.2917 -1.5254 -0.4474
 9148SOL     OW39076   1.900   4.216  14.945 -0.0242  0.1146 -0.4812
 9148SOL    HW139077   1.908   4.310  14.933 -0.5535  0.4958  2.2722
 9148SOL    HW239078   1.819   4.202  14.896 -1.5257  1.8482  1.5531
 9149SOL     OW39079   2.110   2.793   0.405 -0.1267  0.6129 -0.1260
 9149SOL    HW139080   2.095   2.738   0.328 -2.1567  1.1793 -0.1364
 9149SOL    HW239081   2.190   2.757   0.443 -0.0007  0.7432 -0.2676
 9150SOL     OW39082   2.046   3.398   9.267 -0.2280 -0.8824 -0.4094
 9150SOL    HW139083   2.018   3.395   9.359  0.9903  0.9984  0.0319
 9150SOL    HW239084   2.088   3.313   9.256  2.3720  0.1654  1.3631
 9151SOL     OW39085   0.758   3.888   5.471  0.1700  0.1870 -0.4563
 9151SOL    HW139086   0.675   3.936   5.466  0.5162  0.8286 -0.0320
 9151SOL    HW239087   0.736   3.797   5.489  2.0458 -0.2344 -0.3400
 9152SOL     OW39088   1.137   0.852   4.496 -0.2097 -0.4956  0.5888
 9152SOL    HW139089   1.201   0.784   4.475  1.6918  1.5517 -0.4099
 9152SOL    HW239090   1.080   0.846   4.420  2.2160  1.7044 -1.4272
 9153SOL     OW39091   0.616   1.301   9.727 -0.1216  0.1890 -0.3632
 9153SOL    HW139092   0.687   1.320   9.665  0.1524 -0.3295 -0.2036
 9153SOL    HW239093   0.586   1.220   9.687 -0.6975 -0.1665  0.8193
 9154SOL     OW39094   0.418   4.075   7.056 -0.0031  0.1955  0.3991
 9154SOL    HW139095   0.448   4.146   7.113 -0.0490 -0.0029  0.6739
 9154SOL    HW239096   0.500   4.032   7.030  0.9392  1.3400  1.4391
 9155SOL     OW39097   4.644   1.105   1.651  0.0957 -0.0034  0.4846
 9155SOL    HW139098   4.554   1.113   1.619  0.5207 -0.2803 -0.8257
 9155SOL    HW239099   4.681   1.041   1.590  2.1479 -0.1154  1.8528
 9156SOL     OW39100   0.003   2.860   1.848  0.1164 -0.5371  0.4041
 9156SOL    HW139101   4.677   2.906   1.792  0.4052 -1.7968 -0.9438
 9156SOL    HW239102   0.023   2.924   1.916 -1.6021  0.8912 -0.4663
 9157SOL     OW39103   2.028   4.411   2.122  0.0148 -0.1905 -0.2072
 9157SOL    HW139104   1.984   4.452   2.048 -0.5860  0.6943  0.6253
 9157SOL    HW239105   2.050   4.483   2.182  0.5413 -2.6130  2.5299
 9158SOL     OW39106   2.182   0.353  17.177  0.6992 -0.6482  0.1341
 9158SOL    HW139107   2.185   0.258  17.180  1.2111 -0.6431 -0.2443
 9158SOL    HW239108   2.148   0.376  17.264  0.1212 -0.2393 -0.1992
 9159SOL     OW39109   4.656   3.919   8.606  0.2072  0.0210 -0.1040
 9159SOL    HW139110   4.595   3.847   8.623 -0.5042  0.8436  0.9284
 9159SOL    HW239111   4.687   3.946   8.693 -2.3117  0.2149  0.7661
 9160SOL     OW39112   0.783   0.655  11.808 -0.0757 -0.6845  0.3783
 9160SOL    HW139113   0.790   0.744  11.843 -1.3985 -0.4671  0.0630
 9160SOL    HW239114   0.837   0.606  11.871  1.0466  0.0236 -0.0181
 9161SOL     OW39115   0.507   2.596  11.933  0.1897  1.0663  0.2581
 9161SOL    HW139116   0.547   2.514  11.905  1.9956  1.0374  2.9062
 9161SOL    HW239117   0.427   2.563  11.975  0.0266 -1.2667 -1.9195
 9162SOL     OW39118   4.525   1.081   1.329  0.4129 -0.0886  0.2590
 9162SOL    HW139119   4.469   1.137   1.383 -0.5173  0.6664 -1.4811
 9162SOL    HW239120   4.462   1.014   1.305 -0.3516  0.2006  1.4400
 9163SOL     OW39121   3.507   3.198  17.145  0.2471  0.6429  0.0415
 9163SOL    HW139122   3.587   3.250  17.136 -0.4365  1.6461 -0.2576
 9163SOL    HW239123   3.545   3.133  17.204 -0.3719  1.1442  1.0001
 9164SOL     OW39124   1.098   1.293   6.319 -0.1333  0.3317  0.4441
 9164SOL    HW139125   1.174   1.307   6.263 -0.4670  0.9240  0.1446
 9164SOL    HW239126   1.079   1.382   6.348 -1.6620 -0.5757  2.2617
 9165SOL     OW39127   2.070   3.668  10.818  0.1724  0.4817 -0.0000
 9165SOL    HW139128   2.099   3.614  10.745 -0.0754  1.1032 -0.5599
 9165SOL    HW239129   2.089   3.757  10.787  1.3079  0.1748 -0.1809
 9166SOL     OW39130   1.368   0.232   2.528  0.0169  0.7861  0.6463
 9166SOL    HW139131   1.339   0.166   2.591  0.1847  0.8122  0.7516
 9166SOL    HW239132   1.426   0.179   2.474 -0.1935 -1.6214  2.7985
 9167SOL     OW39133   2.450   4.472   6.611 -1.1613 -0.1460  0.2440
 9167SOL    HW139134   2.495   4.426   6.540  1.0132  0.3685  1.2919
 9167SOL    HW239135   2.518   4.496   6.673 -1.7930  0.3736  0.7342
 9168SOL     OW39136   0.396   3.957   9.405 -0.0274  0.3707 -0.6707
 9168SOL    HW139137   0.382   4.049   9.380  0.4471  0.4496 -0.6452
 9168SOL    HW239138   0.344   3.954   9.485  0.4245 -1.1891 -0.4323
 9169SOL     OW39139   2.327   0.273   8.445  0.1498  0.1619  0.3210
 9169SOL    HW139140   2.338   0.358   8.489 -1.5106 -0.3982  1.8153
 9169SOL    HW239141   2.235   0.269   8.420 -0.1499  1.7375  1.1689
 9170SOL     OW39142   0.230   4.374   3.649  0.1437  0.4623 -0.2265
 9170SOL    HW139143   0.261   4.330   3.728 -0.3053  1.8156  0.7047
 9170SOL    HW239144   0.190   4.458   3.669 -2.9406 -0.8178 -0.9814
 9171SOL     OW39145   0.946   3.701  10.834  0.7292  0.2995 -0.2032
 9171SOL    HW139146   0.874   3.662  10.883 -0.0418 -0.0532 -1.6088
 9171SOL    HW239147   0.907   3.703  10.747  2.2941  1.2198 -0.8872
 9172SOL     OW39148   0.868   0.961   7.664  0.1483 -0.3095  0.0104
 9172SOL    HW139149   0.871   0.904   7.741  0.8873  1.3729  1.2338
 9172SOL    HW239150   0.800   1.020   7.697 -0.5306 -0.8073 -0.5235
 9173SOL     OW39151   2.808   0.461   2.607  0.4607 -0.4124  0.1214
 9173SOL    HW139152   2.825   0.367   2.604  2.4750 -0.0608  0.6684
 9173SOL    HW239153   2.717   0.452   2.634 -0.4679  0.9514 -2.5043
 9174SOL     OW39154   0.765   2.639   3.913 -0.3352  0.1564 -0.2029
 9174SOL    HW139155   0.788   2.567   3.972 -2.1815 -1.2160 -1.1807
 9174SOL    HW239156   0.791   2.716   3.965 -0.2243  0.5950 -0.9012
 9175SOL     OW39157   0.457   3.031   2.328  0.0980 -0.0134  0.5802
 9175SOL    HW139158   0.544   3.047   2.364  1.7367  0.0830 -3.4158
 9175SOL    HW239159   0.424   3.120   2.322 -1.2738 -0.6525 -1.3543
 9176SOL     OW39160   1.727   4.342   5.103 -0.8675  0.0656  0.6741
 9176SOL    HW139161   1.686   4.358   5.188  1.4289  0.0784  1.7690
 9176SOL    HW239162   1.693   4.253   5.089  1.1220 -0.4300 -1.0546
 9177SOL     OW39163   1.290   0.532   6.511 -0.0026 -0.1772  0.6553
 9177SOL    HW139164   1.198   0.519   6.531 -0.0945 -1.0674 -0.3555
 9177SOL    HW239165   1.302   0.491   6.425  2.5947 -1.5614  1.6748
 9178SOL     OW39166   4.171   0.679   3.377  0.9279 -0.3969  0.1746
 9178SOL    HW139167   4.135   0.597   3.409  1.0260 -0.6869 -0.4516
 9178SOL    HW239168   4.120   0.700   3.299 -0.0287  2.2016  1.4974
 9179SOL     OW39169   0.255   1.682   3.544 -0.3920 -0.3329  0.1248
 9179SOL    HW139170   0.320   1.691   3.474  0.0032  1.8568  0.7831
 9179SOL    HW239171   0.226   1.772   3.558 -0.5528 -0.5107  0.9164
 9180SOL     OW39172   4.535   1.182   7.069 -0.2792  0.3479 -0.3380
 9180SOL    HW139173   4.626   1.210   7.078 -0.1801 -0.5607  1.5417
 9180SOL    HW239174   4.493   1.266   7.053 -0.3158 -0.0126 -2.1763
 9181SOL     OW39175   2.591   3.907   4.231 -0.2692  0.1673 -0.3412
 9181SOL    HW139176   2.630   3.976   4.178 -3.1994  1.9522 -0.1336
 9181SOL    HW239177   2.648   3.912   4.308  0.0924 -2.1214 -0.4550
 9182SOL     OW39178   2.378   0.896   1.110 -0.0140  0.2650  0.0236
 9182SOL    HW139179   2.460   0.873   1.153  0.0363 -0.3090 -0.3912
 9182SOL    HW239180   2.402   0.891   1.018  1.5518 -0.9445  0.4975
 9183SOL     OW39181   0.710   2.057   6.209  0.3627  0.0069  0.4380
 9183SOL    HW139182   0.692   2.148   6.185 -1.6008 -0.8726 -1.4929
 9183SOL    HW239183   0.652   2.009   6.148  0.5341 -0.9002  0.9847
 9184SOL     OW39184   3.391   3.039   0.390  0.0651 -0.2383 -0.7796
 9184SOL    HW139185   3.314   2.996   0.351 -0.8233 -1.3368  2.1574
 9184SOL    HW239186   3.353   3.063   0.475  0.3607 -2.1955 -0.0833
 9185SOL     OW39187   0.179   1.252  12.750  0.4261 -0.1503  0.3564
 9185SOL    HW139188   0.171   1.233  12.656 -0.4752  1.5403  0.0956
 9185SOL    HW239189   0.112   1.190  12.778  1.6791 -1.9037 -0.4985
 9186SOL     OW39190   0.755   1.900   1.870 -0.4914  0.5055 -0.1843
 9186SOL    HW139191   0.749   1.859   1.784  1.1179  1.1232 -0.5931
 9186SOL    HW239192   0.783   1.816   1.908  1.0126  0.8066 -0.6102
 9187SOL     OW39193   1.113   1.058   4.085 -0.2010 -0.7015 -0.1757
 9187SOL    HW139194   1.200   1.091   4.062  0.3234 -2.0809 -0.1533
 9187SOL    HW239195   1.061   1.124   4.039  1.6417 -0.9942 -2.6565
 9188SOL     OW39196   0.819   2.718  15.217 -0.2356 -0.0724 -0.3426
 9188SOL    HW139197   0.884   2.652  15.196 -0.4837 -0.6597  0.7821
 9188SOL    HW239198   0.850   2.795  15.169  0.0312  1.6863  2.6601
 9189SOL     OW39199   1.639   2.677   5.262 -0.5660  0.4790  0.0306
 9189SOL    HW139200   1.733   2.681   5.244 -0.9045 -1.3818 -2.1706
 9189SOL    HW239201   1.638   2.674   5.358  0.8993 -0.3590  0.0284
 9190SOL     OW39202   0.750   2.460   2.813  0.7091  0.7999  0.4489
 9190SOL    HW139203   0.723   2.385   2.866 -1.2314  1.9225  1.0165
 9190SOL    HW239204   0.802   2.419   2.743 -0.2940  1.1062 -0.4743
 9191SOL     OW39205   0.413   1.023  17.555 -0.0261  0.1675 -0.2631
 9191SOL    HW139206   0.372   1.093  17.504  1.1844  0.8445 -0.2973
 9191SOL    HW239207   0.360   1.023  17.635 -2.4387  3.5130 -1.8457
 9192SOL     OW39208   1.464   1.762   0.432  0.4375  0.0570  0.1094
 9192SOL    HW139209   1.385   1.714   0.408 -0.5221  2.4175 -1.4700
 9192SOL    HW239210   1.527   1.693   0.413 -0.8155 -0.6126 -1.5704
 9193SOL     OW39211   3.543   1.561   6.376 -0.3626 -0.1226  0.0678
 9193SOL    HW139212   3.624   1.576   6.328 -1.1818  2.3036 -0.5638
 9193SOL    HW239213   3.505   1.484   6.334  0.3032 -0.8440  0.7848
 9194SOL     OW39214   0.870   0.754  17.241  0.2523  0.0162 -0.1755
 9194SOL    HW139215   0.939   0.711  17.191 -0.5852 -1.8140  0.2405
 9194SOL    HW239216   0.818   0.792  17.170 -1.2854 -2.5153 -0.3940
 9195SOL     OW39217   4.222   2.864   4.247 -0.0471  0.1073  0.4297
 9195SOL    HW139218   4.156   2.794   4.252  1.6738 -1.3900  2.3422
 9195SOL    HW239219   4.266   2.854   4.163 -0.5665 -0.6843  0.2422
 9196SOL     OW39220   0.521   4.574  11.119  0.4506 -0.1115  0.1380
 9196SOL    HW139221   0.553   4.653  11.163 -0.0630  0.4024 -0.4241
 9196SOL    HW239222   0.500   4.511  11.188  1.1101 -0.6951 -0.1927
 9197SOL     OW39223   1.202   0.920  14.065 -0.0782  0.2066 -0.5274
 9197SOL    HW139224   1.287   0.915  14.022  0.0875  0.1546 -0.1901
 9197SOL    HW239225   1.174   0.828  14.064  0.9272 -0.0885 -1.0475
 9198SOL     OW39226   2.523   0.116  14.843 -0.1274  0.5783  0.4710
 9198SOL    HW139227   2.473   0.037  14.860  1.5015 -0.9226 -1.7369
 9198SOL    HW239228   2.453   0.176  14.816  0.4033  0.9598 -0.0690
 9199SOL     OW39229   1.102   3.562   8.930 -0.0326  0.1360 -0.4775
 9199SOL    HW139230   1.151   3.640   8.955  0.6322 -0.1349 -0.9495
 9199SOL    HW239231   1.061   3.591   8.848  1.9419  1.6950 -0.8975
 9200SOL     OW39232   1.963   3.236  15.249  0.5660 -0.7435 -0.3312
 9200SOL    HW139233   1.895   3.197  15.305  0.3488  0.3229  0.1420
 9200SOL    HW239234   1.996   3.159  15.201  0.1680 -1.2132  0.1420
 9201SOL     OW39235   0.464   1.872   3.042  0.5199 -0.7427  0.0777
 9201SOL    HW139236   0.458   1.850   2.948 -0.7668  0.4552 -0.1203
 9201SOL    HW239237   0.535   1.812   3.066  0.7428 -0.7753 -0.6484
 9202SOL     OW39238   0.211   3.139   8.249 -0.2871 -0.1924 -0.4151
 9202SOL    HW139239   0.253   3.054   8.240 -0.1193  0.2176 -3.7375
 9202SOL    HW239240   0.174   3.126   8.336 -0.1224 -0.1282 -0.3360
 9203SOL     OW39241   4.416   0.704   2.255 -0.3230  0.1966 -0.3690
 9203SOL    HW139242   4.446   0.699   2.346 -0.9537 -2.4442 -0.2859
 9203SOL    HW239243   4.421   0.610   2.233  0.4062 -0.1128  1.1236
 9204SOL     OW39244   1.374   1.033   1.216 -0.2856 -0.2653 -0.2915
 9204SOL    HW139245   1.300   0.972   1.219 -0.6077  0.1390  0.0052
 9204SOL    HW239246   1.420   1.005   1.295  0.2135  1.6742  0.1180
 9205SOL     OW39247   0.968   3.891   6.799  0.0218  0.3621 -0.4152
 9205SOL    HW139248   0.930   3.804   6.783  0.9422 -0.2512  0.7591
 9205SOL    HW239249   0.917   3.941   6.734 -0.3738  0.8754  0.2939
 9206SOL     OW39250   1.967   2.713   9.098 -0.0383  0.6058 -0.0081
 9206SOL    HW139251   1.874   2.727   9.111  0.0345  2.7117 -1.9977
 9206SOL    HW239252   1.981   2.795   9.051  1.2314  0.1596 -0.4212
 9207SOL     OW39253   3.392   1.083   4.542  0.2858 -0.0604  0.0842
 9207SOL    HW139254   3.471   1.080   4.488 -0.3158  1.3997 -0.8811
 9207SOL    HW239255   3.436   1.108   4.623  1.6823  0.2996 -0.7833
 9208SOL     OW39256   1.943   4.013  12.655 -0.6562 -0.1925 -0.4980
 9208SOL    HW139257   1.993   4.023  12.735 -0.7902 -2.9900 -0.0860
 9208SOL    HW239258   2.005   4.002  12.583  1.4447 -1.2265  1.4935
 9209SOL     OW39259   1.099   4.309   2.851 -0.1689  0.2328  0.1942
 9209SOL    HW139260   1.065   4.231   2.895  1.2198 -0.7983 -0.5509
 9209SOL    HW239261   1.191   4.284   2.851 -0.1140  0.4422 -0.0778
 9210SOL     OW39262   0.163   4.036   5.687  0.1519 -0.6370 -0.2351
 9210SOL    HW139263   0.109   4.011   5.613 -1.7022 -2.3341  1.6992
 9210SOL    HW239264   0.185   4.126   5.663  2.4785 -0.4332  2.6525
 9211SOL     OW39265   4.371   1.494   8.141  0.1467 -0.4445 -0.3931
 9211SOL    HW139266   4.279   1.503   8.118 -0.0909  2.2447  1.6045
 9211SOL    HW239267   4.404   1.583   8.151 -1.3089  0.0704 -0.2889
 9212SOL     OW39268   2.752   4.394   7.080 -0.4155 -0.0188 -0.1114
 9212SOL    HW139269   2.744   4.448   7.160 -1.4006  0.1995 -0.3573
 9212SOL    HW239270   2.662   4.404   7.047 -0.4337  0.9201  0.2054
 9213SOL     OW39271   4.730   2.076   9.229 -0.0549 -0.1967 -0.4964
 9213SOL    HW139272   0.018   2.027   9.150 -1.8525  1.8871 -2.3233
 9213SOL    HW239273   0.045   2.028   9.296  2.7644  1.8329 -1.1574
 9214SOL     OW39274   3.752   2.015   6.225 -0.2468 -0.0567 -0.5144
 9214SOL    HW139275   3.798   1.952   6.170  0.6287  2.3241 -2.5176
 9214SOL    HW239276   3.769   2.093   6.172  0.2778  1.6492  2.1316
 9215SOL     OW39277   1.184   4.486   7.642  0.4267 -0.8209 -0.1487
 9215SOL    HW139278   1.091   4.504   7.635  0.6010  0.6743  1.1635
 9215SOL    HW239279   1.179   4.428   7.719 -0.5780 -1.2418 -0.5381
 9216SOL     OW39280   2.292   1.001   2.628 -0.1783  0.8255  0.3460
 9216SOL    HW139281   2.379   1.036   2.649  0.5697 -0.6913 -0.2578
 9216SOL    HW239282   2.276   1.033   2.539 -0.4620  1.0390  0.4727
 9217SOL     OW39283   4.459   3.071   4.286 -0.3417 -0.4226 -0.1476
 9217SOL    HW139284   4.395   3.119   4.235 -2.0487  0.7738  3.1067
 9217SOL    HW239285   4.543   3.117   4.276 -1.6470  2.1022  0.5270
 9218SOL     OW39286   0.584   1.824   8.603  0.0496 -0.1271 -0.2411
 9218SOL    HW139287   0.650   1.861   8.661  0.9335 -1.7097 -0.2289
 9218SOL    HW239288   0.524   1.784   8.666 -1.8550  0.3176 -1.7894
 9219SOL     OW39289   4.399   1.132  13.990 -0.4662 -0.1914 -0.2167
 9219SOL    HW139290   4.489   1.111  13.969 -0.6640 -1.9645  0.7083
 9219SOL    HW239291   4.387   1.202  13.925 -0.1552 -0.9134 -1.0443
 9220SOL     OW39292   0.393   4.578   0.520  0.3655  0.0665 -0.2738
 9220SOL    HW139293   0.377   4.655   0.465  0.0900  1.7020  2.0310
 9220SOL    HW239294   0.302   4.558   0.544  0.3055  1.0114  0.3098
 9221SOL     OW39295   0.265   0.970   0.512  0.0421 -1.0885 -0.0097
 9221SOL    HW139296   0.340   1.024   0.536 -1.3227  0.8300 -0.0214
 9221SOL    HW239297   0.278   0.975   0.417  3.2557 -0.2097  0.4795
 9222SOL     OW39298   1.142   3.572   3.458 -0.3813  0.0347  0.0894
 9222SOL    HW139299   1.170   3.663   3.465 -0.0346 -0.0303 -0.4667
 9222SOL    HW239300   1.153   3.555   3.364 -0.4143 -0.7794  0.2251
 9223SOL     OW39301   2.996   1.840  12.550  0.5744 -0.1302  0.3350
 9223SOL    HW139302   2.901   1.849  12.553  0.6782  1.6718 -1.9320
 9223SOL    HW239303   3.010   1.748  12.573  0.4302 -0.6804 -1.8099
 9224SOL     OW39304   1.411   3.344  12.439  0.2851 -0.4628  0.7080
 9224SOL    HW139305   1.318   3.355  12.418  0.3646 -2.2755 -0.5324
 9224SOL    HW239306   1.443   3.434  12.435 -1.0949  0.0511  1.1196
 9225SOL     OW39307   2.449   0.504   4.719  0.2900  0.3098  0.0183
 9225SOL    HW139308   2.543   0.506   4.701  0.3129 -0.4569  0.0653
 9225SOL    HW239309   2.452   0.452   4.799 -3.0799 -2.1006 -1.4304
 9226SOL     OW39310   1.863   4.270   1.878 -0.5688  0.0495 -0.2456
 9226SOL    HW139311   1.832   4.227   1.957  1.2311 -2.2631 -0.8072
 9226SOL    HW239312   1.784   4.272   1.825 -1.3181 -0.7349  0.8537
 9227SOL     OW39313   3.864   0.976   8.195 -0.2778 -0.5770 -0.4188
 9227SOL    HW139314   3.917   0.922   8.253  2.0795  0.1292 -1.9196
 9227SOL    HW239315   3.796   0.916   8.164 -0.7641 -0.4267  0.3678
 9228SOL     OW39316   2.368   4.521  13.760 -0.3627 -0.3466 -0.3317
 9228SOL    HW139317   2.331   4.609  13.750  1.8408  0.6142  0.1120
 9228SOL    HW239318   2.455   4.534  13.723 -0.1732 -2.1251 -0.5130
 9229SOL     OW39319   1.002   0.192   7.646  0.2848 -0.6534  0.0481
 9229SOL    HW139320   0.983   0.170   7.555  2.5858  2.4180 -1.1769
 9229SOL    HW239321   1.019   0.103   7.676 -0.5146 -0.8975 -0.2378
 9230SOL     OW39322   4.582   1.353   4.470 -0.0184  0.0030 -0.4894
 9230SOL    HW139323   4.645   1.426   4.468  1.4310 -1.1935  1.1417
 9230SOL    HW239324   4.517   1.379   4.535  0.9579 -1.5993  1.1200
 9231SOL     OW39325   2.844   3.300   5.025  0.1773 -0.1406 -0.6927
 9231SOL    HW139326   2.876   3.247   4.952  0.8465 -0.6817 -0.0053
 9231SOL    HW239327   2.816   3.234   5.089  0.7905  1.0673  0.8240
 9232SOL     OW39328   2.618   1.513   9.831 -0.1118  0.4306 -0.0755
 9232SOL    HW139329   2.635   1.597   9.874  2.4841  0.4574 -1.1336
 9232SOL    HW239330   2.702   1.473   9.855  0.2609  0.9950 -0.4432
 9233SOL     OW39331   4.524   3.078   1.698  0.0130 -0.8249  0.5190
 9233SOL    HW139332   4.512   3.079   1.603  1.5532 -0.7162  0.3252
 9233SOL    HW239333   4.509   3.171   1.715  0.6968 -0.8191  1.1111
 9234SOL     OW39334   0.614   1.336   8.470 -0.1265 -0.6300  0.3991
 9234SOL    HW139335   0.662   1.254   8.484  0.3605 -0.3427  0.4141
 9234SOL    HW239336   0.663   1.354   8.390 -0.2161  1.6702  0.8739
 9235SOL     OW39337   2.571   1.554   1.805  0.2296  1.1259  0.6493
 9235SOL    HW139338   2.494   1.521   1.758 -0.2863  0.5310  1.9187
 9235SOL    HW239339   2.579   1.642   1.767 -1.5618  0.7363 -0.6352
 9236SOL     OW39340   0.500   0.990   6.384  0.3324  0.0159  0.2255
 9236SOL    HW139341   0.425   1.044   6.358 -1.5764 -3.1752 -0.8912
 9236SOL    HW239342   0.465   0.905   6.360  0.6228  0.3609 -1.4146
 9237SOL     OW39343   1.769   0.192  15.158  0.5690  0.2921 -0.5728
 9237SOL    HW139344   1.856   0.204  15.197  1.1333 -0.9775 -1.4577
 9237SOL    HW239345   1.707   0.260  15.185 -0.1745 -1.4476  2.0388
 9238SOL     OW39346   0.108   3.701  14.294  0.1971 -0.2454 -0.1399
 9238SOL    HW139347   0.129   3.655  14.375  1.5173  1.7625  0.6601
 9238SOL    HW239348   0.130   3.629  14.235 -0.1262 -0.6878  0.2864
 9239SOL     OW39349   0.849   1.428   7.418  0.0201  0.4091  0.0728
 9239SOL    HW139350   0.847   1.457   7.326 -0.8100  2.4878  0.7448
 9239SOL    HW239351   0.914   1.488   7.454  0.3422  1.0280 -1.5382
 9240SOL     OW39352   0.738   2.290  14.031 -0.1098  0.7426  0.1870
 9240SOL    HW139353   0.655   2.313  14.073 -1.1320  0.2310 -1.5274
 9240SOL    HW239354   0.732   2.342  13.950  0.7839 -0.9521 -0.9767
 9241SOL     OW39355   2.181   4.687   7.104  0.6954 -0.2241  0.1632
 9241SOL    HW139356   2.192   4.630   7.180 -3.2746  0.2946  1.0795
 9241SOL    HW239357   2.110   0.010   7.133 -1.1443 -1.5719 -1.6757
 9242SOL     OW39358   0.040   4.487   5.209 -0.5187  0.3110  0.6421
 9242SOL    HW139359   0.037   4.582   5.222  0.2976  0.4731 -0.4255
 9242SOL    HW239360   0.128   4.476   5.244 -0.4194 -1.9936 -0.3336
 9243SOL     OW39361   2.953   1.654  11.691  0.2201 -0.0824 -0.2253
 9243SOL    HW139362   2.964   1.607  11.774  1.1929  0.2231 -0.1886
 9243SOL    HW239363   3.042   1.649  11.657  0.3892 -1.4907  0.3970
 9244SOL     OW39364   0.578   0.237   1.741 -0.0723  0.9274  0.1181
 9244SOL    HW139365   0.573   0.320   1.789 -0.0915 -0.6860  2.9108
 9244SOL    HW239366   0.573   0.253   1.647 -2.1170 -1.3789 -0.1636
 9245SOL     OW39367   0.169   2.297   4.363  0.1004  0.2697 -0.5933
 9245SOL    HW139368   0.190   2.203   4.366 -1.6900 -0.1423 -1.4162
 9245SOL    HW239369   0.246   2.335   4.406 -1.7937  1.7119  1.5140
 9246SOL     OW39370   4.304   3.867   6.320  0.5815 -0.5217 -0.2359
 9246SOL    HW139371   4.324   3.808   6.393 -0.7232  0.2740  0.7473
 9246SOL    HW239372   4.231   3.820   6.280 -0.2872  0.4008  0.2979
 9247SOL     OW39373   0.976   4.542   5.394 -0.4507  0.5380 -0.2003
 9247SOL    HW139374   0.913   4.611   5.373 -0.9891  0.1081 -0.0048
 9247SOL    HW239375   0.927   4.465   5.367  0.7281  0.3837 -1.8469
 9248SOL     OW39376   1.702   2.395  16.976  0.4290 -0.8539  0.1864
 9248SOL    HW139377   1.617   2.429  17.002 -1.5435 -4.3517 -1.5974
 9248SOL    HW239378   1.746   2.392  17.061  0.3872 -0.3117  0.2250
 9249SOL     OW39379   0.120   3.298   2.473  0.6525  0.7606  0.0016
 9249SOL    HW139380   0.148   3.360   2.540  2.9538 -2.3896  1.9885
 9249SOL    HW239381   0.105   3.223   2.532 -2.3280  1.2541 -0.1364
 9250SOL     OW39382   3.814   1.282   6.461  0.4108 -0.0032  0.5569
 9250SOL    HW139383   3.755   1.209   6.443  3.0951 -1.3884 -2.6972
 9250SOL    HW239384   3.890   1.256   6.410 -0.8453  0.0455 -1.3378
 9251SOL     OW39385   4.464   0.032  10.492 -0.7134 -0.0574  0.5094
 9251SOL    HW139386   4.500   0.050  10.579 -0.1073  0.1382  0.2182
 9251SOL    HW239387   4.436   0.120  10.467  1.7065  0.4034 -0.5597
 9252SOL     OW39388   1.530   1.827   4.556  0.4114  0.2188  0.4479
 9252SOL    HW139389   1.438   1.814   4.579  0.1107  1.5939 -0.0392
 9252SOL    HW239390   1.561   1.836   4.646 -0.2232  1.5943  0.5166
 9253SOL     OW39391   0.717   0.762   3.883 -0.0231  1.0350 -0.1964
 9253SOL    HW139392   0.685   0.769   3.973  0.7434  1.4007  0.0477
 9253SOL    HW239393   0.759   0.676   3.883 -0.1123  0.9896 -2.2104
 9254SOL     OW39394   1.814   3.951   4.598 -0.3095  0.0821  0.5702
 9254SOL    HW139395   1.824   3.989   4.511  4.4750  1.9758  1.9615
 9254SOL    HW239396   1.858   4.013   4.657 -2.4069  1.1289  1.0350
 9255SOL     OW39397   2.539   4.429   5.728 -0.2100  0.2435 -0.0120
 9255SOL    HW139398   2.500   4.517   5.729  0.4932  0.5520  0.2714
 9255SOL    HW239399   2.466   4.372   5.751 -0.9346  0.3604 -2.1075
 9256SOL     OW39400   4.414   0.401   2.125  0.2292  0.4199  0.6916
 9256SOL    HW139401   4.465   0.438   2.052 -0.0724 -0.1668  0.1827
 9256SOL    HW239402   4.331   0.389   2.079  0.2923 -0.1903  0.7341
 9257SOL     OW39403   4.052   2.121   5.673  0.8098 -0.4071  0.1681
 9257SOL    HW139404   4.080   2.209   5.647 -1.5402  0.6317  1.0496
 9257SOL    HW239405   4.118   2.062   5.637  0.9565  0.1710 -0.5234
 9258SOL     OW39406   1.149   0.982   5.446  0.3703 -0.2334  0.3361
 9258SOL    HW139407   1.054   0.980   5.455  0.2855 -1.6105 -0.9105
 9258SOL    HW239408   1.168   1.064   5.492  1.1204 -0.8637  1.1518
 9259SOL     OW39409   0.829   1.863   5.608  0.7087 -0.7503 -0.2068
 9259SOL    HW139410   0.836   1.776   5.646  1.7577 -0.7569 -0.4178
 9259SOL    HW239411   0.916   1.889   5.639  0.1530 -1.2012  1.7322
 9260SOL     OW39412   0.153   1.776   4.861  0.1662  0.1798 -0.5105
 9260SOL    HW139413   0.058   1.785   4.864  0.2389  1.0355 -0.6738
 9260SOL    HW239414   0.164   1.847   4.798  2.7448  2.6921  2.7694
 9261SOL     OW39415   0.385   2.200   4.589 -0.0057  0.4837 -0.7915
 9261SOL    HW139416   0.371   2.147   4.511  0.9406 -0.4633 -0.3112
 9261SOL    HW239417   0.375   2.291   4.560 -0.3208  1.9063  3.8195
 9262SOL     OW39418   1.161   4.601   1.697  0.0631 -0.0566 -0.1253
 9262SOL    HW139419   1.124   4.568   1.615  1.1154  0.6972 -0.9200
 9262SOL    HW239420   1.154   4.520   1.748  1.6602 -0.5145 -0.6270
 9263SOL     OW39421   3.823   1.335   8.472 -0.6488 -0.1825 -0.1729
 9263SOL    HW139422   3.815   1.327   8.377 -0.2476  1.7768 -0.3755
 9263SOL    HW239423   3.780   1.418   8.495 -1.7846 -0.8361  0.0588
 9264SOL     OW39424   4.271   0.602  16.312  1.1687 -0.7422  0.0723
 9264SOL    HW139425   4.331   0.647  16.371 -0.4908  2.3617 -0.6015
 9264SOL    HW239426   4.309   0.612  16.224  1.5700 -0.6102  0.2626
 9265SOL     OW39427   1.744   1.431   0.128 -0.0529  0.4559  0.3149
 9265SOL    HW139428   1.748   1.477   0.044  0.5388  1.5537  0.9433
 9265SOL    HW239429   1.775   1.341   0.113  0.0221  0.3768  0.9460
 9266SOL     OW39430   2.127   2.045   4.531 -0.0583  0.7433 -0.0758
 9266SOL    HW139431   2.151   2.071   4.442  1.5702  0.7268  0.3654
 9266SOL    HW239432   2.049   1.998   4.500 -0.1100 -0.1623  1.4604
 9267SOL     OW39433   4.181   1.102  16.572  0.0069  0.2750 -0.6772
 9267SOL    HW139434   4.259   1.157  16.576  0.5191 -0.6365  1.8162
 9267SOL    HW239435   4.206   1.024  16.522  1.3676  1.4182 -1.7713
 9268SOL     OW39436   3.558   0.048  12.637 -0.5117 -0.0089  0.5666
 9268SOL    HW139437   3.466   0.075  12.626 -0.1884  0.1031 -1.8903
 9268SOL    HW239438   3.608   0.127  12.621  0.8495 -1.4491 -2.2878
 9269SOL     OW39439   0.086   0.401   8.520 -0.1274  0.1843 -0.3607
 9269SOL    HW139440   0.108   0.408   8.613 -0.5844  3.1163 -0.4709
 9269SOL    HW239441   4.731   0.433   8.528  0.6790  2.0160  1.3062
 9270SOL     OW39442   2.461   0.167   5.621  0.4781 -0.0136 -0.7227
 9270SOL    HW139443   2.401   0.204   5.556  0.5805  1.1018 -0.1753
 9270SOL    HW239444   2.465   0.232   5.691 -0.7956 -0.3584 -0.3289
 9271SOL     OW39445   1.359   1.580   2.595 -0.0050  0.3257 -0.4865
 9271SOL    HW139446   1.325   1.491   2.580 -0.1584  0.5133 -1.2686
 9271SOL    HW239447   1.276   1.620   2.619  0.1435 -0.5663  1.5157
 9272SOL     OW39448   2.768   2.931  15.984 -0.2426 -0.2389 -0.4160
 9272SOL    HW139449   2.840   2.974  15.937  1.2232 -0.2944  1.7960
 9272SOL    HW239450   2.718   2.897  15.911  0.3490  1.2153 -1.5103
 9273SOL     OW39451   2.826   2.098  10.501 -0.0845 -0.6785  0.0408
 9273SOL    HW139452   2.833   2.061  10.589 -0.3477 -0.5647  0.1085
 9273SOL    HW239453   2.855   2.018  10.459  1.2017  0.0873 -0.5310
 9274SOL     OW39454   2.110   0.884   8.340  0.4076  0.0401  0.3477
 9274SOL    HW139455   2.150   0.923   8.418 -0.4115 -1.0300  1.2979
 9274SOL    HW239456   2.018   0.879   8.364  0.2824 -0.4117 -0.2543
 9275SOL     OW39457   0.140   1.487   0.677  0.0662  0.0124  0.3611
 9275SOL    HW139458   0.151   1.447   0.763  0.0607  0.5777  0.6239
 9275SOL    HW239459   0.166   1.403   0.640  0.4512  1.5558 -2.8331
 9276SOL     OW39460   1.498   4.393  14.700  0.3669 -0.7620 -0.6242
 9276SOL    HW139461   1.586   4.414  14.669  0.7854  2.4761  2.7205
 9276SOL    HW239462   1.449   4.397  14.618  0.2368 -0.2764 -0.5232
 9277SOL     OW39463   0.097   0.489   0.118  0.9286 -1.0499 -0.2732
 9277SOL    HW139464   0.059   0.553   0.178  0.1969  1.3383 -3.2904
 9277SOL    HW239465   0.023   0.487   0.057  1.3916 -0.9121 -0.8378
 9278SOL     OW39466   4.411   2.088   7.952  0.5872  0.4339  0.0232
 9278SOL    HW139467   4.484   2.057   7.899  1.7528 -0.8374  2.3640
 9278SOL    HW239468   4.433   2.178   7.975 -0.7616  0.4990  1.0801
 9279SOL     OW39469   2.660   0.254  12.034 -0.3611  0.7754  0.1722
 9279SOL    HW139470   2.613   0.257  12.118 -0.4643  0.6911  0.1164
 9279SOL    HW239471   2.713   0.176  12.047 -0.6257  0.3399 -1.3980
 9280SOL     OW39472   2.141   0.955   4.116  0.1481 -0.1640  0.5998
 9280SOL    HW139473   2.092   0.912   4.186 -1.0534 -0.7539 -0.6039
 9280SOL    HW239474   2.078   0.936   4.046  0.6117  1.5099 -0.2695
 9281SOL     OW39475   0.884   1.711  14.896 -0.3302 -0.4505 -0.0966
 9281SOL    HW139476   0.969   1.749  14.920 -1.6321  1.7179  1.0937
 9281SOL    HW239477   0.905   1.617  14.899 -1.3593 -0.6406  1.2254
 9282SOL     OW39478   4.460   2.130   7.414 -0.4710 -0.4099  0.2083
 9282SOL    HW139479   4.417   2.070   7.354  1.3977 -0.8907 -0.6749
 9282SOL    HW239480   4.542   2.140   7.365 -1.2217  0.3323 -0.9078
 9283SOL     OW39481   1.447   0.121   4.554 -0.3837 -0.3495  0.0566
 9283SOL    HW139482   1.460   0.125   4.648 -0.5617 -0.3286  0.0788
 9283SOL    HW239483   1.378   0.187   4.550  0.2681  0.2716 -1.0239
 9284SOL     OW39484   2.234   3.815   6.109 -0.2067  0.1572 -0.1797
 9284SOL    HW139485   2.212   3.755   6.180 -0.1588 -0.7111 -0.8994
 9284SOL    HW239486   2.206   3.770   6.030  0.4443 -3.5302  1.7179
 9285SOL     OW39487   3.789   0.535   1.036 -0.0028  0.8214 -0.3276
 9285SOL    HW139488   3.704   0.554   0.997 -0.6669  0.8658  1.1468
 9285SOL    HW239489   3.794   0.440   1.029 -0.0155  0.8540 -0.8346
 9286SOL     OW39490   3.927   3.132   9.249  0.2158  0.4223 -0.2485
 9286SOL    HW139491   3.879   3.060   9.290  1.1439  0.5705  1.0955
 9286SOL    HW239492   3.883   3.207   9.290  1.0730  0.1108  1.2179
 9287SOL     OW39493   4.537   0.019   5.125  0.0868  0.1692  0.0724
 9287SOL    HW139494   4.471   4.695   5.162 -1.3251  1.7426  0.0358
 9287SOL    HW239495   4.520   0.100   5.173 -0.9717 -1.0125  1.6973
 9288SOL     OW39496   0.217   1.090  16.152 -0.1774 -0.5586  0.1032
 9288SOL    HW139497   0.203   1.141  16.231  0.0099 -0.0248 -0.2118
 9288SOL    HW239498   0.295   1.039  16.171 -0.7886 -1.9386 -1.0655
 9289SOL     OW39499   4.203   4.131   6.567  0.1948 -0.0213  0.7409
 9289SOL    HW139500   4.163   4.218   6.573  2.3143  0.9651  0.6968
 9289SOL    HW239501   4.238   4.125   6.656 -0.2610  1.2266  0.9995
 9290SOL     OW39502   4.684   4.638   8.094  0.7531 -0.0688 -0.3503
 9290SOL    HW139503   4.692   4.607   8.004 -0.0143  2.5538 -1.3141
 9290SOL    HW239504   0.024   4.696   8.093  0.2558  0.5566 -1.4200
 9291SOL     OW39505   1.841   4.185  17.166 -0.2269 -0.4332 -0.3146
 9291SOL    HW139506   1.818   4.093  17.155  0.4285 -0.8332  1.6811
 9291SOL    HW239507   1.783   4.208  17.239  0.0200  0.7077 -0.4660
 9292SOL     OW39508   3.844   3.174   7.234 -0.0955 -0.4392  0.1015
 9292SOL    HW139509   3.809   3.114   7.299 -0.5478  1.0614  1.2363
 9292SOL    HW239510   3.888   3.236   7.292 -0.2747  1.0914 -1.4044
 9293SOL     OW39511   2.271   1.757   3.623  0.0199 -0.3259 -0.1084
 9293SOL    HW139512   2.297   1.849   3.610 -2.2870  0.3464  0.1108
 9293SOL    HW239513   2.184   1.766   3.662  0.7128 -1.7643  1.7801
 9294SOL     OW39514   3.731   3.426  13.599 -0.0960 -0.4017  0.2361
 9294SOL    HW139515   3.682   3.495  13.643  1.0864  0.6337 -0.0649
 9294SOL    HW239516   3.715   3.454  13.509 -1.1841  0.7847  0.8016
 9295SOL     OW39517   3.629   1.144   1.634 -0.7401  0.5636  0.4277
 9295SOL    HW139518   3.723   1.129   1.638 -1.1390 -1.2959  2.5226
 9295SOL    HW239519   3.625   1.221   1.577  1.1709 -0.0067 -0.4928
 9296SOL     OW39520   1.952   0.973   7.138  0.1008  0.0067 -0.5332
 9296SOL    HW139521   1.937   0.901   7.077 -0.1407  0.3409 -0.8671
 9296SOL    HW239522   2.040   0.954   7.171  0.6597  0.9920 -1.4460
 9297SOL     OW39523   4.477   1.885   3.514 -0.0646  0.0600  0.3451
 9297SOL    HW139524   4.539   1.934   3.460 -2.4061  3.7138  0.8918
 9297SOL    HW239525   4.472   1.924   3.602 -3.2128 -2.1866  1.1852
 9298SOL     OW39526   4.029   1.749   1.934 -0.3684 -0.1760 -0.3236
 9298SOL    HW139527   4.053   1.825   1.988  0.8354  0.3291 -1.5827
 9298SOL    HW239528   3.971   1.786   1.868 -0.2348  0.2080 -0.2269
 9299SOL     OW39529   0.663   1.293   9.253 -0.0455  0.3254  0.8662
 9299SOL    HW139530   0.661   1.285   9.158 -0.8322  1.1934  0.8070
 9299SOL    HW239531   0.607   1.369   9.267 -0.7631 -0.2359  1.0534
 9300SOL     OW39532   1.490   4.239   7.764 -0.4640 -0.1414 -0.1830
 9300SOL    HW139533   1.401   4.261   7.738  0.1051 -0.9738 -2.8798
 9300SOL    HW239534   1.476   4.152   7.802 -1.3685 -0.8847 -2.2240
 9301SOL     OW39535   3.724   4.136   5.620  0.2508 -0.1306 -0.3861
 9301SOL    HW139536   3.783   4.063   5.639 -1.2103 -0.5932  2.4849
 9301SOL    HW239537   3.728   4.195   5.695 -1.7571 -0.0427 -0.3481
 9302SOL     OW39538   3.321   2.331   8.455 -0.4321 -0.3037 -0.1661
 9302SOL    HW139539   3.298   2.238   8.449 -1.7743  0.2113 -2.6246
 9302SOL    HW239540   3.406   2.320   8.498 -0.3766  0.4761 -0.0721
 9303SOL     OW39541   3.167   4.614   4.353 -0.7891  0.3117 -0.2920
 9303SOL    HW139542   3.246   4.588   4.306 -0.0104  0.9557  0.6433
 9303SOL    HW239543   3.194   4.678   4.419 -0.1968 -0.7833  0.5359
 9304SOL     OW39544   1.334   4.076   4.359 -0.0712 -0.3761 -0.2989
 9304SOL    HW139545   1.402   4.122   4.408 -0.1897 -0.1444 -0.3517
 9304SOL    HW239546   1.285   4.153   4.329  0.7658  0.1812 -0.2293
 9305SOL     OW39547   2.269   2.919   7.101 -0.3327 -0.2404  0.2497
 9305SOL    HW139548   2.281   2.830   7.069  0.0983  0.6680 -2.1224
 9305SOL    HW239549   2.316   2.887   7.178 -0.1771 -2.3689 -0.7511
 9306SOL     OW39550   1.393   0.445   5.932 -0.0483 -0.3171 -0.4107
 9306SOL    HW139551   1.302   0.415   5.935  0.9433 -3.5988 -2.9405
 9306SOL    HW239552   1.377   0.533   5.967 -1.6312  0.2694 -2.6579
 9307SOL     OW39553   2.327   0.529  15.578 -0.1871  0.9322  0.1602
 9307SOL    HW139554   2.270   0.543  15.653 -0.7880  0.7045 -0.2591
 9307SOL    HW239555   2.257   0.530  15.512 -0.9383 -3.2528  0.9311
 9308SOL     OW39556   0.818   4.323   3.486 -0.1089 -0.0080  0.0536
 9308SOL    HW139557   0.892   4.262   3.494 -0.1011  0.0512  0.4355
 9308SOL    HW239558   0.742   4.264   3.491  1.2310 -1.7987 -0.4638
 9309SOL     OW39559   0.483   4.631   6.299 -0.1383  0.5054 -0.7780
 9309SOL    HW139560   0.499   4.677   6.381 -0.2415 -2.0302  0.6745
 9309SOL    HW239561   0.521   4.683   6.228  2.3900  2.1195  1.7632
 9310SOL     OW39562   4.477   0.495  10.000 -0.7195 -0.0194  0.2430
 9310SOL    HW139563   4.449   0.548   9.925 -0.3295  0.5499  0.5006
 9310SOL    HW239564   4.411   0.426   9.987  0.6411 -1.2137 -0.2999
 9311SOL     OW39565   4.093   0.766   7.522 -0.0557  0.0957 -0.6181
 9311SOL    HW139566   4.028   0.836   7.519  1.0567  1.1517 -0.4466
 9311SOL    HW239567   4.028   0.697   7.536  0.8675 -0.5039  0.7346
 9312SOL     OW39568   4.646   2.945  10.704 -0.6015  0.3816  0.0653
 9312SOL    HW139569   4.595   3.005  10.650 -0.1812  2.5324  2.0495
 9312SOL    HW239570   4.717   3.001  10.737  0.4456  0.0293 -1.5762
 9313SOL     OW39571   1.779   3.359   4.562  0.8873  0.3327  0.0327
 9313SOL    HW139572   1.721   3.389   4.492  0.9992 -1.4659 -0.8303
 9313SOL    HW239573   1.720   3.371   4.636  1.6586  0.7183  0.5779
 9314SOL     OW39574   2.681   3.192  13.134  0.7299 -0.6105 -0.5661
 9314SOL    HW139575   2.672   3.268  13.191  1.6942  0.3329 -1.6687
 9314SOL    HW239576   2.679   3.226  13.044 -1.0810  1.5739  0.3264
 9315SOL     OW39577   2.905   1.122   3.868  0.1498  0.6851 -0.5168
 9315SOL    HW139578   2.816   1.088   3.852  1.0106 -1.5735 -0.5092
 9315SOL    HW239579   2.879   1.200   3.917 -1.5740 -0.1508 -0.0764
 9316SOL     OW39580   1.612   2.246   7.945  0.1941  0.6141  0.3052
 9316SOL    HW139581   1.528   2.222   7.983  0.5115  0.9011  1.1809
 9316SOL    HW239582   1.659   2.166   7.968  1.5614  0.4698 -2.9478
 9317SOL     OW39583   0.418   0.919   4.243  0.0711  0.4177 -0.0171
 9317SOL    HW139584   0.404   0.867   4.164  1.9742 -0.8771  0.5048
 9317SOL    HW239585   0.352   0.878   4.300  2.2471 -0.6637  1.7546
 9318SOL     OW39586   2.271   0.159   3.404 -0.7559 -0.2818 -0.4196
 9318SOL    HW139587   2.176   0.170   3.396 -1.1550 -1.7010  2.2249
 9318SOL    HW239588   2.286   0.065   3.394  0.1243 -0.1359 -0.4474
 9319SOL     OW39589   4.347   2.964   2.168 -0.6621 -0.0720  0.6601
 9319SOL    HW139590   4.324   2.976   2.076  1.6500  2.3472  0.3969
 9319SOL    HW239591   4.292   3.037   2.198  1.3813  1.0743  1.6254
 9320SOL     OW39592   3.873   3.419   0.671 -0.3046  0.6076 -0.3499
 9320SOL    HW139593   3.840   3.342   0.716  1.2801  0.0540 -0.1482
 9320SOL    HW239594   3.849   3.491   0.729  1.6010  0.0750  1.0638
 9321SOL     OW39595   3.491   3.401  13.112  0.4412 -0.4574 -0.2542
 9321SOL    HW139596   3.498   3.324  13.056  1.3404  0.0109 -0.7865
 9321SOL    HW239597   3.566   3.454  13.086  1.8568 -2.1120  0.4373
 9322SOL     OW39598   0.066   1.641   3.022 -0.0869 -0.0713 -0.0158
 9322SOL    HW139599   0.036   1.732   3.021  0.5573  0.1522  0.3998
 9322SOL    HW239600   0.078   1.619   3.114 -0.6882 -0.3157  0.0017
 9323SOL     OW39601   3.987   2.816   0.380 -0.4988 -0.1252 -0.0228
 9323SOL    HW139602   4.018   2.906   0.368  1.2786 -1.0520 -2.2993
 9323SOL    HW239603   3.983   2.810   0.476 -0.6087  1.5276  0.0752
 9324SOL     OW39604   0.487   0.842   7.894 -0.4337  0.7669  0.4075
 9324SOL    HW139605   0.397   0.850   7.924  0.2708  1.3568  2.3667
 9324SOL    HW239606   0.529   0.846   7.980  1.5261  1.2870 -0.5680
 9325SOL     OW39607   1.017   3.662   6.119 -0.6100  0.4896 -0.1044
 9325SOL    HW139608   1.026   3.675   6.025  1.8327  0.5285  0.1333
 9325SOL    HW239609   0.952   3.727   6.145 -0.8437  0.5497 -0.8459
 9326SOL     OW39610   2.356   2.997  12.977 -0.0437  0.0275 -0.0217
 9326SOL    HW139611   2.358   3.058  13.050  0.2372  0.5666 -0.4720
 9326SOL    HW239612   2.326   3.048  12.901 -0.2987  2.0147  1.4139
 9327SOL     OW39613   4.459   1.887   5.707  0.5449  0.5131  0.7341
 9327SOL    HW139614   4.458   1.864   5.800  0.1147 -1.1478  0.3140
 9327SOL    HW239615   4.518   1.962   5.715  0.9007  0.4756 -1.4277
 9328SOL     OW39616   4.061   1.818   7.466 -0.7559 -0.3881 -0.2164
 9328SOL    HW139617   4.051   1.726   7.492 -0.7175  0.5087  2.9766
 9328SOL    HW239618   3.981   1.853   7.505  0.1192  0.2381  0.9963
 9329SOL     OW39619   0.647   2.226  16.838  0.4483 -0.2659  0.0176
 9329SOL    HW139620   0.619   2.173  16.913 -1.5388  0.4504 -0.2257
 9329SOL    HW239621   0.701   2.284  16.893 -1.2347 -0.4990  1.9135
 9330SOL     OW39622   2.084   1.836  14.432  0.3208 -0.1293 -0.1928
 9330SOL    HW139623   1.994   1.807  14.446  0.0159  0.2225 -1.4887
 9330SOL    HW239624   2.113   1.797  14.350 -1.3504  0.1634 -0.9108
 9331SOL     OW39625   2.352   0.819   4.186  0.0140  0.1204  0.1440
 9331SOL    HW139626   2.295   0.890   4.158 -0.0123 -0.4189 -1.1652
 9331SOL    HW239627   2.410   0.876   4.237  0.0396 -1.6525  2.1176
 9332SOL     OW39628   4.325   2.207   5.407  0.1454  0.0133 -0.3648
 9332SOL    HW139629   4.335   2.128   5.461  1.6380  0.1040 -0.4961
 9332SOL    HW239630   4.350   2.271   5.474  0.1483  1.9809 -2.2420
 9333SOL     OW39631   4.652   3.839   3.873 -0.1321 -0.3329  0.0568
 9333SOL    HW139632   4.617   3.797   3.952 -0.7164 -1.6349 -0.8871
 9333SOL    HW239633   4.637   3.770   3.808 -1.7373 -0.8446  0.9667
 9334SOL     OW39634   2.372   3.350   9.274  1.0513  0.0438 -0.5488
 9334SOL    HW139635   2.369   3.352   9.369 -1.1133  0.5722 -0.6178
 9334SOL    HW239636   2.465   3.345   9.251  1.1911  3.7126 -0.7732
 9335SOL     OW39637   0.400   2.869   5.051 -0.3476 -0.4245  0.0098
 9335SOL    HW139638   0.391   2.895   4.959  2.2100 -0.7179 -0.3296
 9335SOL    HW239639   0.476   2.926   5.064 -1.0711  0.3630  0.8396
 9336SOL     OW39640   3.249   0.968   7.230 -0.3623 -0.3142 -0.3997
 9336SOL    HW139641   3.276   1.044   7.179  0.9668 -0.4048  0.1743
 9336SOL    HW239642   3.219   1.006   7.313 -1.4477  0.3916 -1.1213
 9337SOL     OW39643   4.148   1.826   4.300  0.2132  0.1289 -0.1835
 9337SOL    HW139644   4.202   1.841   4.223 -1.4054  2.3806 -0.9082
 9337SOL    HW239645   4.157   1.734   4.323  0.0117 -0.4791 -2.5279
 9338SOL     OW39646   0.265   0.133   6.383  0.0311 -0.3048 -0.1692
 9338SOL    HW139647   0.238   0.183   6.460 -0.9573  0.7210 -1.1754
 9338SOL    HW239648   0.330   0.191   6.343 -0.6374  0.8616  0.4348
 9339SOL     OW39649   0.325   0.796   6.513  0.4021  0.0029 -0.1643
 9339SOL    HW139650   0.291   0.885   6.524  3.1767  1.1502 -0.8165
 9339SOL    HW239651   0.265   0.737   6.558 -0.0722  1.3146  0.9221
 9340SOL     OW39652   0.713   3.329   8.282  0.5050  0.6887  0.2688
 9340SOL    HW139653   0.625   3.358   8.309  0.6889 -0.7195  2.4034
 9340SOL    HW239654   0.757   3.395   8.336  3.0143  1.1409 -2.3189
 9341SOL     OW39655   1.692   3.907   7.867 -0.3073 -0.1379  0.0298
 9341SOL    HW139656   1.787   3.914   7.881 -0.3653  0.8564 -0.0578
 9341SOL    HW239657   1.683   3.813   7.848  0.2268 -0.1041 -0.4029
 9342SOL     OW39658   0.603   2.061   2.515 -0.0905  0.1551 -0.5176
 9342SOL    HW139659   0.586   1.995   2.448 -1.5141  0.3970 -0.3833
 9342SOL    HW239660   0.632   2.136   2.463 -2.8317  1.6946  0.2194
 9343SOL     OW39661   0.361   3.729   0.807  0.0300 -0.0239 -0.5157
 9343SOL    HW139662   0.319   3.643   0.798  0.7748 -0.3732 -0.6298
 9343SOL    HW239663   0.412   3.722   0.888 -2.2845  1.0365  1.0370
 9344SOL     OW39664   1.111   4.511   2.690 -0.2166 -0.3580  0.1822
 9344SOL    HW139665   1.035   4.508   2.633  0.7643  1.9899 -1.2880
 9344SOL    HW239666   1.095   4.436   2.747 -1.6017  0.5169  0.9272
 9345SOL     OW39667   0.185   3.704   9.503 -0.0295 -0.0713  0.3868
 9345SOL    HW139668   0.237   3.711   9.423 -0.0898 -0.9307  0.2718
 9345SOL    HW239669   0.211   3.620   9.539 -0.5728 -0.0147  0.8961
 9346SOL     OW39670   4.669   3.683   1.775  0.2673  0.4445 -0.0846
 9346SOL    HW139671   4.615   3.749   1.818  0.6821 -0.3369  1.6410
 9346SOL    HW239672   4.611   3.608   1.781  0.4685  0.2551 -0.5401
 9347SOL     OW39673   4.110   3.080   8.763 -0.0807  0.1335  0.5468
 9347SOL    HW139674   4.188   3.134   8.781 -0.4047  1.0692 -0.8581
 9347SOL    HW239675   4.089   3.060   8.855 -0.8764 -0.8913  0.1422
 9348SOL     OW39676   4.452   4.313   7.265 -0.0476 -0.0310  0.4973
 9348SOL    HW139677   4.357   4.310   7.277  0.0377  2.0328  1.5762
 9348SOL    HW239678   4.472   4.235   7.212  1.6529 -0.9272  2.4559
 9349SOL     OW39679   1.465   3.634   2.972 -0.2222  0.1135  0.8947
 9349SOL    HW139680   1.392   3.582   2.939 -0.3305  1.2266 -0.6168
 9349SOL    HW239681   1.486   3.683   2.892 -0.1595 -1.5583 -0.1065
 9350SOL     OW39682   0.475   4.093  15.994 -0.4703  0.5107  0.3754
 9350SOL    HW139683   0.565   4.119  16.015 -0.3802  0.4781  0.0195
 9350SOL    HW239684   0.493   4.007  15.956  0.0104  0.7766  0.0118
 9351SOL     OW39685   4.555   3.915  15.464 -0.4291 -0.4336  0.0400
 9351SOL    HW139686   4.623   3.849  15.473  0.9549  0.7041 -2.2728
 9351SOL    HW239687   4.616   3.988  15.456 -0.3403 -0.6820 -1.4633
 9352SOL     OW39688   2.185   0.315   4.743 -0.7598 -0.3129  0.2062
 9352SOL    HW139689   2.136   0.268   4.810 -1.3376 -0.4077 -0.2874
 9352SOL    HW239690   2.270   0.278   4.768 -0.8795 -0.5544  0.2501
 9353SOL     OW39691   4.130   2.352  15.381  0.0554  1.3614 -0.3220
 9353SOL    HW139692   4.196   2.388  15.441  0.2922  1.7430 -0.8044
 9353SOL    HW239693   4.144   2.415  15.310  1.7353  1.8946  0.4593
 9354SOL     OW39694   3.133   1.116   4.492  0.1948  0.0661  0.1905
 9354SOL    HW139695   3.112   1.023   4.483  1.1711 -0.0565 -0.9544
 9354SOL    HW239696   3.226   1.105   4.510  0.4554  0.5233 -0.8567
 9355SOL     OW39697   3.797   4.288   6.580 -0.2587 -0.3281 -0.0820
 9355SOL    HW139698   3.820   4.283   6.487  0.4652  0.7936  0.0456
 9355SOL    HW239699   3.804   4.383   6.583  2.1486 -0.4904 -0.6347
 9356SOL     OW39700   0.419   2.112   3.666  0.4662  0.2897  0.5139
 9356SOL    HW139701   0.400   2.021   3.685 -0.0083 -0.6891 -4.7162
 9356SOL    HW239702   0.380   2.114   3.579 -0.2209  2.2243  0.8600
 9357SOL     OW39703   4.375   1.231  13.173  0.0278 -0.3928  0.5226
 9357SOL    HW139704   4.349   1.312  13.129  1.2779 -0.4166 -0.2653
 9357SOL    HW239705   4.460   1.260  13.207 -0.0874 -0.4991  0.9059
 9358SOL     OW39706   2.081   4.585  11.762 -0.0003 -0.7581  0.2222
 9358SOL    HW139707   2.141   4.562  11.691  0.2627 -2.8742  1.1350
 9358SOL    HW239708   2.006   4.541  11.723 -0.4464  0.3885 -0.2223
 9359SOL     OW39709   0.587   4.644   3.675  0.0879 -0.0615 -0.3264
 9359SOL    HW139710   0.656   4.640   3.608  1.4912  0.9229  1.0459
 9359SOL    HW239711   0.600   4.558   3.716 -3.2058 -0.5418 -0.3359
 9360SOL     OW39712   1.290   3.050   7.612  0.0511 -0.4007 -0.0300
 9360SOL    HW139713   1.365   2.998   7.584 -1.1290 -2.0273 -0.1464
 9360SOL    HW239714   1.212   3.011   7.572 -2.3239  2.3278  1.9470
 9361SOL     OW39715   2.629   2.079   5.896  0.5473 -0.6005  0.1095
 9361SOL    HW139716   2.705   2.045   5.849 -1.1713  1.3978 -4.0753
 9361SOL    HW239717   2.647   2.058   5.988  0.2092 -0.7582  0.1421
 9362SOL     OW39718   1.969   2.089   2.299 -0.1417 -0.0981  0.1709
 9362SOL    HW139719   2.004   2.035   2.228  0.3865  1.1661 -0.5374
 9362SOL    HW239720   1.944   2.027   2.367  2.7254  0.0994  1.3841
 9363SOL     OW39721   4.191   2.893   5.505  0.2403 -0.0169 -0.0614
 9363SOL    HW139722   4.168   2.900   5.413  1.9094 -1.8988 -0.6121
 9363SOL    HW239723   4.227   2.805   5.509  2.7079  0.9903  0.1811
 9364SOL     OW39724   1.223   2.558  10.275  0.0298 -0.1424 -0.7503
 9364SOL    HW139725   1.203   2.545  10.368  1.1583  1.8957 -0.2132
 9364SOL    HW239726   1.140   2.528  10.239 -0.5347 -1.4549  1.6416
 9365SOL     OW39727   1.541   3.327   5.464  0.1997  0.1324  0.2497
 9365SOL    HW139728   1.578   3.416   5.472  1.6797 -0.3535 -1.1694
 9365SOL    HW239729   1.621   3.275   5.474  0.2523 -0.2521 -2.2683
 9366SOL     OW39730   4.626   2.878   8.234  0.3967  0.5619 -0.3175
 9366SOL    HW139731   4.582   2.793   8.232 -0.2446  0.8448  1.6328
 9366SOL    HW239732   4.708   2.838   8.263 -0.4848 -2.1182 -1.5210
 9367SOL     OW39733   1.212   3.310   7.880  0.1453 -0.5936  0.2103
 9367SOL    HW139734   1.306   3.297   7.871  0.1932 -0.1160  0.0052
 9367SOL    HW239735   1.183   3.225   7.847 -1.5569  0.6741 -1.5908
 9368SOL     OW39736   1.815   0.953  14.885 -0.2940  0.1853  0.2444
 9368SOL    HW139737   1.764   0.954  14.804  1.4972  2.2688 -0.8478
 9368SOL    HW239738   1.891   1.009  14.870  1.3082 -1.9565  0.4746
 9369SOL     OW39739   4.718   0.035  11.908  0.4541  0.3234 -0.4803
 9369SOL    HW139740   0.057   4.723  11.948 -0.3103 -0.9081 -0.5262
 9369SOL    HW239741   0.025   0.063  11.827  0.3168 -0.1581 -0.7182
 9370SOL     OW39742   0.825   2.659  12.509 -0.3815  0.4953 -0.1722
 9370SOL    HW139743   0.733   2.670  12.486 -0.6622 -0.6081  0.3834
 9370SOL    HW239744   0.860   2.624  12.427 -0.8287  1.0410 -0.5925
 9371SOL     OW39745   3.704   3.708  10.873 -0.7868 -0.2652  0.3886
 9371SOL    HW139746   3.662   3.776  10.820 -1.3445 -0.6089  0.3831
 9371SOL    HW239747   3.669   3.732  10.960  0.7891 -0.1767  0.9917
 9372SOL     OW39748   4.146   1.029   4.795 -0.8333  0.5983 -0.1716
 9372SOL    HW139749   4.171   1.101   4.854  0.6112  0.3934 -0.5310
 9372SOL    HW239750   4.232   1.002   4.764  0.1524  0.4933  2.6275
 9373SOL     OW39751   1.315   2.305   7.151  0.4291  0.3344  0.4490
 9373SOL    HW139752   1.333   2.375   7.089 -1.6901  0.1009 -0.4364
 9373SOL    HW239753   1.360   2.229   7.115 -2.1777 -1.3467  0.7316
 9374SOL     OW39754   3.883   0.130   4.175 -0.0540  0.1966 -0.3874
 9374SOL    HW139755   3.959   0.181   4.203 -1.1715  0.7517  1.6337
 9374SOL    HW239756   3.902   0.099   4.087 -1.1545 -0.6975 -0.3044
 9375SOL     OW39757   3.838   0.391   9.155  0.4966 -0.2102  0.1827
 9375SOL    HW139758   3.753   0.402   9.112  0.0372  0.4805  1.2659
 9375SOL    HW239759   3.892   0.346   9.090 -0.7131 -0.1159 -0.8954
 9376SOL     OW39760   2.986   2.682   8.466 -0.5592  0.7895  0.0001
 9376SOL    HW139761   2.976   2.596   8.425 -2.6941  1.2462 -0.4122
 9376SOL    HW239762   3.054   2.668   8.531 -0.1745  0.9337 -0.3680
 9377SOL     OW39763   0.237   2.128   8.204 -0.2628  0.0046 -0.2256
 9377SOL    HW139764   0.264   2.184   8.277  1.3772 -0.3222 -0.5651
 9377SOL    HW239765   0.189   2.066   8.259 -0.0538  0.8623  0.9413
 9378SOL     OW39766   2.531   4.155  10.185  0.0854 -0.2582 -0.4199
 9378SOL    HW139767   2.483   4.201  10.116  2.8880  1.4379 -1.2218
 9378SOL    HW239768   2.576   4.230  10.225  2.6245 -1.7307 -0.4693
 9379SOL     OW39769   4.104   2.005   2.068  0.1995 -0.5739  0.1281
 9379SOL    HW139770   4.130   1.990   2.159 -0.2071 -1.1484  0.1447
 9379SOL    HW239771   4.159   2.083   2.056  0.0036 -0.3030  1.0244
 9380SOL     OW39772   3.303   3.210   3.405  0.0340  0.7375 -0.9076
 9380SOL    HW139773   3.324   3.168   3.322 -1.1208  1.2105 -1.4346
 9380SOL    HW239774   3.212   3.234   3.385 -0.6527 -0.1512  1.1593
 9381SOL     OW39775   2.559   4.112  17.303  0.0890 -0.2535 -0.5785
 9381SOL    HW139776   2.494   4.151  17.361 -0.0690 -2.2646  0.5845
 9381SOL    HW239777   2.504   4.059  17.246 -1.0369  1.5688 -1.1848
 9382SOL     OW39778   4.047   2.241   2.543 -0.3235 -0.2891 -0.3290
 9382SOL    HW139779   3.957   2.274   2.542 -0.3210 -0.1607  3.9073
 9382SOL    HW239780   4.095   2.283   2.614 -0.8824  1.1617 -0.8175
 9383SOL     OW39781   1.576   2.377   5.543 -0.2522 -0.7268  0.2034
 9383SOL    HW139782   1.562   2.469   5.517 -0.5806 -1.1022 -0.9521
 9383SOL    HW239783   1.483   2.355   5.543 -0.0975 -1.3530 -1.0337
 9384SOL     OW39784   2.117   1.281   5.741  0.0398 -0.5358 -0.2164
 9384SOL    HW139785   2.048   1.215   5.751  0.6711 -1.1012  0.3485
 9384SOL    HW239786   2.070   1.336   5.678 -0.0926 -0.0104  0.3356
 9385SOL     OW39787   2.798   2.446   6.529  0.0181 -0.8162 -0.0612
 9385SOL    HW139788   2.812   2.524   6.474  0.0490 -1.7958 -1.4298
 9385SOL    HW239789   2.884   2.428   6.566  0.5386 -2.4697 -2.0760
 9386SOL     OW39790   1.919   3.515   6.691  0.0210 -0.4375 -0.0996
 9386SOL    HW139791   1.903   3.608   6.672 -0.2201 -0.5794 -0.5902
 9386SOL    HW239792   1.925   3.526   6.786  1.8338  1.8504 -0.4806
 9387SOL     OW39793   0.001   3.054  14.399  0.2232 -0.0935 -0.1537
 9387SOL    HW139794   0.073   3.059  14.463  1.5419  0.2587 -1.6492
 9387SOL    HW239795   0.002   3.148  14.378  0.2950  0.1980  1.1301
 9388SOL     OW39796   2.137   0.304   7.421  0.4687  0.3029 -0.1302
 9388SOL    HW139797   2.097   0.386   7.451  0.1980  0.2957 -0.4784
 9388SOL    HW239798   2.229   0.321   7.443  0.6157 -0.5050 -0.1259
 9389SOL     OW39799   4.697   1.520   6.450 -0.1563 -0.1337  0.1441
 9389SOL    HW139800   4.634   1.450   6.433 -2.0514  1.6367 -0.1480
 9389SOL    HW239801   4.664   1.528   6.540 -0.7536  1.9127 -0.2612
 9390SOL     OW39802   2.007   3.193   5.410 -0.1558 -0.1903 -0.0470
 9390SOL    HW139803   1.998   3.098   5.412 -0.4733 -0.1545  0.1659
 9390SOL    HW239804   2.051   3.204   5.326 -0.1154 -1.7600 -0.2304
 9391SOL     OW39805   1.787   3.990   4.288  0.0753 -0.7147 -0.1661
 9391SOL    HW139806   1.876   3.990   4.253  0.6150  0.1935  1.1743
 9391SOL    HW239807   1.767   4.083   4.288  0.4754 -0.6266 -2.3008
 9392SOL     OW39808   1.394   0.103   0.736  0.0628 -0.6250  0.5028
 9392SOL    HW139809   1.299   0.109   0.735  0.0094 -1.0410  2.4564
 9392SOL    HW239810   1.415   0.045   0.663  0.5226  0.4713 -0.2340
 9393SOL     OW39811   1.673   4.509   4.672 -0.0908  0.3769 -0.2195
 9393SOL    HW139812   1.609   4.437   4.667 -1.2237  1.5082 -2.1844
 9393SOL    HW239813   1.761   4.472   4.663  0.1804  0.8075  0.6967
 9394SOL     OW39814   3.160   2.299   9.609  0.9345 -0.3627 -0.3368
 9394SOL    HW139815   3.204   2.381   9.586  1.4314 -0.9781 -1.5474
 9394SOL    HW239816   3.132   2.274   9.521 -1.2520 -0.3265  0.3452
 9395SOL     OW39817   2.632   0.809  16.697 -0.2603 -0.1723 -0.0049
 9395SOL    HW139818   2.573   0.835  16.768  0.5280 -0.0620  0.6036
 9395SOL    HW239819   2.603   0.869  16.628  0.5003 -1.8454 -1.7663
 9396SOL     OW39820   2.489   2.140   6.625  0.3511  0.4688  0.1817
 9396SOL    HW139821   2.570   2.094   6.601  0.1558  0.0884  0.2471
 9396SOL    HW239822   2.426   2.069   6.640 -0.1850  0.2319 -3.1454
 9397SOL     OW39823   1.753   0.497  14.126 -0.2088 -0.0617 -0.3087
 9397SOL    HW139824   1.726   0.517  14.216 -0.1531 -0.7062 -0.1464
 9397SOL    HW239825   1.786   0.576  14.085 -1.2314 -0.4718 -1.9280
 9398SOL     OW39826   2.203   0.068  15.252  0.0893  0.2883  0.7547
 9398SOL    HW139827   2.237   4.726  15.207 -0.2185  0.3999  0.3299
 9398SOL    HW239828   2.278   0.129  15.251 -0.3385  0.8156  0.7096
 9399SOL     OW39829   2.509   0.867   5.801  0.1907  0.3225 -0.4613
 9399SOL    HW139830   2.480   0.789   5.847  0.9793  0.0147 -0.4841
 9399SOL    HW239831   2.443   0.934   5.816  0.4863  0.7551 -1.0944
 9400SOL     OW39832   4.207   1.577   4.292 -0.0098 -0.3296  0.0050
 9400SOL    HW139833   4.300   1.557   4.299  0.6363  2.4466 -0.8151
 9400SOL    HW239834   4.204   1.615   4.204 -2.0790 -1.0370 -0.2408
 9401SOL     OW39835   4.216   0.708   8.041  0.6576 -0.3159  0.2130
 9401SOL    HW139836   4.156   0.635   8.028  2.3698 -1.9411  1.3610
 9401SOL    HW239837   4.179   0.773   7.981  0.3351 -1.2668 -0.6118
 9402SOL     OW39838   4.065   3.354   1.725 -0.6185 -0.7531  0.0110
 9402SOL    HW139839   3.996   3.418   1.705 -3.3177 -3.9368 -0.7946
 9402SOL    HW239840   4.069   3.360   1.821 -0.3878 -1.5253  0.0439
 9403SOL     OW39841   2.468   0.799   6.085  0.2211 -0.4116 -0.1809
 9403SOL    HW139842   2.386   0.849   6.081 -0.9194 -2.0568  2.4931
 9403SOL    HW239843   2.459   0.748   6.165 -0.8424 -0.3839 -0.2831
 9404SOL     OW39844   4.711   0.163   8.372  0.4767  0.2740  0.6169
 9404SOL    HW139845   4.684   0.073   8.390  1.0640 -0.1895 -0.7828
 9404SOL    HW239846   4.729   0.190   8.462 -1.4093 -0.4368  1.2008
 9405SOL     OW39847   1.717   2.340   5.299 -0.3848  0.1445  0.6605
 9405SOL    HW139848   1.769   2.419   5.313  1.5861 -1.3954  2.0510
 9405SOL    HW239849   1.648   2.356   5.364  0.0003 -0.3179  1.1780
 9406SOL     OW39850   3.747   0.346   6.124 -0.4410  0.6749 -0.1523
 9406SOL    HW139851   3.833   0.361   6.085 -0.0882 -1.1630 -0.0585
 9406SOL    HW239852   3.754   0.335   6.219 -0.2431  0.6321 -0.1710
 9407SOL     OW39853   3.722   3.016   3.700  0.1360 -0.3874  0.0342
 9407SOL    HW139854   3.771   2.936   3.717  1.7159  0.7871  1.0632
 9407SOL    HW239855   3.789   3.068   3.744  1.2478 -0.3699 -1.6616
 9408SOL     OW39856   0.967   2.999   8.710 -0.4446 -0.3958  0.7018
 9408SOL    HW139857   1.023   3.057   8.760  0.7963 -1.4381  0.5335
 9408SOL    HW239858   0.949   3.042   8.626 -1.6776 -2.2534  0.0047
 9409SOL     OW39859   2.829   0.313   2.029  0.7454  0.6312  0.0779
 9409SOL    HW139860   2.899   0.378   2.038 -0.4913  2.0508 -0.5476
 9409SOL    HW239861   2.789   0.336   1.945 -0.3821 -0.4285  0.3392
 9410SOL     OW39862   2.131   4.330   4.072  0.1881  0.7273 -0.2330
 9410SOL    HW139863   2.144   4.242   4.108  1.8992  0.1449 -2.2771
 9410SOL    HW239864   2.206   4.370   4.116 -0.2766  1.5382 -0.1860
 9411SOL     OW39865   4.423   3.575  10.482  0.1129  0.5178  0.2865
 9411SOL    HW139866   4.378   3.633  10.543  1.2832  0.8448  0.8413
 9411SOL    HW239867   4.455   3.642  10.421 -0.0425 -1.3100 -1.7820
 9412SOL     OW39868   2.457   4.285   2.317  0.1988 -0.2602 -0.1202
 9412SOL    HW139869   2.544   4.298   2.279  0.1568  0.3342 -0.0089
 9412SOL    HW239870   2.480   4.275   2.409  3.0971 -0.0894 -0.8048
 9413SOL     OW39871   1.609   0.970  17.721  0.1008  0.2815  0.1360
 9413SOL    HW139872   1.674   0.908  17.687 -0.2106 -0.1467  0.3294
 9413SOL    HW239873   1.569   0.912   0.046  0.5292  0.1481  0.2859
 9414SOL     OW39874   4.486   3.473   3.413  0.8393 -0.3209 -0.1150
 9414SOL    HW139875   4.446   3.528   3.481 -0.0572 -2.3498  0.9881
 9414SOL    HW239876   4.544   3.544   3.383 -0.2367  0.5423 -0.1661
 9415SOL     OW39877   1.511   1.656   2.991  0.2494  0.4332 -0.5279
 9415SOL    HW139878   1.532   1.665   2.898  0.5984 -1.5086 -0.6193
 9415SOL    HW239879   1.574   1.588   3.015  0.4481 -0.1946 -2.8436
 9416SOL     OW39880   4.491   1.239   7.904  0.5066  0.3046 -0.3807
 9416SOL    HW139881   4.488   1.177   7.977  0.8984 -0.0975 -0.7016
 9416SOL    HW239882   4.399   1.252   7.881  0.0915  1.5617  1.9655
 9417SOL     OW39883   4.214   4.159  12.175 -0.4331 -0.2891 -0.0802
 9417SOL    HW139884   4.265   4.091  12.130 -0.8188 -0.1222 -0.7615
 9417SOL    HW239885   4.283   4.202  12.225  1.2812 -2.7790 -0.2835
 9418SOL     OW39886   2.998   1.985   3.310 -0.3759  0.0244  0.0713
 9418SOL    HW139887   2.989   2.019   3.399 -1.7697  1.2388 -0.5218
 9418SOL    HW239888   3.046   1.905   3.329 -1.3503 -0.6495 -0.3206
 9419SOL     OW39889   1.779   0.849  11.970 -0.2264 -0.6753 -0.0413
 9419SOL    HW139890   1.867   0.819  11.945 -0.4234 -1.8998  0.7090
 9419SOL    HW239891   1.719   0.800  11.915  0.9985 -2.9745  0.6338
 9420SOL     OW39892   1.724   2.529   7.097 -0.4522  0.3144 -0.3099
 9420SOL    HW139893   1.745   2.581   7.175  1.9727 -1.0012 -0.1016
 9420SOL    HW239894   1.674   2.595   7.049 -1.5284 -0.2434  0.0388
 9421SOL     OW39895   1.313   3.926   4.946  0.1175 -0.1253 -0.1944
 9421SOL    HW139896   1.389   3.905   5.000 -0.6487  1.2784  1.4031
 9421SOL    HW239897   1.273   3.839   4.939 -1.4245  0.6619 -1.0989
 9422SOL     OW39898   3.610   0.906  15.978 -0.4148 -0.0140  0.1849
 9422SOL    HW139899   3.530   0.858  16.001 -0.6665  1.0943  1.6382
 9422SOL    HW239900   3.663   0.827  15.980 -0.0237  0.2487  0.0421
 9423SOL     OW39901   1.638   0.173   4.368  0.3777  0.1505  0.2064
 9423SOL    HW139902   1.556   0.144   4.407  0.3488  0.1693  0.1600
 9423SOL    HW239903   1.630   0.124   4.286 -0.6376  0.7845 -0.0696
 9424SOL     OW39904   1.251   3.841   3.485 -0.3190  1.3011 -0.3533
 9424SOL    HW139905   1.297   3.907   3.434  0.9755  0.0844 -0.7894
 9424SOL    HW239906   1.166   3.879   3.465  0.4153  1.7878 -2.4850
 9425SOL     OW39907   2.576   4.264   4.649  0.2119  0.5611 -0.2680
 9425SOL    HW139908   2.615   4.188   4.691 -3.0766 -0.1581  1.5612
 9425SOL    HW239909   2.585   4.257   4.554 -0.9389 -3.1969 -0.1025
 9426SOL     OW39910   2.371   2.792  13.173 -0.1592 -0.0794 -0.1561
 9426SOL    HW139911   2.278   2.788  13.196 -0.4813  1.5128 -1.1952
 9426SOL    HW239912   2.375   2.853  13.099 -2.9289 -0.5675 -0.7401
 9427SOL     OW39913   4.365   3.177   6.624 -0.1379  0.0281 -0.2550
 9427SOL    HW139914   4.269   3.170   6.631 -0.3311 -0.8195 -3.7019
 9427SOL    HW239915   4.370   3.224   6.541  1.5633 -1.6809 -1.1281
 9428SOL     OW39916   1.661   2.440  11.161 -0.0990  1.0248 -0.3554
 9428SOL    HW139917   1.587   2.453  11.221  1.0799  1.7810  0.9201
 9428SOL    HW239918   1.730   2.494  11.198  0.4859 -0.5040  0.7909
 9429SOL     OW39919   3.119   2.731   6.841  0.1577  0.7059 -0.6467
 9429SOL    HW139920   3.184   2.663   6.859  0.1149  0.3991 -1.6506
 9429SOL    HW239921   3.064   2.678   6.784  0.9205 -0.8561  0.0746
 9430SOL     OW39922   3.439   0.834   9.691 -0.1319 -0.1750 -0.3172
 9430SOL    HW139923   3.484   0.751   9.676 -2.3442 -1.0790 -1.8651
 9430SOL    HW239924   3.430   0.857   9.598  2.1837 -0.0404 -0.5170
 9431SOL     OW39925   3.647   3.190   3.008  0.5290  0.0620  0.1626
 9431SOL    HW139926   3.609   3.129   3.071  0.0775 -0.2224 -0.3831
 9431SOL    HW239927   3.733   3.218   3.039  1.1724 -1.8376  0.0498
 9432SOL     OW39928   4.711   1.382   9.710  0.0969  0.1297 -0.3402
 9432SOL    HW139929   4.731   1.418   9.796  1.4766  0.9861 -1.0235
 9432SOL    HW239930   4.707   1.287   9.718 -0.1425  0.1987  0.3582
 9433SOL     OW39931   2.062   3.269   6.362  0.1700  0.0563 -0.0012
 9433SOL    HW139932   2.148   3.310   6.362 -1.2355  3.0726 -0.7126
 9433SOL    HW239933   2.058   3.234   6.273 -0.0672 -1.4072  0.5935
 9434SOL     OW39934   3.629   4.659   5.405  0.0050 -0.5803  0.2262
 9434SOL    HW139935   3.661   4.717   5.474  0.0118 -1.7329  1.2002
 9434SOL    HW239936   3.699   4.596   5.387 -0.3160 -0.8333 -0.1291
 9435SOL     OW39937   1.808   3.500  11.392 -0.0649  0.2034  0.3398
 9435SOL    HW139938   1.900   3.478  11.376 -0.5171 -0.7902 -0.8737
 9435SOL    HW239939   1.800   3.530  11.302 -1.8735 -0.1465  0.3881
 9436SOL     OW39940   3.017   4.478   4.550 -0.1977  0.6310 -0.0572
 9436SOL    HW139941   3.091   4.512   4.501 -0.2692  3.3553  1.7354
 9436SOL    HW239942   2.976   4.559   4.579  3.8182  1.9554  1.8774
 9437SOL     OW39943   4.605   2.051   4.934  0.0792  0.0413  0.0176
 9437SOL    HW139944   4.595   2.142   4.960 -1.8257 -0.4201  0.9806
 9437SOL    HW239945   4.659   2.018   5.006 -2.2441 -2.5243  0.6038
 9438SOL     OW39946   2.918   3.191   8.378 -0.5398 -0.2731  0.1438
 9438SOL    HW139947   2.910   3.097   8.395 -0.1223 -0.4301 -0.5360
 9438SOL    HW239948   3.004   3.194   8.337 -0.6889  0.0030 -0.1526
 9439SOL     OW39949   1.876   2.563   8.167  0.0029  0.2640  0.1057
 9439SOL    HW139950   1.890   2.628   8.098  1.8262  0.3131  0.5462
 9439SOL    HW239951   1.934   2.494   8.135  0.1810 -0.0526  1.1206
 9440SOL     OW39952   2.778   2.974   8.644 -0.0384  0.3536 -0.3198
 9440SOL    HW139953   2.710   3.027   8.603 -0.5356 -0.6671 -0.8093
 9440SOL    HW239954   2.747   2.890   8.609  0.8609 -1.4886  3.2539
 9441SOL     OW39955   0.425   3.412  15.966  0.2574  0.2181 -0.6958
 9441SOL    HW139956   0.407   3.334  15.914 -2.0959 -1.0822  2.0370
 9441SOL    HW239957   0.511   3.428  15.928 -0.1753  1.0106 -1.3118
 9442SOL     OW39958   3.991   3.961   3.908 -0.5737 -0.7392 -0.4975
 9442SOL    HW139959   3.987   4.045   3.953  1.2008 -0.8010 -0.2539
 9442SOL    HW239960   3.941   3.969   3.827  0.4938  0.3431 -1.0472
 9443SOL     OW39961   0.435   0.644   5.555  0.4836  0.3537 -0.3324
 9443SOL    HW139962   0.453   0.664   5.647  0.5134  1.5956 -0.6063
 9443SOL    HW239963   0.381   0.565   5.568  1.8532 -0.7011 -1.1127
 9444SOL     OW39964   0.379   4.175  11.068 -0.0051 -0.3844  0.0583
 9444SOL    HW139965   0.457   4.199  11.018  0.6207 -1.0439  0.7052
 9444SOL    HW239966   0.380   4.250  11.128 -1.3565  1.6548 -2.4773
 9445SOL     OW39967   2.172   0.153  14.772 -0.2003  0.3097  0.0252
 9445SOL    HW139968   2.224   0.076  14.748 -1.2237 -0.4769  0.3004
 9445SOL    HW239969   2.113   0.123  14.841  1.7267 -0.2537  1.4397
 9446SOL     OW39970   0.773   0.650  12.780  0.1536 -0.5797  0.2518
 9446SOL    HW139971   0.865   0.653  12.806  0.0878 -2.4570  0.7189
 9446SOL    HW239972   0.768   0.719  12.714 -0.6607 -2.1650 -1.3319
 9447SOL     OW39973   2.855   2.518   2.420  0.1342  0.2370  0.3694
 9447SOL    HW139974   2.871   2.571   2.342 -0.9532 -0.5191 -0.3693
 9447SOL    HW239975   2.813   2.585   2.474 -0.3631 -1.2056  1.7939
 9448SOL     OW39976   4.318   4.026   9.035  0.2656 -0.3861  0.4799
 9448SOL    HW139977   4.281   4.103   9.078  0.0112 -1.7761  2.7556
 9448SOL    HW239978   4.407   4.034   9.068  0.8716 -3.2562 -0.4452
 9449SOL     OW39979   0.680   2.866   4.086  0.0193 -0.8582 -0.4304
 9449SOL    HW139980   0.680   2.817   4.168  0.0163  0.8004  0.5630
 9449SOL    HW239981   0.773   2.882   4.071 -0.3680 -0.5495 -2.5031
 9450SOL     OW39982   3.826   0.190  15.222 -0.4861  0.1776  0.9617
 9450SOL    HW139983   3.890   0.120  15.208  1.0136  1.7911 -0.2745
 9450SOL    HW239984   3.743   0.141  15.222  0.4304 -1.4065  0.3245
 9451SOL     OW39985   2.852   1.270   4.548  0.0958 -0.2060 -0.2566
 9451SOL    HW139986   2.758   1.252   4.539  0.3540 -2.1468  0.9270
 9451SOL    HW239987   2.892   1.223   4.474 -0.9240  0.0192 -0.9607
 9452SOL     OW39988   0.287   4.464  10.984 -0.2312  0.0878 -0.0743
 9452SOL    HW139989   0.280   4.505  10.898  1.7166  0.7630  0.1004
 9452SOL    HW239990   0.370   4.495  11.020 -1.2737  0.8479  1.6660
 9453SOL     OW39991   2.440   1.318   2.899 -0.5947  0.3033  0.2887
 9453SOL    HW139992   2.467   1.229   2.920 -0.9318  0.9303  3.4129
 9453SOL    HW239993   2.523   1.359   2.875 -0.9983  0.1999 -1.2360
 9454SOL     OW39994   2.740   3.810   5.283 -0.0428  0.2194 -0.3271
 9454SOL    HW139995   2.737   3.751   5.358 -0.1151  0.4062 -0.1835
 9454SOL    HW239996   2.808   3.774   5.226 -0.6429 -1.6878  0.1815
 9455SOL     OW39997   1.261   2.177   7.854  0.0446  0.2164 -0.0894
 9455SOL    HW139998   1.245   2.138   7.768  1.7095 -2.4196  0.7956
 9455SOL    HW239999   1.293   2.260   7.819  0.6084 -0.0256 -0.1468
 9456SOL     OW40000   1.958   0.197  12.046 -0.1277  0.2133  0.0467
 9456SOL    HW140001   1.913   0.154  11.974 -0.6505 -1.1703  1.2075
 9456SOL    HW240002   2.004   0.121  12.081  1.8329  2.8662  3.1947
 9457SOL     OW40003   4.114   0.797   8.282 -0.1711 -0.8441 -0.9015
 9457SOL    HW140004   4.134   0.880   8.238 -0.4868 -1.9591 -3.1345
 9457SOL    HW240005   4.170   0.739   8.230  0.4538  0.9863 -2.2575
 9458SOL     OW40006   2.188   4.164   2.353  0.3749  0.3466  0.0546
 9458SOL    HW140007   2.234   4.099   2.300 -2.2580 -0.7079 -0.9393
 9458SOL    HW240008   2.262   4.196   2.404 -0.1319 -1.2922  1.8161
 9459SOL     OW40009   2.817   3.807   2.421  0.1725  0.0106  0.1110
 9459SOL    HW140010   2.861   3.770   2.345  0.7618  0.7024  0.1246
 9459SOL    HW240011   2.771   3.730   2.455 -0.4323 -0.4606 -1.7351
 9460SOL     OW40012   4.423   2.782   6.111 -0.4155 -0.0073 -1.0938
 9460SOL    HW140013   4.454   2.872   6.121 -0.5802 -0.3147  2.2766
 9460SOL    HW240014   4.507   2.737   6.115 -0.2373  0.4240 -0.0064
 9461SOL     OW40015   4.724   4.621   2.186  0.0620 -0.1212  0.0578
 9461SOL    HW140016   0.071   4.574   2.203 -0.4036 -2.0091 -2.8255
 9461SOL    HW240017   4.666   4.570   2.242  0.5033  1.2171  1.7076
 9462SOL     OW40018   0.027   1.563  11.183  0.1841  0.0972 -0.6577
 9462SOL    HW140019   4.699   1.635  11.184  0.1081  0.0270 -0.3227
 9462SOL    HW240020   4.733   1.513  11.260  0.0139  1.0975 -0.0788
 9463SOL     OW40021   0.554   2.065  12.228  0.9143  0.1259  0.2599
 9463SOL    HW140022   0.565   2.055  12.133 -0.7577 -0.1722  0.0821
 9463SOL    HW240023   0.602   2.147  12.235  1.4031 -0.1864  0.5456
 9464SOL     OW40024   3.571   3.257   9.988 -0.7981 -0.1897  0.1450
 9464SOL    HW140025   3.600   3.231  10.075 -1.0579 -0.8239  0.0414
 9464SOL    HW240026   3.534   3.341  10.017  0.0859  0.6364 -1.0900
 9465SOL     OW40027   2.612   2.305   0.712  0.2097 -0.0861 -0.7970
 9465SOL    HW140028   2.636   2.394   0.737 -0.1554  0.1186 -1.1756
 9465SOL    HW240029   2.537   2.338   0.661  1.3973  0.9763 -1.8666
 9466SOL     OW40030   3.790   4.584  12.769  0.4330  0.3953 -0.3068
 9466SOL    HW140031   3.827   4.560  12.684  0.6854  0.6445 -0.2681
 9466SOL    HW240032   3.778   4.501  12.815 -1.0544  1.5980  1.4824
 9467SOL     OW40033   0.526   4.599   9.926  0.5889  0.3563 -0.4750
 9467SOL    HW140034   0.439   4.568   9.900 -0.4176  0.7939  2.3563
 9467SOL    HW240035   0.518   4.589  10.021 -1.8813  1.8539 -0.5311
 9468SOL     OW40036   0.165   4.691  15.922  0.2546 -0.1042  0.0511
 9468SOL    HW140037   0.156   4.602  15.891 -1.4947 -0.0821  0.4937
 9468SOL    HW240038   0.203   4.667  16.006 -0.8049  2.3229  1.2460
 9469SOL     OW40039   1.077   1.095   6.863 -0.8231 -0.0640  0.4545
 9469SOL    HW140040   1.075   1.190   6.867  1.6533 -0.0287  1.0483
 9469SOL    HW240041   1.004   1.076   6.922 -2.7634  1.2020 -1.5594
 9470SOL     OW40042   0.543   2.930   5.672  0.1719 -0.4992 -0.0128
 9470SOL    HW140043   0.603   3.000   5.643 -0.6665  0.3270  0.2671
 9470SOL    HW240044   0.542   2.947   5.766 -0.1815  0.0345 -0.1146
 9471SOL     OW40045   1.228   3.131   2.399 -0.1175  0.3917  0.1096
 9471SOL    HW140046   1.217   3.166   2.311  1.4248  0.0291 -0.2253
 9471SOL    HW240047   1.323   3.142   2.410  0.5633 -2.2553 -3.0164
 9472SOL     OW40048   0.180   1.281   0.222 -0.6949  0.1136  0.1655
 9472SOL    HW140049   0.111   1.344   0.244 -1.4380 -0.8487  0.6210
 9472SOL    HW240050   0.236   1.279   0.299  0.4378 -0.3789 -0.6754
 9473SOL     OW40051   1.108   3.779   9.303  0.1417  0.6065 -0.4049
 9473SOL    HW140052   1.158   3.858   9.326 -0.6920  0.8928  0.4175
 9473SOL    HW240053   1.047   3.820   9.242  1.0343  0.5517 -1.3250
 9474SOL     OW40054   3.194   3.015   6.432 -0.2691  0.0428  0.4319
 9474SOL    HW140055   3.179   3.109   6.423  2.8097  0.3815 -1.1910
 9474SOL    HW240056   3.145   2.991   6.511 -1.2794 -0.9858 -0.5045
 9475SOL     OW40057   1.355   3.128  16.746 -0.3764 -0.5417  0.5913
 9475SOL    HW140058   1.300   3.205  16.738  2.1315  0.9930 -1.7977
 9475SOL    HW240059   1.300   3.080  16.684  1.3102  1.4838 -2.4513
 9476SOL     OW40060   2.437   0.523   7.823 -0.3154  0.5309 -0.2333
 9476SOL    HW140061   2.459   0.437   7.859  2.0183  0.8457 -0.8759
 9476SOL    HW240062   2.345   0.522   7.797 -0.5253  1.2136  0.5016
 9477SOL     OW40063   4.612   2.881   7.058  0.3443 -0.0850 -0.3545
 9477SOL    HW140064   4.613   2.935   7.137  1.1142 -0.8729  0.1781
 9477SOL    HW240065   4.520   2.856   7.052  0.4948 -0.6522 -0.2730
 9478SOL     OW40066   4.594   1.272   6.376 -0.4268 -0.0267 -0.0008
 9478SOL    HW140067   4.610   1.320   6.295 -0.2813  0.3792  0.2673
 9478SOL    HW240068   4.500   1.261   6.359 -0.3434 -0.0386 -0.4462
 9479SOL     OW40069   4.146   0.180   1.595 -0.6052  0.0548  0.4679
 9479SOL    HW140070   4.204   0.164   1.521 -1.3273 -0.3153 -0.0237
 9479SOL    HW240071   4.160   0.275   1.597 -1.7892  0.2390  0.2919
 9480SOL     OW40072   4.080   3.658   6.856 -0.0811  0.0024 -0.0432
 9480SOL    HW140073   4.121   3.639   6.771  0.6721  0.5559  0.1987
 9480SOL    HW240074   4.126   3.595   6.912 -3.2781 -0.7304  1.7227
 9481SOL     OW40075   2.533   2.681   7.871  0.5349 -0.1384  0.1952
 9481SOL    HW140076   2.515   2.621   7.799  0.1973 -0.3646  0.4672
 9481SOL    HW240077   2.522   2.627   7.949  2.2150  0.7451  1.0541
 9482SOL     OW40078   0.948   1.364  10.434 -0.3089  0.4450  0.2934
 9482SOL    HW140079   0.934   1.459  10.439 -0.6665  0.4169 -0.2021
 9482SOL    HW240080   1.003   1.354  10.511 -0.8750  0.4924  0.7095
 9483SOL     OW40081   2.584   0.969  17.590  0.1907 -0.0365 -0.3550
 9483SOL    HW140082   2.581   0.952  17.684 -0.4353 -2.2931 -0.8071
 9483SOL    HW240083   2.614   1.060  17.585  2.4594 -0.8304 -1.1404
 9484SOL     OW40084   4.324   1.920   9.162  0.0258 -0.0695  0.2825
 9484SOL    HW140085   4.398   1.980   9.154  2.2326 -2.7707  0.5129
 9484SOL    HW240086   4.293   1.945   9.249 -0.9785  1.2497 -0.4397
 9485SOL     OW40087   1.627   0.709   8.578  0.7719 -0.2248 -0.4489
 9485SOL    HW140088   1.623   0.735   8.670  0.3666 -0.1226 -0.4963
 9485SOL    HW240089   1.555   0.647   8.587  1.0773 -0.2661  1.8477
 9486SOL     OW40090   3.630   2.772  17.456  0.0453  0.1069 -0.3243
 9486SOL    HW140091   3.596   2.702  17.399  1.9462 -0.6394 -0.5367
 9486SOL    HW240092   3.715   2.800  17.423  0.4158 -0.5103  0.1144
 9487SOL     OW40093   1.917   0.530  14.914  0.4500 -0.3307 -0.0067
 9487SOL    HW140094   1.872   0.450  14.886  0.4154 -0.2229 -0.2529
 9487SOL    HW240095   1.992   0.530  14.855 -0.1115 -1.0816 -0.7324
 9488SOL     OW40096   1.601   4.311   3.588  0.0924 -0.1798  0.0226
 9488SOL    HW140097   1.599   4.225   3.547 -2.4074  0.0467 -0.2894
 9488SOL    HW240098   1.693   4.331   3.570  0.4653 -1.1606  0.8673
 9489SOL     OW40099   2.683   1.950   4.307  0.1157 -0.0226  0.5270
 9489SOL    HW140100   2.728   1.979   4.228  1.3996 -1.0107  0.8930
 9489SOL    HW240101   2.735   1.999   4.370 -0.2488  0.1502  0.6918
 9490SOL     OW40102   3.176   4.399  11.741 -0.1785  0.3376  0.0077
 9490SOL    HW140103   3.198   4.371  11.830 -1.3643  1.1200  0.5456
 9490SOL    HW240104   3.248   4.457  11.716 -2.2413  2.0874 -1.9016
 9491SOL     OW40105   0.532   1.721   5.851  0.6180  0.7059  0.0414
 9491SOL    HW140106   0.485   1.646   5.888  0.7268  2.0847  2.9528
 9491SOL    HW240107   0.607   1.687   5.802 -0.1328 -1.8731  0.6533
 9492SOL     OW40108   3.355   2.046   7.096  0.4700 -0.2799 -0.2321
 9492SOL    HW140109   3.433   2.079   7.140  0.4514  0.7886 -0.9989
 9492SOL    HW240110   3.288   2.103   7.135  0.5671 -0.7441  0.6163
 9493SOL     OW40111   0.672   4.309   4.871 -0.5741  0.3111 -0.5695
 9493SOL    HW140112   0.708   4.224   4.897  1.8615  1.1783 -1.1281
 9493SOL    HW240113   0.591   4.280   4.828  0.4090 -0.8860 -1.6140
 9494SOL     OW40114   3.747   2.091   2.319  0.1018 -0.2330  0.2418
 9494SOL    HW140115   3.695   2.157   2.365 -0.6451  0.3285 -1.3980
 9494SOL    HW240116   3.691   2.014   2.322 -2.4949  1.7302  2.7086
 9495SOL     OW40117   2.209   2.935   3.642  0.1838 -0.1069  0.3647
 9495SOL    HW140118   2.137   2.980   3.687 -2.2782 -2.3442 -1.3073
 9495SOL    HW240119   2.209   2.981   3.558  1.1856 -1.6629 -0.4836
 9496SOL     OW40120   4.547   3.110   4.589  0.0629  0.1339  0.8624
 9496SOL    HW140121   4.559   3.183   4.528  3.4753  0.7790  2.2863
 9496SOL    HW240122   4.467   3.130   4.636 -1.7004 -1.4135 -1.4696
 9497SOL     OW40123   3.030   2.996   3.570  0.4343 -0.0175 -0.1339
 9497SOL    HW140124   3.064   2.906   3.567 -0.5584 -0.4024  0.2154
 9497SOL    HW240125   2.999   3.015   3.482  1.1298 -1.0963 -0.6114
 9498SOL     OW40126   3.265   0.403   7.885  0.4124  1.0243 -0.5877
 9498SOL    HW140127   3.265   0.380   7.978  2.4537 -0.0551 -0.8445
 9498SOL    HW240128   3.306   0.326   7.844 -0.6709 -0.5774  1.3496
 9499SOL     OW40129   3.932   1.926   5.872  0.0907 -0.3770  0.3187
 9499SOL    HW140130   3.981   2.003   5.845  0.1236 -0.8042 -0.8271
 9499SOL    HW240131   3.952   1.862   5.804  0.4213 -1.7149  1.6588
 9500SOL     OW40132   3.159   4.038  16.577 -0.4673  0.1567 -0.3569
 9500SOL    HW140133   3.164   3.972  16.508  3.3552 -0.3141  0.3733
 9500SOL    HW240134   3.078   4.010  16.620 -0.0401  0.9630  0.9754
 9501SOL     OW40135   2.397   0.173   3.123 -0.6004 -0.0009 -0.1813
 9501SOL    HW140136   2.335   0.132   3.062  1.6368 -0.5410 -2.0837
 9501SOL    HW240137   2.341   0.181   3.200  0.7391  1.7232  0.6187
 9502SOL     OW40138   0.718   0.418   6.944 -0.5129  0.7438 -0.3972
 9502SOL    HW140139   0.718   0.393   7.036 -0.3990  1.2463 -0.2641
 9502SOL    HW240140   0.809   0.446   6.940  0.0365 -1.1575 -1.2325
 9503SOL     OW40141   3.567   0.936   3.208  0.2053 -0.1676 -0.3312
 9503SOL    HW140142   3.589   1.023   3.241 -0.2062  0.6262 -2.1476
 9503SOL    HW240143   3.490   0.915   3.262  0.1544  3.3019  1.0000
 9504SOL     OW40144   0.982   3.673   0.457  0.0563  0.6312  0.1716
 9504SOL    HW140145   1.074   3.670   0.431 -0.6788 -1.2910 -2.2418
 9504SOL    HW240146   0.959   3.581   0.461 -3.1702  1.2162 -4.4485
 9505SOL     OW40147   4.389   3.012   9.002  0.1455  0.4691  0.2925
 9505SOL    HW140148   4.316   3.059   9.043  0.9650  1.2545  0.8508
 9505SOL    HW240149   4.430   3.083   8.953  0.0046 -0.4867 -1.2030
 9506SOL     OW40150   1.304   0.986  15.260  0.3093  0.4659 -0.4408
 9506SOL    HW140151   1.254   1.003  15.181  0.0209  1.5623 -0.0136
 9506SOL    HW240152   1.252   0.916  15.300 -0.8259  2.9325  2.3617
 9507SOL     OW40153   4.565   2.306   1.547  0.3107  0.3743 -0.6341
 9507SOL    HW140154   4.617   2.322   1.468  0.3788  1.5413 -0.3410
 9507SOL    HW240155   4.532   2.395   1.555 -0.2499  0.2626 -1.7610
 9508SOL     OW40156   1.800   0.795  17.690  0.3945  0.1118 -0.0165
 9508SOL    HW140157   1.894   0.797  17.669 -0.0077 -1.9646 -2.0269
 9508SOL    HW240158   1.794   0.728   0.019  0.2193 -1.7624 -1.8780
 9509SOL     OW40159   4.214   4.642   9.315 -0.7314 -0.5537  0.1232
 9509SOL    HW140160   4.268   4.716   9.343 -0.7702 -1.0066  1.3725
 9509SOL    HW240161   4.145   4.694   9.274 -0.2099  1.1463  1.3801
 9510SOL     OW40162   3.818   0.300   4.434  0.0979  0.1528  0.5468
 9510SOL    HW140163   3.780   0.234   4.375  0.7920 -0.2285  0.5313
 9510SOL    HW240164   3.742   0.340   4.477  1.0462  2.4149  0.0888
 9511SOL     OW40165   1.633   1.194   3.863  0.1555  0.2793 -0.0368
 9511SOL    HW140166   1.714   1.157   3.828 -1.1212 -1.7260 -0.8469
 9511SOL    HW240167   1.578   1.117   3.852 -0.0342  0.3456  0.4610
 9512SOL     OW40168   2.814   0.193   2.668 -0.0403 -0.1996  0.0969
 9512SOL    HW140169   2.734   0.148   2.696  1.3044 -1.5244  1.7564
 9512SOL    HW240170   2.854   0.122   2.617  0.2197  0.3122 -0.4142
 9513SOL     OW40171   3.295   2.197  14.073  0.0342 -0.1248  0.0271
 9513SOL    HW140172   3.310   2.155  14.158  1.4699 -0.6145 -0.4690
 9513SOL    HW240173   3.210   2.153  14.068  0.2265 -0.9448  4.0702
 9514SOL     OW40174   1.648   1.112  15.643 -0.1213 -0.1934  0.0959
 9514SOL    HW140175   1.685   1.024  15.637  0.6189  0.1830 -0.8245
 9514SOL    HW240176   1.560   1.101  15.607  0.2019  0.9647 -1.0385
 9515SOL     OW40177   2.673   2.256   8.068  0.8287  0.1322 -0.2465
 9515SOL    HW140178   2.590   2.285   8.029  1.0818  0.0027 -0.8794
 9515SOL    HW240179   2.646   2.173   8.109  1.4651  0.4800  0.8727
 9516SOL     OW40180   2.739   0.964  16.095 -0.2350  0.7240  0.3952
 9516SOL    HW140181   2.830   0.967  16.064  0.3873 -0.4805  2.1176
 9516SOL    HW240182   2.708   0.881  16.059 -1.0005  0.6598  1.2042
 9517SOL     OW40183   2.027   0.185   9.960 -0.1158  0.2105 -0.3391
 9517SOL    HW140184   2.076   0.214   9.882  0.9178 -5.0959 -1.6868
 9517SOL    HW240185   1.941   0.174   9.920  0.4313  0.7414 -1.6747
 9518SOL     OW40186   4.421   0.419   1.115 -0.6838 -0.4035 -0.2508
 9518SOL    HW140187   4.403   0.454   1.028  0.3949 -0.9682 -0.7003
 9518SOL    HW240188   4.445   0.502   1.155 -0.6984 -0.4694 -0.1053
 9519SOL     OW40189   2.511   0.713   4.481 -0.3075 -0.6919  0.1985
 9519SOL    HW140190   2.418   0.688   4.479 -0.3560 -0.5337  0.5188
 9519SOL    HW240191   2.549   0.666   4.407  1.0452  0.3936  0.2110
 9520SOL     OW40192   3.245   0.173   2.065  0.7396 -0.2732  0.0621
 9520SOL    HW140193   3.206   0.166   1.978  0.7363  1.7990 -0.0980
 9520SOL    HW240194   3.173   0.195   2.124 -0.5049 -0.7194 -1.2804
 9521SOL     OW40195   2.840   3.970   5.841  0.0235  0.1333 -0.5745
 9521SOL    HW140196   2.825   3.907   5.912  1.5975 -1.4481 -1.6213
 9521SOL    HW240197   2.756   4.011   5.825 -0.2625 -0.4759 -0.6526
 9522SOL     OW40198   4.035   4.210   7.519 -0.5318  0.1857  0.3351
 9522SOL    HW140199   3.969   4.237   7.583 -0.6983 -1.6698  0.9320
 9522SOL    HW240200   3.987   4.170   7.447 -0.6615  1.9388 -0.5620
 9523SOL     OW40201   2.850   1.824   6.625 -0.1300 -0.1297  0.3128
 9523SOL    HW140202   2.858   1.779   6.709 -0.1464 -1.3946 -0.3600
 9523SOL    HW240203   2.920   1.775   6.582  0.0112  0.6520 -0.3419
 9524SOL     OW40204   2.354   0.661  13.795  0.2625 -0.2782  0.0059
 9524SOL    HW140205   2.336   0.705  13.712 -0.9935  1.4041  1.1494
 9524SOL    HW240206   2.265   0.627  13.804 -0.0287 -0.2808 -2.9977
 9525SOL     OW40207   3.236   2.548  17.682  0.0798 -0.5089 -0.3039
 9525SOL    HW140208   3.233   2.632  17.729 -1.0762 -0.7465  0.0512
 9525SOL    HW240209   3.144   2.539  17.658  0.6060 -2.6190 -1.4292
 9526SOL     OW40210   1.394   2.403  10.121 -0.0346 -1.0250 -0.0800
 9526SOL    HW140211   1.363   2.469  10.182  0.0769 -1.0552  0.0102
 9526SOL    HW240212   1.312   2.392  10.073  0.2022 -0.1303 -0.6852
 9527SOL     OW40213   4.107   0.304   4.189 -0.2798  0.1381  0.1886
 9527SOL    HW140214   4.130   0.396   4.178  0.9576 -0.0936  0.8381
 9527SOL    HW240215   4.166   0.263   4.126  2.1136  1.8052  1.3610
 9528SOL     OW40216   0.937   1.605   4.627 -0.0395 -0.0304  0.4001
 9528SOL    HW140217   0.940   1.607   4.723 -1.0326  0.5553  0.4171
 9528SOL    HW240218   0.951   1.511   4.617  0.1642  0.3591 -2.7806
 9529SOL     OW40219   1.573   3.728   5.345  0.3121 -0.3056  0.0626
 9529SOL    HW140220   1.540   3.658   5.289 -2.1168  0.9402 -0.0503
 9529SOL    HW240221   1.665   3.736   5.318 -0.1651  0.1730 -1.4059
 9530SOL     OW40222   2.205   3.874  13.183 -0.1401 -0.0820 -0.2313
 9530SOL    HW140223   2.252   3.955  13.202 -0.8624  0.1225  0.7294
 9530SOL    HW240224   2.168   3.857  13.270  0.1422  2.1034  0.3187
 9531SOL     OW40225   3.684   1.166   3.542 -0.1439 -0.2202  0.4849
 9531SOL    HW140226   3.746   1.217   3.595 -1.5786  1.4877  0.5061
 9531SOL    HW240227   3.739   1.088   3.548  2.1589  1.2457 -1.3659
 9532SOL     OW40228   2.468   0.171   2.833  0.1311 -0.3804  0.5632
 9532SOL    HW140229   2.501   0.133   2.914  0.8360  2.0407  1.4103
 9532SOL    HW240230   2.374   0.153   2.833 -0.0911  0.8652  3.0279
 9533SOL     OW40231   0.248   1.188   3.859  0.2104  0.2426  0.1128
 9533SOL    HW140232   0.172   1.240   3.887  0.6462  0.0742  1.6165
 9533SOL    HW240233   0.221   1.108   3.904 -0.3812  0.2230 -0.2655
 9534SOL     OW40234   2.632   1.203   9.643 -0.1990 -0.5422 -0.0233
 9534SOL    HW140235   2.579   1.154   9.705  0.8460  0.1179  1.3921
 9534SOL    HW240236   2.588   1.286   9.624  3.6295  1.4889 -0.0715
 9535SOL     OW40237   3.658   0.956   1.081 -0.0354  0.4104  0.6779
 9535SOL    HW140238   3.592   0.931   1.145 -0.0799  1.6041  1.1093
 9535SOL    HW240239   3.704   1.017   1.139  0.7001  1.2915 -0.8234
 9536SOL     OW40240   2.940   2.371   4.454 -0.6448 -0.6206 -0.1609
 9536SOL    HW140241   2.936   2.459   4.416 -0.4261 -0.2797  0.6167
 9536SOL    HW240242   3.013   2.374   4.515  0.0671  0.6864 -1.0660
 9537SOL     OW40243   3.865   4.387  11.266 -0.5410 -0.5286  0.1881
 9537SOL    HW140244   3.883   4.467  11.317  1.0408 -0.9790  0.3260
 9537SOL    HW240245   3.909   4.411  11.185  0.8235  1.4401  1.4915
 9538SOL     OW40246   0.896   2.623  12.255  0.3697 -0.1412  0.1055
 9538SOL    HW140247   0.934   2.567  12.187 -0.7111 -0.7429  0.0010
 9538SOL    HW240248   0.812   2.639  12.211 -0.5120  2.0786  2.5897
 9539SOL     OW40249   4.577   0.556  10.572 -0.1283 -0.2015  0.3256
 9539SOL    HW140250   4.562   0.537  10.480  2.0268  1.5828 -0.3822
 9539SOL    HW240251   4.600   0.467  10.599  1.5130  1.3561  4.0002
 9540SOL     OW40252   0.766   0.602   8.866 -0.1272  0.2598  0.0046
 9540SOL    HW140253   0.704   0.530   8.877  1.5032 -0.8965  1.7000
 9540SOL    HW240254   0.831   0.582   8.933 -0.6253 -1.1883  0.0676
 9541SOL     OW40255   3.123   2.186   1.452 -0.0207 -0.1602 -0.3210
 9541SOL    HW140256   3.202   2.177   1.400  0.3293  0.5901  0.0888
 9541SOL    HW240257   3.147   2.246   1.522 -0.8003  1.4986 -1.4689
 9542SOL     OW40258   3.708   2.567  13.420 -0.4262  0.2056  0.1538
 9542SOL    HW140259   3.671   2.577  13.332  0.3838 -2.1755 -0.4514
 9542SOL    HW240260   3.626   2.584  13.466 -0.4480  2.0511 -0.5949
 9543SOL     OW40261   1.422   1.002  15.522  0.2439  0.1723 -0.0223
 9543SOL    HW140262   1.382   0.929  15.568 -0.2872  1.1493  1.0646
 9543SOL    HW240263   1.368   1.016  15.444  0.6789 -0.6439 -0.4681
 9544SOL     OW40264   1.785   3.714   7.094 -0.4249  0.2295  0.2382
 9544SOL    HW140265   1.745   3.762   7.021 -1.5705 -0.1365  0.6275
 9544SOL    HW240266   1.869   3.689   7.055 -0.8572  0.2356 -0.6848
 9545SOL     OW40267   2.505   1.242   5.740 -0.1453  0.1879  0.0878
 9545SOL    HW140268   2.448   1.175   5.702  0.5497 -0.9143  1.0195
 9545SOL    HW240269   2.437   1.288   5.789 -1.3173 -1.4828  0.0191
 9546SOL     OW40270   4.142   2.484   8.801  0.2162  0.8354 -0.4918
 9546SOL    HW140271   4.216   2.445   8.848 -2.2576 -0.1155  2.5841
 9546SOL    HW240272   4.171   2.575   8.801  2.5162  0.1091 -3.5301
 9547SOL     OW40273   1.177   4.530   4.424 -0.0995 -0.1950  0.0620
 9547SOL    HW140274   1.189   4.609   4.371  0.5895 -1.1717 -1.2266
 9547SOL    HW240275   1.268   4.516   4.448  0.1612  2.4372  0.5903
 9548SOL     OW40276   2.292   1.058  13.635 -0.3754  0.5098  0.0275
 9548SOL    HW140277   2.297   1.086  13.543  1.4275 -0.2677 -0.1039
 9548SOL    HW240278   2.318   1.141  13.676 -1.2940  0.4818  0.6750
 9549SOL     OW40279   4.575   0.897   0.419 -0.2628 -0.0924  0.0788
 9549SOL    HW140280   4.499   0.937   0.461  1.0716  1.0101  1.4479
 9549SOL    HW240281   4.585   0.941   0.335  1.7370  1.8551  1.3274
 9550SOL     OW40282   2.887   1.547   1.487  0.2770 -0.1296  0.2566
 9550SOL    HW140283   2.935   1.474   1.449 -0.2747 -0.8686  1.0077
 9550SOL    HW240284   2.813   1.509   1.534 -0.4409  2.3092  1.1076
 9551SOL     OW40285   3.724   0.077   5.862 -0.3806  0.1524 -0.1571
 9551SOL    HW140286   3.786   0.137   5.904  1.5900 -1.0717 -1.2811
 9551SOL    HW240287   3.666   0.052   5.934  0.3543 -0.9744  0.0443
 9552SOL     OW40288   2.115   2.051   7.358 -0.8927 -0.3393 -0.7954
 9552SOL    HW140289   2.053   2.048   7.286 -0.2935  0.0139 -1.3312
 9552SOL    HW240290   2.060   2.045   7.436  0.5541  2.0122  0.4104
 9553SOL     OW40291   0.571   0.569   4.744 -0.0329  0.5630 -0.5097
 9553SOL    HW140292   0.533   0.497   4.694  1.9544 -1.5625  1.0097
 9553SOL    HW240293   0.595   0.519   4.822  1.5186  1.6579 -0.2937
 9554SOL     OW40294   0.788   1.371   8.241 -0.3050 -0.1341 -0.5287
 9554SOL    HW140295   0.722   1.401   8.179 -0.8433  0.8842  0.5432
 9554SOL    HW240296   0.872   1.375   8.195 -0.2652 -0.8274 -0.5274
 9555SOL     OW40297   3.549   4.042   6.830 -0.4329  0.4025  0.3725
 9555SOL    HW140298   3.502   3.964   6.858  1.8102 -0.9364  0.4130
 9555SOL    HW240299   3.539   4.029   6.736  1.6955 -1.1942  0.3721
 9556SOL     OW40300   1.020   4.119   0.824 -0.3272 -0.2062  0.1708
 9556SOL    HW140301   1.073   4.135   0.902  0.3806 -0.6364 -0.2175
 9556SOL    HW240302   1.065   4.046   0.780  0.6684 -0.1116  1.0362
 9557SOL     OW40303   2.122   0.373   9.425 -0.2229  0.5316 -0.6620
 9557SOL    HW140304   2.198   0.409   9.472  0.5155 -0.4485 -1.1101
 9557SOL    HW240305   2.090   0.326   9.503  1.0399 -1.4903 -1.3642
 9558SOL     OW40306   2.208   2.783   4.977 -0.2448  0.1996  0.1877
 9558SOL    HW140307   2.228   2.825   5.060 -2.7958  1.0049  0.4137
 9558SOL    HW240308   2.277   2.717   4.971  0.0516  0.3948  1.4341
 9559SOL     OW40309   0.316   1.583  13.280 -0.1317 -0.2553 -0.2329
 9559SOL    HW140310   0.371   1.661  13.272 -2.3741  1.2838 -0.7301
 9559SOL    HW240311   0.303   1.582  13.185 -0.5084  0.1855 -0.1843
 9560SOL     OW40312   0.053   2.648   0.897 -0.4296  0.5236 -0.4905
 9560SOL    HW140313   0.143   2.660   0.925  0.1724  0.2277 -2.3172
 9560SOL    HW240314   0.070   2.590   0.823 -0.1759  0.7208 -0.5847
 9561SOL     OW40315   3.050   3.903  13.937 -0.1386 -0.5873  0.2977
 9561SOL    HW140316   3.107   3.978  13.920  1.5867 -1.6993  1.2274
 9561SOL    HW240317   3.104   3.851  13.996  0.5534  0.8969  0.9453
 9562SOL     OW40318   2.968   0.157   9.081 -0.3772 -0.0503 -0.2970
 9562SOL    HW140319   2.947   0.065   9.098 -0.4587  0.1869  0.8884
 9562SOL    HW240320   2.953   0.193   9.168 -2.2749 -0.7611 -0.3285
 9563SOL     OW40321   0.211   1.672   6.532 -0.5469  0.6175 -0.2789
 9563SOL    HW140322   0.120   1.652   6.509  0.3707 -2.6455 -0.9949
 9563SOL    HW240323   0.199   1.755   6.578  0.3992  0.9427 -0.6239
 9564SOL     OW40324   2.454   1.192   8.398 -0.1688  0.2610 -0.1029
 9564SOL    HW140325   2.548   1.206   8.390 -0.0560 -0.6413 -0.3326
 9564SOL    HW240326   2.437   1.135   8.323  0.3365  1.0228 -0.7995
 9565SOL     OW40327   4.326   4.043   9.521 -0.4875 -0.6615 -0.2161
 9565SOL    HW140328   4.282   4.066   9.603  0.8993  1.7036 -0.1501
 9565SOL    HW240329   4.307   3.951   9.505 -0.3700 -0.5173 -1.1663
 9566SOL     OW40330   2.252   3.166   7.429  0.5761 -0.0263 -0.4170
 9566SOL    HW140331   2.164   3.202   7.432  0.5329 -0.2360  1.2323
 9566SOL    HW240332   2.267   3.175   7.335  1.0455 -1.0179 -0.4433
 9567SOL     OW40333   0.754   1.362   9.509  0.4801 -0.3015  0.0303
 9567SOL    HW140334   0.721   1.452   9.518  2.4262  0.6311 -2.0024
 9567SOL    HW240335   0.752   1.347   9.414  1.3036  0.1077 -0.0589
 9568SOL     OW40336   1.841   1.899  10.259  0.0881  0.1286 -0.2857
 9568SOL    HW140337   1.931   1.928  10.245  0.1992  0.4605  1.0894
 9568SOL    HW240338   1.847   1.814  10.215  0.4415  0.1520 -0.2827
 9569SOL     OW40339   1.870   1.605  13.249  0.0018 -0.6617 -0.1486
 9569SOL    HW140340   1.933   1.571  13.186  0.6157 -1.0790  0.7054
 9569SOL    HW240341   1.904   1.694  13.247  3.3845 -2.0485 -2.5979
 9570SOL     OW40342   3.472   2.886  11.762 -0.0999  0.3127  0.1288
 9570SOL    HW140343   3.450   2.794  11.776 -2.2221  0.7275 -0.5835
 9570SOL    HW240344   3.438   2.897  11.673  1.3772  0.5513 -0.4052
 9571SOL     OW40345   1.995   1.417   9.291 -0.3180 -0.3858  0.4012
 9571SOL    HW140346   1.976   1.440   9.382  2.1139 -0.1336  0.8632
 9571SOL    HW240347   1.918   1.459   9.255  0.4267 -0.0818 -0.8219
   4.73504   4.73504  17.73905
